 Entering Gaussian System, Link 0=g16
 Initial command:
 /ichec/packages/gaussian/16b01/l1.exe "/localscratch/339542/Gau-93146.inp" -scrdir="/localscratch/339542/"
 Entering Link 1 = /ichec/packages/gaussian/16b01/l1.exe PID=     93147.
  
 Copyright (c) 1988-2017, Gaussian, Inc.  All Rights Reserved.
  
 This is part of the Gaussian(R) 16 program.  It is based on
 the Gaussian(R) 09 system (copyright 2009, Gaussian, Inc.),
 the Gaussian(R) 03 system (copyright 2003, Gaussian, Inc.),
 the Gaussian(R) 98 system (copyright 1998, Gaussian, Inc.),
 the Gaussian(R) 94 system (copyright 1995, Gaussian, Inc.),
 the Gaussian 92(TM) system (copyright 1992, Gaussian, Inc.),
 the Gaussian 90(TM) system (copyright 1990, Gaussian, Inc.),
 the Gaussian 88(TM) system (copyright 1988, Gaussian, Inc.),
 the Gaussian 86(TM) system (copyright 1986, Carnegie Mellon
 University), and the Gaussian 82(TM) system (copyright 1983,
 Carnegie Mellon University). Gaussian is a federally registered
 trademark of Gaussian, Inc.
  
 This software contains proprietary and confidential information,
 including trade secrets, belonging to Gaussian, Inc.
  
 This software is provided under written license and may be
 used, copied, transmitted, or stored only in accord with that
 written license.
  
 The following legend is applicable only to US Government
 contracts under FAR:
  
                    RESTRICTED RIGHTS LEGEND
  
 Use, reproduction and disclosure by the US Government is
 subject to restrictions as set forth in subparagraphs (a)
 and (c) of the Commercial Computer Software - Restricted
 Rights clause in FAR 52.227-19.
  
 Gaussian, Inc.
 340 Quinnipiac St., Bldg. 40, Wallingford CT 06492
  
  
 ---------------------------------------------------------------
 Warning -- This program may not be used in any manner that
 competes with the business of Gaussian, Inc. or will provide
 assistance to any competitor of Gaussian, Inc.  The licensee
 of this program is prohibited from giving any competitor of
 Gaussian, Inc. access to this program.  By using this program,
 the user acknowledges that Gaussian, Inc. is engaged in the
 business of creating and licensing software in the field of
 computational chemistry and represents and warrants to the
 licensee that it is not a competitor of Gaussian, Inc. and that
 it will not use this program in any manner prohibited above.
 ---------------------------------------------------------------
  

 Cite this work as:
 Gaussian 16, Revision B.01,
 M. J. Frisch, G. W. Trucks, H. B. Schlegel, G. E. Scuseria, 
 M. A. Robb, J. R. Cheeseman, G. Scalmani, V. Barone, 
 G. A. Petersson, H. Nakatsuji, X. Li, M. Caricato, A. V. Marenich, 
 J. Bloino, B. G. Janesko, R. Gomperts, B. Mennucci, H. P. Hratchian, 
 J. V. Ortiz, A. F. Izmaylov, J. L. Sonnenberg, D. Williams-Young, 
 F. Ding, F. Lipparini, F. Egidi, J. Goings, B. Peng, A. Petrone, 
 T. Henderson, D. Ranasinghe, V. G. Zakrzewski, J. Gao, N. Rega, 
 G. Zheng, W. Liang, M. Hada, M. Ehara, K. Toyota, R. Fukuda, 
 J. Hasegawa, M. Ishida, T. Nakajima, Y. Honda, O. Kitao, H. Nakai, 
 T. Vreven, K. Throssell, J. A. Montgomery, Jr., J. E. Peralta, 
 F. Ogliaro, M. J. Bearpark, J. J. Heyd, E. N. Brothers, K. N. Kudin, 
 V. N. Staroverov, T. A. Keith, R. Kobayashi, J. Normand, 
 K. Raghavachari, A. P. Rendell, J. C. Burant, S. S. Iyengar, 
 J. Tomasi, M. Cossi, J. M. Millam, M. Klene, C. Adamo, R. Cammi, 
 J. W. Ochterski, R. L. Martin, K. Morokuma, O. Farkas, 
 J. B. Foresman, and D. J. Fox, Gaussian, Inc., Wallingford CT, 2016.
 
 ******************************************
 Gaussian 16:  ES64L-G16RevB.01 20-Dec-2017
                31-May-2019 
 ******************************************
 %mem=80GB
 %nproc=40
 Will use up to   40 processors via shared memory.
 -----------------------------------------------
 # opt=maxcyc=500 freq=noraman uB2PLYPD3/cc-pvtz
 -----------------------------------------------
 1/6=500,18=20,19=15,38=1/1,3;
 2/9=110,12=2,17=6,18=5,40=1/2;
 3/5=16,6=1,11=2,25=1,30=1,71=1,74=-60,116=2/1,2,3;
 4//1;
 5/5=2,38=5/2;
 8/6=4,10=1/1;
 9/15=2,16=-3/6;
 10/5=1/2;
 6/7=2,8=2,9=2,10=2/1;
 7/12=2/1,2,3,16;
 1/6=500,18=20,19=15/3(2);
 2/9=110/2;
 99//99;
 2/9=110/2;
 3/5=16,6=1,11=2,25=1,30=1,71=1,74=-60,116=2/1,2,3;
 4/5=5,16=3,69=1/1;
 5/5=2,38=5/2;
 8/6=4,10=1/1;
 9/15=2,16=-3/6;
 10/5=1/2;
 7/12=2/1,2,3,16;
 1/6=500,18=20,19=15/3(-8);
 2/9=110/2;
 6/7=2,8=2,9=2,10=2/1;
 99/9=10/99;
 -------------------
 Title Card Required
 -------------------
 Symbolic Z-matrix:
 Charge =  0 Multiplicity = 2
 C                    -2.77439  -0.0586    0.36862 
 C                    -1.44848  -0.0586    0.36862 
 H                    -3.36798   0.86544   0.36862 
 H                    -0.85489  -0.98264   0.3686 
 C                    -0.6161    1.23707   0.36866 
 C                     0.70981   1.23702   0.36866 
 H                    -1.20968   2.1611    0.36871 
 H                     1.30343   2.16104   0.3687 
 H                     1.3034    0.31298   0.36861 
 

 GradGradGradGradGradGradGradGradGradGradGradGradGradGradGradGradGradGrad
 Berny optimization.
 Initialization pass.
                           ----------------------------
                           !    Initial Parameters    !
                           ! (Angstroms and Degrees)  !
 --------------------------                            --------------------------
 ! Name  Definition              Value          Derivative Info.                !
 --------------------------------------------------------------------------------
 ! R1    R(1,2)                  1.3259         estimate D2E/DX2                !
 ! R2    R(1,3)                  1.0983         estimate D2E/DX2                !
 ! R3    R(2,4)                  1.0983         estimate D2E/DX2                !
 ! R4    R(2,5)                  1.54           estimate D2E/DX2                !
 ! R5    R(5,6)                  1.3259         estimate D2E/DX2                !
 ! R6    R(5,7)                  1.0983         estimate D2E/DX2                !
 ! R7    R(6,8)                  1.0983         estimate D2E/DX2                !
 ! R8    R(6,9)                  1.0983         estimate D2E/DX2                !
 ! A1    A(2,1,3)              122.7159         estimate D2E/DX2                !
 ! A2    A(1,2,4)              122.7159         estimate D2E/DX2                !
 ! A3    A(1,2,5)              122.718          estimate D2E/DX2                !
 ! A4    A(4,2,5)              114.5661         estimate D2E/DX2                !
 ! A5    A(2,5,6)              122.7159         estimate D2E/DX2                !
 ! A6    A(2,5,7)              114.5661         estimate D2E/DX2                !
 ! A7    A(6,5,7)              122.718          estimate D2E/DX2                !
 ! A8    A(5,6,8)              122.7159         estimate D2E/DX2                !
 ! A9    A(5,6,9)              122.718          estimate D2E/DX2                !
 ! A10   A(8,6,9)              114.5661         estimate D2E/DX2                !
 ! D1    D(3,1,2,4)           -179.9988         estimate D2E/DX2                !
 ! D2    D(3,1,2,5)              0.0016         estimate D2E/DX2                !
 ! D3    D(1,2,5,6)            180.0            estimate D2E/DX2                !
 ! D4    D(1,2,5,7)              0.0013         estimate D2E/DX2                !
 ! D5    D(4,2,5,6)              0.0004         estimate D2E/DX2                !
 ! D6    D(4,2,5,7)           -179.9983         estimate D2E/DX2                !
 ! D7    D(2,5,6,8)           -179.9988         estimate D2E/DX2                !
 ! D8    D(2,5,6,9)              0.0016         estimate D2E/DX2                !
 ! D9    D(7,5,6,8)             -0.0002         estimate D2E/DX2                !
 ! D10   D(7,5,6,9)           -179.9998         estimate D2E/DX2                !
 --------------------------------------------------------------------------------
 Trust Radius=3.00D-01 FncErr=1.00D-07 GrdErr=1.00D-07 EigMax=2.50D+02 EigMin=1.00D-04
 Number of steps in this run=    100 maximum allowed number of steps=    100.
 GradGradGradGradGradGradGradGradGradGradGradGradGradGradGradGradGradGrad

                          Input orientation:                          
 ---------------------------------------------------------------------
 Center     Atomic      Atomic             Coordinates (Angstroms)
 Number     Number       Type             X           Y           Z
 ---------------------------------------------------------------------
      1          6           0       -2.774395   -0.058600    0.368621
      2          6           0       -1.448479   -0.058600    0.368621
      3          1           0       -3.367980    0.865438    0.368621
      4          1           0       -0.854894   -0.982638    0.368602
      5          6           0       -0.616102    1.237065    0.368657
      6          6           0        0.709814    1.237018    0.368657
      7          1           0       -1.209685    2.161101    0.368705
      8          1           0        1.303432    2.161035    0.368702
      9          1           0        1.303397    0.312983    0.368605
 ---------------------------------------------------------------------
                    Distance matrix (angstroms):
                    1          2          3          4          5
     1  C    0.000000
     2  C    1.325916   0.000000
     3  H    1.098267   2.130336   0.000000
     4  H    2.130336   1.098267   3.119453   0.000000
     5  C    2.517335   1.540000   2.776858   2.232511   0.000000
     6  C    3.717302   2.517311   4.094688   2.715729   1.325916
     7  H    2.715766   2.232508   2.517335   3.163695   1.098263
     8  H    4.642785   3.535505   4.847748   3.813273   2.130336
     9  H    4.094687   2.776850   4.703931   2.517311   2.130353
                    6          7          8          9
     6  C    0.000000
     7  H    2.130353   0.000000
     8  H    1.098267   2.513117   0.000000
     9  H    1.098263   3.119474   1.848052   0.000000
 Stoichiometry    C4H5(2)
 Framework group  C1[X(C4H5)]
 Deg. of freedom    21
 Full point group                 C1      NOp   1
 Largest Abelian subgroup         C1      NOp   1
 Largest concise Abelian subgroup C1      NOp   1
                         Standard orientation:                         
 ---------------------------------------------------------------------
 Center     Atomic      Atomic             Coordinates (Angstroms)
 Number     Number       Type             X           Y           Z
 ---------------------------------------------------------------------
      1          6           0        1.952634   -0.045782   -0.000020
      2          6           0        0.726835    0.459659   -0.000020
      3          1           0        2.149154   -1.126323   -0.000020
      4          1           0        0.530314    1.540200   -0.000039
      5          6           0       -0.536600   -0.420871    0.000017
      6          6           0       -1.762381    0.084614    0.000017
      7          1           0       -0.340080   -1.501408    0.000065
      8          1           0       -2.663412   -0.543345    0.000062
      9          1           0       -1.958901    1.165151   -0.000035
 ---------------------------------------------------------------------
 Rotational constants (GHZ):          40.9618637           4.6436634           4.1708346
 Standard basis: CC-pVTZ (5D, 7F)
 There are   215 symmetry adapted cartesian basis functions of A   symmetry.
 There are   190 symmetry adapted basis functions of A   symmetry.
   190 basis functions,   293 primitive gaussians,   215 cartesian basis functions
    15 alpha electrons       14 beta electrons
       nuclear repulsion energy        95.6594232437 Hartrees.
 NAtoms=    9 NActive=    9 NUniq=    9 SFac= 1.00D+00 NAtFMM=   60 NAOKFM=F Big=F
 Integral buffers will be    131072 words long.
 Raffenetti 2 integral format.
 Two-electron integral symmetry is turned on.
 Nuclear repulsion after empirical dispersion term =       95.6550132403 Hartrees.
 One-electron integrals computed using PRISM.
 NBasis=   190 RedAO= T EigKep=  3.80D-04  NBF=   190
 NBsUse=   190 1.00D-06 EigRej= -1.00D+00 NBFU=   190
 ExpMin= 1.03D-01 ExpMax= 8.24D+03 ExpMxC= 2.81D+02 IAcc=3 IRadAn=         5 AccDes= 0.00D+00
 Harris functional with IExCor=  419 and IRadAn=       5 diagonalized for initial guess.
 HarFok:  IExCor=  419 AccDes= 0.00D+00 IRadAn=         5 IDoV= 1 UseB2=F ITyADJ=14
 ICtDFT=  3500011 ScaDFX=  1.000000  1.000000  1.000000  1.000000
 FoFCou: FMM=F IPFlag=           0 FMFlag=      100000 FMFlg1=           0
         NFxFlg=           0 DoJE=T BraDBF=F KetDBF=T FulRan=T
         wScrn=  0.000000 ICntrl=       500 IOpCl=  0 I1Cent=   200000004 NGrid=           0
         NMat0=    1 NMatS0=      1 NMatT0=    0 NMatD0=    1 NMtDS0=    0 NMtDT0=    0
 Petite list used in FoFCou.
 Initial guess <Sx>= 0.0000 <Sy>= 0.0000 <Sz>= 0.5000 <S**2>= 0.7500 S= 0.5000
 Keep R1 and R2 ints in memory in canonical form, NReq=370972403.
 Requested convergence on RMS density matrix=1.00D-08 within 128 cycles.
 Requested convergence on MAX density matrix=1.00D-06.
 Requested convergence on             energy=1.00D-06.
 No special actions if energy rises.
 Integral accuracy reduced to 1.0D-05 until final iterations.
 Initial convergence to 1.0D-05 achieved.  Increase integral accuracy.
 SCF Done:  E(UB2PLYPD3) =  -155.005942260     A.U. after   24 cycles
            NFock= 24  Conv=0.70D-08     -V/T= 2.0061
 <Sx>= 0.0000 <Sy>= 0.0000 <Sz>= 0.5000 <S**2>= 0.8066 S= 0.5279
 <L.S>=  0.00000000000    
 Annihilation of the first spin contaminant:
 S**2 before annihilation     0.8066,   after     0.7511
 DoSCS=T DFT=T ScalE2(SS,OS)=  0.270000  0.270000
 ExpMin= 1.03D-01 ExpMax= 8.24D+03 ExpMxC= 2.81D+02 IAcc=3 IRadAn=         5 AccDes= 0.00D+00
 HarFok:  IExCor=  205 AccDes= 0.00D+00 IRadAn=         5 IDoV=-2 UseB2=F ITyADJ=14
 ICtDFT= 12500011 ScaDFX=  1.000000  1.000000  1.000000  1.000000
 Range of M.O.s used for correlation:     5   190
 NBasis=   190 NAE=    15 NBE=    14 NFC=     4 NFV=     0
 NROrb=    186 NOA=    11 NOB=    10 NVA=   175 NVB=   176

 **** Warning!!: The largest alpha MO coefficient is  0.13022192D+02


 **** Warning!!: The largest beta MO coefficient is  0.16429260D+02

 DoSCS=T DFT=T ScalE2(SS,OS)=  0.270000  0.270000
 Fully direct method using O(ONN) memory.
 JobTyp=2 Pass  1:  I=   5 to  15 NPSUse= 40 ParTrn=T ParDer=T DoDerP=T.
 JobTyp=3 Pass  1:  I=   5 to  14 NPSUse= 40 ParTrn=T ParDer=T DoDerP=T.
 Spin components of T(2) and E(2):
     alpha-alpha T2 =       0.4267602035D-01 E2=     -0.2544028203D-01
     alpha-beta  T2 =       0.2528225969D+00 E2=     -0.1542874734D+00
     beta-beta   T2 =       0.3823204720D-01 E2=     -0.2207369344D-01
 (S**2,0)=  0.80659D+00           (S**2,1)=  0.77655D+00
 Scaling Projection term by:   0.270000
 E(PUHF)=      -0.15501086970D+03        E(PMP2)=      -0.15520872489D+03
 E2(B2PLYPD3) =    -0.2018014489D+00 E(B2PLYPD3) =    -0.15520774370846D+03
          IDoAtm=111111111
          Differentiating once with respect to electric field.
                with respect to dipole field.
          Differentiating once with respect to nuclear coordinates.
 Keep R1 and R2 ints in memory in canonical form, NReq=370978875.
          There are     1 degrees of freedom in the 1st order CPHF.  IDoFFX=0 NUNeed=     1.
 LinEq1:  Iter=  0 NonCon=     1 RMS=1.07D-03 Max=2.65D-02 NDo=     1
 AX will form     1 AO Fock derivatives at one time.
 LinEq1:  Iter=  1 NonCon=     1 RMS=4.40D-04 Max=1.24D-02 NDo=     1
 LinEq1:  Iter=  2 NonCon=     1 RMS=3.02D-04 Max=7.30D-03 NDo=     1
 LinEq1:  Iter=  3 NonCon=     1 RMS=1.32D-04 Max=4.18D-03 NDo=     1
 LinEq1:  Iter=  4 NonCon=     1 RMS=7.08D-05 Max=2.02D-03 NDo=     1
 LinEq1:  Iter=  5 NonCon=     1 RMS=2.35D-05 Max=6.16D-04 NDo=     1
 LinEq1:  Iter=  6 NonCon=     1 RMS=1.19D-05 Max=3.32D-04 NDo=     1
 LinEq1:  Iter=  7 NonCon=     1 RMS=7.58D-06 Max=1.96D-04 NDo=     1
 LinEq1:  Iter=  8 NonCon=     1 RMS=2.25D-06 Max=3.21D-05 NDo=     1
 LinEq1:  Iter=  9 NonCon=     1 RMS=1.19D-06 Max=2.54D-05 NDo=     1
 LinEq1:  Iter= 10 NonCon=     1 RMS=3.99D-07 Max=4.94D-06 NDo=     1
 LinEq1:  Iter= 11 NonCon=     1 RMS=8.35D-08 Max=1.06D-06 NDo=     1
 LinEq1:  Iter= 12 NonCon=     1 RMS=2.47D-08 Max=3.40D-07 NDo=     1
 LinEq1:  Iter= 13 NonCon=     1 RMS=6.20D-09 Max=9.91D-08 NDo=     1
 LinEq1:  Iter= 14 NonCon=     1 RMS=1.52D-09 Max=2.56D-08 NDo=     1
 LinEq1:  Iter= 15 NonCon=     1 RMS=2.82D-10 Max=5.68D-09 NDo=     1
 LinEq1:  Iter= 16 NonCon=     0 RMS=5.10D-11 Max=8.46D-10 NDo=     1
 Linear equations converged to 1.000D-10 1.000D-09 after    16 iterations.
 End of Minotr F.D. properties file   721 does not exist.
 End of Minotr F.D. properties file   722 does not exist.
 End of Minotr F.D. properties file   788 does not exist.

 **********************************************************************

            Population analysis using the SCF Density.

 **********************************************************************

 Orbital symmetries:
 Alpha Orbitals:
       Occupied  (A) (A) (A) (A) (A) (A) (A) (A) (A) (A) (A) (A)
                 (A) (A) (A)
       Virtual   (A) (A) (A) (A) (A) (A) (A) (A) (A) (A) (A) (A)
                 (A) (A) (A) (A) (A) (A) (A) (A) (A) (A) (A) (A)
                 (A) (A) (A) (A) (A) (A) (A) (A) (A) (A) (A) (A)
                 (A) (A) (A) (A) (A) (A) (A) (A) (A) (A) (A) (A)
                 (A) (A) (A) (A) (A) (A) (A) (A) (A) (A) (A) (A)
                 (A) (A) (A) (A) (A) (A) (A) (A) (A) (A) (A) (A)
                 (A) (A) (A) (A) (A) (A) (A) (A) (A) (A) (A) (A)
                 (A) (A) (A) (A) (A) (A) (A) (A) (A) (A) (A) (A)
                 (A) (A) (A) (A) (A) (A) (A) (A) (A) (A) (A) (A)
                 (A) (A) (A) (A) (A) (A) (A) (A) (A) (A) (A) (A)
                 (A) (A) (A) (A) (A) (A) (A) (A) (A) (A) (A) (A)
                 (A) (A) (A) (A) (A) (A) (A) (A) (A) (A) (A) (A)
                 (A) (A) (A) (A) (A) (A) (A) (A) (A) (A) (A) (A)
                 (A) (A) (A) (A) (A) (A) (A) (A) (A) (A) (A) (A)
                 (A) (A) (A) (A) (A) (A) (A)
 Beta  Orbitals:
       Occupied  (A) (A) (A) (A) (A) (A) (A) (A) (A) (A) (A) (A)
                 (A) (A)
       Virtual   (A) (A) (A) (A) (A) (A) (A) (A) (A) (A) (A) (A)
                 (A) (A) (A) (A) (A) (A) (A) (A) (A) (A) (A) (A)
                 (A) (A) (A) (A) (A) (A) (A) (A) (A) (A) (A) (A)
                 (A) (A) (A) (A) (A) (A) (A) (A) (A) (A) (A) (A)
                 (A) (A) (A) (A) (A) (A) (A) (A) (A) (A) (A) (A)
                 (A) (A) (A) (A) (A) (A) (A) (A) (A) (A) (A) (A)
                 (A) (A) (A) (A) (A) (A) (A) (A) (A) (A) (A) (A)
                 (A) (A) (A) (A) (A) (A) (A) (A) (A) (A) (A) (A)
                 (A) (A) (A) (A) (A) (A) (A) (A) (A) (A) (A) (A)
                 (A) (A) (A) (A) (A) (A) (A) (A) (A) (A) (A) (A)
                 (A) (A) (A) (A) (A) (A) (A) (A) (A) (A) (A) (A)
                 (A) (A) (A) (A) (A) (A) (A) (A) (A) (A) (A) (A)
                 (A) (A) (A) (A) (A) (A) (A) (A) (A) (A) (A) (A)
                 (A) (A) (A) (A) (A) (A) (A) (A) (A) (A) (A) (A)
                 (A) (A) (A) (A) (A) (A) (A) (A)
 The electronic state is 2-A.
 Alpha  occ. eigenvalues --  -10.65188 -10.64287 -10.63579 -10.62138  -0.92683
 Alpha  occ. eigenvalues --   -0.85590  -0.68593  -0.64352  -0.54288  -0.51968
 Alpha  occ. eigenvalues --   -0.47707  -0.43215  -0.38042  -0.33241  -0.29444
 Alpha virt. eigenvalues --    0.02459   0.09389   0.09884   0.11291   0.12507
 Alpha virt. eigenvalues --    0.15365   0.16797   0.23285   0.27176   0.33617
 Alpha virt. eigenvalues --    0.33694   0.35162   0.36439   0.37984   0.38953
 Alpha virt. eigenvalues --    0.40026   0.43860   0.44059   0.47562   0.47824
 Alpha virt. eigenvalues --    0.49654   0.51917   0.53824   0.56031   0.57446
 Alpha virt. eigenvalues --    0.58857   0.59602   0.66762   0.67335   0.68354
 Alpha virt. eigenvalues --    0.71045   0.73094   0.75233   0.77177   0.77947
 Alpha virt. eigenvalues --    0.85555   0.88402   0.95175   0.98042   1.02663
 Alpha virt. eigenvalues --    1.04611   1.05483   1.06745   1.08362   1.10728
 Alpha virt. eigenvalues --    1.16903   1.18828   1.20027   1.20658   1.22863
 Alpha virt. eigenvalues --    1.27963   1.31333   1.33320   1.36464   1.39734
 Alpha virt. eigenvalues --    1.45641   1.47690   1.48139   1.52707   1.52773
 Alpha virt. eigenvalues --    1.56677   1.61003   1.65957   1.73075   1.80316
 Alpha virt. eigenvalues --    1.98448   2.11745   2.17875   2.20850   2.24191
 Alpha virt. eigenvalues --    2.33010   2.34016   2.35582   2.37491   2.46564
 Alpha virt. eigenvalues --    2.47650   2.52342   2.54463   2.56157   2.57242
 Alpha virt. eigenvalues --    2.64278   2.67945   2.69980   2.74823   2.79961
 Alpha virt. eigenvalues --    2.80112   2.84907   2.85530   2.90030   2.91903
 Alpha virt. eigenvalues --    2.93424   2.97798   2.99125   2.99387   3.02906
 Alpha virt. eigenvalues --    3.03228   3.06744   3.07139   3.11529   3.11626
 Alpha virt. eigenvalues --    3.14397   3.17906   3.18426   3.24006   3.24203
 Alpha virt. eigenvalues --    3.25202   3.27621   3.30508   3.32613   3.32655
 Alpha virt. eigenvalues --    3.41036   3.43020   3.43213   3.45649   3.47211
 Alpha virt. eigenvalues --    3.56406   3.58339   3.63034   3.64722   3.66499
 Alpha virt. eigenvalues --    3.71058   3.71562   3.75450   3.76483   3.83063
 Alpha virt. eigenvalues --    3.87934   3.88787   3.92776   3.95772   4.00414
 Alpha virt. eigenvalues --    4.01015   4.03170   4.03683   4.08370   4.08466
 Alpha virt. eigenvalues --    4.10531   4.15211   4.16604   4.23714   4.28714
 Alpha virt. eigenvalues --    4.34205   4.37783   4.43841   4.45868   4.49635
 Alpha virt. eigenvalues --    4.58295   4.62580   4.62909   4.65773   4.72911
 Alpha virt. eigenvalues --    4.76120   4.78594   4.90816   4.99319   5.02483
 Alpha virt. eigenvalues --    5.04680   5.05467   5.07344   5.10024   5.21907
 Alpha virt. eigenvalues --    5.24728   5.36766   5.38070   5.45598   5.48625
 Alpha virt. eigenvalues --    5.60160   5.80170   5.93221   6.09288   6.15787
 Alpha virt. eigenvalues --    6.48742  10.01255  10.99671  13.34708  14.38549
  Beta  occ. eigenvalues --  -10.63961 -10.63897 -10.62939 -10.62338  -0.91804
  Beta  occ. eigenvalues --   -0.83855  -0.66672  -0.63292  -0.53497  -0.50555
  Beta  occ. eigenvalues --   -0.46699  -0.42039  -0.37961  -0.28401
  Beta virt. eigenvalues --   -0.02371   0.03736   0.09739   0.09873   0.11414
  Beta virt. eigenvalues --    0.12734   0.15578   0.17063   0.24018   0.28281
  Beta virt. eigenvalues --    0.33869   0.34070   0.36204   0.37185   0.38639
  Beta virt. eigenvalues --    0.39388   0.42161   0.44456   0.44692   0.47890
  Beta virt. eigenvalues --    0.48611   0.49911   0.52601   0.54097   0.56612
  Beta virt. eigenvalues --    0.59028   0.59663   0.59905   0.67416   0.67803
  Beta virt. eigenvalues --    0.68854   0.71298   0.74359   0.75457   0.78007
  Beta virt. eigenvalues --    0.78782   0.87104   0.90008   0.95286   0.98173
  Beta virt. eigenvalues --    1.03282   1.05528   1.06208   1.07274   1.08840
  Beta virt. eigenvalues --    1.10873   1.18393   1.19016   1.20565   1.21640
  Beta virt. eigenvalues --    1.23195   1.28721   1.31920   1.34437   1.36698
  Beta virt. eigenvalues --    1.40898   1.46174   1.47857   1.48473   1.52912
  Beta virt. eigenvalues --    1.53018   1.56918   1.61453   1.67083   1.73724
  Beta virt. eigenvalues --    1.80615   1.99835   2.11939   2.18616   2.21288
  Beta virt. eigenvalues --    2.25988   2.33347   2.34368   2.37003   2.37531
  Beta virt. eigenvalues --    2.47336   2.48286   2.52956   2.54751   2.57400
  Beta virt. eigenvalues --    2.58767   2.65040   2.69323   2.72504   2.75398
  Beta virt. eigenvalues --    2.80750   2.80780   2.84848   2.86664   2.90801
  Beta virt. eigenvalues --    2.92456   2.94253   2.97588   2.99575   3.00428
  Beta virt. eigenvalues --    3.03848   3.05304   3.07612   3.08304   3.11940
  Beta virt. eigenvalues --    3.12813   3.15107   3.18970   3.19029   3.24545
  Beta virt. eigenvalues --    3.25071   3.27052   3.28549   3.31367   3.33958
  Beta virt. eigenvalues --    3.34198   3.41351   3.44167   3.44906   3.46335
  Beta virt. eigenvalues --    3.48152   3.57146   3.59130   3.63527   3.65027
  Beta virt. eigenvalues --    3.67285   3.71578   3.71934   3.75760   3.77097
  Beta virt. eigenvalues --    3.83284   3.88457   3.90074   3.93684   3.95942
  Beta virt. eigenvalues --    4.01073   4.01427   4.03441   4.03952   4.08651
  Beta virt. eigenvalues --    4.08756   4.10809   4.15349   4.17012   4.24123
  Beta virt. eigenvalues --    4.28989   4.34709   4.37848   4.44597   4.46806
  Beta virt. eigenvalues --    4.50074   4.58718   4.63239   4.63456   4.65918
  Beta virt. eigenvalues --    4.73257   4.76266   4.78704   4.90898   5.00144
  Beta virt. eigenvalues --    5.02581   5.04936   5.05863   5.07328   5.12058
  Beta virt. eigenvalues --    5.22081   5.24717   5.37689   5.38248   5.45809
  Beta virt. eigenvalues --    5.49244   5.60542   5.80969   5.94185   6.09326
  Beta virt. eigenvalues --    6.16085   6.49095  10.02014  10.99847  13.35416
  Beta virt. eigenvalues --   14.38603
          Condensed to atoms (all electrons):
               1          2          3          4          5          6
     1  C    5.282308   0.616664   0.404852  -0.035853  -0.066919   0.002424
     2  C    0.616664   4.826654  -0.070249   0.395709   0.405132  -0.059096
     3  H    0.404852  -0.070249   0.522032   0.005106  -0.001466   0.000127
     4  H   -0.035853   0.395709   0.005106   0.532220  -0.036687  -0.000303
     5  C   -0.066919   0.405132  -0.001466  -0.036687   4.829647   0.619449
     6  C    0.002424  -0.059096   0.000127  -0.000303   0.619449   4.943130
     7  H    0.000299  -0.039744   0.004132   0.004279   0.409330  -0.040389
     8  H   -0.000470   0.006195  -0.000033  -0.000296  -0.042445   0.414988
     9  H    0.000389  -0.006289   0.000039   0.004331  -0.047557   0.410428
               7          8          9
     1  C    0.000299  -0.000470   0.000389
     2  C   -0.039744   0.006195  -0.006289
     3  H    0.004132  -0.000033   0.000039
     4  H    0.004279  -0.000296   0.004331
     5  C    0.409330  -0.042445  -0.047557
     6  C   -0.040389   0.414988   0.410428
     7  H    0.537892  -0.007885   0.005960
     8  H   -0.007885   0.542551  -0.036713
     9  H    0.005960  -0.036713   0.548694
          Atomic-Atomic Spin Densities.
               1          2          3          4          5          6
     1  C    1.203582  -0.031874   0.001392  -0.003691  -0.031395   0.003094
     2  C   -0.031874  -0.250301  -0.003935   0.002688   0.028971   0.004339
     3  H    0.001392  -0.003935   0.034812   0.001046  -0.005531   0.000423
     4  H   -0.003691   0.002688   0.001046   0.037796  -0.009820   0.001156
     5  C   -0.031395   0.028971  -0.005531  -0.009820   0.192940  -0.004731
     6  C    0.003094   0.004339   0.000423   0.001156  -0.004731  -0.133926
     7  H    0.003473  -0.000106   0.001211   0.000259  -0.003365   0.002085
     8  H   -0.000399   0.000448  -0.000045  -0.000168   0.000963  -0.003841
     9  H    0.000370  -0.000058   0.000032   0.000553  -0.001130  -0.000405
               7          8          9
     1  C    0.003473  -0.000399   0.000370
     2  C   -0.000106   0.000448  -0.000058
     3  H    0.001211  -0.000045   0.000032
     4  H    0.000259  -0.000168   0.000553
     5  C   -0.003365   0.000963  -0.001130
     6  C    0.002085  -0.003841  -0.000405
     7  H   -0.008630  -0.000600   0.000090
     8  H   -0.000600   0.016211  -0.001882
     9  H    0.000090  -0.001882   0.008284
 Mulliken charges and spin densities:
               1          2
     1  C   -0.203693   1.144552
     2  C   -0.074975  -0.249827
     3  H    0.135460   0.029404
     4  H    0.131495   0.029820
     5  C   -0.068484   0.166901
     6  C   -0.290757  -0.131807
     7  H    0.126127  -0.005584
     8  H    0.124109   0.010688
     9  H    0.120718   0.005854
 Sum of Mulliken charges =  -0.00000   1.00000
 Mulliken charges and spin densities with hydrogens summed into heavy atoms:
               1          2
     1  C   -0.068233   1.173956
     2  C    0.056520  -0.220007
     5  C    0.057643   0.161316
     6  C   -0.045930  -0.115265
 Electronic spatial extent (au):  <R**2>=            314.2966
 Charge=             -0.0000 electrons
 Dipole moment (field-independent basis, Debye):
    X=             -0.7461    Y=             -0.4019    Z=              0.0000  Tot=              0.8475
 Quadrupole moment (field-independent basis, Debye-Ang):
   XX=            -25.0696   YY=            -22.0648   ZZ=            -28.3785
   XY=             -1.5769   XZ=             -0.0001   YZ=             -0.0002
 Traceless Quadrupole moment (field-independent basis, Debye-Ang):
   XX=              0.1014   YY=              3.1061   ZZ=             -3.2075
   XY=             -1.5769   XZ=             -0.0001   YZ=             -0.0002
 Octapole moment (field-independent basis, Debye-Ang**2):
  XXX=            -11.8970  YYY=             -0.4764  ZZZ=              0.0000  XYY=             -0.4053
  XXY=             -3.7222  XXZ=              0.0001  XZZ=             -0.6656  YZZ=             -0.1666
  YYZ=              0.0000  XYZ=              0.0002
 Hexadecapole moment (field-independent basis, Debye-Ang**3):
 XXXX=           -349.8927 YYYY=            -63.5366 ZZZZ=            -33.9421 XXXY=             -6.4332
 XXXZ=              0.0012 YYYX=             -4.3389 YYYZ=              0.0003 ZZZX=              0.0021
 ZZZY=              0.0007 XXYY=            -64.8498 XXZZ=            -71.7248 YYZZ=            -18.6690
 XXYZ=             -0.0002 YYXZ=              0.0005 ZZXY=             -0.9011
 N-N= 9.565501324026D+01 E-N=-5.504938628851D+02  KE= 1.540693404337D+02
                          Isotropic Fermi Contact Couplings
        Atom                 a.u.       MegaHertz       Gauss      10(-4) cm-1
     1  C(13)              0.36657     412.09503     147.04575     137.46010
     2  C(13)              0.01651      18.56531       6.62456       6.19272
     3  H(1)               0.02090      93.40675      33.32985      31.15714
     4  H(1)               0.01415      63.24442      22.56718      21.09607
     5  C(13)              0.06125      68.85846      24.57041      22.96871
     6  C(13)              0.01304      14.65466       5.22915       4.88827
     7  H(1)               0.00003       0.14647       0.05226       0.04886
     8  H(1)               0.00076       3.38420       1.20757       1.12885
     9  H(1)              -0.00093      -4.17835      -1.49094      -1.39375
 --------------------------------------------------------
       Center         ----  Spin Dipole Couplings  ----
                      3XX-RR        3YY-RR        3ZZ-RR
 --------------------------------------------------------
     1   Atom        0.416325      0.043330     -0.459655
     2   Atom        0.093653     -0.014445     -0.079208
     3   Atom       -0.007694      0.063499     -0.055805
     4   Atom        0.008169      0.003348     -0.011517
     5   Atom        0.095571     -0.001332     -0.094240
     6   Atom       -0.002157     -0.023209      0.025366
     7   Atom        0.007276      0.002857     -0.010132
     8   Atom        0.003400     -0.001340     -0.002060
     9   Atom        0.001109      0.001629     -0.002738
 --------------------------------------------------------
                        XY            XZ            YZ
 --------------------------------------------------------
     1   Atom        0.720280     -0.000024     -0.000019
     2   Atom       -0.027021      0.000002     -0.000001
     3   Atom       -0.024907     -0.000001      0.000000
     4   Atom       -0.016752      0.000000     -0.000000
     5   Atom        0.051311     -0.000004     -0.000004
     6   Atom       -0.007733      0.000000      0.000003
     7   Atom        0.008117     -0.000001     -0.000001
     8   Atom        0.003527     -0.000000     -0.000000
     9   Atom       -0.002582      0.000000     -0.000000
 --------------------------------------------------------


 ---------------------------------------------------------------------------------
              Anisotropic Spin Dipole Couplings in Principal Axis System
 ---------------------------------------------------------------------------------

       Atom             a.u.   MegaHertz   Gauss  10(-4) cm-1        Axes

              Baa    -0.5142   -69.001   -24.621   -23.016 -0.6121  0.7908  0.0000
     1 C(13)  Bbb    -0.4597   -61.681   -22.009   -20.575  0.0000  0.0000  1.0000
              Bcc     0.9739   130.683    46.631    43.591  0.7908  0.6121 -0.0000
 
              Baa    -0.0792   -10.629    -3.793    -3.545 -0.0000  0.0000  1.0000
     2 C(13)  Bbb    -0.0208    -2.794    -0.997    -0.932  0.2297  0.9733 -0.0000
              Bcc     0.1000    13.423     4.790     4.478  0.9733 -0.2297  0.0000
 
              Baa    -0.0558   -29.775   -10.624    -9.932  0.0000  0.0000  1.0000
     3 H(1)   Bbb    -0.0155    -8.293    -2.959    -2.766  0.9538  0.3005 -0.0000
              Bcc     0.0713    38.068    13.584    12.698 -0.3005  0.9538  0.0000
 
              Baa    -0.0115    -6.145    -2.193    -2.050  0.0003  0.0004  1.0000
     4 H(1)   Bbb    -0.0112    -5.958    -2.126    -1.987  0.6548  0.7558 -0.0005
              Bcc     0.0227    12.103     4.319     4.037  0.7558 -0.6548  0.0000
 
              Baa    -0.0942   -12.646    -4.512    -4.218  0.0000  0.0000  1.0000
     5 C(13)  Bbb    -0.0235    -3.147    -1.123    -1.050 -0.3959  0.9183 -0.0000
              Bcc     0.1177    15.793     5.635     5.268  0.9183  0.3959 -0.0000
 
              Baa    -0.0257    -3.455    -1.233    -1.152  0.3115  0.9502 -0.0001
     6 C(13)  Bbb     0.0004     0.051     0.018     0.017  0.9502 -0.3115  0.0000
              Bcc     0.0254     3.404     1.215     1.135 -0.0000  0.0001  1.0000
 
              Baa    -0.0101    -5.406    -1.929    -1.803  0.0000  0.0000  1.0000
     7 H(1)   Bbb    -0.0033    -1.785    -0.637    -0.595 -0.6072  0.7946 -0.0000
              Bcc     0.0135     7.191     2.566     2.399  0.7946  0.6072 -0.0000
 
              Baa    -0.0032    -1.718    -0.613    -0.573 -0.4702  0.8825 -0.0001
     8 H(1)   Bbb    -0.0021    -1.099    -0.392    -0.367 -0.0000  0.0001  1.0000
              Bcc     0.0053     2.817     1.005     0.940  0.8825  0.4702 -0.0000
 
              Baa    -0.0027    -1.461    -0.521    -0.487  0.0000  0.0000  1.0000
     9 H(1)   Bbb    -0.0012    -0.654    -0.233    -0.218  0.7417  0.6707 -0.0000
              Bcc     0.0040     2.115     0.755     0.705 -0.6707  0.7417 -0.0000
 

 ---------------------------------------------------------------------------------

 Calling FoFJK, ICntrl=  10002127 FMM=F ISym2X=0 I1Cent= 0 IOpClX= 1 NMat=1 NMatS=1 NMatT=0.
 ***** Axes restored to original set *****
 -------------------------------------------------------------------
 Center     Atomic                   Forces (Hartrees/Bohr)
 Number     Number              X              Y              Z
 -------------------------------------------------------------------
      1        6           0.022333999    0.026423286   -0.000000546
      2        6           0.011350458    0.010059510    0.000000048
      3        1          -0.006353319   -0.014991623    0.000000445
      4        1          -0.006106694    0.006568572    0.000000212
      5        6          -0.030199090   -0.021629127    0.000000946
      6        6           0.018677015    0.001705431   -0.000000695
      7        1           0.008356889   -0.007416407   -0.000000647
      8        1          -0.009260845   -0.007963746   -0.000000773
      9        1          -0.008798413    0.007244105    0.000001011
 -------------------------------------------------------------------
 Cartesian Forces:  Max     0.030199090 RMS     0.012030876

 GradGradGradGradGradGradGradGradGradGradGradGradGradGradGradGradGradGrad
 Berny optimization.
 FormGI is forming the generalized inverse of G from B-inverse, IUseBI=4.
 Internal  Forces:  Max     0.035079616 RMS     0.010110241
 Search for a local minimum.
 Step number   1 out of a maximum of  100
 All quantities printed in internal units (Hartrees-Bohrs-Radians)
 Mixed Optimization -- RFO/linear search
 Second derivative matrix not updated -- first step.
 ITU=  0
     Eigenvalues ---    0.00237   0.01281   0.01763   0.03069   0.03069
     Eigenvalues ---    0.03069   0.16000   0.16000   0.16000   0.16000
     Eigenvalues ---    0.16000   0.22000   0.22000   0.28519   0.33875
     Eigenvalues ---    0.33875   0.33875   0.33875   0.33875   0.60481
     Eigenvalues ---    0.60481
 RFO step:  Lambda=-1.10163678D-02 EMin= 2.36824256D-03
 Linear search not attempted -- first point.
 Iteration  1 RMS(Cart)=  0.05460985 RMS(Int)=  0.00480151
 Iteration  2 RMS(Cart)=  0.00422228 RMS(Int)=  0.00000285
 Iteration  3 RMS(Cart)=  0.00000482 RMS(Int)=  0.00000005
 Iteration  4 RMS(Cart)=  0.00000000 RMS(Int)=  0.00000005
 Variable       Old X    -DE/DX   Delta X   Delta X   Delta X     New X
                                 (Linear)    (Quad)   (Total)
    R1        2.50562  -0.01598   0.00000  -0.02595  -0.02595   2.47967
    R2        2.07542  -0.00918   0.00000  -0.02625  -0.02625   2.04918
    R3        2.07542  -0.00883   0.00000  -0.02524  -0.02524   2.05019
    R4        2.91018  -0.03508   0.00000  -0.11843  -0.11843   2.79175
    R5        2.50562   0.00062   0.00000   0.00100   0.00100   2.50662
    R6        2.07542  -0.01076   0.00000  -0.03075  -0.03075   2.04466
    R7        2.07542  -0.01171   0.00000  -0.03347  -0.03347   2.04196
    R8        2.07542  -0.01085   0.00000  -0.03102  -0.03102   2.04439
    A1        2.14180   0.02791   0.00000   0.16320   0.16320   2.30500
    A2        2.14180  -0.00085   0.00000  -0.00620  -0.00620   2.13560
    A3        2.14183  -0.00159   0.00000  -0.00687  -0.00687   2.13496
    A4        1.99956   0.00244   0.00000   0.01307   0.01307   2.01262
    A5        2.14180  -0.00044   0.00000  -0.00192  -0.00192   2.13987
    A6        1.99956   0.00336   0.00000   0.01930   0.01930   2.01886
    A7        2.14183  -0.00291   0.00000  -0.01738  -0.01738   2.12445
    A8        2.14180  -0.00241   0.00000  -0.01411  -0.01411   2.12769
    A9        2.14183  -0.00241   0.00000  -0.01411  -0.01411   2.12773
   A10        1.99956   0.00483   0.00000   0.02821   0.02821   2.02777
    D1       -3.14157  -0.00000   0.00000  -0.00001  -0.00001  -3.14158
    D2        0.00003  -0.00000   0.00000  -0.00001  -0.00001   0.00002
    D3        3.14159   0.00000   0.00000   0.00000   0.00000  -3.14159
    D4        0.00002  -0.00000   0.00000  -0.00002  -0.00002   0.00001
    D5        0.00001   0.00000   0.00000   0.00000   0.00000   0.00001
    D6       -3.14156  -0.00000   0.00000  -0.00002  -0.00002  -3.14158
    D7       -3.14157  -0.00000   0.00000  -0.00002  -0.00002  -3.14159
    D8        0.00003  -0.00000   0.00000  -0.00002  -0.00002   0.00001
    D9       -0.00000  -0.00000   0.00000   0.00000   0.00000  -0.00000
   D10       -3.14159  -0.00000   0.00000  -0.00000  -0.00000  -3.14159
         Item               Value     Threshold  Converged?
 Maximum Force            0.035080     0.000450     NO 
 RMS     Force            0.010110     0.000300     NO 
 Maximum Displacement     0.150699     0.001800     NO 
 RMS     Displacement     0.054166     0.001200     NO 
 Predicted change in Energy=-5.771574D-03
 GradGradGradGradGradGradGradGradGradGradGradGradGradGradGradGradGradGrad

                          Input orientation:                          
 ---------------------------------------------------------------------
 Center     Atomic      Atomic             Coordinates (Angstroms)
 Number     Number       Type             X           Y           Z
 ---------------------------------------------------------------------
      1          6           0       -2.727650   -0.006338    0.368618
      2          6           0       -1.415508   -0.016820    0.368618
      3          1           0       -3.447726    0.804444    0.368631
      4          1           0       -0.842151   -0.937849    0.368592
      5          6           0       -0.615613    1.225223    0.368661
      6          6           0        0.710827    1.221140    0.368659
      7          1           0       -1.181688    2.147318    0.368697
      8          1           0        1.284779    2.136662    0.368693
      9          1           0        1.279842    0.301023    0.368621
 ---------------------------------------------------------------------
                    Distance matrix (angstroms):
                    1          2          3          4          5
     1  C    0.000000
     2  C    1.312184   0.000000
     3  H    1.084378   2.191890   0.000000
     4  H    2.103050   1.084912   3.134423   0.000000
     5  C    2.444881   1.477330   2.863200   2.174903   0.000000
     6  C    3.651003   2.460456   4.179378   2.659506   1.326447
     7  H    2.651081   2.176733   2.634054   3.103795   1.081989
     8  H    4.548850   3.453844   4.916443   3.738509   2.107656
     9  H    4.019261   2.714025   4.754296   2.457164   2.108767
                    6          7          8          9
     6  C    0.000000
     7  H    2.106993   0.000000
     8  H    1.080556   2.466490   0.000000
     9  H    1.081847   3.077001   1.835646   0.000000
 Stoichiometry    C4H5(2)
 Framework group  C1[X(C4H5)]
 Deg. of freedom    21
 Full point group                 C1      NOp   1
 Largest Abelian subgroup         C1      NOp   1
 Largest concise Abelian subgroup C1      NOp   1
                         Standard orientation:                         
 ---------------------------------------------------------------------
 Center     Atomic      Atomic             Coordinates (Angstroms)
 Number     Number       Type             X           Y           Z
 ---------------------------------------------------------------------
      1          6           0        1.907748   -0.037892   -0.000022
      2          6           0        0.689999    0.450897   -0.000023
      3          1           0        2.282127   -1.055593   -0.000009
      4          1           0        0.492460    1.517673   -0.000048
      5          6           0       -0.508124   -0.413397    0.000020
      6          6           0       -1.741521    0.074654    0.000019
      7          1           0       -0.317754   -1.478507    0.000057
      8          1           0       -2.610092   -0.568142    0.000053
      9          1           0       -1.935350    1.138996   -0.000020
 ---------------------------------------------------------------------
 Rotational constants (GHZ):          42.7810743           4.8097896           4.3236863
 Standard basis: CC-pVTZ (5D, 7F)
 There are   215 symmetry adapted cartesian basis functions of A   symmetry.
 There are   190 symmetry adapted basis functions of A   symmetry.
   190 basis functions,   293 primitive gaussians,   215 cartesian basis functions
    15 alpha electrons       14 beta electrons
       nuclear repulsion energy        97.2137534264 Hartrees.
 NAtoms=    9 NActive=    9 NUniq=    9 SFac= 1.00D+00 NAtFMM=   60 NAOKFM=F Big=F
 Integral buffers will be    131072 words long.
 Raffenetti 2 integral format.
 Two-electron integral symmetry is turned on.
 Nuclear repulsion after empirical dispersion term =       97.2093096756 Hartrees.
 One-electron integrals computed using PRISM.
 NBasis=   190 RedAO= T EigKep=  3.51D-04  NBF=   190
 NBsUse=   190 1.00D-06 EigRej= -1.00D+00 NBFU=   190
 Initial guess from the checkpoint file:  "/localscratch/339542/Gau-93147.chk"
 B after Tr=    -0.000000    0.000000    0.000000
         Rot=    0.999985    0.000001   -0.000001   -0.005473 Ang=   0.63 deg.
 Initial guess <Sx>= 0.0000 <Sy>= 0.0000 <Sz>= 0.5000 <S**2>= 0.8061 S= 0.5277
 ExpMin= 1.03D-01 ExpMax= 8.24D+03 ExpMxC= 2.81D+02 IAcc=3 IRadAn=         5 AccDes= 0.00D+00
 Harris functional with IExCor=  419 and IRadAn=       5 diagonalized for initial guess.
 HarFok:  IExCor=  419 AccDes= 0.00D+00 IRadAn=         5 IDoV= 1 UseB2=F ITyADJ=14
 ICtDFT=  3500011 ScaDFX=  1.000000  1.000000  1.000000  1.000000
 FoFCou: FMM=F IPFlag=           0 FMFlag=      100000 FMFlg1=           0
         NFxFlg=           0 DoJE=T BraDBF=F KetDBF=T FulRan=T
         wScrn=  0.000000 ICntrl=       500 IOpCl=  0 I1Cent=   200000004 NGrid=           0
         NMat0=    1 NMatS0=      1 NMatT0=    0 NMatD0=    1 NMtDS0=    0 NMtDT0=    0
 Petite list used in FoFCou.
 Keep R1 and R2 ints in memory in canonical form, NReq=370972403.
 Requested convergence on RMS density matrix=1.00D-08 within 128 cycles.
 Requested convergence on MAX density matrix=1.00D-06.
 Requested convergence on             energy=1.00D-06.
 No special actions if energy rises.
 Integral accuracy reduced to 1.0D-05 until final iterations.
 Initial convergence to 1.0D-05 achieved.  Increase integral accuracy.
 SCF Done:  E(UB2PLYPD3) =  -155.013467280     A.U. after   18 cycles
            NFock= 18  Conv=0.35D-08     -V/T= 2.0044
 <Sx>= 0.0000 <Sy>= 0.0000 <Sz>= 0.5000 <S**2>= 0.8054 S= 0.5273
 <L.S>=  0.00000000000    
 Annihilation of the first spin contaminant:
 S**2 before annihilation     0.8054,   after     0.7510
 DoSCS=T DFT=T ScalE2(SS,OS)=  0.270000  0.270000
 ExpMin= 1.03D-01 ExpMax= 8.24D+03 ExpMxC= 2.81D+02 IAcc=3 IRadAn=         5 AccDes= 0.00D+00
 HarFok:  IExCor=  205 AccDes= 0.00D+00 IRadAn=         5 IDoV=-2 UseB2=F ITyADJ=14
 ICtDFT= 12500011 ScaDFX=  1.000000  1.000000  1.000000  1.000000
 Range of M.O.s used for correlation:     5   190
 NBasis=   190 NAE=    15 NBE=    14 NFC=     4 NFV=     0
 NROrb=    186 NOA=    11 NOB=    10 NVA=   175 NVB=   176

 **** Warning!!: The largest alpha MO coefficient is  0.17427454D+02


 **** Warning!!: The largest beta MO coefficient is  0.17460320D+02

 DoSCS=T DFT=T ScalE2(SS,OS)=  0.270000  0.270000
 Fully direct method using O(ONN) memory.
 JobTyp=2 Pass  1:  I=   5 to  15 NPSUse= 40 ParTrn=T ParDer=T DoDerP=T.
 JobTyp=3 Pass  1:  I=   5 to  14 NPSUse= 40 ParTrn=T ParDer=T DoDerP=T.
 Spin components of T(2) and E(2):
     alpha-alpha T2 =       0.4220633034D-01 E2=     -0.2549141873D-01
     alpha-beta  T2 =       0.2472332307D+00 E2=     -0.1534130924D+00
     beta-beta   T2 =       0.3739527076D-01 E2=     -0.2197802232D-01
 (S**2,0)=  0.80541D+00           (S**2,1)=  0.77603D+00
 Scaling Projection term by:   0.270000
 E(PUHF)=      -0.15501831701D+03        E(PMP2)=      -0.15521531592D+03
 E2(B2PLYPD3) =    -0.2008825334D+00 E(B2PLYPD3) =    -0.15521434981327D+03
          IDoAtm=111111111
          Differentiating once with respect to electric field.
                with respect to dipole field.
          Differentiating once with respect to nuclear coordinates.
 Keep R1 and R2 ints in memory in canonical form, NReq=370978875.
          There are     1 degrees of freedom in the 1st order CPHF.  IDoFFX=0 NUNeed=     1.
 LinEq1:  Iter=  0 NonCon=     1 RMS=1.05D-03 Max=2.65D-02 NDo=     1
 AX will form     1 AO Fock derivatives at one time.
 LinEq1:  Iter=  1 NonCon=     1 RMS=4.31D-04 Max=1.26D-02 NDo=     1
 LinEq1:  Iter=  2 NonCon=     1 RMS=2.96D-04 Max=7.13D-03 NDo=     1
 LinEq1:  Iter=  3 NonCon=     1 RMS=1.27D-04 Max=4.17D-03 NDo=     1
 LinEq1:  Iter=  4 NonCon=     1 RMS=6.56D-05 Max=1.69D-03 NDo=     1
 LinEq1:  Iter=  5 NonCon=     1 RMS=2.15D-05 Max=5.70D-04 NDo=     1
 LinEq1:  Iter=  6 NonCon=     1 RMS=1.03D-05 Max=2.83D-04 NDo=     1
 LinEq1:  Iter=  7 NonCon=     1 RMS=6.63D-06 Max=1.75D-04 NDo=     1
 LinEq1:  Iter=  8 NonCon=     1 RMS=1.97D-06 Max=2.66D-05 NDo=     1
 LinEq1:  Iter=  9 NonCon=     1 RMS=9.62D-07 Max=2.05D-05 NDo=     1
 LinEq1:  Iter= 10 NonCon=     1 RMS=3.16D-07 Max=4.25D-06 NDo=     1
 LinEq1:  Iter= 11 NonCon=     1 RMS=6.78D-08 Max=9.00D-07 NDo=     1
 LinEq1:  Iter= 12 NonCon=     1 RMS=2.08D-08 Max=3.21D-07 NDo=     1
 LinEq1:  Iter= 13 NonCon=     1 RMS=4.94D-09 Max=8.06D-08 NDo=     1
 LinEq1:  Iter= 14 NonCon=     1 RMS=1.21D-09 Max=1.73D-08 NDo=     1
 LinEq1:  Iter= 15 NonCon=     1 RMS=2.21D-10 Max=3.19D-09 NDo=     1
 LinEq1:  Iter= 16 NonCon=     0 RMS=5.01D-11 Max=7.30D-10 NDo=     1
 Linear equations converged to 1.000D-10 1.000D-09 after    16 iterations.
 End of Minotr F.D. properties file   721 does not exist.
 End of Minotr F.D. properties file   722 does not exist.
 End of Minotr F.D. properties file   788 does not exist.
 Calling FoFJK, ICntrl=  10002127 FMM=F ISym2X=0 I1Cent= 0 IOpClX= 1 NMat=1 NMatS=1 NMatT=0.
 ***** Axes restored to original set *****
 -------------------------------------------------------------------
 Center     Atomic                   Forces (Hartrees/Bohr)
 Number     Number              X              Y              Z
 -------------------------------------------------------------------
      1        6           0.000845386    0.005306241   -0.000000479
      2        6           0.003070123    0.005061557    0.000000495
      3        1          -0.000739226   -0.005308409    0.000000220
      4        1          -0.002317345   -0.001650277   -0.000000083
      5        6          -0.007980775   -0.007554220   -0.000000135
      6        6           0.007760300    0.002976304   -0.000000148
      7        1           0.002109229    0.001484257   -0.000000016
      8        1          -0.001230031    0.000315843    0.000000001
      9        1          -0.001517661   -0.000631298    0.000000146
 -------------------------------------------------------------------
 Cartesian Forces:  Max     0.007980775 RMS     0.003341884

 GradGradGradGradGradGradGradGradGradGradGradGradGradGradGradGradGradGrad
 Berny optimization.
 Using GEDIIS/GDIIS optimizer.
 FormGI is forming the generalized inverse of G from B-inverse, IUseBI=4.
 Internal  Forces:  Max     0.008356068 RMS     0.002548346
 Search for a local minimum.
 Step number   2 out of a maximum of  100
 All quantities printed in internal units (Hartrees-Bohrs-Radians)
 Mixed Optimization -- RFO/linear search
 Update second derivatives using D2CorX and points    1    2
 DE= -6.61D-03 DEPred=-5.77D-03 R= 1.14D+00
 TightC=F SS=  1.41D+00  RLast= 2.19D-01 DXNew= 5.0454D-01 6.5602D-01
 Trust test= 1.14D+00 RLast= 2.19D-01 DXMaxT set to 5.05D-01
 ITU=  1  0
 Use linear search instead of GDIIS.
     Eigenvalues ---    0.00237   0.01268   0.01735   0.03069   0.03069
     Eigenvalues ---    0.03069   0.12403   0.16000   0.16000   0.16000
     Eigenvalues ---    0.16326   0.21998   0.22156   0.29267   0.33501
     Eigenvalues ---    0.33875   0.33875   0.33875   0.35241   0.60015
     Eigenvalues ---    0.61884
 RFO step:  Lambda=-7.15298880D-04 EMin= 2.36824256D-03
 Quartic linear search produced a step of  0.21771.
 Iteration  1 RMS(Cart)=  0.03329949 RMS(Int)=  0.00117306
 Iteration  2 RMS(Cart)=  0.00109187 RMS(Int)=  0.00000032
 Iteration  3 RMS(Cart)=  0.00000053 RMS(Int)=  0.00000004
 Variable       Old X    -DE/DX   Delta X   Delta X   Delta X     New X
                                 (Linear)    (Quad)   (Total)
    R1        2.47967  -0.00011  -0.00565   0.00398  -0.00167   2.47800
    R2        2.04918  -0.00348  -0.00571  -0.00808  -0.01379   2.03539
    R3        2.05019   0.00018  -0.00549   0.00486  -0.00063   2.04955
    R4        2.79175  -0.00333  -0.02578   0.00596  -0.01982   2.77192
    R5        2.50662   0.00500   0.00022   0.00990   0.01012   2.51674
    R6        2.04466   0.00016  -0.00670   0.00573  -0.00096   2.04370
    R7        2.04196  -0.00039  -0.00729   0.00422  -0.00306   2.03889
    R8        2.04439  -0.00026  -0.00675   0.00426  -0.00249   2.04190
    A1        2.30500   0.00836   0.03553   0.03350   0.06903   2.37403
    A2        2.13560  -0.00473  -0.00135  -0.03090  -0.03225   2.10334
    A3        2.13496   0.00363  -0.00150   0.02123   0.01974   2.15470
    A4        2.01262   0.00109   0.00285   0.00967   0.01251   2.02514
    A5        2.13987   0.00215  -0.00042   0.01221   0.01179   2.15167
    A6        2.01886   0.00155   0.00420   0.01048   0.01468   2.03354
    A7        2.12445  -0.00371  -0.00378  -0.02269  -0.02647   2.09798
    A8        2.12769  -0.00054  -0.00307  -0.00152  -0.00460   2.12310
    A9        2.12773  -0.00139  -0.00307  -0.00794  -0.01101   2.11671
   A10        2.02777   0.00193   0.00614   0.00946   0.01561   2.04338
    D1       -3.14158  -0.00000  -0.00000  -0.00000  -0.00000  -3.14158
    D2        0.00002  -0.00000  -0.00000  -0.00001  -0.00001   0.00000
    D3       -3.14159   0.00000   0.00000  -0.00000  -0.00000   3.14159
    D4        0.00001  -0.00000  -0.00000  -0.00000  -0.00001  -0.00000
    D5        0.00001  -0.00000   0.00000  -0.00002  -0.00002  -0.00001
    D6       -3.14158  -0.00000  -0.00000  -0.00001  -0.00002   3.14159
    D7       -3.14159  -0.00000  -0.00000   0.00000  -0.00000  -3.14159
    D8        0.00001  -0.00000  -0.00000  -0.00000  -0.00001   0.00000
    D9       -0.00000   0.00000   0.00000   0.00000   0.00000  -0.00000
   D10       -3.14159  -0.00000  -0.00000  -0.00000  -0.00000   3.14159
         Item               Value     Threshold  Converged?
 Maximum Force            0.008356     0.000450     NO 
 RMS     Force            0.002548     0.000300     NO 
 Maximum Displacement     0.100821     0.001800     NO 
 RMS     Displacement     0.033118     0.001200     NO 
 Predicted change in Energy=-6.076445D-04
 GradGradGradGradGradGradGradGradGradGradGradGradGradGradGradGradGradGrad

                          Input orientation:                          
 ---------------------------------------------------------------------
 Center     Atomic      Atomic             Coordinates (Angstroms)
 Number     Number       Type             X           Y           Z
 ---------------------------------------------------------------------
      1          6           0       -2.726090    0.003164    0.368618
      2          6           0       -1.414790    0.003014    0.368618
      3          1           0       -3.501078    0.751160    0.368640
      4          1           0       -0.864226   -0.931430    0.368581
      5          6           0       -0.605998    1.226726    0.368658
      6          6           0        0.725795    1.222531    0.368661
      7          1           0       -1.147144    2.163080    0.368689
      8          1           0        1.294745    2.139263    0.368692
      9          1           0        1.283897    0.297294    0.368632
 ---------------------------------------------------------------------
                    Distance matrix (angstroms):
                    1          2          3          4          5
     1  C    0.000000
     2  C    1.311301   0.000000
     3  H    1.077081   2.216376   0.000000
     4  H    2.083268   1.084576   3.127954   0.000000
     5  C    2.447835   1.466839   2.933880   2.173550   0.000000
     6  C    3.660925   2.463600   4.253075   2.677259   1.331800
     7  H    2.675501   2.176585   2.744909   3.107416   1.081479
     8  H    4.553025   3.450383   4.992670   3.753707   2.108447
     9  H    4.020760   2.714684   4.806452   2.474711   2.106074
                    6          7          8          9
     6  C    0.000000
     7  H    2.095837   0.000000
     8  H    1.078936   2.442006   0.000000
     9  H    1.080528   3.064493   1.842001   0.000000
 Stoichiometry    C4H5(2)
 Framework group  C1[X(C4H5)]
 Deg. of freedom    21
 Full point group                 C1      NOp   1
 Largest Abelian subgroup         C1      NOp   1
 Largest concise Abelian subgroup C1      NOp   1
                         Standard orientation:                         
 ---------------------------------------------------------------------
 Center     Atomic      Atomic             Coordinates (Angstroms)
 Number     Number       Type             X           Y           Z
 ---------------------------------------------------------------------
      1          6           0        1.909288   -0.036871   -0.000022
      2          6           0        0.687098    0.438272   -0.000023
      3          1           0        2.360691   -1.014797    0.000000
      4          1           0        0.512416    1.508688   -0.000059
      5          6           0       -0.510040   -0.409359    0.000018
      6          6           0       -1.749866    0.076977    0.000021
      7          1           0       -0.344828   -1.478144    0.000049
      8          1           0       -2.612251   -0.571402    0.000052
      9          1           0       -1.934909    1.141542   -0.000008
 ---------------------------------------------------------------------
 Rotational constants (GHZ):          43.7860959           4.7728642           4.3037390
 Standard basis: CC-pVTZ (5D, 7F)
 There are   215 symmetry adapted cartesian basis functions of A   symmetry.
 There are   190 symmetry adapted basis functions of A   symmetry.
   190 basis functions,   293 primitive gaussians,   215 cartesian basis functions
    15 alpha electrons       14 beta electrons
       nuclear repulsion energy        97.1933634072 Hartrees.
 NAtoms=    9 NActive=    9 NUniq=    9 SFac= 1.00D+00 NAtFMM=   60 NAOKFM=F Big=F
 Integral buffers will be    131072 words long.
 Raffenetti 2 integral format.
 Two-electron integral symmetry is turned on.
 Nuclear repulsion after empirical dispersion term =       97.1889335136 Hartrees.
 One-electron integrals computed using PRISM.
 NBasis=   190 RedAO= T EigKep=  3.53D-04  NBF=   190
 NBsUse=   190 1.00D-06 EigRej= -1.00D+00 NBFU=   190
 Initial guess from the checkpoint file:  "/localscratch/339542/Gau-93147.chk"
 B after Tr=     0.000000   -0.000000   -0.000000
         Rot=    1.000000   -0.000000   -0.000000   -0.000235 Ang=  -0.03 deg.
 Initial guess <Sx>= 0.0000 <Sy>= 0.0000 <Sz>= 0.5000 <S**2>= 0.8054 S= 0.5273
 ExpMin= 1.03D-01 ExpMax= 8.24D+03 ExpMxC= 2.81D+02 IAcc=3 IRadAn=         5 AccDes= 0.00D+00
 Harris functional with IExCor=  419 and IRadAn=       5 diagonalized for initial guess.
 HarFok:  IExCor=  419 AccDes= 0.00D+00 IRadAn=         5 IDoV= 1 UseB2=F ITyADJ=14
 ICtDFT=  3500011 ScaDFX=  1.000000  1.000000  1.000000  1.000000
 FoFCou: FMM=F IPFlag=           0 FMFlag=      100000 FMFlg1=           0
         NFxFlg=           0 DoJE=T BraDBF=F KetDBF=T FulRan=T
         wScrn=  0.000000 ICntrl=       500 IOpCl=  0 I1Cent=   200000004 NGrid=           0
         NMat0=    1 NMatS0=      1 NMatT0=    0 NMatD0=    1 NMtDS0=    0 NMtDT0=    0
 Petite list used in FoFCou.
 Keep R1 and R2 ints in memory in canonical form, NReq=370972403.
 Requested convergence on RMS density matrix=1.00D-08 within 128 cycles.
 Requested convergence on MAX density matrix=1.00D-06.
 Requested convergence on             energy=1.00D-06.
 No special actions if energy rises.
 Integral accuracy reduced to 1.0D-05 until final iterations.
 Initial convergence to 1.0D-05 achieved.  Increase integral accuracy.
 SCF Done:  E(UB2PLYPD3) =  -155.014244064     A.U. after   17 cycles
            NFock= 17  Conv=0.15D-08     -V/T= 2.0043
 <Sx>= 0.0000 <Sy>= 0.0000 <Sz>= 0.5000 <S**2>= 0.8080 S= 0.5286
 <L.S>=  0.00000000000    
 Annihilation of the first spin contaminant:
 S**2 before annihilation     0.8080,   after     0.7512
 DoSCS=T DFT=T ScalE2(SS,OS)=  0.270000  0.270000
 ExpMin= 1.03D-01 ExpMax= 8.24D+03 ExpMxC= 2.81D+02 IAcc=3 IRadAn=         5 AccDes= 0.00D+00
 HarFok:  IExCor=  205 AccDes= 0.00D+00 IRadAn=         5 IDoV=-2 UseB2=F ITyADJ=14
 ICtDFT= 12500011 ScaDFX=  1.000000  1.000000  1.000000  1.000000
 Range of M.O.s used for correlation:     5   190
 NBasis=   190 NAE=    15 NBE=    14 NFC=     4 NFV=     0
 NROrb=    186 NOA=    11 NOB=    10 NVA=   175 NVB=   176

 **** Warning!!: The largest alpha MO coefficient is  0.17669585D+02


 **** Warning!!: The largest beta MO coefficient is  0.17894527D+02

 DoSCS=T DFT=T ScalE2(SS,OS)=  0.270000  0.270000
 Fully direct method using O(ONN) memory.
 JobTyp=2 Pass  1:  I=   5 to  15 NPSUse= 40 ParTrn=T ParDer=T DoDerP=T.
 JobTyp=3 Pass  1:  I=   5 to  14 NPSUse= 40 ParTrn=T ParDer=T DoDerP=T.
 Spin components of T(2) and E(2):
     alpha-alpha T2 =       0.4228359930D-01 E2=     -0.2552844523D-01
     alpha-beta  T2 =       0.2469968560D+00 E2=     -0.1533401015D+00
     beta-beta   T2 =       0.3730280964D-01 E2=     -0.2195336455D-01
 (S**2,0)=  0.80804D+00           (S**2,1)=  0.77760D+00
 Scaling Projection term by:   0.270000
 E(PUHF)=      -0.15501925759D+03        E(PMP2)=      -0.15521606891D+03
 E2(B2PLYPD3) =    -0.2008219113D+00 E(B2PLYPD3) =    -0.15521506597542D+03
          IDoAtm=111111111
          Differentiating once with respect to electric field.
                with respect to dipole field.
          Differentiating once with respect to nuclear coordinates.
 Keep R1 and R2 ints in memory in canonical form, NReq=370978875.
          There are     1 degrees of freedom in the 1st order CPHF.  IDoFFX=0 NUNeed=     1.
 LinEq1:  Iter=  0 NonCon=     1 RMS=1.05D-03 Max=2.73D-02 NDo=     1
 AX will form     1 AO Fock derivatives at one time.
 LinEq1:  Iter=  1 NonCon=     1 RMS=4.38D-04 Max=1.28D-02 NDo=     1
 LinEq1:  Iter=  2 NonCon=     1 RMS=3.01D-04 Max=7.15D-03 NDo=     1
 LinEq1:  Iter=  3 NonCon=     1 RMS=1.29D-04 Max=4.29D-03 NDo=     1
 LinEq1:  Iter=  4 NonCon=     1 RMS=6.55D-05 Max=1.61D-03 NDo=     1
 LinEq1:  Iter=  5 NonCon=     1 RMS=2.20D-05 Max=5.91D-04 NDo=     1
 LinEq1:  Iter=  6 NonCon=     1 RMS=1.12D-05 Max=3.05D-04 NDo=     1
 LinEq1:  Iter=  7 NonCon=     1 RMS=7.05D-06 Max=1.79D-04 NDo=     1
 LinEq1:  Iter=  8 NonCon=     1 RMS=2.00D-06 Max=2.90D-05 NDo=     1
 LinEq1:  Iter=  9 NonCon=     1 RMS=9.74D-07 Max=2.00D-05 NDo=     1
 LinEq1:  Iter= 10 NonCon=     1 RMS=3.11D-07 Max=4.12D-06 NDo=     1
 LinEq1:  Iter= 11 NonCon=     1 RMS=6.89D-08 Max=9.46D-07 NDo=     1
 LinEq1:  Iter= 12 NonCon=     1 RMS=2.16D-08 Max=3.40D-07 NDo=     1
 LinEq1:  Iter= 13 NonCon=     1 RMS=4.85D-09 Max=7.73D-08 NDo=     1
 LinEq1:  Iter= 14 NonCon=     1 RMS=1.18D-09 Max=1.55D-08 NDo=     1
 LinEq1:  Iter= 15 NonCon=     1 RMS=2.29D-10 Max=2.68D-09 NDo=     1
 LinEq1:  Iter= 16 NonCon=     0 RMS=6.03D-11 Max=7.12D-10 NDo=     1
 Linear equations converged to 1.000D-10 1.000D-09 after    16 iterations.
 End of Minotr F.D. properties file   721 does not exist.
 End of Minotr F.D. properties file   722 does not exist.
 End of Minotr F.D. properties file   788 does not exist.
 Calling FoFJK, ICntrl=  10002127 FMM=F ISym2X=0 I1Cent= 0 IOpClX= 1 NMat=1 NMatS=1 NMatT=0.
 ***** Axes restored to original set *****
 -------------------------------------------------------------------
 Center     Atomic                   Forces (Hartrees/Bohr)
 Number     Number              X              Y              Z
 -------------------------------------------------------------------
      1        6           0.001045681   -0.000222810   -0.000000157
      2        6          -0.000936300    0.001776784   -0.000000321
      3        1          -0.001042105   -0.000559134    0.000000146
      4        1          -0.000296623   -0.001367585    0.000000204
      5        6           0.001503015   -0.000583791    0.000000158
      6        6          -0.000221701    0.000281643    0.000000031
      7        1          -0.000043198    0.000839649    0.000000007
      8        1          -0.000188936    0.000537333   -0.000000016
      9        1           0.000180168   -0.000702089   -0.000000052
 -------------------------------------------------------------------
 Cartesian Forces:  Max     0.001776784 RMS     0.000689031

 GradGradGradGradGradGradGradGradGradGradGradGradGradGradGradGradGradGrad
 Berny optimization.
 Using GEDIIS/GDIIS optimizer.
 FormGI is forming the generalized inverse of G from B-inverse, IUseBI=4.
 Internal  Forces:  Max     0.002291919 RMS     0.000811025
 Search for a local minimum.
 Step number   3 out of a maximum of  100
 All quantities printed in internal units (Hartrees-Bohrs-Radians)
 Mixed Optimization -- En-DIIS/RFO-DIIS
 Update second derivatives using D2CorX and points    1    2    3
 DE= -7.16D-04 DEPred=-6.08D-04 R= 1.18D+00
 TightC=F SS=  1.41D+00  RLast= 9.22D-02 DXNew= 8.4853D-01 2.7656D-01
 Trust test= 1.18D+00 RLast= 9.22D-02 DXMaxT set to 5.05D-01
 ITU=  1  1  0
 Use linear search instead of GDIIS.
     Eigenvalues ---    0.00237   0.01234   0.01702   0.03069   0.03069
     Eigenvalues ---    0.03069   0.09441   0.16000   0.16000   0.16101
     Eigenvalues ---    0.16333   0.21651   0.22166   0.30464   0.33776
     Eigenvalues ---    0.33875   0.33875   0.34108   0.37046   0.60498
     Eigenvalues ---    0.61974
 RFO step:  Lambda=-6.37527245D-05 EMin= 2.36824257D-03
 Quartic linear search produced a step of  0.29964.
 Iteration  1 RMS(Cart)=  0.01677439 RMS(Int)=  0.00023808
 Iteration  2 RMS(Cart)=  0.00022208 RMS(Int)=  0.00000001
 Iteration  3 RMS(Cart)=  0.00000000 RMS(Int)=  0.00000001
 Variable       Old X    -DE/DX   Delta X   Delta X   Delta X     New X
                                 (Linear)    (Quad)   (Total)
    R1        2.47800  -0.00000  -0.00050  -0.00033  -0.00083   2.47717
    R2        2.03539   0.00036  -0.00413   0.00376  -0.00037   2.03502
    R3        2.04955   0.00103  -0.00019   0.00336   0.00317   2.05272
    R4        2.77192   0.00099  -0.00594   0.00583  -0.00011   2.77182
    R5        2.51674  -0.00023   0.00303  -0.00273   0.00031   2.51704
    R6        2.04370   0.00075  -0.00029   0.00224   0.00195   2.04565
    R7        2.03889   0.00036  -0.00092   0.00116   0.00025   2.03914
    R8        2.04190   0.00069  -0.00075   0.00237   0.00162   2.04352
    A1        2.37403   0.00229   0.02068   0.00682   0.02751   2.40154
    A2        2.10334  -0.00206  -0.00966  -0.00705  -0.01672   2.08662
    A3        2.15470   0.00217   0.00591   0.00803   0.01394   2.16864
    A4        2.02514  -0.00011   0.00375  -0.00097   0.00278   2.02792
    A5        2.15167   0.00025   0.00353  -0.00119   0.00234   2.15401
    A6        2.03354   0.00026   0.00440  -0.00040   0.00400   2.03754
    A7        2.09798  -0.00052  -0.00793   0.00159  -0.00634   2.09163
    A8        2.12310  -0.00046  -0.00138  -0.00299  -0.00437   2.11873
    A9        2.11671   0.00002  -0.00330   0.00224  -0.00106   2.11566
   A10        2.04338   0.00044   0.00468   0.00075   0.00542   2.04880
    D1       -3.14158  -0.00000  -0.00000  -0.00001  -0.00002   3.14159
    D2        0.00000  -0.00000  -0.00000   0.00001   0.00000   0.00001
    D3        3.14159  -0.00000  -0.00000   0.00000   0.00000  -3.14159
    D4       -0.00000  -0.00000  -0.00000   0.00000   0.00000  -0.00000
    D5       -0.00001   0.00000  -0.00000   0.00003   0.00002   0.00001
    D6        3.14159   0.00000  -0.00001   0.00002   0.00002  -3.14158
    D7       -3.14159  -0.00000  -0.00000  -0.00000  -0.00000   3.14159
    D8        0.00000   0.00000  -0.00000   0.00000  -0.00000  -0.00000
    D9       -0.00000  -0.00000   0.00000   0.00000   0.00000   0.00000
   D10        3.14159   0.00000  -0.00000   0.00000   0.00000  -3.14159
         Item               Value     Threshold  Converged?
 Maximum Force            0.002292     0.000450     NO 
 RMS     Force            0.000811     0.000300     NO 
 Maximum Displacement     0.051287     0.001800     NO 
 RMS     Displacement     0.016767     0.001200     NO 
 Predicted change in Energy=-6.962938D-05
 GradGradGradGradGradGradGradGradGradGradGradGradGradGradGradGradGradGrad

                          Input orientation:                          
 ---------------------------------------------------------------------
 Center     Atomic      Atomic             Coordinates (Angstroms)
 Number     Number       Type             X           Y           Z
 ---------------------------------------------------------------------
      1          6           0       -2.726948    0.003734    0.368614
      2          6           0       -1.416121    0.013406    0.368614
      3          1           0       -3.527490    0.724020    0.368636
      4          1           0       -0.873365   -0.927530    0.368592
      5          6           0       -0.599488    1.231831    0.368661
      6          6           0        0.732438    1.222168    0.368660
      7          1           0       -1.131328    2.174686    0.368695
      8          1           0        1.301217    2.139161    0.368693
      9          1           0        1.286196    0.293326    0.368624
 ---------------------------------------------------------------------
                    Distance matrix (angstroms):
                    1          2          3          4          5
     1  C    0.000000
     2  C    1.310863   0.000000
     3  H    1.076884   2.227746   0.000000
     4  H    2.074373   1.086252   3.126019   0.000000
     5  C    2.456483   1.466782   2.971711   2.176659   0.000000
     6  C    3.667688   2.465241   4.288956   2.683246   1.331962
     7  H    2.694260   2.179963   2.801076   3.112923   1.082511
     8  H    4.559184   3.450038   5.031803   3.759441   2.106164
     9  H    4.023579   2.716776   4.832915   2.480765   2.106323
                    6          7          8          9
     6  C    0.000000
     7  H    2.093064   0.000000
     8  H    1.079066   2.432805   0.000000
     9  H    1.081386   3.063321   1.845896   0.000000
 Stoichiometry    C4H5(2)
 Framework group  C1[X(C4H5)]
 Deg. of freedom    21
 Full point group                 C1      NOp   1
 Largest Abelian subgroup         C1      NOp   1
 Largest concise Abelian subgroup C1      NOp   1
                         Standard orientation:                         
 ---------------------------------------------------------------------
 Center     Atomic      Atomic             Coordinates (Angstroms)
 Number     Number       Type             X           Y           Z
 ---------------------------------------------------------------------
      1          6           0        1.912648   -0.034557   -0.000025
      2          6           0        0.687021    0.430415   -0.000025
      3          1           0        2.398569   -0.995577   -0.000003
      4          1           0        0.521229    1.503940   -0.000047
      5          6           0       -0.514932   -0.410274    0.000022
      6          6           0       -1.753240    0.080353    0.000020
      7          1           0       -0.360011   -1.481642    0.000056
      8          1           0       -2.615112   -0.568923    0.000054
      9          1           0       -1.933662    1.146582   -0.000015
 ---------------------------------------------------------------------
 Rotational constants (GHZ):          44.1729813           4.7474151           4.2867085
 Standard basis: CC-pVTZ (5D, 7F)
 There are   215 symmetry adapted cartesian basis functions of A   symmetry.
 There are   190 symmetry adapted basis functions of A   symmetry.
   190 basis functions,   293 primitive gaussians,   215 cartesian basis functions
    15 alpha electrons       14 beta electrons
       nuclear repulsion energy        97.1045427993 Hartrees.
 NAtoms=    9 NActive=    9 NUniq=    9 SFac= 1.00D+00 NAtFMM=   60 NAOKFM=F Big=F
 Integral buffers will be    131072 words long.
 Raffenetti 2 integral format.
 Two-electron integral symmetry is turned on.
 Nuclear repulsion after empirical dispersion term =       97.1001215994 Hartrees.
 One-electron integrals computed using PRISM.
 NBasis=   190 RedAO= T EigKep=  3.55D-04  NBF=   190
 NBsUse=   190 1.00D-06 EigRej= -1.00D+00 NBFU=   190
 Initial guess from the checkpoint file:  "/localscratch/339542/Gau-93147.chk"
 B after Tr=    -0.000000    0.000000   -0.000000
         Rot=    1.000000    0.000001   -0.000000    0.000145 Ang=   0.02 deg.
 Initial guess <Sx>= 0.0000 <Sy>= 0.0000 <Sz>= 0.5000 <S**2>= 0.8080 S= 0.5286
 ExpMin= 1.03D-01 ExpMax= 8.24D+03 ExpMxC= 2.81D+02 IAcc=3 IRadAn=         5 AccDes= 0.00D+00
 Harris functional with IExCor=  419 and IRadAn=       5 diagonalized for initial guess.
 HarFok:  IExCor=  419 AccDes= 0.00D+00 IRadAn=         5 IDoV= 1 UseB2=F ITyADJ=14
 ICtDFT=  3500011 ScaDFX=  1.000000  1.000000  1.000000  1.000000
 FoFCou: FMM=F IPFlag=           0 FMFlag=      100000 FMFlg1=           0
         NFxFlg=           0 DoJE=T BraDBF=F KetDBF=T FulRan=T
         wScrn=  0.000000 ICntrl=       500 IOpCl=  0 I1Cent=   200000004 NGrid=           0
         NMat0=    1 NMatS0=      1 NMatT0=    0 NMatD0=    1 NMtDS0=    0 NMtDT0=    0
 Petite list used in FoFCou.
 Keep R1 and R2 ints in memory in canonical form, NReq=370972403.
 Requested convergence on RMS density matrix=1.00D-08 within 128 cycles.
 Requested convergence on MAX density matrix=1.00D-06.
 Requested convergence on             energy=1.00D-06.
 No special actions if energy rises.
 Integral accuracy reduced to 1.0D-05 until final iterations.
 Initial convergence to 1.0D-05 achieved.  Increase integral accuracy.
 SCF Done:  E(UB2PLYPD3) =  -155.014291210     A.U. after   16 cycles
            NFock= 16  Conv=0.16D-08     -V/T= 2.0044
 <Sx>= 0.0000 <Sy>= 0.0000 <Sz>= 0.5000 <S**2>= 0.8077 S= 0.5285
 <L.S>=  0.00000000000    
 Annihilation of the first spin contaminant:
 S**2 before annihilation     0.8077,   after     0.7512
 DoSCS=T DFT=T ScalE2(SS,OS)=  0.270000  0.270000
 ExpMin= 1.03D-01 ExpMax= 8.24D+03 ExpMxC= 2.81D+02 IAcc=3 IRadAn=         5 AccDes= 0.00D+00
 HarFok:  IExCor=  205 AccDes= 0.00D+00 IRadAn=         5 IDoV=-2 UseB2=F ITyADJ=14
 ICtDFT= 12500011 ScaDFX=  1.000000  1.000000  1.000000  1.000000
 Range of M.O.s used for correlation:     5   190
 NBasis=   190 NAE=    15 NBE=    14 NFC=     4 NFV=     0
 NROrb=    186 NOA=    11 NOB=    10 NVA=   175 NVB=   176

 **** Warning!!: The largest alpha MO coefficient is  0.17741460D+02


 **** Warning!!: The largest beta MO coefficient is  0.17952007D+02

 DoSCS=T DFT=T ScalE2(SS,OS)=  0.270000  0.270000
 Fully direct method using O(ONN) memory.
 JobTyp=2 Pass  1:  I=   5 to  15 NPSUse= 40 ParTrn=T ParDer=T DoDerP=T.
 JobTyp=3 Pass  1:  I=   5 to  14 NPSUse= 40 ParTrn=T ParDer=T DoDerP=T.
 Spin components of T(2) and E(2):
     alpha-alpha T2 =       0.4233386042D-01 E2=     -0.2554163238D-01
     alpha-beta  T2 =       0.2471311802D+00 E2=     -0.1533684874D+00
     beta-beta   T2 =       0.3729180067D-01 E2=     -0.2194463373D-01
 (S**2,0)=  0.80772D+00           (S**2,1)=  0.77737D+00
 Scaling Projection term by:   0.270000
 E(PUHF)=      -0.15501930903D+03        E(PMP2)=      -0.15521614880D+03
 E2(B2PLYPD3) =    -0.2008547535D+00 E(B2PLYPD3) =    -0.15521514596383D+03
          IDoAtm=111111111
          Differentiating once with respect to electric field.
                with respect to dipole field.
          Differentiating once with respect to nuclear coordinates.
 Keep R1 and R2 ints in memory in canonical form, NReq=370978875.
          There are     1 degrees of freedom in the 1st order CPHF.  IDoFFX=0 NUNeed=     1.
 LinEq1:  Iter=  0 NonCon=     1 RMS=1.05D-03 Max=2.73D-02 NDo=     1
 AX will form     1 AO Fock derivatives at one time.
 LinEq1:  Iter=  1 NonCon=     1 RMS=4.39D-04 Max=1.28D-02 NDo=     1
 LinEq1:  Iter=  2 NonCon=     1 RMS=3.01D-04 Max=7.20D-03 NDo=     1
 LinEq1:  Iter=  3 NonCon=     1 RMS=1.30D-04 Max=4.31D-03 NDo=     1
 LinEq1:  Iter=  4 NonCon=     1 RMS=6.55D-05 Max=1.61D-03 NDo=     1
 LinEq1:  Iter=  5 NonCon=     1 RMS=2.21D-05 Max=5.97D-04 NDo=     1
 LinEq1:  Iter=  6 NonCon=     1 RMS=1.14D-05 Max=3.12D-04 NDo=     1
 LinEq1:  Iter=  7 NonCon=     1 RMS=7.14D-06 Max=1.79D-04 NDo=     1
 LinEq1:  Iter=  8 NonCon=     1 RMS=2.00D-06 Max=2.87D-05 NDo=     1
 LinEq1:  Iter=  9 NonCon=     1 RMS=9.65D-07 Max=1.97D-05 NDo=     1
 LinEq1:  Iter= 10 NonCon=     1 RMS=3.13D-07 Max=4.22D-06 NDo=     1
 LinEq1:  Iter= 11 NonCon=     1 RMS=7.15D-08 Max=9.80D-07 NDo=     1
 LinEq1:  Iter= 12 NonCon=     1 RMS=2.26D-08 Max=3.50D-07 NDo=     1
 LinEq1:  Iter= 13 NonCon=     1 RMS=4.91D-09 Max=7.67D-08 NDo=     1
 LinEq1:  Iter= 14 NonCon=     1 RMS=1.19D-09 Max=1.47D-08 NDo=     1
 LinEq1:  Iter= 15 NonCon=     1 RMS=2.40D-10 Max=2.49D-09 NDo=     1
 LinEq1:  Iter= 16 NonCon=     0 RMS=6.51D-11 Max=7.26D-10 NDo=     1
 Linear equations converged to 1.000D-10 1.000D-09 after    16 iterations.
 End of Minotr F.D. properties file   721 does not exist.
 End of Minotr F.D. properties file   722 does not exist.
 End of Minotr F.D. properties file   788 does not exist.
 Calling FoFJK, ICntrl=  10002127 FMM=F ISym2X=0 I1Cent= 0 IOpClX= 1 NMat=1 NMatS=1 NMatT=0.
 ***** Axes restored to original set *****
 -------------------------------------------------------------------
 Center     Atomic                   Forces (Hartrees/Bohr)
 Number     Number              X              Y              Z
 -------------------------------------------------------------------
      1        6           0.000213062   -0.000347469   -0.000000251
      2        6          -0.000804721    0.000568985    0.000001079
      3        1          -0.000118950   -0.000028409   -0.000000034
      4        1           0.000166908   -0.000232300   -0.000000447
      5        6           0.001030023    0.000395823   -0.000000379
      6        6          -0.000534012   -0.000460182   -0.000000005
      7        1          -0.000274775   -0.000058067   -0.000000028
      8        1           0.000153967    0.000145668    0.000000066
      9        1           0.000168498    0.000015952   -0.000000000
 -------------------------------------------------------------------
 Cartesian Forces:  Max     0.001030023 RMS     0.000338911

 GradGradGradGradGradGradGradGradGradGradGradGradGradGradGradGradGradGrad
 Berny optimization.
 Using GEDIIS/GDIIS optimizer.
 FormGI is forming the generalized inverse of G from B-inverse, IUseBI=4.
 Internal  Forces:  Max     0.000778038 RMS     0.000232133
 Search for a local minimum.
 Step number   4 out of a maximum of  100
 All quantities printed in internal units (Hartrees-Bohrs-Radians)
 Mixed Optimization -- En-DIIS/RFO-DIIS
 Swapping is turned off.
 Update second derivatives using D2CorX and points    1    2    3    4
 DE= -8.00D-05 DEPred=-6.96D-05 R= 1.15D+00
 TightC=F SS=  1.41D+00  RLast= 3.70D-02 DXNew= 8.4853D-01 1.1092D-01
 Trust test= 1.15D+00 RLast= 3.70D-02 DXMaxT set to 5.05D-01
 ITU=  1  1  1  0
     Eigenvalues ---    0.00237   0.01220   0.01694   0.03069   0.03069
     Eigenvalues ---    0.03069   0.08450   0.16000   0.16032   0.16055
     Eigenvalues ---    0.16703   0.20841   0.22364   0.29332   0.33769
     Eigenvalues ---    0.33875   0.33903   0.34161   0.34660   0.60296
     Eigenvalues ---    0.62530
 En-DIIS/RFO-DIIS/Sim-DIIS IScMMF=       -3 using points:     4    3
 RFO step:  Lambda=-8.33846107D-06.
 DidBck=F Rises=F RFO-DIIS coefs:    1.14828   -0.14828
 Iteration  1 RMS(Cart)=  0.00409243 RMS(Int)=  0.00001005
 Iteration  2 RMS(Cart)=  0.00001099 RMS(Int)=  0.00000000
 Iteration  3 RMS(Cart)=  0.00000000 RMS(Int)=  0.00000000
 Variable       Old X    -DE/DX   Delta X   Delta X   Delta X     New X
                                 (Linear)    (Quad)   (Total)
    R1        2.47717  -0.00009  -0.00012  -0.00016  -0.00028   2.47689
    R2        2.03502   0.00007  -0.00006   0.00003  -0.00003   2.03499
    R3        2.05272   0.00028   0.00047   0.00054   0.00101   2.05373
    R4        2.77182   0.00034  -0.00002   0.00080   0.00078   2.77260
    R5        2.51704  -0.00021   0.00005  -0.00029  -0.00024   2.51680
    R6        2.04565   0.00008   0.00029  -0.00001   0.00028   2.04593
    R7        2.03914   0.00020   0.00004   0.00054   0.00057   2.03971
[...]
          (Kelvin)           1226.18  1323.02  1358.90  1375.80  1499.15
                             1681.91  1826.94  1917.86  2097.68  2394.89
                             2541.44  4495.55  4549.00  4575.09  4680.48
                             4691.68
 
 Zero-point correction=                           0.072048 (Hartree/Particle)
 Thermal correction to Energy=                    0.076722
 Thermal correction to Enthalpy=                  0.077666
 Thermal correction to Gibbs Free Energy=         0.044987
 Sum of electronic and zero-point Energies=           -155.143103
 Sum of electronic and thermal Energies=              -155.138430
 Sum of electronic and thermal Enthalpies=            -155.137485
 Sum of electronic and thermal Free Energies=         -155.170165
 
                     E (Thermal)             CV                S
                      KCal/Mol        Cal/Mol-Kelvin    Cal/Mol-Kelvin
 Total                   48.144             15.549             68.780
 Electronic               0.000              0.000              1.377
 Translational            0.889              2.981             37.828
 Rotational               0.889              2.981             23.396
 Vibrational             46.366              9.588              6.179
 Vibration     1          0.621              1.893              2.571
 Vibration     2          0.687              1.688              1.462
 Vibration     3          0.844              1.276              0.689
 Vibration     4          0.948              1.052              0.466
                       Q            Log10(Q)             Ln(Q)
 Total Bot       0.203044D-20        -20.692409        -47.646034
 Total V=0       0.280185D+13         12.447446         28.661303
 Vib (Bot)       0.231015D-32        -32.636360        -75.147996
 Vib (Bot)    1  0.127853D+01          0.106712          0.245714
 Vib (Bot)    2  0.653981D+00         -0.184435         -0.424677
 Vib (Bot)    3  0.340290D+00         -0.468150         -1.077956
 Vib (Bot)    4  0.255295D+00         -0.592957         -1.365334
 Vib (V=0)       0.318783D+01          0.503495          1.159340
 Vib (V=0)    1  0.187283D+01          0.272497          0.627448
 Vib (V=0)    2  0.132322D+01          0.121632          0.280068
 Vib (V=0)    3  0.110481D+01          0.043288          0.099675
 Vib (V=0)    4  0.106141D+01          0.025881          0.059594
 Electronic      0.200000D+01          0.301030          0.693147
 Translational   0.151827D+08          7.181348         16.535666
 Rotational      0.289449D+05          4.461572         10.273149
 ***** Axes restored to original set *****
 -------------------------------------------------------------------
 Center     Atomic                   Forces (Hartrees/Bohr)
 Number     Number              X              Y              Z
 -------------------------------------------------------------------
      1        6          -0.000008465    0.000002769   -0.000001017
      2        6          -0.000003052   -0.000021378    0.000005941
      3        1           0.000004091   -0.000000117   -0.000000381
      4        1           0.000013198    0.000015514   -0.000002743
      5        6          -0.000029577    0.000010218   -0.000001797
      6        6          -0.000001091    0.000011726    0.000000126
      7        1           0.000007720   -0.000005050   -0.000000371
      8        1           0.000013859   -0.000012661    0.000000231
      9        1           0.000003319   -0.000001022    0.000000011
 -------------------------------------------------------------------
 Cartesian Forces:  Max     0.000029577 RMS     0.000009798
 FormGI is forming the generalized inverse of G from B-inverse, IUseBI=4.

 GradGradGradGradGradGradGradGradGradGradGradGradGradGradGradGradGradGrad
 Berny optimization.
 Internal  Forces:  Max     0.000027706 RMS     0.000010866
 Search for a local minimum.
 Step number   1 out of a maximum of    2
 All quantities printed in internal units (Hartrees-Bohrs-Radians)
 Second derivative matrix not updated -- analytic derivatives used.
 ITU=  0
     Eigenvalues ---    0.00590   0.01408   0.02433   0.02962   0.03501
     Eigenvalues ---    0.04058   0.07807   0.10481   0.10838   0.11150
     Eigenvalues ---    0.12342   0.13909   0.17830   0.33112   0.34741
     Eigenvalues ---    0.35840   0.36179   0.36644   0.37288   0.64101
     Eigenvalues ---    0.68543
 Angle between quadratic step and forces=  22.41 degrees.
 Linear search not attempted -- first point.
 Iteration  1 RMS(Cart)=  0.00023783 RMS(Int)=  0.00000003
 Iteration  2 RMS(Cart)=  0.00000003 RMS(Int)=  0.00000000
 Variable       Old X    -DE/DX   Delta X   Delta X   Delta X     New X
                                 (Linear)    (Quad)   (Total)
    R1        2.47661   0.00000   0.00000  -0.00000  -0.00000   2.47661
    R2        2.03506  -0.00000   0.00000  -0.00001  -0.00001   2.03505
    R3        2.05399  -0.00001   0.00000  -0.00002  -0.00002   2.05397
    R4        2.77293  -0.00000   0.00000   0.00002   0.00002   2.77295
    R5        2.51645   0.00002   0.00000   0.00003   0.00003   2.51647
    R6        2.04587  -0.00001   0.00000  -0.00003  -0.00003   2.04584
    R7        2.03980  -0.00000   0.00000  -0.00001  -0.00001   2.03979
    R8        2.04367   0.00000   0.00000   0.00002   0.00002   2.04369
    A1        2.40571  -0.00001   0.00000  -0.00006  -0.00006   2.40564
    A2        2.08339   0.00002   0.00000   0.00017   0.00017   2.08356
    A3        2.17502   0.00001   0.00000   0.00005   0.00005   2.17506
    A4        2.02478  -0.00002   0.00000  -0.00022  -0.00022   2.02456
    A5        2.15245  -0.00003   0.00000  -0.00021  -0.00021   2.15225
    A6        2.03621   0.00002   0.00000   0.00015   0.00015   2.03636
    A7        2.09453   0.00001   0.00000   0.00006   0.00006   2.09458
    A8        2.11864   0.00002   0.00000   0.00022   0.00022   2.11886
    A9        2.11693  -0.00001   0.00000  -0.00009  -0.00009   2.11684
   A10        2.04761  -0.00001   0.00000  -0.00013  -0.00013   2.04748
    D1        3.14155   0.00000   0.00000   0.00004   0.00004   3.14159
    D2        0.00004  -0.00000   0.00000  -0.00004  -0.00004  -0.00000
    D3       -3.14158   0.00000   0.00000  -0.00001  -0.00001   3.14159
    D4        0.00001   0.00000   0.00000  -0.00001  -0.00001   0.00000
    D5        0.00009  -0.00000   0.00000  -0.00009  -0.00009   0.00000
    D6       -3.14150  -0.00000   0.00000  -0.00009  -0.00009  -3.14159
    D7        3.14159   0.00000   0.00000   0.00000   0.00000  -3.14159
    D8       -0.00000   0.00000   0.00000   0.00000   0.00000   0.00000
    D9       -0.00000   0.00000   0.00000   0.00000   0.00000   0.00000
   D10       -3.14159  -0.00000   0.00000  -0.00000  -0.00000   3.14159
         Item               Value     Threshold  Converged?
 Maximum Force            0.000028     0.000450     YES
 RMS     Force            0.000011     0.000300     YES
 Maximum Displacement     0.000533     0.001800     YES
 RMS     Displacement     0.000238     0.001200     YES
 Predicted change in Energy=-1.318753D-08
 Optimization completed.
    -- Stationary point found.
                           ----------------------------
                           !   Optimized Parameters   !
                           ! (Angstroms and Degrees)  !
 --------------------------                            --------------------------
 ! Name  Definition              Value          Derivative Info.                !
 --------------------------------------------------------------------------------
 ! R1    R(1,2)                  1.3106         -DE/DX =    0.0                 !
 ! R2    R(1,3)                  1.0769         -DE/DX =    0.0                 !
 ! R3    R(2,4)                  1.0869         -DE/DX =    0.0                 !
 ! R4    R(2,5)                  1.4674         -DE/DX =    0.0                 !
 ! R5    R(5,6)                  1.3316         -DE/DX =    0.0                 !
 ! R6    R(5,7)                  1.0826         -DE/DX =    0.0                 !
 ! R7    R(6,8)                  1.0794         -DE/DX =    0.0                 !
 ! R8    R(6,9)                  1.0815         -DE/DX =    0.0                 !
 ! A1    A(2,1,3)              137.8368         -DE/DX =    0.0                 !
 ! A2    A(1,2,4)              119.3696         -DE/DX =    0.0                 !
 ! A3    A(1,2,5)              124.6192         -DE/DX =    0.0                 !
 ! A4    A(4,2,5)              116.0112         -DE/DX =    0.0                 !
 ! A5    A(2,5,6)              123.3264         -DE/DX =    0.0                 !
 ! A6    A(2,5,7)              116.6661         -DE/DX =    0.0                 !
 ! A7    A(6,5,7)              120.0075         -DE/DX =    0.0                 !
 ! A8    A(5,6,8)              121.3893         -DE/DX =    0.0                 !
 ! A9    A(5,6,9)              121.2911         -DE/DX =    0.0                 !
 ! A10   A(8,6,9)              117.3196         -DE/DX =    0.0                 !
 ! D1    D(3,1,2,4)            179.9974         -DE/DX =    0.0                 !
 ! D2    D(3,1,2,5)              0.0022         -DE/DX =    0.0                 !
 ! D3    D(1,2,5,6)            180.0008         -DE/DX =    0.0                 !
 ! D4    D(1,2,5,7)              0.0006         -DE/DX =    0.0                 !
 ! D5    D(4,2,5,6)              0.0054         -DE/DX =    0.0                 !
 ! D6    D(4,2,5,7)           -179.9948         -DE/DX =    0.0                 !
 ! D7    D(2,5,6,8)           -180.0002         -DE/DX =    0.0                 !
 ! D8    D(2,5,6,9)             -0.0001         -DE/DX =    0.0                 !
 ! D9    D(7,5,6,8)             -0.0001         -DE/DX =    0.0                 !
 ! D10   D(7,5,6,9)            180.0001         -DE/DX =    0.0                 !
 --------------------------------------------------------------------------------
 GradGradGradGradGradGradGradGradGradGradGradGradGradGradGradGradGradGrad


 ----------------------------------------------------------------------

 Electric dipole moment (input orientation):
 (Debye = 10**-18 statcoulomb cm , SI units = C m)
                  (au)            (Debye)         (10**-30 SI)
   Tot        0.281192D+00      0.714718D+00      0.238404D+01
   x          0.121374D+00      0.308503D+00      0.102906D+01
   y          0.253648D+00      0.644708D+00      0.215051D+01
   z          0.227437D-04      0.578088D-04      0.192829D-03

 Dipole polarizability, Alpha (input orientation).
 (esu units = cm**3 , SI units = C**2 m**2 J**-1)
 Alpha(0;0):
               (au)            (10**-24 esu)      (10**-40 SI)
   iso        0.484871D+02      0.718505D+01      0.799444D+01
   aniso      0.476107D+02      0.705517D+01      0.784994D+01
   xx         0.777682D+02      0.115241D+02      0.128222D+02
   yx         0.750776D+01      0.111253D+01      0.123786D+01
   yy         0.413424D+02      0.612632D+01      0.681645D+01
   zx         0.209441D-03      0.310359D-04      0.345321D-04
   zy         0.549073D-03      0.813642D-04      0.905299D-04
   zz         0.263507D+02      0.390477D+01      0.434464D+01

 ----------------------------------------------------------------------

 Dipole orientation:
     6         -4.49643919          1.37921820         -2.22114381
     6         -2.49288309          0.42057934         -1.12553238
     1         -6.26184833          2.22402855         -1.66337690
     1         -0.96371524         -0.31132183         -2.28520954
     6         -2.12903267          0.24658736          1.61790597
     6         -0.07109795         -0.73803947          2.67994119
     1         -3.64021203          0.96969505          2.79222111
     1          0.13486989         -0.83650689          4.70692335
     1          1.46178853         -1.47152851          1.54466862

 Electric dipole moment (dipole orientation):
 (Debye = 10**-18 statcoulomb cm , SI units = C m)
                  (au)            (Debye)         (10**-30 SI)
   Tot        0.281192D+00      0.714718D+00      0.238404D+01
   x          0.000000D+00      0.000000D+00      0.000000D+00
   y          0.000000D+00      0.000000D+00      0.000000D+00
   z          0.281192D+00      0.714718D+00      0.238404D+01

 Dipole polarizability, Alpha (dipole orientation).
 (esu units = cm**3 , SI units = C**2 m**2 J**-1)
 Alpha(0;0):
               (au)            (10**-24 esu)      (10**-40 SI)
   iso        0.484871D+02      0.718505D+01      0.799444D+01
   aniso      0.476107D+02      0.705517D+01      0.784994D+01
   xx         0.579101D+02      0.858140D+01      0.954809D+01
   yx        -0.151001D+02     -0.223761D+01     -0.248968D+01
   yy         0.335756D+02      0.497539D+01      0.553587D+01
   zx         0.170430D+02      0.252551D+01      0.281001D+01
   zy        -0.815351D+01     -0.120823D+01     -0.134433D+01
   zz         0.539756D+02      0.799836D+01      0.889937D+01

 ----------------------------------------------------------------------
 1\1\GINC-N68\Freq\UB2PLYPD3-FC\CC-pVTZ\C4H5(2)\ROOT\31-May-2019\0\\#N 
 Geom=AllCheck Guess=TCheck SCRF=Check GenChk UB2PLYPD3(FC)/CC-pVTZ Fre
 q\\Title Card Required\\0,2\C,-2.7276235887,0.0021632957,0.3686042693\
 C,-1.4171522277,0.01781295,0.368605514\H,-3.5344419792,0.7154486637,0.
 3686123531\H,-0.8728050366,-0.9229814973,0.3686366636\C,-0.5979905043,
 1.2352468775,0.3686673617\C,0.7335806399,1.2211027309,0.3686513732\H,-
 1.1294367866,2.1784552789,0.3687254801\H,1.3055497847,2.1365190455,0.3
 686944155\H,1.2854305685,0.2910348651,0.3685921295\\Version=ES64L-G16R
 evB.01\State=2-A\HF=-155.0142859\MP2=-155.2151517\PUHF=-155.0192927\PM
 P2-0=-155.2161516\S2=0.807394\S2-1=0.777152\S2A=0.751159\RMSD=5.153e-1
 0\RMSF=9.798e-06\ZeroPoint=0.0720482\Thermal=0.0767221\Dipole=0.121374
 5,0.2536475,0.0000227\DipoleDeriv=-0.15362,-0.0965457,-0.0000018,-0.27
 11979,-0.1492121,-0.0000019,-0.0000097,0.0000022,-0.2739085,-0.0221252
 ,-0.011998,0.0000077,0.0536761,0.0847492,-0.0000011,0.0000233,-0.00000
 98,-0.0863347,0.1109142,0.0200967,-0.0000008,0.1260344,0.0445734,-0.00
 00011,-0.0000007,-0.0000041,0.212044,0.0045005,0.0734042,-0.0000032,0.
 0238121,-0.0311205,-0.0000031,-0.0000111,0.0000059,0.1496784,0.2026854
 ,0.0402021,-0.000003,0.1763151,0.1699403,0.0000187,0.0000066,0.000019,
 -0.1290382,-0.1768135,-0.0681219,-0.0000057,-0.1311815,0.0601636,0.000
 0212,-0.0000139,0.0000199,-0.2953749,-0.0054778,0.0625075,0.0000043,0.
 0136865,-0.0691537,-0.0000108,0.0000022,-0.0000114,0.1375238,0.0086418
 ,-0.0392307,-0.0000003,-0.0701656,-0.0412963,-0.0000097,-0.0000033,-0.
 00001,0.1410089,0.0312946,0.0196858,0.0000028,0.0790208,-0.0686439,-0.
 0000123,0.0000066,-0.0000116,0.1444012\Polar=77.7682141,7.5077561,41.3
 424254,0.0002094,0.0005491,26.3506727\PG=C01 [X(C4H5)]\NImag=0\\0.8895
 1856,-0.15996817,0.24695926,0.00000140,0.00000258,0.04615185,-0.611495
 77,0.02209615,-0.00000109,0.87295316,-0.01790519,-0.07638348,-0.000000
 46,-0.03717733,0.54270657,-0.00000176,-0.00000068,-0.03616614,0.000009
 11,0.00000132,0.12190272,-0.22161169,0.14936563,0.00000174,-0.00550308
 ,0.02504721,-0.00000006,0.22736303,0.18278445,-0.17407433,-0.00000164,
 -0.01414171,0.00862475,0.00000016,-0.17254028,0.16491545,0.00000147,-0
 .00000176,-0.02324799,0.00000024,-0.00000007,0.00136742,-0.00000184,0.
 00000156,0.01590788,-0.02195234,0.02351581,-0.00000032,-0.11208747,0.1
 2055003,-0.00000370,-0.00338206,0.00098244,-0.00000014,0.12905898,0.00
 414694,0.00384827,0.00000009,0.11182500,-0.25199346,0.00000552,-0.0016
 3763,-0.00033132,0.00000011,-0.12621505,0.27212881,-0.00000070,0.00000
 029,-0.00124059,-0.00000373,0.00000795,-0.03839790,0.00000016,-0.00000
 008,0.00833158,0.00000472,-0.00000579,0.02082141,-0.02260402,-0.030375
 33,-0.00000159,-0.13719002,-0.07338010,-0.00000260,0.00266528,0.002440
 20,0.00000018,0.00812319,0.01477347,-0.00000055,0.86962587,-0.00668145
 ,0.00219011,-0.00000062,-0.05727754,-0.20559907,-0.00000522,0.00044171
 ,0.00048099,0.00000025,-0.01655032,-0.02363751,-0.00000204,-0.04729900
 ,0.60512015,-0.00000039,-0.00000036,0.01564072,-0.00000344,-0.00000726
 ,-0.06283465,0.00000004,-0.00000002,-0.00301905,-0.00000042,0.00000009
 ,0.00973724,-0.00000972,0.00002557,0.12134013,-0.01306480,-0.00280688,
 -0.00000006,-0.01259064,-0.00404566,-0.00000034,0.00040791,0.00005030,
 0.00000002,0.00183268,0.00128869,0.00000020,-0.57141116,0.00940066,0.0
 0000638,0.86959514,-0.00356808,-0.00446179,-0.00000023,-0.03610310,0.0
 0001253,-0.00000004,0.00016376,0.00062889,0.,-0.00062131,0.00191986,0.
 00000001,0.01053507,-0.11460597,-0.00000350,0.00544416,0.65319945,0.00
 000003,-0.00000027,0.00084790,-0.00000211,-0.00000058,0.00675358,0.,0.
 00000003,0.00029296,-0.00000007,-0.00000003,-0.00112475,0.00000647,-0.
 00000329,-0.05081059,-0.00000858,0.00003034,0.10812411,0.00199066,-0.0
 0009441,-0.00000003,0.00826986,-0.01708741,-0.00000078,-0.00020339,0.0
 0020562,0.00000006,-0.00162492,-0.00294879,-0.00000014,-0.12208906,0.1
 1714281,0.00000707,-0.01371016,0.03054622,0.00000189,0.13124914,0.0014
 5813,0.00139863,0.00000024,0.01171082,-0.02010750,-0.00000100,-0.00070
 183,0.00000261,-0.00000008,-0.00266127,-0.00281824,-0.00000038,0.12016
 604,-0.26881341,-0.00001418,-0.00254775,0.00265943,-0.00000016,-0.1269
 3707,0.28510575,-0.00000003,0.00000014,-0.00111200,0.00000101,-0.00000
 077,0.00282713,-0.00000004,0.,0.00019298,-0.00000016,-0.00000007,0.002
 45406,0.00000714,-0.00001431,-0.04132847,0.00000016,-0.00000052,0.0060
 8860,-0.00000812,0.00001561,0.02688608,-0.00083782,-0.00136199,-0.0000
 0003,-0.00436898,0.00195849,0.00000025,0.00010005,0.00025387,0.,0.0001
 4810,-0.00011507,0.,-0.01342582,-0.02965742,-0.00000148,-0.13358813,-0
 .12470908,-0.00000551,0.00121061,0.00017949,-0.00000011,0.14066613,-0.
 00009867,0.00023283,0.00000006,0.00052445,0.00120981,-0.00000057,-0.00
 007076,-0.00005388,0.00000002,0.00025196,0.00044013,0.00000002,0.00440
 466,0.00366341,-0.00000017,-0.13031825,-0.26957229,-0.00001136,-0.0003
 5821,0.00118785,0.00000048,0.13973631,0.27838144,0.,0.00000010,-0.0008
 9349,0.00000026,-0.00000045,0.01267129,0.,0.,-0.00041355,0.00000008,-0
 .00000007,-0.00102406,0.00000036,0.00000015,0.00603256,-0.00000590,-0.
 00001139,-0.03439689,-0.00000012,0.00000052,-0.00760387,0.00000622,0.0
 0001235,0.02318489,0.00005722,-0.00037082,0.,0.00201294,0.00203996,-0.
 00000013,0.00016397,-0.00003487,0.00000003,-0.00011617,-0.00111757,0.0
 0000004,-0.01369427,0.03048054,0.00000194,-0.12747084,0.11831235,0.000
 00787,-0.00509274,-0.00066656,0.00000014,0.01009586,-0.01407149,-0.000
 00090,0.13404402,-0.00016796,0.00029050,-0.00000001,-0.00145674,0.0015
 2985,0.00000051,-0.00006780,-0.00019317,-0.00000004,0.00074770,0.00044
 347,0.,-0.00126501,0.00120130,-0.00000017,0.12353474,-0.26978011,-0.00
 001468,-0.00046877,0.00138489,-0.00000055,0.01371540,-0.01548929,-0.00
 000121,-0.13457156,0.28061255,-0.00000004,-0.00000004,0.00001975,-0.00
 000024,0.00000032,-0.00812345,-0.00000002,-0.00000002,0.00058776,0.,0.
 00000015,0.00044301,0.00000032,-0.00000050,0.00524211,0.00000812,-0.00
 001466,-0.03577493,0.00000016,-0.00000058,0.01159549,0.00000066,-0.000
 00083,0.00244311,-0.00000898,0.00001615,0.02356714\\0.00000847,-0.0000
 0277,0.00000102,0.00000305,0.00002138,-0.00000594,-0.00000409,0.000000
 12,0.00000038,-0.00001320,-0.00001551,0.00000274,0.00002958,-0.0000102
 2,0.00000180,0.00000109,-0.00001173,-0.00000013,-0.00000772,0.00000505
 ,0.00000037,-0.00001386,0.00001266,-0.00000023,-0.00000332,0.00000102,
 -0.00000001\\\@


 A great many people think they are thinking when they
 are merely rearranging their prejudices.
                               -- William James
 Job cpu time:       0 days  4 hours 41 minutes  6.0 seconds.
 Elapsed time:       0 days  0 hours  7 minutes 14.7 seconds.
 File lengths (MBytes):  RWF=   9023 Int=      0 D2E=      0 Chk=      7 Scr=      1
 Normal termination of Gaussian 16 at Fri May 31 17:09:25 2019.
