 Entering Gaussian System, Link 0=g16
 Input=13butene.gjf
 Output=13butene.log
 Initial command:
 /root/software/Gaussian16Rev.A.03/g16/l1.exe "/home/scratch/Gau-21596.inp" -scrdir="/home/scratch/"
 Entering Link 1 = /root/software/Gaussian16Rev.A.03/g16/l1.exe PID=     21597.
  
 Copyright (c) 1988,1990,1992,1993,1995,1998,2003,2009,2016,
            Gaussian, Inc.  All Rights Reserved.
  
 This is part of the Gaussian(R) 16 program.  It is based on
 the Gaussian(R) 09 system (copyright 2009, Gaussian, Inc.),
 the Gaussian(R) 03 system (copyright 2003, Gaussian, Inc.),
 the Gaussian(R) 98 system (copyright 1998, Gaussian, Inc.),
 the Gaussian(R) 94 system (copyright 1995, Gaussian, Inc.),
 the Gaussian 92(TM) system (copyright 1992, Gaussian, Inc.),
 the Gaussian 90(TM) system (copyright 1990, Gaussian, Inc.),
 the Gaussian 88(TM) system (copyright 1988, Gaussian, Inc.),
 the Gaussian 86(TM) system (copyright 1986, Carnegie Mellon
 University), and the Gaussian 82(TM) system (copyright 1983,
 Carnegie Mellon University). Gaussian is a federally registered
 trademark of Gaussian, Inc.
  
 This software contains proprietary and confidential information,
 including trade secrets, belonging to Gaussian, Inc.
  
 This software is provided under written license and may be
 used, copied, transmitted, or stored only in accord with that
 written license.
  
 The following legend is applicable only to US Government
 contracts under FAR:
  
                    RESTRICTED RIGHTS LEGEND
  
 Use, reproduction and disclosure by the US Government is
 subject to restrictions as set forth in subparagraphs (a)
 and (c) of the Commercial Computer Software - Restricted
 Rights clause in FAR 52.227-19.
  
 Gaussian, Inc.
 340 Quinnipiac St., Bldg. 40, Wallingford CT 06492
  
  
 ---------------------------------------------------------------
 Warning -- This program may not be used in any manner that
 competes with the business of Gaussian, Inc. or will provide
 assistance to any competitor of Gaussian, Inc.  The licensee
 of this program is prohibited from giving any competitor of
 Gaussian, Inc. access to this program.  By using this program,
 the user acknowledges that Gaussian, Inc. is engaged in the
 business of creating and licensing software in the field of
 computational chemistry and represents and warrants to the
 licensee that it is not a competitor of Gaussian, Inc. and that
 it will not use this program in any manner prohibited above.
 ---------------------------------------------------------------
  

 Cite this work as:
 Gaussian 16, Revision A.03,
 M. J. Frisch, G. W. Trucks, H. B. Schlegel, G. E. Scuseria, 
 M. A. Robb, J. R. Cheeseman, G. Scalmani, V. Barone, 
 G. A. Petersson, H. Nakatsuji, X. Li, M. Caricato, A. V. Marenich, 
 J. Bloino, B. G. Janesko, R. Gomperts, B. Mennucci, H. P. Hratchian, 
 J. V. Ortiz, A. F. Izmaylov, J. L. Sonnenberg, D. Williams-Young, 
 F. Ding, F. Lipparini, F. Egidi, J. Goings, B. Peng, A. Petrone, 
 T. Henderson, D. Ranasinghe, V. G. Zakrzewski, J. Gao, N. Rega, 
 G. Zheng, W. Liang, M. Hada, M. Ehara, K. Toyota, R. Fukuda, 
 J. Hasegawa, M. Ishida, T. Nakajima, Y. Honda, O. Kitao, H. Nakai, 
 T. Vreven, K. Throssell, J. A. Montgomery, Jr., J. E. Peralta, 
 F. Ogliaro, M. J. Bearpark, J. J. Heyd, E. N. Brothers, K. N. Kudin, 
 V. N. Staroverov, T. A. Keith, R. Kobayashi, J. Normand, 
 K. Raghavachari, A. P. Rendell, J. C. Burant, S. S. Iyengar, 
 J. Tomasi, M. Cossi, J. M. Millam, M. Klene, C. Adamo, R. Cammi, 
 J. W. Ochterski, R. L. Martin, K. Morokuma, O. Farkas, 
 J. B. Foresman, and D. J. Fox, Gaussian, Inc., Wallingford CT, 2016.
 
 ******************************************
 Gaussian 16:  ES64L-G16RevA.03 25-Dec-2016
                29-Nov-2019 
 ******************************************
 %chk=13butene.chk
 %nprocshared=28
 Will use up to   28 processors via shared memory.
 %mem=50GB
 ----------------------------------------------------------------------
 # opt=(maxcyc=500,modredundant) uB2PLYPD3/cc-pvtz scf=maxcyc=500 nosym
 m
 ----------------------------------------------------------------------
 1/6=500,18=120,19=15,38=1/1,3;
 2/9=110,12=2,15=1,17=6,18=5,40=1/2;
 3/5=16,6=1,11=2,25=1,30=1,71=1,74=-60,116=2/1,2,3;
 4//1;
 5/5=2,7=500,38=5/2;
 8/6=4,10=1/1;
 9/15=2,16=-3/6;
 10/5=1,31=1/2;
 6/7=2,8=2,9=2,10=2/1;
 7/12=2,30=1/1,2,3,16;
 1/6=500,18=20,19=15/3(2);
 2/9=110,15=1/2;
 99//99;
 2/9=110,15=1/2;
 3/5=16,6=1,11=2,25=1,30=1,71=1,74=-60,116=2/1,2,3;
 4/5=5,16=3,69=1/1;
 5/5=2,7=500,38=5/2;
 8/6=4,10=1/1;
 9/15=2,16=-3/6;
 10/5=1,31=1/2;
 7/12=2,30=1/1,2,3,16;
 1/6=500,18=20,19=15/3(-8);
 2/9=110,15=1/2;
 6/7=2,8=2,9=2,10=2/1;
 99//99;
 -------------------
 Title Card Required
 -------------------
 Symbolic Z-matrix:
 Charge =  0 Multiplicity = 1
 C                     1.83942   0.10979   0.00001 
 C                     0.60523  -0.40151   0.00004 
 H                     2.00131   1.17931  -0.00006 
 H                     2.71477  -0.52152   0.00004 
 H                     0.47241  -1.47749   0.0001 
 C                    -0.60523   0.40151  0. 
 C                    -1.83942  -0.10979  -0.00004 
 H                    -0.47241   1.47749   0. 
 H                    -2.71477   0.52152  -0.00006 
 H                    -2.00131  -1.17931  -0.00004 
 
 The following ModRedundant input section has been read:
 D    *          2       6    *    R                                           
 D       1       2       6       7 S  36 10.000                                
 

 GradGradGradGradGradGradGradGradGradGradGradGradGradGradGradGradGradGrad
 Berny optimization.
 Initialization pass.
                           ----------------------------
                           !    Initial Parameters    !
                           ! (Angstroms and Degrees)  !
 --------------------------                            --------------------------
 ! Name  Definition              Value          Derivative Info.                !
 --------------------------------------------------------------------------------
 ! R1    R(1,2)                  1.3359         estimate D2E/DX2                !
 ! R2    R(1,3)                  1.0817         estimate D2E/DX2                !
 ! R3    R(1,4)                  1.0793         estimate D2E/DX2                !
 ! R4    R(2,5)                  1.0841         estimate D2E/DX2                !
 ! R5    R(2,6)                  1.4526         estimate D2E/DX2                !
 ! R6    R(6,7)                  1.3359         estimate D2E/DX2                !
 ! R7    R(6,8)                  1.0841         estimate D2E/DX2                !
 ! R8    R(7,9)                  1.0793         estimate D2E/DX2                !
 ! R9    R(7,10)                 1.0817         estimate D2E/DX2                !
 ! A1    A(2,1,3)              121.1109         estimate D2E/DX2                !
 ! A2    A(2,1,4)              121.6975         estimate D2E/DX2                !
 ! A3    A(3,1,4)              117.1915         estimate D2E/DX2                !
 ! A4    A(1,2,5)              119.5407         estimate D2E/DX2                !
 ! A5    A(1,2,6)              123.9366         estimate D2E/DX2                !
 ! A6    A(5,2,6)              116.5226         estimate D2E/DX2                !
 ! A7    A(2,6,7)              123.9366         estimate D2E/DX2                !
 ! A8    A(2,6,8)              116.5227         estimate D2E/DX2                !
 ! A9    A(7,6,8)              119.5407         estimate D2E/DX2                !
 ! A10   A(6,7,9)              121.6975         estimate D2E/DX2                !
 ! A11   A(6,7,10)             121.1109         estimate D2E/DX2                !
 ! A12   A(9,7,10)             117.1916         estimate D2E/DX2                !
 ! D1    D(3,1,2,5)            179.9998         estimate D2E/DX2                !
 ! D2    D(3,1,2,6)              0.0            estimate D2E/DX2                !
 ! D3    D(4,1,2,5)             -0.0001         estimate D2E/DX2                !
 ! D4    D(4,1,2,6)           -179.9999         estimate D2E/DX2                !
 ! D5    D(1,2,6,7)            179.9965         Scan                            !
 ! D6    D(2,6,7,9)            179.9996         estimate D2E/DX2                !
 ! D7    D(2,6,7,10)            -0.0003         estimate D2E/DX2                !
 ! D8    D(8,6,7,9)              0.0            estimate D2E/DX2                !
 ! D9    D(8,6,7,10)          -179.9999         estimate D2E/DX2                !
 --------------------------------------------------------------------------------
 Trust Radius=3.00D-01 FncErr=1.00D-07 GrdErr=1.00D-07 EigMax=2.50D+02 EigMin=1.00D-04
 Number of optimizations in scan=  37
 Number of steps in this run=    100 maximum allowed number of steps=    100.
 GradGradGradGradGradGradGradGradGradGradGradGradGradGradGradGradGradGrad

                          Input orientation:                          
 ---------------------------------------------------------------------
 Center     Atomic      Atomic             Coordinates (Angstroms)
 Number     Number       Type             X           Y           Z
 ---------------------------------------------------------------------
      1          6           0        1.839417    0.109787    0.000005
      2          6           0        0.605234   -0.401510    0.000039
      3          1           0        2.001313    1.179305   -0.000058
      4          1           0        2.714768   -0.521518    0.000037
      5          1           0        0.472405   -1.477491    0.000099
      6          6           0       -0.605234    0.401510   -0.000003
      7          6           0       -1.839417   -0.109787   -0.000037
      8          1           0       -0.472406    1.477491    0.000000
      9          1           0       -2.714768    0.521518   -0.000062
     10          1           0       -2.001313   -1.179306   -0.000039
 ---------------------------------------------------------------------
                    Distance matrix (angstroms):
                    1          2          3          4          5
     1  C    0.000000
     2  C    1.335901   0.000000
     3  H    1.081702   2.109031   0.000000
     4  H    1.079252   2.112945   1.844402   0.000000
     5  H    2.094797   1.084149   3.065310   2.437637   0.000000
     6  C    2.461995   1.452609   2.720120   3.445924   2.166091
     7  C    3.685381   2.461995   4.051292   4.572759   2.686100
     8  H    2.686101   2.166092   2.491626   3.762196   3.102352
     9  H    4.572759   3.445924   4.761733   5.528814   3.762195
    10  H    4.051292   2.720120   4.645865   4.761733   2.491625
                    6          7          8          9         10
     6  C    0.000000
     7  C    1.335901   0.000000
     8  H    1.084149   2.094796   0.000000
     9  H    2.112945   1.079252   2.437637   0.000000
    10  H    2.109032   1.081703   3.065310   1.844402   0.000000
 Symmetry turned off by external request.
 Stoichiometry    C4H6
 Framework group  C1[X(C4H6)]
 Deg. of freedom    24
 Full point group                 C1      NOp   1
 Rotational constants (GHZ):          42.4417271           4.4575894           4.0339136
 Standard basis: CC-pVTZ (5D, 7F)
   204 basis functions,   310 primitive gaussians,   230 cartesian basis functions
    15 alpha electrons       15 beta electrons
       nuclear repulsion energy       104.0300523683 Hartrees.
 NAtoms=   10 NActive=   10 NUniq=   10 SFac= 1.00D+00 NAtFMM=   60 NAOKFM=F Big=F
 Integral buffers will be    131072 words long.
 Raffenetti 2 integral format.
 Two-electron integral symmetry is turned off.
 Nuclear repulsion after empirical dispersion term =      104.0252149002 Hartrees.
 One-electron integrals computed using PRISM.
 NBasis=   204 RedAO= T EigKep=  3.13D-04  NBF=   204
 NBsUse=   204 1.00D-06 EigRej= -1.00D+00 NBFU=   204
 ExpMin= 1.03D-01 ExpMax= 8.24D+03 ExpMxC= 2.81D+02 IAcc=3 IRadAn=         5 AccDes= 0.00D+00
 Harris functional with IExCor=  419 and IRadAn=       5 diagonalized for initial guess.
 HarFok:  IExCor=  419 AccDes= 0.00D+00 IRadAn=         5 IDoV= 1 UseB2=F ITyADJ=14
 ICtDFT=  3500011 ScaDFX=  1.000000  1.000000  1.000000  1.000000
 FoFCou: FMM=F IPFlag=           0 FMFlag=      100000 FMFlg1=           0
         NFxFlg=           0 DoJE=T BraDBF=F KetDBF=T FulRan=T
         wScrn=  0.000000 ICntrl=       500 IOpCl=  0 I1Cent=   200000004 NGrid=           0
         NMat0=    1 NMatS0=      1 NMatT0=    0 NMatD0=    1 NMtDS0=    0 NMtDT0=    0
 Symmetry not used in FoFCou.
 Initial guess <Sx>= 0.0000 <Sy>= 0.0000 <Sz>= 0.0000 <S**2>=-0.0000 S=-0.0000
 Keep R1 and R2 ints in memory in canonical form, NReq=466875242.
 Requested convergence on RMS density matrix=1.00D-08 within 500 cycles.
 Requested convergence on MAX density matrix=1.00D-06.
 Requested convergence on             energy=1.00D-06.
 No special actions if energy rises.
 Integral accuracy reduced to 1.0D-05 until final iterations.
 Initial convergence to 1.0D-05 achieved.  Increase integral accuracy.
 SCF Done:  E(UB2PLYPD3) =  -155.689130547     A.U. after   11 cycles
            NFock= 11  Conv=0.29D-08     -V/T= 2.0047
 <Sx>= 0.0000 <Sy>= 0.0000 <Sz>= 0.0000 <S**2>=-0.0000 S=-0.0000
 <L.S>=  0.00000000000    
 Annihilation of the first spin contaminant:
 S**2 before annihilation    -0.0000,   after     0.0000
 DoSCS=T DFT=T ScalE2(SS,OS)=  0.270000  0.270000
 ExpMin= 1.03D-01 ExpMax= 8.24D+03 ExpMxC= 2.81D+02 IAcc=3 IRadAn=         5 AccDes= 0.00D+00
 HarFok:  IExCor=  205 AccDes= 0.00D+00 IRadAn=         5 IDoV=-2 UseB2=F ITyADJ=14
 ICtDFT= 12500011 ScaDFX=  1.000000  1.000000  1.000000  1.000000
 Range of M.O.s used for correlation:     5   204
 NBasis=   204 NAE=    15 NBE=    15 NFC=     4 NFV=     0
 NROrb=    200 NOA=    11 NOB=    11 NVA=   189 NVB=   189

 **** Warning!!: The largest alpha MO coefficient is  0.14817152D+02


 **** Warning!!: The largest beta MO coefficient is  0.14817152D+02

 DoSCS=T DFT=T ScalE2(SS,OS)=  0.270000  0.270000
 Fully direct method using O(ONN) memory.
 JobTyp=2 Pass  1:  I=   5 to  15 NPSUse= 28 ParTrn=T ParDer=T DoDerP=T.
 JobTyp=3 Pass  1:  I=   5 to  15 NPSUse= 28 ParTrn=T ParDer=T DoDerP=T.
 Spin components of T(2) and E(2):
     alpha-alpha T2 =       0.4108355817D-01 E2=     -0.2466252845D-01
     alpha-beta  T2 =       0.2653033650D+00 E2=     -0.1648176910D+00
     beta-beta   T2 =       0.4108355817D-01 E2=     -0.2466252845D-01
 (S**2,0)=  0.00000D+00           (S**2,1)=  0.00000D+00
 E(PUHF)=      -0.15568913055D+03        E(PMP2)=      -0.15590327330D+03
 E2(B2PLYPD3) =    -0.2141427479D+00 E(B2PLYPD3) =    -0.15590327329538D+03
          IDoAtm=1111111111
          Differentiating once with respect to electric field.
                with respect to dipole field.
          Differentiating once with respect to nuclear coordinates.
 Keep R1 and R2 ints in memory in canonical form, NReq=466882464.
          There are     1 degrees of freedom in the 1st order CPHF.  IDoFFX=0 NUNeed=     1.
 LinEq1:  Iter=  0 NonCon=     1 RMS=7.11D-04 Max=1.65D-02 NDo=     1
 AX will form     1 AO Fock derivatives at one time.
 LinEq1:  Iter=  1 NonCon=     1 RMS=2.59D-04 Max=4.29D-03 NDo=     1
 LinEq1:  Iter=  2 NonCon=     1 RMS=7.54D-05 Max=2.82D-03 NDo=     1
 LinEq1:  Iter=  3 NonCon=     1 RMS=4.23D-05 Max=1.18D-03 NDo=     1
 LinEq1:  Iter=  4 NonCon=     1 RMS=1.06D-05 Max=2.54D-04 NDo=     1
 LinEq1:  Iter=  5 NonCon=     1 RMS=1.68D-06 Max=2.55D-05 NDo=     1
 LinEq1:  Iter=  6 NonCon=     1 RMS=1.87D-07 Max=3.67D-06 NDo=     1
 LinEq1:  Iter=  7 NonCon=     1 RMS=3.65D-08 Max=6.38D-07 NDo=     1
 LinEq1:  Iter=  8 NonCon=     1 RMS=7.36D-09 Max=1.09D-07 NDo=     1
 LinEq1:  Iter=  9 NonCon=     1 RMS=1.52D-09 Max=2.71D-08 NDo=     1
 LinEq1:  Iter= 10 NonCon=     1 RMS=2.06D-10 Max=4.42D-09 NDo=     1
 LinEq1:  Iter= 11 NonCon=     0 RMS=2.75D-11 Max=8.38D-10 NDo=     1
 Linear equations converged to 1.000D-10 1.000D-09 after    11 iterations.
 End of Minotr F.D. properties file   721 does not exist.
 End of Minotr F.D. properties file   722 does not exist.
 End of Minotr F.D. properties file   788 does not exist.

 **********************************************************************

            Population analysis using the SCF density.

 **********************************************************************

 Alpha  occ. eigenvalues --  -10.62417 -10.62359 -10.61363 -10.61363  -0.92860
 Alpha  occ. eigenvalues --   -0.84771  -0.70052  -0.64006  -0.54457  -0.53835
 Alpha  occ. eigenvalues --   -0.46544  -0.45505  -0.41057  -0.37981  -0.27508
 Alpha virt. eigenvalues --    0.02354   0.10018   0.10261   0.11037   0.12345
 Alpha virt. eigenvalues --    0.15800   0.16115   0.18470   0.23900   0.28360
 Alpha virt. eigenvalues --    0.33983   0.34152   0.36454   0.37077   0.39251
 Alpha virt. eigenvalues --    0.39451   0.41000   0.44541   0.47484   0.48929
 Alpha virt. eigenvalues --    0.49100   0.50501   0.52858   0.54619   0.56009
 Alpha virt. eigenvalues --    0.57845   0.58735   0.59858   0.65091   0.66678
 Alpha virt. eigenvalues --    0.70106   0.71747   0.72708   0.75984   0.76450
 Alpha virt. eigenvalues --    0.79288   0.80305   0.83603   0.95414   0.97214
 Alpha virt. eigenvalues --    0.97537   0.98136   1.01641   1.03093   1.08062
 Alpha virt. eigenvalues --    1.08974   1.11503   1.12247   1.17811   1.20037
 Alpha virt. eigenvalues --    1.21936   1.25758   1.28525   1.28694   1.30461
 Alpha virt. eigenvalues --    1.35153   1.36718   1.41257   1.44043   1.48914
 Alpha virt. eigenvalues --    1.49871   1.52559   1.54418   1.57016   1.57396
 Alpha virt. eigenvalues --    1.58029   1.62794   1.73486   1.82055   1.83140
 Alpha virt. eigenvalues --    2.07134   2.12996   2.16183   2.20700   2.28098
 Alpha virt. eigenvalues --    2.35096   2.35605   2.39295   2.39729   2.46299
 Alpha virt. eigenvalues --    2.53959   2.56005   2.56492   2.58100   2.64439
 Alpha virt. eigenvalues --    2.67647   2.74027   2.77761   2.79548   2.84095
 Alpha virt. eigenvalues --    2.85816   2.86139   2.89939   2.90436   2.92971
 Alpha virt. eigenvalues --    2.94992   2.99303   2.99596   2.99965   3.01873
 Alpha virt. eigenvalues --    3.04472   3.06808   3.10935   3.12603   3.13447
 Alpha virt. eigenvalues --    3.15816   3.17300   3.19979   3.23047   3.23570
 Alpha virt. eigenvalues --    3.25681   3.28985   3.29460   3.32315   3.34125
 Alpha virt. eigenvalues --    3.40689   3.42630   3.43282   3.47807   3.49758
 Alpha virt. eigenvalues --    3.57719   3.58647   3.60523   3.63165   3.67192
 Alpha virt. eigenvalues --    3.67672   3.72247   3.72973   3.79041   3.84650
 Alpha virt. eigenvalues --    3.86812   3.88500   3.90425   3.91525   3.93711
 Alpha virt. eigenvalues --    3.95915   3.97429   4.01054   4.02117   4.08614
 Alpha virt. eigenvalues --    4.09732   4.12597   4.14031   4.15088   4.16987
 Alpha virt. eigenvalues --    4.22332   4.22347   4.26211   4.32530   4.36126
 Alpha virt. eigenvalues --    4.39696   4.49367   4.50109   4.50659   4.57011
 Alpha virt. eigenvalues --    4.61067   4.65962   4.66128   4.72106   4.78148
 Alpha virt. eigenvalues --    4.80547   4.84215   4.92087   4.95958   4.99458
 Alpha virt. eigenvalues --    5.08739   5.11048   5.11267   5.14398   5.21604
 Alpha virt. eigenvalues --    5.26167   5.28781   5.31894   5.32454   5.48517
 Alpha virt. eigenvalues --    5.57275   5.60674   5.63230   5.69406   6.04254
 Alpha virt. eigenvalues --    6.09104   6.13587   6.25535   6.30503   6.76604
 Alpha virt. eigenvalues --   11.71494  11.73323  14.12154  14.79412
  Beta  occ. eigenvalues --  -10.62417 -10.62359 -10.61363 -10.61363  -0.92860
  Beta  occ. eigenvalues --   -0.84771  -0.70052  -0.64006  -0.54457  -0.53835
  Beta  occ. eigenvalues --   -0.46544  -0.45505  -0.41057  -0.37981  -0.27508
  Beta virt. eigenvalues --    0.02354   0.10018   0.10261   0.11037   0.12345
  Beta virt. eigenvalues --    0.15800   0.16115   0.18470   0.23900   0.28360
  Beta virt. eigenvalues --    0.33983   0.34152   0.36454   0.37077   0.39251
  Beta virt. eigenvalues --    0.39451   0.41000   0.44541   0.47484   0.48929
  Beta virt. eigenvalues --    0.49100   0.50501   0.52858   0.54619   0.56009
  Beta virt. eigenvalues --    0.57845   0.58735   0.59858   0.65091   0.66678
  Beta virt. eigenvalues --    0.70106   0.71747   0.72708   0.75984   0.76450
  Beta virt. eigenvalues --    0.79288   0.80305   0.83603   0.95414   0.97214
  Beta virt. eigenvalues --    0.97537   0.98136   1.01641   1.03093   1.08062
  Beta virt. eigenvalues --    1.08974   1.11503   1.12247   1.17811   1.20037
  Beta virt. eigenvalues --    1.21936   1.25758   1.28525   1.28694   1.30461
  Beta virt. eigenvalues --    1.35153   1.36718   1.41257   1.44043   1.48914
  Beta virt. eigenvalues --    1.49871   1.52559   1.54418   1.57016   1.57396
  Beta virt. eigenvalues --    1.58029   1.62794   1.73486   1.82055   1.83140
  Beta virt. eigenvalues --    2.07134   2.12996   2.16183   2.20700   2.28098
  Beta virt. eigenvalues --    2.35096   2.35605   2.39295   2.39729   2.46299
  Beta virt. eigenvalues --    2.53959   2.56005   2.56492   2.58100   2.64439
  Beta virt. eigenvalues --    2.67647   2.74027   2.77761   2.79548   2.84095
  Beta virt. eigenvalues --    2.85816   2.86139   2.89939   2.90436   2.92971
  Beta virt. eigenvalues --    2.94992   2.99303   2.99596   2.99965   3.01873
  Beta virt. eigenvalues --    3.04472   3.06808   3.10935   3.12603   3.13447
  Beta virt. eigenvalues --    3.15816   3.17300   3.19979   3.23047   3.23570
  Beta virt. eigenvalues --    3.25681   3.28985   3.29460   3.32315   3.34125
  Beta virt. eigenvalues --    3.40689   3.42630   3.43282   3.47807   3.49758
  Beta virt. eigenvalues --    3.57719   3.58647   3.60523   3.63165   3.67192
  Beta virt. eigenvalues --    3.67672   3.72247   3.72973   3.79041   3.84650
  Beta virt. eigenvalues --    3.86812   3.88500   3.90425   3.91525   3.93711
  Beta virt. eigenvalues --    3.95915   3.97429   4.01054   4.02117   4.08614
  Beta virt. eigenvalues --    4.09732   4.12597   4.14031   4.15088   4.16987
  Beta virt. eigenvalues --    4.22332   4.22347   4.26211   4.32530   4.36126
  Beta virt. eigenvalues --    4.39696   4.49367   4.50109   4.50659   4.57011
  Beta virt. eigenvalues --    4.61067   4.65962   4.66128   4.72106   4.78148
  Beta virt. eigenvalues --    4.80547   4.84215   4.92087   4.95958   4.99458
  Beta virt. eigenvalues --    5.08739   5.11048   5.11267   5.14398   5.21604
  Beta virt. eigenvalues --    5.26167   5.28781   5.31894   5.32454   5.48517
  Beta virt. eigenvalues --    5.57275   5.60674   5.63230   5.69406   6.04254
  Beta virt. eigenvalues --    6.09104   6.13587   6.25535   6.30503   6.76604
  Beta virt. eigenvalues --   11.71494  11.73323  14.12154  14.79412
          Condensed to atoms (all electrons):
               1          2          3          4          5          6
     1  C    4.970310   0.614855   0.414013   0.422255  -0.042861  -0.066828
     2  C    0.614855   4.840511  -0.049868  -0.044917   0.411345   0.398395
     3  H    0.414013  -0.049868   0.543553  -0.035126   0.006269  -0.004356
     4  H    0.422255  -0.044917  -0.035126   0.533613  -0.007967   0.006336
     5  H   -0.042861   0.411345   0.006269  -0.007967   0.539880  -0.042624
     6  C   -0.066828   0.398395  -0.004356   0.006336  -0.042624   4.840511
     7  C    0.000858  -0.066828   0.000204  -0.000350  -0.001367   0.614855
     8  H   -0.001367  -0.042624   0.004941  -0.000231   0.005447   0.411345
     9  H   -0.000350   0.006336  -0.000038   0.000019  -0.000231  -0.044917
    10  H    0.000204  -0.004356   0.000046  -0.000038   0.004941  -0.049867
               7          8          9         10
     1  C    0.000858  -0.001367  -0.000350   0.000204
     2  C   -0.066828  -0.042624   0.006336  -0.004356
     3  H    0.000204   0.004941  -0.000038   0.000046
     4  H   -0.000350  -0.000231   0.000019  -0.000038
     5  H   -0.001367   0.005447  -0.000231   0.004941
     6  C    0.614855   0.411345  -0.044917  -0.049867
     7  C    4.970309  -0.042861   0.422255   0.414013
     8  H   -0.042861   0.539880  -0.007967   0.006269
     9  H    0.422255  -0.007967   0.533613  -0.035126
    10  H    0.414013   0.006269  -0.035126   0.543553
          Atomic-Atomic Spin Densities.
               1          2          3          4          5          6
     1  C   -0.000000   0.000000  -0.000000  -0.000000   0.000000   0.000000
     2  C    0.000000  -0.000000  -0.000000   0.000000  -0.000000  -0.000000
     3  H   -0.000000  -0.000000   0.000000  -0.000000   0.000000  -0.000000
     4  H   -0.000000   0.000000  -0.000000   0.000000  -0.000000   0.000000
     5  H    0.000000  -0.000000   0.000000  -0.000000   0.000000   0.000000
     6  C    0.000000  -0.000000  -0.000000   0.000000   0.000000   0.000000
     7  C    0.000000  -0.000000  -0.000000   0.000000   0.000000   0.000000
     8  H    0.000000  -0.000000  -0.000000  -0.000000   0.000000   0.000000
     9  H    0.000000  -0.000000  -0.000000  -0.000000  -0.000000  -0.000000
    10  H    0.000000  -0.000000  -0.000000   0.000000   0.000000   0.000000
               7          8          9         10
     1  C    0.000000   0.000000   0.000000   0.000000
     2  C   -0.000000  -0.000000  -0.000000  -0.000000
     3  H   -0.000000  -0.000000  -0.000000  -0.000000
     4  H    0.000000  -0.000000  -0.000000   0.000000
     5  H    0.000000   0.000000  -0.000000   0.000000
     6  C    0.000000   0.000000  -0.000000   0.000000
     7  C   -0.000000  -0.000000   0.000000  -0.000000
     8  H   -0.000000   0.000000  -0.000000   0.000000
     9  H    0.000000  -0.000000   0.000000  -0.000000
    10  H   -0.000000   0.000000  -0.000000   0.000000
 Mulliken charges and spin densities:
               1          2
     1  C   -0.311089  -0.000000
     2  C   -0.062849  -0.000000
     3  H    0.120362  -0.000000
     4  H    0.126406   0.000000
     5  H    0.127169   0.000000
     6  C   -0.062849   0.000000
     7  C   -0.311089  -0.000000
     8  H    0.127169   0.000000
     9  H    0.126406  -0.000000
    10  H    0.120362   0.000000
 Sum of Mulliken charges =  -0.00000  -0.00000
 Mulliken charges and spin densities with hydrogens summed into heavy atoms:
               1          2
     1  C   -0.064320  -0.000000
     2  C    0.064320  -0.000000
     6  C    0.064320   0.000000
     7  C   -0.064320  -0.000000
 Electronic spatial extent (au):  <R**2>=            334.4100
 Charge=             -0.0000 electrons
 Dipole moment (field-independent basis, Debye):
    X=              0.0000    Y=              0.0000    Z=              0.0000  Tot=              0.0000
 Quadrupole moment (field-independent basis, Debye-Ang):
   XX=            -23.3055   YY=            -22.9822   ZZ=            -29.0257
   XY=              0.1015   XZ=              0.0001   YZ=             -0.0002
 Traceless Quadrupole moment (field-independent basis, Debye-Ang):
   XX=              1.7989   YY=              2.1223   ZZ=             -3.9212
   XY=              0.1015   XZ=              0.0001   YZ=             -0.0002
 Octapole moment (field-independent basis, Debye-Ang**2):
  XXX=              0.0000  YYY=              0.0000  ZZZ=              0.0000  XYY=             -0.0000
  XXY=              0.0000  XXZ=             -0.0003  XZZ=              0.0000  YZZ=              0.0000
  YYZ=              0.0001  XYZ=             -0.0002
 Hexadecapole moment (field-independent basis, Debye-Ang**3):
 XXXX=           -341.0375 YYYY=            -64.4594 ZZZZ=            -34.5585 XXXY=             -6.0713
 XXXZ=             -0.0014 YYYX=              1.8557 YYYZ=              0.0003 ZZZX=             -0.0026
 ZZZY=              0.0007 XXYY=            -67.6826 XXZZ=            -75.7541 YYZZ=            -18.6609
 XXYZ=             -0.0003 YYXZ=             -0.0007 ZZXY=              0.3410
 N-N= 1.040252149002D+02 E-N=-5.688298789804D+02  KE= 1.549610880883D+02
                          Isotropic Fermi Contact Couplings
        Atom                 a.u.       MegaHertz       Gauss      10(-4) cm-1
     1  C(13)             -0.00000      -0.00000      -0.00000      -0.00000
     2  C(13)              0.00000       0.00000       0.00000       0.00000
     3  H(1)               0.00000       0.00000       0.00000       0.00000
     4  H(1)               0.00000       0.00000       0.00000       0.00000
     5  H(1)              -0.00000      -0.00000      -0.00000      -0.00000
     6  C(13)              0.00000       0.00000       0.00000       0.00000
     7  C(13)             -0.00000      -0.00000      -0.00000      -0.00000
     8  H(1)              -0.00000      -0.00000      -0.00000      -0.00000
     9  H(1)               0.00000       0.00000       0.00000       0.00000
    10  H(1)               0.00000       0.00000       0.00000       0.00000
 --------------------------------------------------------
       Center         ----  Spin Dipole Couplings  ----
                      3XX-RR        3YY-RR        3ZZ-RR
 --------------------------------------------------------
     1   Atom        0.000000      0.000000      0.000000
     2   Atom        0.000000      0.000000      0.000000
     3   Atom        0.000000      0.000000      0.000000
     4   Atom        0.000000      0.000000      0.000000
     5   Atom        0.000000      0.000000      0.000000
     6   Atom        0.000000      0.000000      0.000000
     7   Atom        0.000000      0.000000      0.000000
     8   Atom        0.000000      0.000000      0.000000
     9   Atom        0.000000      0.000000      0.000000
    10   Atom        0.000000      0.000000      0.000000
 --------------------------------------------------------
                        XY            XZ            YZ
 --------------------------------------------------------
     1   Atom        0.000000      0.000000      0.000000
     2   Atom        0.000000      0.000000      0.000000
     3   Atom        0.000000      0.000000      0.000000
     4   Atom        0.000000      0.000000      0.000000
     5   Atom        0.000000      0.000000      0.000000
     6   Atom        0.000000      0.000000      0.000000
     7   Atom        0.000000      0.000000      0.000000
     8   Atom        0.000000      0.000000      0.000000
     9   Atom        0.000000      0.000000      0.000000
    10   Atom        0.000000      0.000000      0.000000
 --------------------------------------------------------


 ---------------------------------------------------------------------------------
              Anisotropic Spin Dipole Couplings in Principal Axis System
 ---------------------------------------------------------------------------------

       Atom             a.u.   MegaHertz   Gauss  10(-4) cm-1        Axes

              Baa     0.0000     0.000     0.000     0.000  1.0000  0.0000  0.0000
     1 C(13)  Bbb     0.0000     0.000     0.000     0.000 -0.0000  1.0000  0.0000
              Bcc     0.0000     0.000     0.000     0.000  0.0000  0.0000  1.0000
 
              Baa     0.0000     0.000     0.000     0.000  1.0000  0.0000  0.0000
     2 C(13)  Bbb     0.0000     0.000     0.000     0.000 -0.0000  1.0000  0.0000
              Bcc     0.0000     0.000     0.000     0.000  0.0000  0.0000  1.0000
 
              Baa     0.0000     0.000     0.000     0.000  1.0000  0.0000  0.0000
     3 H(1)   Bbb     0.0000     0.000     0.000     0.000 -0.0000  1.0000  0.0000
              Bcc     0.0000     0.000     0.000     0.000  0.0000  0.0000  1.0000
 
              Baa     0.0000     0.000     0.000     0.000  1.0000  0.0000  0.0000
     4 H(1)   Bbb     0.0000     0.000     0.000     0.000 -0.0000  1.0000  0.0000
              Bcc     0.0000     0.000     0.000     0.000  0.0000  0.0000  1.0000
 
              Baa     0.0000     0.000     0.000     0.000  1.0000  0.0000  0.0000
     5 H(1)   Bbb     0.0000     0.000     0.000     0.000 -0.0000  1.0000  0.0000
              Bcc     0.0000     0.000     0.000     0.000  0.0000  0.0000  1.0000
 
              Baa     0.0000     0.000     0.000     0.000  1.0000  0.0000  0.0000
     6 C(13)  Bbb     0.0000     0.000     0.000     0.000 -0.0000  1.0000  0.0000
              Bcc     0.0000     0.000     0.000     0.000  0.0000  0.0000  1.0000
 
              Baa     0.0000     0.000     0.000     0.000  1.0000  0.0000  0.0000
     7 C(13)  Bbb     0.0000     0.000     0.000     0.000 -0.0000  1.0000  0.0000
              Bcc     0.0000     0.000     0.000     0.000  0.0000  0.0000  1.0000
 
              Baa     0.0000     0.000     0.000     0.000  1.0000  0.0000  0.0000
     8 H(1)   Bbb     0.0000     0.000     0.000     0.000 -0.0000  1.0000  0.0000
              Bcc     0.0000     0.000     0.000     0.000  0.0000  0.0000  1.0000
 
              Baa     0.0000     0.000     0.000     0.000  1.0000  0.0000  0.0000
     9 H(1)   Bbb     0.0000     0.000     0.000     0.000 -0.0000  1.0000  0.0000
              Bcc     0.0000     0.000     0.000     0.000  0.0000  0.0000  1.0000
 
              Baa     0.0000     0.000     0.000     0.000  1.0000  0.0000  0.0000
    10 H(1)   Bbb     0.0000     0.000     0.000     0.000 -0.0000  1.0000  0.0000
              Bcc     0.0000     0.000     0.000     0.000  0.0000  0.0000  1.0000
 

 ---------------------------------------------------------------------------------

 Calling FoFJK, ICntrl=  10002127 FMM=F ISym2X=0 I1Cent= 0 IOpClX= 1 NMat=1 NMatS=1 NMatT=0.
 -------------------------------------------------------------------
 Center     Atomic                   Forces (Hartrees/Bohr)
 Number     Number              X              Y              Z
 -------------------------------------------------------------------
      1        6          -0.000031999    0.000225469    0.000000307
      2        6           0.000132822   -0.000018591   -0.000000362
      3        1          -0.000002364    0.000016771    0.000000199
      4        1          -0.000003246   -0.000166299   -0.000000065
      5        1          -0.000017766   -0.000037886   -0.000000354
      6        6          -0.000132926    0.000018566    0.000000565
      7        6           0.000031925   -0.000226157    0.000000416
      8        1           0.000017874    0.000037961   -0.000000583
      9        1           0.000003239    0.000166276   -0.000000262
     10        1           0.000002441   -0.000016111    0.000000140
 -------------------------------------------------------------------
 Cartesian Forces:  Max     0.000226157 RMS     0.000081530

 GradGradGradGradGradGradGradGradGradGradGradGradGradGradGradGradGradGrad
 Berny optimization.
 FormGI is forming the generalized inverse of G from B-inverse, IUseBI=4.
 Internal  Forces:  Max     0.000182521 RMS     0.000066192
 Search for a local minimum.
 Step number   1 out of a maximum of  100 on scan point     1 out of    37
 All quantities printed in internal units (Hartrees-Bohrs-Radians)
 Mixed Optimization -- En-DIIS/RFO-DIIS
 Second derivative matrix not updated -- first step.
 ITU=  0
     Eigenvalues ---    0.02937   0.02937   0.02937   0.02937   0.02937
     Eigenvalues ---    0.02937   0.16000   0.16000   0.16000   0.16000
     Eigenvalues ---    0.16000   0.16000   0.22000   0.22000   0.35498
     Eigenvalues ---    0.35498   0.35789   0.35789   0.36085   0.36085
     Eigenvalues ---    0.37905   0.58133   0.581331000.000001000.00000
     Eigenvalues --- 1000.000001000.000001000.000001000.000001000.00000
 RFO step:  Lambda=-7.25449297D-07 EMin= 2.93665864D-02
 Linear search not attempted -- first point.
 Iteration  1 RMS(Cart)=  0.00054174 RMS(Int)=  0.00000026
 Iteration  2 RMS(Cart)=  0.00000029 RMS(Int)=  0.00000000
 Iteration  1 RMS(Cart)=  0.00000000 RMS(Int)=  0.00000000
 Variable       Old X    -DE/DX   Delta X   Delta X   Delta X     New X
                                 (Linear)    (Quad)   (Total)
    R1        2.52449  -0.00001   0.00000  -0.00001  -0.00001   2.52448
    R2        2.04412   0.00002   0.00000   0.00005   0.00005   2.04417
    R3        2.03949   0.00009   0.00000   0.00026   0.00026   2.03975
    R4        2.04874   0.00004   0.00000   0.00011   0.00011   2.04886
    R5        2.74503   0.00005   0.00000   0.00014   0.00014   2.74518
    R6        2.52449  -0.00001   0.00000  -0.00001  -0.00001   2.52448
    R7        2.04874   0.00004   0.00000   0.00011   0.00011   2.04886
    R8        2.03949   0.00009   0.00000   0.00026   0.00026   2.03975
    R9        2.04412   0.00002   0.00000   0.00004   0.00004   2.04417
    A1        2.11378   0.00009   0.00000   0.00054   0.00054   2.11432
    A2        2.12402  -0.00018   0.00000  -0.00114  -0.00114   2.12288
    A3        2.04538   0.00010   0.00000   0.00060   0.00060   2.04598
    A4        2.08638  -0.00001   0.00000  -0.00002  -0.00002   2.08636
    A5        2.16310   0.00005   0.00000   0.00021   0.00021   2.16331
    A6        2.03370  -0.00004   0.00000  -0.00019  -0.00019   2.03352
    A7        2.16310   0.00005   0.00000   0.00021   0.00021   2.16331
    A8        2.03370  -0.00004   0.00000  -0.00019  -0.00019   2.03352
    A9        2.08638  -0.00001   0.00000  -0.00002  -0.00002   2.08636
   A10        2.12402  -0.00018   0.00000  -0.00114  -0.00114   2.12288
   A11        2.11378   0.00009   0.00000   0.00054   0.00054   2.11432
   A12        2.04538   0.00010   0.00000   0.00060   0.00060   2.04598
    D1        3.14159  -0.00000   0.00000  -0.00001  -0.00001   3.14158
    D2       -0.00000   0.00000   0.00000   0.00002   0.00002   0.00002
    D3       -0.00000  -0.00000   0.00000  -0.00001  -0.00001  -0.00001
    D4       -3.14159   0.00000   0.00000   0.00002   0.00002  -3.14157
    D5        3.14153   0.00000   0.00000   0.00000   0.00000   3.14153
    D6        3.14159   0.00000   0.00000   0.00003   0.00003  -3.14157
    D7       -0.00000   0.00000   0.00000   0.00003   0.00003   0.00002
    D8        0.00000  -0.00000   0.00000  -0.00002  -0.00002  -0.00002
    D9       -3.14159  -0.00000   0.00000  -0.00002  -0.00002   3.14158
         Item               Value     Threshold  Converged?
 Maximum Force            0.000183     0.000450     YES
 RMS     Force            0.000067     0.000300     YES
 Maximum Displacement     0.001011     0.001800     YES
 RMS     Displacement     0.000542     0.001200     YES
 Predicted change in Energy=-3.627247D-07
 Optimization completed.
    -- Stationary point found.
                           ----------------------------
                           !   Optimized Parameters   !
                           ! (Angstroms and Degrees)  !
 --------------------------                            --------------------------
 ! Name  Definition              Value          Derivative Info.                !
 --------------------------------------------------------------------------------
 ! R1    R(1,2)                  1.3359         -DE/DX =    0.0                 !
 ! R2    R(1,3)                  1.0817         -DE/DX =    0.0                 !
 ! R3    R(1,4)                  1.0793         -DE/DX =    0.0001              !
 ! R4    R(2,5)                  1.0841         -DE/DX =    0.0                 !
 ! R5    R(2,6)                  1.4526         -DE/DX =    0.0001              !
 ! R6    R(6,7)                  1.3359         -DE/DX =    0.0                 !
 ! R7    R(6,8)                  1.0841         -DE/DX =    0.0                 !
 ! R8    R(7,9)                  1.0793         -DE/DX =    0.0001              !
 ! R9    R(7,10)                 1.0817         -DE/DX =    0.0                 !
 ! A1    A(2,1,3)              121.1109         -DE/DX =    0.0001              !
 ! A2    A(2,1,4)              121.6975         -DE/DX =   -0.0002              !
 ! A3    A(3,1,4)              117.1915         -DE/DX =    0.0001              !
 ! A4    A(1,2,5)              119.5407         -DE/DX =    0.0                 !
 ! A5    A(1,2,6)              123.9366         -DE/DX =    0.0                 !
 ! A6    A(5,2,6)              116.5226         -DE/DX =    0.0                 !
 ! A7    A(2,6,7)              123.9366         -DE/DX =    0.0                 !
 ! A8    A(2,6,8)              116.5227         -DE/DX =    0.0                 !
 ! A9    A(7,6,8)              119.5407         -DE/DX =    0.0                 !
 ! A10   A(6,7,9)              121.6975         -DE/DX =   -0.0002              !
 ! A11   A(6,7,10)             121.1109         -DE/DX =    0.0001              !
 ! A12   A(9,7,10)             117.1916         -DE/DX =    0.0001              !
 ! D1    D(3,1,2,5)            179.9998         -DE/DX =    0.0                 !
 ! D2    D(3,1,2,6)              0.0            -DE/DX =    0.0                 !
 ! D3    D(4,1,2,5)             -0.0001         -DE/DX =    0.0                 !
 ! D4    D(4,1,2,6)           -179.9999         -DE/DX =    0.0                 !
 ! D5    D(1,2,6,7)            179.9965         -DE/DX =    0.0                 !
 ! D6    D(2,6,7,9)           -180.0004         -DE/DX =    0.0                 !
 ! D7    D(2,6,7,10)            -0.0003         -DE/DX =    0.0                 !
 ! D8    D(8,6,7,9)              0.0            -DE/DX =    0.0                 !
 ! D9    D(8,6,7,10)           180.0001         -DE/DX =    0.0                 !
 --------------------------------------------------------------------------------
 Iteration  1 RMS(Cart)=  0.09910109 RMS(Int)=  0.00318273
 Iteration  2 RMS(Cart)=  0.00467481 RMS(Int)=  0.00000522
 Iteration  3 RMS(Cart)=  0.00000689 RMS(Int)=  0.00000000
 Iteration  4 RMS(Cart)=  0.00000000 RMS(Int)=  0.00000000
 Iteration  1 RMS(Cart)=  0.00000000 RMS(Int)=  0.00000000
 GradGradGradGradGradGradGradGradGradGradGradGradGradGradGradGradGradGrad

                          Input orientation:                          
 ---------------------------------------------------------------------
 Center     Atomic      Atomic             Coordinates (Angstroms)
 Number     Number       Type             X           Y           Z
 ---------------------------------------------------------------------
      1          6           0        1.837068    0.108590    0.039215
      2          6           0        0.605832   -0.400678   -0.057337
      3          1           0        1.996196    1.175129    0.124684
      4          1           0        2.712663   -0.522601    0.035425
      5          1           0        0.476351   -1.473803   -0.141868
      6          6           0       -0.605830    0.400675   -0.057373
      7          6           0       -1.837069   -0.108588    0.039176
      8          1           0       -0.476348    1.473795   -0.141968
      9          1           0       -2.712665    0.522602    0.035324
     10          1           0       -1.996199   -1.175122    0.124703
 ---------------------------------------------------------------------
                    Distance matrix (angstroms):
                    1          2          3          4          5
     1  C    0.000000
     2  C    1.335896   0.000000
     3  H    1.081726   2.109363   0.000000
     4  H    1.079391   2.112394   1.844879   0.000000
     5  H    2.094829   1.084208   3.065586   2.436660   0.000000
     6  C    2.462193   1.452684   2.720931   3.445787   2.166084
     7  C    3.680549   2.462193   4.043409   4.568532   2.692303
     8  H    2.692304   2.166085   2.504751   3.766544   3.097735
     9  H    4.568532   3.445787   4.754697   5.525091   3.766543
    10  H    4.043409   2.720931   4.632806   4.754696   2.504749
                    6          7          8          9         10
     6  C    0.000000
     7  C    1.335896   0.000000
     8  H    1.084208   2.094829   0.000000
     9  H    2.112395   1.079391   2.436660   0.000000
    10  H    2.109363   1.081726   3.065586   1.844879   0.000000
 Symmetry turned off by external request.
 Stoichiometry    C4H6
 Framework group  C1[X(C4H6)]
 Deg. of freedom    24
 Full point group                 C1      NOp   1
 Rotational constants (GHZ):          42.0025883           4.4598822           4.0438699
 Standard basis: CC-pVTZ (5D, 7F)
   204 basis functions,   310 primitive gaussians,   230 cartesian basis functions
    15 alpha electrons       15 beta electrons
       nuclear repulsion energy       104.0307825858 Hartrees.
 NAtoms=   10 NActive=   10 NUniq=   10 SFac= 1.00D+00 NAtFMM=   60 NAOKFM=F Big=F
 Integral buffers will be    131072 words long.
 Raffenetti 2 integral format.
 Two-electron integral symmetry is turned off.
 Nuclear repulsion after empirical dispersion term =      104.0259445632 Hartrees.
 One-electron integrals computed using PRISM.
 NBasis=   204 RedAO= T EigKep=  3.23D-04  NBF=   204
 NBsUse=   204 1.00D-06 EigRej= -1.00D+00 NBFU=   204
 Initial guess from the checkpoint file:  "13butene.chk"
 B after Tr=     0.000000   -0.000000   -0.011440
         Rot=    1.000000   -0.000000   -0.000000    0.000077 Ang=  -0.01 deg.
 Initial guess <Sx>= 0.0000 <Sy>= 0.0000 <Sz>= 0.0000 <S**2>= 0.0000 S= 0.0000
 ExpMin= 1.03D-01 ExpMax= 8.24D+03 ExpMxC= 2.81D+02 IAcc=2 IRadAn=         4 AccDes= 0.00D+00
 Harris functional with IExCor=  419 and IRadAn=       4 diagonalized for initial guess.
 HarFok:  IExCor=  419 AccDes= 0.00D+00 IRadAn=         4 IDoV= 1 UseB2=F ITyADJ=14
 ICtDFT=  3500011 ScaDFX=  1.000000  1.000000  1.000000  1.000000
 FoFCou: FMM=F IPFlag=           0 FMFlag=      100000 FMFlg1=           0
         NFxFlg=           0 DoJE=T BraDBF=F KetDBF=T FulRan=T
         wScrn=  0.000000 ICntrl=       500 IOpCl=  0 I1Cent=   200000004 NGrid=           0
         NMat0=    1 NMatS0=      1 NMatT0=    0 NMatD0=    1 NMtDS0=    0 NMtDT0=    0
 Symmetry not used in FoFCou.
 Keep R1 and R2 ints in memory in canonical form, NReq=466875242.
 Requested convergence on RMS density matrix=1.00D-08 within 500 cycles.
 Requested convergence on MAX density matrix=1.00D-06.
 Requested convergence on             energy=1.00D-06.
 No special actions if energy rises.
 Integral accuracy reduced to 1.0D-05 until final iterations.
 Initial convergence to 1.0D-05 achieved.  Increase integral accuracy.
 SCF Done:  E(UB2PLYPD3) =  -155.688671585     A.U. after   10 cycles
            NFock= 10  Conv=0.59D-08     -V/T= 2.0047
 <Sx>= 0.0000 <Sy>= 0.0000 <Sz>= 0.0000 <S**2>= 0.0000 S= 0.0000
 <L.S>=  0.00000000000    
 Annihilation of the first spin contaminant:
 S**2 before annihilation     0.0000,   after    -0.0000
 DoSCS=T DFT=T ScalE2(SS,OS)=  0.270000  0.270000
 ExpMin= 1.03D-01 ExpMax= 8.24D+03 ExpMxC= 2.81D+02 IAcc=3 IRadAn=         5 AccDes= 0.00D+00
 HarFok:  IExCor=  205 AccDes= 0.00D+00 IRadAn=         5 IDoV=-2 UseB2=F ITyADJ=14
 ICtDFT= 12500011 ScaDFX=  1.000000  1.000000  1.000000  1.000000
 Range of M.O.s used for correlation:     5   204
 NBasis=   204 NAE=    15 NBE=    15 NFC=     4 NFV=     0
 NROrb=    200 NOA=    11 NOB=    11 NVA=   189 NVB=   189

 **** Warning!!: The largest alpha MO coefficient is  0.14072244D+02


 **** Warning!!: The largest beta MO coefficient is  0.14072244D+02

 DoSCS=T DFT=T ScalE2(SS,OS)=  0.270000  0.270000
 Fully direct method using O(ONN) memory.
 JobTyp=2 Pass  1:  I=   5 to  15 NPSUse= 28 ParTrn=T ParDer=T DoDerP=T.
 JobTyp=3 Pass  1:  I=   5 to  15 NPSUse= 28 ParTrn=T ParDer=T DoDerP=T.
 Spin components of T(2) and E(2):
     alpha-alpha T2 =       0.4106628958D-01 E2=     -0.2465827049D-01
     alpha-beta  T2 =       0.2652608774D+00 E2=     -0.1648254299D+00
     beta-beta   T2 =       0.4106628958D-01 E2=     -0.2465827049D-01
 (S**2,0)=  0.00000D+00           (S**2,1)=  0.00000D+00
 E(PUHF)=      -0.15568867159D+03        E(PMP2)=      -0.15590281356D+03
 E2(B2PLYPD3) =    -0.2141419709D+00 E(B2PLYPD3) =    -0.15590281355622D+03
          IDoAtm=1111111111
          Differentiating once with respect to electric field.
                with respect to dipole field.
          Differentiating once with respect to nuclear coordinates.
 Keep R1 and R2 ints in memory in canonical form, NReq=466882464.
          There are     1 degrees of freedom in the 1st order CPHF.  IDoFFX=0 NUNeed=     1.
 LinEq1:  Iter=  0 NonCon=     1 RMS=7.09D-04 Max=1.61D-02 NDo=     1
 AX will form     1 AO Fock derivatives at one time.
 LinEq1:  Iter=  1 NonCon=     1 RMS=2.58D-04 Max=4.02D-03 NDo=     1
 LinEq1:  Iter=  2 NonCon=     1 RMS=7.54D-05 Max=2.79D-03 NDo=     1
 LinEq1:  Iter=  3 NonCon=     1 RMS=4.24D-05 Max=1.08D-03 NDo=     1
 LinEq1:  Iter=  4 NonCon=     1 RMS=1.07D-05 Max=2.55D-04 NDo=     1
 LinEq1:  Iter=  5 NonCon=     1 RMS=1.76D-06 Max=2.47D-05 NDo=     1
 LinEq1:  Iter=  6 NonCon=     1 RMS=2.98D-07 Max=4.49D-06 NDo=     1
 LinEq1:  Iter=  7 NonCon=     1 RMS=9.08D-08 Max=1.14D-06 NDo=     1
 LinEq1:  Iter=  8 NonCon=     1 RMS=1.45D-08 Max=2.73D-07 NDo=     1
 LinEq1:  Iter=  9 NonCon=     1 RMS=2.93D-09 Max=3.03D-08 NDo=     1
 LinEq1:  Iter= 10 NonCon=     1 RMS=6.12D-10 Max=9.71D-09 NDo=     1
 LinEq1:  Iter= 11 NonCon=     1 RMS=1.26D-10 Max=2.45D-09 NDo=     1
 LinEq1:  Iter= 12 NonCon=     0 RMS=1.35D-11 Max=2.02D-10 NDo=     1
 Linear equations converged to 1.000D-10 1.000D-09 after    12 iterations.
 End of Minotr F.D. properties file   721 does not exist.
 End of Minotr F.D. properties file   722 does not exist.
 End of Minotr F.D. properties file   788 does not exist.
 Calling FoFJK, ICntrl=  10002127 FMM=F ISym2X=0 I1Cent= 0 IOpClX= 1 NMat=1 NMatS=1 NMatT=0.
 -------------------------------------------------------------------
 Center     Atomic                   Forces (Hartrees/Bohr)
 Number     Number              X              Y              Z
 -------------------------------------------------------------------
      1        6          -0.000083837    0.000056092   -0.001115120
      2        6           0.000722721   -0.000326769   -0.000154564
      3        1           0.000012451    0.000010387   -0.000305525
      4        1          -0.000034907   -0.000072272    0.000314253
      5        1           0.000032459   -0.000090617    0.001261215
      6        6          -0.000722793    0.000326748   -0.000155421
      7        6           0.000083888   -0.000056185   -0.001115208
      8        1          -0.000032448    0.000090704    0.001261418
      9        1           0.000034906    0.000072313    0.000314412
     10        1          -0.000012440   -0.000010400   -0.000305460
 -------------------------------------------------------------------
 Cartesian Forces:  Max     0.001261418 RMS     0.000497056

 GradGradGradGradGradGradGradGradGradGradGradGradGradGradGradGradGradGrad
 Berny optimization.
 FormGI is forming the generalized inverse of G from B-inverse, IUseBI=4.
 Internal  Forces:  Max     0.005202461 RMS     0.001210993
 Search for a local minimum.
 Step number   1 out of a maximum of  100 on scan point     2 out of    37
 All quantities printed in internal units (Hartrees-Bohrs-Radians)
 Mixed Optimization -- RFO/linear search
 Second derivative matrix not updated -- first step.
 ITU=  0
     Eigenvalues ---    0.02937   0.02937   0.02937   0.02937   0.02937
     Eigenvalues ---    0.02937   0.16000   0.16000   0.16000   0.16000
     Eigenvalues ---    0.16000   0.16000   0.22000   0.22000   0.35498
     Eigenvalues ---    0.35498   0.35789   0.35789   0.36085   0.36085
     Eigenvalues ---    0.37905   0.58133   0.581331000.000001000.00000
     Eigenvalues --- 1000.000001000.000001000.000001000.000001000.00000
 RFO step:  Lambda=-5.43948824D-04 EMin= 2.93665864D-02
 Linear search not attempted -- first point.
 Iteration  1 RMS(Cart)=  0.05211660 RMS(Int)=  0.00207538
 Iteration  2 RMS(Cart)=  0.00190546 RMS(Int)=  0.00052490
 Iteration  3 RMS(Cart)=  0.00000166 RMS(Int)=  0.00052490
 Iteration  4 RMS(Cart)=  0.00000000 RMS(Int)=  0.00052490
 Iteration  1 RMS(Cart)=  0.00000000 RMS(Int)=  0.00000000
 Variable       Old X    -DE/DX   Delta X   Delta X   Delta X     New X
                                 (Linear)    (Quad)   (Total)
    R1        2.52448  -0.00018   0.00000  -0.00031  -0.00031   2.52417
    R2        2.04417  -0.00001   0.00000  -0.00003  -0.00003   2.04413
    R3        2.03975   0.00001   0.00000   0.00004   0.00004   2.03979
    R4        2.04886  -0.00001   0.00000  -0.00004  -0.00004   2.04882
    R5        2.74518   0.00077   0.00000   0.00204   0.00204   2.74722
    R6        2.52448  -0.00018   0.00000  -0.00031  -0.00031   2.52417
    R7        2.04886  -0.00001   0.00000  -0.00004  -0.00004   2.04882
    R8        2.03975   0.00001   0.00000   0.00004   0.00004   2.03979
    R9        2.04417  -0.00001   0.00000  -0.00003  -0.00003   2.04413
    A1        2.11432   0.00003   0.00000   0.00021   0.00021   2.11454
    A2        2.12288  -0.00007   0.00000  -0.00043  -0.00043   2.12245
    A3        2.04598   0.00004   0.00000   0.00022   0.00022   2.04620
    A4        2.08636  -0.00011   0.00000  -0.00067  -0.00184   2.08452
    A5        2.16331   0.00004   0.00000   0.00017  -0.00100   2.16231
    A6        2.03352   0.00008   0.00000   0.00051  -0.00067   2.03285
    A7        2.16331   0.00004   0.00000   0.00017  -0.00100   2.16231
    A8        2.03352   0.00008   0.00000   0.00051  -0.00067   2.03285
    A9        2.08636  -0.00011   0.00000  -0.00067  -0.00184   2.08452
   A10        2.12288  -0.00007   0.00000  -0.00043  -0.00043   2.12245
   A11        2.11432   0.00003   0.00000   0.00021   0.00021   2.11454
   A12        2.04598   0.00004   0.00000   0.00022   0.00022   2.04620
    D1        3.14158   0.00113   0.00000   0.03776   0.03772  -3.10389
    D2        0.00002  -0.00166   0.00000  -0.05565  -0.05560  -0.05558
    D3       -0.00001   0.00112   0.00000   0.03741   0.03737   0.03736
    D4       -3.14157  -0.00167   0.00000  -0.05599  -0.05595   3.08566
    D5       -2.96712  -0.00520   0.00000   0.00000   0.00000  -2.96712
    D6       -3.14157  -0.00168   0.00000  -0.05601  -0.05596   3.08566
    D7        0.00002  -0.00166   0.00000  -0.05565  -0.05561  -0.05558
    D8       -0.00002   0.00112   0.00000   0.03742   0.03737   0.03736
    D9        3.14158   0.00113   0.00000   0.03777   0.03773  -3.10388
         Item               Value     Threshold  Converged?
 Maximum Force            0.001675     0.000450     NO 
 RMS     Force            0.000764     0.000300     NO 
 Maximum Displacement     0.132955     0.001800     NO 
 RMS     Displacement     0.052328     0.001200     NO 
 Predicted change in Energy=-2.761459D-04
 GradGradGradGradGradGradGradGradGradGradGradGradGradGradGradGradGradGrad

                          Input orientation:                          
 ---------------------------------------------------------------------
 Center     Atomic      Atomic             Coordinates (Angstroms)
 Number     Number       Type             X           Y           Z
 ---------------------------------------------------------------------
      1          6           0        1.836833    0.109767    0.021643
      2          6           0        0.606349   -0.400876   -0.074960
      3          1           0        1.997964    1.178863    0.055759
      4          1           0        2.709880   -0.523204    0.069192
      5          1           0        0.474293   -1.476988   -0.071512
      6          6           0       -0.606347    0.400872   -0.075002
      7          6           0       -1.836834   -0.109766    0.021602
      8          1           0       -0.474292    1.476984   -0.071611
      9          1           0       -2.709882    0.523208    0.069093
     10          1           0       -1.997965   -1.178860    0.055778
 ---------------------------------------------------------------------
                    Distance matrix (angstroms):
                    1          2          3          4          5
     1  C    0.000000
     2  C    1.335732   0.000000
     3  H    1.081708   2.109326   0.000000
     4  H    1.079410   2.112011   1.845004   0.000000
     5  H    2.093558   1.084189   3.064525   2.434615   0.000000
     6  C    2.462358   1.453764   2.721177   3.445587   2.166600
     7  C    3.680220   2.462358   4.045665   4.565720   2.686871
     8  H    2.686871   2.166600   2.493421   3.762915   3.102541
     9  H    4.565720   3.445587   4.753301   5.519855   3.762915
    10  H    4.045664   2.721176   4.639645   4.753301   2.493420
                    6          7          8          9         10
     6  C    0.000000
     7  C    1.335732   0.000000
     8  H    1.084189   2.093558   0.000000
     9  H    2.112011   1.079410   2.434615   0.000000
    10  H    2.109326   1.081708   3.064525   1.845004   0.000000
 Symmetry turned off by external request.
 Stoichiometry    C4H6
 Framework group  C1[X(C4H6)]
 Deg. of freedom    24
 Full point group                 C1      NOp   1
 Rotational constants (GHZ):          41.9738996           4.4625178           4.0431542
 Standard basis: CC-pVTZ (5D, 7F)
   204 basis functions,   310 primitive gaussians,   230 cartesian basis functions
    15 alpha electrons       15 beta electrons
       nuclear repulsion energy       104.0328036047 Hartrees.
 NAtoms=   10 NActive=   10 NUniq=   10 SFac= 1.00D+00 NAtFMM=   60 NAOKFM=F Big=F
 Integral buffers will be    131072 words long.
 Raffenetti 2 integral format.
 Two-electron integral symmetry is turned off.
 Nuclear repulsion after empirical dispersion term =      104.0279645066 Hartrees.
 One-electron integrals computed using PRISM.
 NBasis=   204 RedAO= T EigKep=  3.27D-04  NBF=   204
 NBsUse=   204 1.00D-06 EigRej= -1.00D+00 NBFU=   204
 Initial guess from the checkpoint file:  "13butene.chk"
 B after Tr=     0.000000   -0.000001   -0.022172
         Rot=    1.000000    0.000000    0.000000   -0.000146 Ang=   0.02 deg.
 Initial guess <Sx>= 0.0000 <Sy>= 0.0000 <Sz>= 0.0000 <S**2>=-0.0000 S=-0.0000
 ExpMin= 1.03D-01 ExpMax= 8.24D+03 ExpMxC= 2.81D+02 IAcc=2 IRadAn=         4 AccDes= 0.00D+00
 Harris functional with IExCor=  419 and IRadAn=       4 diagonalized for initial guess.
 HarFok:  IExCor=  419 AccDes= 0.00D+00 IRadAn=         4 IDoV= 1 UseB2=F ITyADJ=14
 ICtDFT=  3500011 ScaDFX=  1.000000  1.000000  1.000000  1.000000
 FoFCou: FMM=F IPFlag=           0 FMFlag=      100000 FMFlg1=           0
         NFxFlg=           0 DoJE=T BraDBF=F KetDBF=T FulRan=T
         wScrn=  0.000000 ICntrl=       500 IOpCl=  0 I1Cent=   200000004 NGrid=           0
         NMat0=    1 NMatS0=      1 NMatT0=    0 NMatD0=    1 NMtDS0=    0 NMtDT0=    0
 Symmetry not used in FoFCou.
 Keep R1 and R2 ints in memory in canonical form, NReq=466875242.
 Requested convergence on RMS density matrix=1.00D-08 within 500 cycles.
 Requested convergence on MAX density matrix=1.00D-06.
 Requested convergence on             energy=1.00D-06.
 No special actions if energy rises.
 Integral accuracy reduced to 1.0D-05 until final iterations.
 Initial convergence to 1.0D-05 achieved.  Increase integral accuracy.
 SCF Done:  E(UB2PLYPD3) =  -155.688612076     A.U. after   10 cycles
            NFock= 10  Conv=0.31D-08     -V/T= 2.0047
 <Sx>= 0.0000 <Sy>= 0.0000 <Sz>= 0.0000 <S**2>=-0.0000 S=-0.0000
 <L.S>=  0.00000000000    
 Annihilation of the first spin contaminant:
 S**2 before annihilation    -0.0000,   after     0.0000
 DoSCS=T DFT=T ScalE2(SS,OS)=  0.270000  0.270000
 ExpMin= 1.03D-01 ExpMax= 8.24D+03 ExpMxC= 2.81D+02 IAcc=3 IRadAn=         5 AccDes= 0.00D+00
 HarFok:  IExCor=  205 AccDes= 0.00D+00 IRadAn=         5 IDoV=-2 UseB2=F ITyADJ=14
 ICtDFT= 12500011 ScaDFX=  1.000000  1.000000  1.000000  1.000000
 Range of M.O.s used for correlation:     5   204
 NBasis=   204 NAE=    15 NBE=    15 NFC=     4 NFV=     0
 NROrb=    200 NOA=    11 NOB=    11 NVA=   189 NVB=   189

 **** Warning!!: The largest alpha MO coefficient is  0.14066054D+02


 **** Warning!!: The largest beta MO coefficient is  0.14066054D+02

 DoSCS=T DFT=T ScalE2(SS,OS)=  0.270000  0.270000
 Fully direct method using O(ONN) memory.
 JobTyp=2 Pass  1:  I=   5 to  15 NPSUse= 28 ParTrn=T ParDer=T DoDerP=T.
 JobTyp=3 Pass  1:  I=   5 to  15 NPSUse= 28 ParTrn=T ParDer=T DoDerP=T.
 Spin components of T(2) and E(2):
     alpha-alpha T2 =       0.4108904799D-01 E2=     -0.2466396253D-01
     alpha-beta  T2 =       0.2653724594D+00 E2=     -0.1648419212D+00
     beta-beta   T2 =       0.4108904799D-01 E2=     -0.2466396253D-01
 (S**2,0)=  0.00000D+00           (S**2,1)=  0.00000D+00
 E(PUHF)=      -0.15568861208D+03        E(PMP2)=      -0.15590278192D+03
 E2(B2PLYPD3) =    -0.2141698463D+00 E(B2PLYPD3) =    -0.15590278192274D+03
          IDoAtm=1111111111
          Differentiating once with respect to electric field.
                with respect to dipole field.
          Differentiating once with respect to nuclear coordinates.
 Keep R1 and R2 ints in memory in canonical form, NReq=466882464.
          There are     1 degrees of freedom in the 1st order CPHF.  IDoFFX=0 NUNeed=     1.
 LinEq1:  Iter=  0 NonCon=     1 RMS=7.10D-04 Max=1.55D-02 NDo=     1
 AX will form     1 AO Fock derivatives at one time.
 LinEq1:  Iter=  1 NonCon=     1 RMS=2.59D-04 Max=4.20D-03 NDo=     1
 LinEq1:  Iter=  2 NonCon=     1 RMS=7.54D-05 Max=2.81D-03 NDo=     1
 LinEq1:  Iter=  3 NonCon=     1 RMS=4.24D-05 Max=1.15D-03 NDo=     1
 LinEq1:  Iter=  4 NonCon=     1 RMS=1.07D-05 Max=2.53D-04 NDo=     1
 LinEq1:  Iter=  5 NonCon=     1 RMS=1.77D-06 Max=2.27D-05 NDo=     1
 LinEq1:  Iter=  6 NonCon=     1 RMS=3.03D-07 Max=4.60D-06 NDo=     1
 LinEq1:  Iter=  7 NonCon=     1 RMS=9.50D-08 Max=1.24D-06 NDo=     1
 LinEq1:  Iter=  8 NonCon=     1 RMS=1.70D-08 Max=3.46D-07 NDo=     1
 LinEq1:  Iter=  9 NonCon=     1 RMS=3.57D-09 Max=6.66D-08 NDo=     1
 LinEq1:  Iter= 10 NonCon=     1 RMS=7.27D-10 Max=1.07D-08 NDo=     1
 LinEq1:  Iter= 11 NonCon=     1 RMS=1.64D-10 Max=2.81D-09 NDo=     1
 LinEq1:  Iter= 12 NonCon=     0 RMS=2.43D-11 Max=4.64D-10 NDo=     1
 Linear equations converged to 1.000D-10 1.000D-09 after    12 iterations.
 End of Minotr F.D. properties file   721 does not exist.
 End of Minotr F.D. properties file   722 does not exist.
 End of Minotr F.D. properties file   788 does not exist.
 Calling FoFJK, ICntrl=  10002127 FMM=F ISym2X=0 I1Cent= 0 IOpClX= 1 NMat=1 NMatS=1 NMatT=0.
 -------------------------------------------------------------------
 Center     Atomic                   Forces (Hartrees/Bohr)
 Number     Number              X              Y              Z
 -------------------------------------------------------------------
      1        6           0.000239299    0.000241349   -0.001960475
      2        6          -0.000720451   -0.000115272    0.004238084
      3        1           0.000032064    0.000003203   -0.000220312
      4        1           0.000002773   -0.000005922   -0.000232522
      5        1           0.000010879   -0.000060272   -0.001824990
      6        6           0.000720376    0.000115521    0.004238804
      7        6          -0.000239265   -0.000241470   -0.001960383
      8        1          -0.000010833    0.000060171   -0.001825175
      9        1          -0.000002780    0.000005907   -0.000232662
     10        1          -0.000032062   -0.000003215   -0.000220369
 -------------------------------------------------------------------
 Cartesian Forces:  Max     0.004238804 RMS     0.001313873

 GradGradGradGradGradGradGradGradGradGradGradGradGradGradGradGradGradGrad
 Berny optimization.
 Using GEDIIS/GDIIS optimizer.
 FormGI is forming the generalized inverse of G from B-inverse, IUseBI=4.
 Internal  Forces:  Max     0.002142933 RMS     0.000940411
 Search for a local minimum.
 Step number   2 out of a maximum of  100 on scan point     2 out of    37
 All quantities printed in internal units (Hartrees-Bohrs-Radians)
 Mixed Optimization -- En-DIIS/RFO-DIIS
 Update second derivatives using D2CorX and points    2    1
 DE=  3.16D-05 DEPred=-2.76D-04 R=-1.15D-01
 Trust test=-1.15D-01 RLast= 1.35D-01 DXMaxT set to 1.50D-01
 ITU= -1  0
 Use linear search instead of GDIIS.
     Eigenvalues ---    0.02862   0.02937   0.02937   0.02937   0.02965
     Eigenvalues ---    0.06520   0.15997   0.16000   0.16000   0.16000
     Eigenvalues ---    0.16000   0.16018   0.22010   0.22011   0.35498
     Eigenvalues ---    0.35498   0.35789   0.35789   0.36085   0.36085
     Eigenvalues ---    0.37915   0.58133   0.581431000.000001000.00000
     Eigenvalues --- 1000.000001000.000001000.000001000.000001000.00000
 RFO step:  Lambda=-8.30474651D-06 EMin= 2.86176083D-02
 Quartic linear search produced a step of -0.52647.
 Iteration  1 RMS(Cart)=  0.02531573 RMS(Int)=  0.00055619
 Iteration  2 RMS(Cart)=  0.00050450 RMS(Int)=  0.00012733
 Iteration  3 RMS(Cart)=  0.00000009 RMS(Int)=  0.00012733
 Iteration  1 RMS(Cart)=  0.00000000 RMS(Int)=  0.00000000
 Variable       Old X    -DE/DX   Delta X   Delta X   Delta X     New X
                                 (Linear)    (Quad)   (Total)
    R1        2.52417   0.00017   0.00016  -0.00003   0.00013   2.52430
    R2        2.04413   0.00000   0.00002  -0.00002   0.00000   2.04413
    R3        2.03979  -0.00000  -0.00002   0.00001  -0.00001   2.03978
    R4        2.04882   0.00005   0.00002   0.00005   0.00007   2.04889
    R5        2.74722  -0.00040  -0.00107   0.00061  -0.00046   2.74675
    R6        2.52417   0.00017   0.00016  -0.00003   0.00013   2.52430
    R7        2.04882   0.00005   0.00002   0.00005   0.00007   2.04889
    R8        2.03979  -0.00000  -0.00002   0.00001  -0.00001   2.03978
    R9        2.04413   0.00000   0.00002  -0.00002   0.00000   2.04413
    A1        2.11454   0.00003  -0.00011   0.00022   0.00010   2.11464
    A2        2.12245  -0.00003   0.00023  -0.00034  -0.00011   2.12234
    A3        2.04620  -0.00000  -0.00012   0.00012  -0.00000   2.04620
    A4        2.08452   0.00020   0.00097   0.00002   0.00127   2.08579
    A5        2.16231   0.00013   0.00053   0.00020   0.00101   2.16332
    A6        2.03285  -0.00008   0.00035  -0.00017   0.00046   2.03331
    A7        2.16231   0.00013   0.00053   0.00020   0.00101   2.16332
    A8        2.03285  -0.00008   0.00035  -0.00017   0.00046   2.03331
    A9        2.08452   0.00020   0.00097   0.00002   0.00127   2.08579
   A10        2.12245  -0.00003   0.00023  -0.00034  -0.00011   2.12234
   A11        2.11454   0.00003  -0.00011   0.00022   0.00010   2.11464
   A12        2.04620  -0.00000  -0.00012   0.00012  -0.00000   2.04620
    D1       -3.10389  -0.00182  -0.01986  -0.00840  -0.02825  -3.13214
    D2       -0.05558   0.00144   0.02927  -0.00783   0.02144  -0.03414
    D3        0.03736  -0.00143  -0.01967  -0.00222  -0.02189   0.01547
    D4        3.08566   0.00183   0.02946  -0.00164   0.02781   3.11347
    D5       -2.96712  -0.00214   0.00000   0.00000   0.00000  -2.96712
    D6        3.08566   0.00183   0.02946  -0.00164   0.02781   3.11347
    D7       -0.05558   0.00144   0.02928  -0.00783   0.02144  -0.03414
    D8        0.03736  -0.00143  -0.01968  -0.00222  -0.02189   0.01547
    D9       -3.10388  -0.00183  -0.01986  -0.00840  -0.02825  -3.13214
         Item               Value     Threshold  Converged?
 Maximum Force            0.001832     0.000450     NO 
 RMS     Force            0.000870     0.000300     NO 
 Maximum Displacement     0.068682     0.001800     NO 
 RMS     Displacement     0.025353     0.001200     NO 
 Predicted change in Energy=-1.341795D-04
 GradGradGradGradGradGradGradGradGradGradGradGradGradGradGradGradGradGrad

                          Input orientation:                          
 ---------------------------------------------------------------------
 Center     Atomic      Atomic             Coordinates (Angstroms)
 Number     Number       Type             X           Y           Z
 ---------------------------------------------------------------------
      1          6           0        1.837274    0.109325    0.032153
      2          6           0        0.606401   -0.400575   -0.064390
      3          1           0        1.997884    1.177682    0.086113
      4          1           0        2.711498   -0.523423    0.054102
      5          1           0        0.475791   -1.476027   -0.107857
      6          6           0       -0.606399    0.400571   -0.064430
      7          6           0       -1.837275   -0.109324    0.032113
      8          1           0       -0.475788    1.476021   -0.107956
      9          1           0       -2.711500    0.523426    0.054002
     10          1           0       -1.997886   -1.177677    0.086131
 ---------------------------------------------------------------------
                    Distance matrix (angstroms):
                    1          2          3          4          5
     1  C    0.000000
     2  C    1.335803   0.000000
     3  H    1.081709   2.109448   0.000000
     4  H    1.079407   2.112006   1.845001   0.000000
     5  H    2.094417   1.084226   3.065382   2.435585   0.000000
     6  C    2.462862   1.453519   2.721921   3.446194   2.166712
     7  C    3.681049   2.462862   4.045707   4.567636   2.690306
     8  H    2.690306   2.166712   2.499144   3.766010   3.101627
     9  H    4.567636   3.446194   4.754722   5.523115   3.766010
    10  H    4.045707   2.721921   4.638307   4.754722   2.499144
                    6          7          8          9         10
     6  C    0.000000
     7  C    1.335803   0.000000
     8  H    1.084226   2.094417   0.000000
     9  H    2.112006   1.079407   2.435585   0.000000
    10  H    2.109448   1.081709   3.065382   1.845001   0.000000
 Symmetry turned off by external request.
 Stoichiometry    C4H6
 Framework group  C1[X(C4H6)]
 Deg. of freedom    24
 Full point group                 C1      NOp   1
 Rotational constants (GHZ):          41.9977867           4.4596411           4.0418168
 Standard basis: CC-pVTZ (5D, 7F)
   204 basis functions,   310 primitive gaussians,   230 cartesian basis functions
    15 alpha electrons       15 beta electrons
       nuclear repulsion energy       104.0213387424 Hartrees.
 NAtoms=   10 NActive=   10 NUniq=   10 SFac= 1.00D+00 NAtFMM=   60 NAOKFM=F Big=F
 Integral buffers will be    131072 words long.
 Raffenetti 2 integral format.
 Two-electron integral symmetry is turned off.
 Nuclear repulsion after empirical dispersion term =      104.0165008195 Hartrees.
 One-electron integrals computed using PRISM.
 NBasis=   204 RedAO= T EigKep=  3.25D-04  NBF=   204
 NBsUse=   204 1.00D-06 EigRej= -1.00D+00 NBFU=   204
 Lowest energy guess from the checkpoint file:  "13butene.chk"
 B after Tr=     0.000000   -0.000000   -0.008893
         Rot=    1.000000    0.000000    0.000000   -0.000104 Ang=   0.01 deg.
 B after Tr=    -0.000000    0.000000    0.013279
         Rot=    1.000000   -0.000000   -0.000000    0.000042 Ang=  -0.00 deg.
 Initial guess <Sx>= 0.0000 <Sy>= 0.0000 <Sz>= 0.0000 <S**2>= 0.0000 S= 0.0000
 Keep R1 and R2 ints in memory in canonical form, NReq=466875242.
 Requested convergence on RMS density matrix=1.00D-08 within 500 cycles.
 Requested convergence on MAX density matrix=1.00D-06.
 Requested convergence on             energy=1.00D-06.
 No special actions if energy rises.
 Integral accuracy reduced to 1.0D-05 until final iterations.
 Initial convergence to 1.0D-05 achieved.  Increase integral accuracy.
 SCF Done:  E(UB2PLYPD3) =  -155.688799134     A.U. after    7 cycles
            NFock=  7  Conv=0.65D-08     -V/T= 2.0047
 <Sx>= 0.0000 <Sy>= 0.0000 <Sz>= 0.0000 <S**2>=-0.0000 S=-0.0000
 <L.S>=  0.00000000000    
 Annihilation of the first spin contaminant:
 S**2 before annihilation    -0.0000,   after    -0.0000
 DoSCS=T DFT=T ScalE2(SS,OS)=  0.270000  0.270000
 ExpMin= 1.03D-01 ExpMax= 8.24D+03 ExpMxC= 2.81D+02 IAcc=3 IRadAn=         5 AccDes= 0.00D+00
 HarFok:  IExCor=  205 AccDes= 0.00D+00 IRadAn=         5 IDoV=-2 UseB2=F ITyADJ=14
 ICtDFT= 12500011 ScaDFX=  1.000000  1.000000  1.000000  1.000000
 Range of M.O.s used for correlation:     5   204
 NBasis=   204 NAE=    15 NBE=    15 NFC=     4 NFV=     0
 NROrb=    200 NOA=    11 NOB=    11 NVA=   189 NVB=   189

 **** Warning!!: The largest alpha MO coefficient is  0.14173307D+02


 **** Warning!!: The largest beta MO coefficient is  0.14173307D+02

 DoSCS=T DFT=T ScalE2(SS,OS)=  0.270000  0.270000
 Fully direct method using O(ONN) memory.
 JobTyp=2 Pass  1:  I=   5 to  15 NPSUse= 28 ParTrn=T ParDer=T DoDerP=T.
 JobTyp=3 Pass  1:  I=   5 to  15 NPSUse= 28 ParTrn=T ParDer=T DoDerP=T.
 Spin components of T(2) and E(2):
     alpha-alpha T2 =       0.4107607416D-01 E2=     -0.2465965752D-01
     alpha-beta  T2 =       0.2652949980D+00 E2=     -0.1648274084D+00
     beta-beta   T2 =       0.4107607416D-01 E2=     -0.2465965752D-01
 (S**2,0)=  0.00000D+00           (S**2,1)=  0.00000D+00
 E(PUHF)=      -0.15568879913D+03        E(PMP2)=      -0.15590294586D+03
 E2(B2PLYPD3) =    -0.2141467234D+00 E(B2PLYPD3) =    -0.15590294585760D+03
          IDoAtm=1111111111
          Differentiating once with respect to electric field.
                with respect to dipole field.
          Differentiating once with respect to nuclear coordinates.
 Keep R1 and R2 ints in memory in canonical form, NReq=466882464.
          There are     1 degrees of freedom in the 1st order CPHF.  IDoFFX=0 NUNeed=     1.
 LinEq1:  Iter=  0 NonCon=     1 RMS=7.09D-04 Max=1.58D-02 NDo=     1
 AX will form     1 AO Fock derivatives at one time.
 LinEq1:  Iter=  1 NonCon=     1 RMS=2.59D-04 Max=4.14D-03 NDo=     1
 LinEq1:  Iter=  2 NonCon=     1 RMS=7.54D-05 Max=2.80D-03 NDo=     1
 LinEq1:  Iter=  3 NonCon=     1 RMS=4.24D-05 Max=1.12D-03 NDo=     1
 LinEq1:  Iter=  4 NonCon=     1 RMS=1.07D-05 Max=2.54D-04 NDo=     1
 LinEq1:  Iter=  5 NonCon=     1 RMS=1.76D-06 Max=2.38D-05 NDo=     1
 LinEq1:  Iter=  6 NonCon=     1 RMS=3.03D-07 Max=4.58D-06 NDo=     1
 LinEq1:  Iter=  7 NonCon=     1 RMS=9.21D-08 Max=1.16D-06 NDo=     1
 LinEq1:  Iter=  8 NonCon=     1 RMS=1.52D-08 Max=2.87D-07 NDo=     1
 LinEq1:  Iter=  9 NonCon=     1 RMS=3.17D-09 Max=4.66D-08 NDo=     1
 LinEq1:  Iter= 10 NonCon=     1 RMS=6.65D-10 Max=1.01D-08 NDo=     1
 LinEq1:  Iter= 11 NonCon=     1 RMS=1.46D-10 Max=2.64D-09 NDo=     1
 LinEq1:  Iter= 12 NonCon=     0 RMS=1.93D-11 Max=3.76D-10 NDo=     1
 Linear equations converged to 1.000D-10 1.000D-09 after    12 iterations.
 End of Minotr F.D. properties file   721 does not exist.
 End of Minotr F.D. properties file   722 does not exist.
 End of Minotr F.D. properties file   788 does not exist.
 Calling FoFJK, ICntrl=  10002127 FMM=F ISym2X=0 I1Cent= 0 IOpClX= 1 NMat=1 NMatS=1 NMatT=0.
 -------------------------------------------------------------------
 Center     Atomic                   Forces (Hartrees/Bohr)
 Number     Number              X              Y              Z
 -------------------------------------------------------------------
      1        6           0.000058074    0.000158317   -0.001892404
      2        6          -0.000283171   -0.000240947    0.001792296
      3        1          -0.000005596   -0.000008463    0.000055733
      4        1          -0.000010610   -0.000011699    0.000025629
      5        1           0.000016972   -0.000005248    0.000018714
      6        6           0.000283117    0.000241053    0.001792403
      7        6          -0.000058017   -0.000158429   -0.001892382
      8        1          -0.000016974    0.000005247    0.000018684
      9        1           0.000010609    0.000011701    0.000025605
     10        1           0.000005596    0.000008468    0.000055723
 -------------------------------------------------------------------
 Cartesian Forces:  Max     0.001892404 RMS     0.000681428

 GradGradGradGradGradGradGradGradGradGradGradGradGradGradGradGradGradGrad
 Berny optimization.
 Using GEDIIS/GDIIS optimizer.
 FormGI is forming the generalized inverse of G from B-inverse, IUseBI=4.
 Internal  Forces:  Max     0.003734349 RMS     0.000682717
 Search for a local minimum.
 Step number   3 out of a maximum of  100 on scan point     2 out of    37
 All quantities printed in internal units (Hartrees-Bohrs-Radians)
 Mixed Optimization -- En-DIIS/RFO-DIIS
 Swapping is turned off.
 Update second derivatives using D2CorX and points    1    2    3
 DE= -1.64D-04 DEPred=-1.34D-04 R= 1.22D+00
 TightC=F SS=  1.41D+00  RLast= 7.09D-02 DXNew= 2.5227D-01 2.1270D-01
 Trust test= 1.22D+00 RLast= 7.09D-02 DXMaxT set to 2.13D-01
 ITU=  1 -1  0
     Eigenvalues ---    0.02901   0.02937   0.02937   0.02943   0.02951
     Eigenvalues ---    0.06579   0.15993   0.16000   0.16000   0.16000
     Eigenvalues ---    0.16000   0.16029   0.22002   0.22009   0.35498
     Eigenvalues ---    0.35498   0.35789   0.35789   0.36085   0.36085
     Eigenvalues ---    0.37931   0.58133   0.581511000.000001000.00000
     Eigenvalues --- 1000.000001000.000001000.000001000.000001000.00000
 En-DIIS/RFO-DIIS/Sim-DIIS IScMMF=       -3 using points:     3    2
 RFO step:  Lambda=-4.85885610D-07.
 DidBck=F Rises=F RFO-DIIS coefs:    0.99585    0.00415
 Iteration  1 RMS(Cart)=  0.00071939 RMS(Int)=  0.00000095
 Iteration  2 RMS(Cart)=  0.00000056 RMS(Int)=  0.00000071
 Iteration  1 RMS(Cart)=  0.00000000 RMS(Int)=  0.00000000
 Variable       Old X    -DE/DX   Delta X   Delta X   Delta X     New X
                                 (Linear)    (Quad)   (Total)
    R1        2.52430  -0.00004  -0.00000  -0.00007  -0.00007   2.52424
    R2        2.04413  -0.00001  -0.00000  -0.00002  -0.00002   2.04412
    R3        2.03978  -0.00000   0.00000  -0.00000  -0.00000   2.03978
    R4        2.04889   0.00000  -0.00000   0.00001   0.00001   2.04890
    R5        2.74675  -0.00013   0.00000  -0.00034  -0.00034   2.74642
    R6        2.52430  -0.00004  -0.00000  -0.00007  -0.00007   2.52424
    R7        2.04889   0.00000  -0.00000   0.00001   0.00001   2.04890
    R8        2.03978  -0.00000   0.00000  -0.00000  -0.00000   2.03978
    R9        2.04413  -0.00001  -0.00000  -0.00002  -0.00002   2.04412
    A1        2.11464   0.00001  -0.00000   0.00005   0.00005   2.11469
    A2        2.12234  -0.00002   0.00000  -0.00011  -0.00011   2.12223
    A3        2.04620   0.00001   0.00000   0.00007   0.00007   2.04626
    A4        2.08579  -0.00000  -0.00001  -0.00003  -0.00003   2.08575
    A5        2.16332  -0.00004  -0.00000  -0.00016  -0.00016   2.16316
    A6        2.03331   0.00004  -0.00000   0.00020   0.00020   2.03351
    A7        2.16332  -0.00004  -0.00000  -0.00016  -0.00016   2.16316
    A8        2.03331   0.00004  -0.00000   0.00020   0.00020   2.03351
    A9        2.08579  -0.00000  -0.00001  -0.00003  -0.00003   2.08575
   A10        2.12234  -0.00002   0.00000  -0.00011  -0.00011   2.12223
   A11        2.11464   0.00001  -0.00000   0.00005   0.00005   2.11469
   A12        2.04620   0.00001   0.00000   0.00007   0.00007   2.04626
    D1       -3.13214   0.00005   0.00012   0.00147   0.00159  -3.13055
    D2       -0.03414   0.00005  -0.00009   0.00178   0.00170  -0.03244
    D3        0.01547  -0.00002   0.00009  -0.00090  -0.00081   0.01466
    D4        3.11347  -0.00003  -0.00012  -0.00059  -0.00070   3.11277
    D5       -2.96712  -0.00373   0.00000   0.00000   0.00000  -2.96712
    D6        3.11347  -0.00003  -0.00012  -0.00058  -0.00070   3.11277
    D7       -0.03414   0.00005  -0.00009   0.00179   0.00170  -0.03244
    D8        0.01547  -0.00002   0.00009  -0.00090  -0.00081   0.01466
    D9       -3.13214   0.00005   0.00012   0.00147   0.00159  -3.13055
         Item               Value     Threshold  Converged?
 Maximum Force            0.000128     0.000450     YES
 RMS     Force            0.000036     0.000300     YES
 Maximum Displacement     0.002157     0.001800     NO 
 RMS     Displacement     0.000719     0.001200     YES
 Predicted change in Energy=-2.359743D-07
 GradGradGradGradGradGradGradGradGradGradGradGradGradGradGradGradGradGrad

                          Input orientation:                          
[...]
 Alpha virt. eigenvalues --    0.97528   0.98126   1.01604   1.03101   1.08048
 Alpha virt. eigenvalues --    1.08973   1.11511   1.12223   1.17837   1.20025
 Alpha virt. eigenvalues --    1.21925   1.25777   1.28530   1.28667   1.30470
 Alpha virt. eigenvalues --    1.35182   1.36717   1.41267   1.44038   1.48903
 Alpha virt. eigenvalues --    1.49858   1.52555   1.54396   1.57027   1.57420
 Alpha virt. eigenvalues --    1.58000   1.62786   1.73500   1.82008   1.83124
 Alpha virt. eigenvalues --    2.07159   2.12996   2.16219   2.20698   2.28150
 Alpha virt. eigenvalues --    2.35105   2.35603   2.39282   2.39716   2.46310
 Alpha virt. eigenvalues --    2.53970   2.55995   2.56463   2.58107   2.64434
 Alpha virt. eigenvalues --    2.67654   2.74021   2.77679   2.79554   2.84109
 Alpha virt. eigenvalues --    2.85805   2.86128   2.89959   2.90417   2.92957
 Alpha virt. eigenvalues --    2.95023   2.99282   2.99596   2.99949   3.01856
 Alpha virt. eigenvalues --    3.04467   3.06801   3.10923   3.12597   3.13457
 Alpha virt. eigenvalues --    3.15864   3.17293   3.19957   3.23062   3.23551
 Alpha virt. eigenvalues --    3.25694   3.29011   3.29471   3.32298   3.34116
 Alpha virt. eigenvalues --    3.40680   3.42596   3.43290   3.47794   3.49806
 Alpha virt. eigenvalues --    3.57768   3.58616   3.60516   3.63137   3.67184
 Alpha virt. eigenvalues --    3.67673   3.72232   3.72967   3.79017   3.84641
 Alpha virt. eigenvalues --    3.86802   3.88510   3.90350   3.91481   3.93733
 Alpha virt. eigenvalues --    3.95898   3.97383   4.01087   4.02106   4.08629
 Alpha virt. eigenvalues --    4.09721   4.12514   4.14028   4.15113   4.16980
 Alpha virt. eigenvalues --    4.22319   4.22341   4.26207   4.32507   4.36086
 Alpha virt. eigenvalues --    4.39597   4.49345   4.50099   4.50656   4.56962
 Alpha virt. eigenvalues --    4.61074   4.65991   4.66087   4.72092   4.78142
 Alpha virt. eigenvalues --    4.80507   4.84198   4.92103   4.95940   4.99431
 Alpha virt. eigenvalues --    5.08747   5.11038   5.11279   5.14423   5.21637
 Alpha virt. eigenvalues --    5.26115   5.28716   5.31834   5.32400   5.48504
 Alpha virt. eigenvalues --    5.57227   5.60657   5.63243   5.69386   6.04268
 Alpha virt. eigenvalues --    6.09001   6.13501   6.25503   6.30522   6.76558
 Alpha virt. eigenvalues --   11.71464  11.73066  14.12143  14.79284
  Beta  occ. eigenvalues --  -10.62416 -10.62358 -10.61365 -10.61364  -0.92857
  Beta  occ. eigenvalues --   -0.84772  -0.70050  -0.64000  -0.54446  -0.53841
  Beta  occ. eigenvalues --   -0.46536  -0.45515  -0.41053  -0.37979  -0.27509
  Beta virt. eigenvalues --    0.02354   0.10015   0.10261   0.11035   0.12348
  Beta virt. eigenvalues --    0.15800   0.16110   0.18475   0.23894   0.28353
  Beta virt. eigenvalues --    0.33987   0.34152   0.36452   0.37081   0.39245
  Beta virt. eigenvalues --    0.39451   0.40991   0.44542   0.47485   0.48936
  Beta virt. eigenvalues --    0.49101   0.50501   0.52854   0.54622   0.56003
  Beta virt. eigenvalues --    0.57848   0.58737   0.59852   0.65093   0.66672
  Beta virt. eigenvalues --    0.70107   0.71735   0.72699   0.75989   0.76451
  Beta virt. eigenvalues --    0.79288   0.80303   0.83615   0.95420   0.97188
  Beta virt. eigenvalues --    0.97528   0.98126   1.01604   1.03101   1.08048
  Beta virt. eigenvalues --    1.08973   1.11511   1.12223   1.17837   1.20025
  Beta virt. eigenvalues --    1.21925   1.25777   1.28530   1.28667   1.30470
  Beta virt. eigenvalues --    1.35182   1.36717   1.41267   1.44038   1.48903
  Beta virt. eigenvalues --    1.49858   1.52555   1.54396   1.57027   1.57420
  Beta virt. eigenvalues --    1.58000   1.62786   1.73500   1.82008   1.83124
  Beta virt. eigenvalues --    2.07159   2.12996   2.16219   2.20698   2.28150
  Beta virt. eigenvalues --    2.35105   2.35603   2.39282   2.39716   2.46310
  Beta virt. eigenvalues --    2.53970   2.55995   2.56463   2.58107   2.64434
  Beta virt. eigenvalues --    2.67654   2.74021   2.77679   2.79554   2.84109
  Beta virt. eigenvalues --    2.85805   2.86128   2.89959   2.90417   2.92957
  Beta virt. eigenvalues --    2.95023   2.99282   2.99596   2.99949   3.01856
  Beta virt. eigenvalues --    3.04467   3.06801   3.10923   3.12597   3.13457
  Beta virt. eigenvalues --    3.15864   3.17293   3.19957   3.23062   3.23551
  Beta virt. eigenvalues --    3.25694   3.29011   3.29471   3.32298   3.34116
  Beta virt. eigenvalues --    3.40680   3.42596   3.43290   3.47794   3.49806
  Beta virt. eigenvalues --    3.57768   3.58616   3.60516   3.63137   3.67184
  Beta virt. eigenvalues --    3.67673   3.72232   3.72967   3.79017   3.84641
  Beta virt. eigenvalues --    3.86802   3.88510   3.90350   3.91481   3.93733
  Beta virt. eigenvalues --    3.95898   3.97383   4.01087   4.02106   4.08629
  Beta virt. eigenvalues --    4.09721   4.12514   4.14028   4.15113   4.16980
  Beta virt. eigenvalues --    4.22319   4.22341   4.26207   4.32507   4.36086
  Beta virt. eigenvalues --    4.39597   4.49345   4.50099   4.50656   4.56962
  Beta virt. eigenvalues --    4.61074   4.65991   4.66087   4.72092   4.78142
  Beta virt. eigenvalues --    4.80507   4.84198   4.92103   4.95940   4.99431
  Beta virt. eigenvalues --    5.08747   5.11038   5.11279   5.14423   5.21637
  Beta virt. eigenvalues --    5.26115   5.28716   5.31834   5.32400   5.48504
  Beta virt. eigenvalues --    5.57227   5.60657   5.63243   5.69386   6.04268
  Beta virt. eigenvalues --    6.09001   6.13501   6.25503   6.30522   6.76558
  Beta virt. eigenvalues --   11.71464  11.73066  14.12143  14.79284
          Condensed to atoms (all electrons):
               1          2          3          4          5          6
     1  C    4.970311   0.614833   0.414008   0.422261  -0.042860  -0.066815
     2  C    0.614833   4.840565  -0.049817  -0.045001   0.411356   0.398334
     3  H    0.414008  -0.049817   0.543339  -0.035073   0.006264  -0.004344
     4  H    0.422261  -0.045001  -0.035073   0.533745  -0.007986   0.006344
     5  H   -0.042860   0.411356   0.006264  -0.007986   0.539920  -0.042625
     6  C   -0.066815   0.398334  -0.004344   0.006344  -0.042625   4.840535
     7  C    0.000859  -0.066787   0.000203  -0.000350  -0.001358   0.614827
     8  H   -0.001364  -0.042649   0.004938  -0.000232   0.005451   0.411370
     9  H   -0.000350   0.006344  -0.000038   0.000019  -0.000232  -0.045009
    10  H    0.000202  -0.004342   0.000046  -0.000038   0.004934  -0.049811
               7          8          9         10
     1  C    0.000859  -0.001364  -0.000350   0.000202
     2  C   -0.066787  -0.042649   0.006344  -0.004342
     3  H    0.000203   0.004938  -0.000038   0.000046
     4  H   -0.000350  -0.000232   0.000019  -0.000038
     5  H   -0.001358   0.005451  -0.000232   0.004934
     6  C    0.614827   0.411370  -0.045009  -0.049811
     7  C    4.970300  -0.042864   0.422269   0.414003
     8  H   -0.042864   0.539958  -0.007990   0.006264
     9  H    0.422269  -0.007990   0.533759  -0.035072
    10  H    0.414003   0.006264  -0.035072   0.543326
          Atomic-Atomic Spin Densities.
               1          2          3          4          5          6
     1  C   -0.000000   0.000000   0.000000  -0.000000   0.000000  -0.000000
     2  C    0.000000   0.000000  -0.000000   0.000000  -0.000000   0.000000
     3  H    0.000000  -0.000000   0.000000  -0.000000   0.000000   0.000000
     4  H   -0.000000   0.000000  -0.000000   0.000000  -0.000000  -0.000000
     5  H    0.000000  -0.000000   0.000000  -0.000000   0.000000   0.000000
     6  C   -0.000000   0.000000   0.000000  -0.000000   0.000000  -0.000000
     7  C    0.000000  -0.000000  -0.000000   0.000000  -0.000000   0.000000
     8  H   -0.000000   0.000000   0.000000   0.000000   0.000000  -0.000000
     9  H   -0.000000  -0.000000  -0.000000   0.000000  -0.000000  -0.000000
    10  H    0.000000  -0.000000  -0.000000   0.000000   0.000000   0.000000
               7          8          9         10
     1  C    0.000000  -0.000000  -0.000000   0.000000
     2  C   -0.000000   0.000000  -0.000000  -0.000000
     3  H   -0.000000   0.000000  -0.000000  -0.000000
     4  H    0.000000   0.000000   0.000000   0.000000
     5  H   -0.000000   0.000000  -0.000000   0.000000
     6  C    0.000000  -0.000000  -0.000000   0.000000
     7  C   -0.000000   0.000000  -0.000000  -0.000000
     8  H    0.000000   0.000000   0.000000   0.000000
     9  H   -0.000000   0.000000  -0.000000   0.000000
    10  H   -0.000000   0.000000   0.000000   0.000000
 Mulliken charges and spin densities:
               1          2
     1  C   -0.311087  -0.000000
     2  C   -0.062835   0.000000
     3  H    0.120475   0.000000
     4  H    0.126311  -0.000000
     5  H    0.127137   0.000000
     6  C   -0.062806  -0.000000
     7  C   -0.311101   0.000000
     8  H    0.127118   0.000000
     9  H    0.126301  -0.000000
    10  H    0.120486   0.000000
 Sum of Mulliken charges =  -0.00000   0.00000
 Mulliken charges and spin densities with hydrogens summed into heavy atoms:
               1          2
     1  C   -0.064301  -0.000000
     2  C    0.064302   0.000000
     6  C    0.064313  -0.000000
     7  C   -0.064314  -0.000000
 Electronic spatial extent (au):  <R**2>=            334.4530
 Charge=              0.0000 electrons
 Dipole moment (field-independent basis, Debye):
    X=              0.0002    Y=             -0.0000    Z=             -0.0000  Tot=              0.0002
 Quadrupole moment (field-independent basis, Debye-Ang):
   XX=            -23.3353   YY=            -22.9547   ZZ=            -29.0265
   XY=              0.0438   XZ=              0.0001   YZ=             -0.0002
 Traceless Quadrupole moment (field-independent basis, Debye-Ang):
   XX=              1.7702   YY=              2.1508   ZZ=             -3.9210
   XY=              0.0438   XZ=              0.0001   YZ=             -0.0002
 Octapole moment (field-independent basis, Debye-Ang**2):
  XXX=              0.0008  YYY=             -0.0015  ZZZ=              0.0003  XYY=             -0.0002
  XXY=             -0.0011  XXZ=             -0.0017  XZZ=             -0.0001  YZZ=             -0.0010
  YYZ=              0.0010  XYZ=             -0.0000
 Hexadecapole moment (field-independent basis, Debye-Ang**3):
 XXXX=           -294.7624 YYYY=           -103.0778 ZZZZ=            -34.5602 XXXY=             50.0056
 XXXZ=             -0.0038 YYYX=             49.9173 YYYZ=              0.0016 ZZZX=             -0.0050
 ZZZY=              0.0026 XXYY=            -71.5882 XXZZ=            -67.8364 YYZZ=            -26.5942
 XXYZ=              0.0004 YYXZ=             -0.0010 ZZXY=             19.7538
 N-N= 1.040202278809D+02 E-N=-5.688195278555D+02  KE= 1.549603923561D+02
                          Isotropic Fermi Contact Couplings
        Atom                 a.u.       MegaHertz       Gauss      10(-4) cm-1
     1  C(13)              0.00000       0.00000       0.00000       0.00000
     2  C(13)             -0.00000      -0.00000      -0.00000      -0.00000
     3  H(1)               0.00000       0.00000       0.00000       0.00000
     4  H(1)               0.00000       0.00000       0.00000       0.00000
     5  H(1)              -0.00000      -0.00000      -0.00000      -0.00000
     6  C(13)              0.00000       0.00000       0.00000       0.00000
     7  C(13)             -0.00000      -0.00000      -0.00000      -0.00000
     8  H(1)               0.00000       0.00000       0.00000       0.00000
     9  H(1)               0.00000       0.00000       0.00000       0.00000
    10  H(1)              -0.00000      -0.00000      -0.00000      -0.00000
 --------------------------------------------------------
       Center         ----  Spin Dipole Couplings  ----
                      3XX-RR        3YY-RR        3ZZ-RR
 --------------------------------------------------------
     1   Atom        0.000000      0.000000      0.000000
     2   Atom        0.000000      0.000000      0.000000
     3   Atom        0.000000      0.000000      0.000000
     4   Atom        0.000000      0.000000      0.000000
     5   Atom        0.000000      0.000000      0.000000
     6   Atom        0.000000      0.000000      0.000000
     7   Atom        0.000000      0.000000      0.000000
     8   Atom        0.000000      0.000000      0.000000
     9   Atom        0.000000      0.000000      0.000000
    10   Atom        0.000000      0.000000      0.000000
 --------------------------------------------------------
                        XY            XZ            YZ
 --------------------------------------------------------
     1   Atom        0.000000      0.000000      0.000000
     2   Atom        0.000000      0.000000      0.000000
     3   Atom        0.000000      0.000000      0.000000
     4   Atom        0.000000      0.000000      0.000000
     5   Atom        0.000000      0.000000      0.000000
     6   Atom        0.000000      0.000000      0.000000
     7   Atom        0.000000      0.000000      0.000000
     8   Atom        0.000000      0.000000      0.000000
     9   Atom        0.000000      0.000000      0.000000
    10   Atom        0.000000      0.000000      0.000000
 --------------------------------------------------------


 ---------------------------------------------------------------------------------
              Anisotropic Spin Dipole Couplings in Principal Axis System
 ---------------------------------------------------------------------------------

       Atom             a.u.   MegaHertz   Gauss  10(-4) cm-1        Axes

              Baa     0.0000     0.000     0.000     0.000  1.0000  0.0000  0.0000
     1 C(13)  Bbb     0.0000     0.000     0.000     0.000 -0.0000  1.0000  0.0000
              Bcc     0.0000     0.000     0.000     0.000  0.0000  0.0000  1.0000
 
              Baa     0.0000     0.000     0.000     0.000  1.0000  0.0000  0.0000
     2 C(13)  Bbb     0.0000     0.000     0.000     0.000 -0.0000  1.0000  0.0000
              Bcc     0.0000     0.000     0.000     0.000  0.0000  0.0000  1.0000
 
              Baa     0.0000     0.000     0.000     0.000  1.0000  0.0000  0.0000
     3 H(1)   Bbb     0.0000     0.000     0.000     0.000 -0.0000  1.0000  0.0000
              Bcc     0.0000     0.000     0.000     0.000  0.0000  0.0000  1.0000
 
              Baa     0.0000     0.000     0.000     0.000  1.0000  0.0000  0.0000
     4 H(1)   Bbb     0.0000     0.000     0.000     0.000 -0.0000  1.0000  0.0000
              Bcc     0.0000     0.000     0.000     0.000  0.0000  0.0000  1.0000
 
              Baa     0.0000     0.000     0.000     0.000  1.0000  0.0000  0.0000
     5 H(1)   Bbb     0.0000     0.000     0.000     0.000 -0.0000  1.0000  0.0000
              Bcc     0.0000     0.000     0.000     0.000  0.0000  0.0000  1.0000
 
              Baa     0.0000     0.000     0.000     0.000  1.0000  0.0000  0.0000
     6 C(13)  Bbb     0.0000     0.000     0.000     0.000 -0.0000  1.0000  0.0000
              Bcc     0.0000     0.000     0.000     0.000  0.0000  0.0000  1.0000
 
              Baa     0.0000     0.000     0.000     0.000  1.0000  0.0000  0.0000
     7 C(13)  Bbb     0.0000     0.000     0.000     0.000 -0.0000  1.0000  0.0000
              Bcc     0.0000     0.000     0.000     0.000  0.0000  0.0000  1.0000
 
              Baa     0.0000     0.000     0.000     0.000  1.0000  0.0000  0.0000
     8 H(1)   Bbb     0.0000     0.000     0.000     0.000 -0.0000  1.0000  0.0000
              Bcc     0.0000     0.000     0.000     0.000  0.0000  0.0000  1.0000
 
              Baa     0.0000     0.000     0.000     0.000  1.0000  0.0000  0.0000
     9 H(1)   Bbb     0.0000     0.000     0.000     0.000 -0.0000  1.0000  0.0000
              Bcc     0.0000     0.000     0.000     0.000  0.0000  0.0000  1.0000
 
              Baa     0.0000     0.000     0.000     0.000  1.0000  0.0000  0.0000
    10 H(1)   Bbb     0.0000     0.000     0.000     0.000 -0.0000  1.0000  0.0000
              Bcc     0.0000     0.000     0.000     0.000  0.0000  0.0000  1.0000
 

 ---------------------------------------------------------------------------------

 1\1\GINC-NODE01\Scan\UB2PLYPD3-FC\CC-pVTZ\C4H6\ROOT\29-Nov-2019\0\\# o
 pt=(maxcyc=500,modredundant) uB2PLYPD3/cc-pvtz scf=maxcyc=500 nosymm\\
 Title Card Required\\0,1\C,1.6612602038,-0.7976757531,0.0000694929\C,0
 .7122862671,0.1425995172,-0.0000163304\H,1.4070943166,-1.8490864974,0.
 0001958159\H,2.7101704806,-0.5429446086,-0.0000835045\H,0.9966241354,1
 .1888560651,0.0000305844\C,-0.7121515511,-0.1423790655,-0.00002822\C,-
 1.6613448389,0.7976507605,-0.0000460537\H,-0.9962334278,-1.1887141749,
 0.0000488739\H,-2.7101690066,0.5425502767,-0.0001944456\H,-1.407537579
 1,1.8491424801,0.0000047869\\Version=ES64L-G16RevA.03\HF=-155.6891305,
 -155.688801,-155.6878315,-155.6862852,-155.6842987,-155.6821091,-155.6
 801152,-155.678801,-155.678456,-155.6789774,-155.6800349,-155.6812905,
 -155.6824498,-155.6833098,-155.683726,-155.6836805,-155.6833193,-155.6
 829086,-155.6827315,-155.6829103,-155.6833191,-155.6836809,-155.683725
 2,-155.6833124,-155.682456,-155.6812864,-155.6800339,-155.6789808,-155
 .6784583,-155.6788009,-155.6801155,-155.6821082,-155.6842962,-155.6862
 831,-155.6878291,-155.6887989,-155.68913\MP2=-155.9032733,-155.902946,
 -155.90198,-155.9004347,-155.898432,-155.8962002,-155.8941205,-155.892
 7042,-155.8923002,-155.8928175,-155.8939121,-155.8952392,-155.8965101,
 -155.8974876,-155.8980121,-155.898054,-155.8977476,-155.8973615,-155.8
 971882,-155.8973613,-155.8977474,-155.8980537,-155.898012,-155.8974885
 ,-155.8965112,-155.8952406,-155.8939131,-155.8928181,-155.8923005,-155
 .8927039,-155.8941202,-155.8961984,-155.8984305,-155.9004335,-155.9019
 79,-155.9029455,-155.9032742\PUHF=-155.6891305,-155.688801,-155.687831
 5,-155.6862852,-155.6842987,-155.6821091,-155.6801152,-155.678801,-155
 .678456,-155.6789774,-155.6800349,-155.6812905,-155.6824498,-155.68330
 98,-155.683726,-155.6836805,-155.6833193,-155.6829086,-155.6827315,-15
 5.6829103,-155.6833191,-155.6836809,-155.6837252,-155.6833124,-155.682
 456,-155.6812864,-155.6800339,-155.6789808,-155.6784583,-155.6788009,-
 155.6801155,-155.6821082,-155.6842962,-155.6862831,-155.6878291,-155.6
 887989,-155.68913\PMP2-0=-155.9032733,-155.902946,-155.90198,-155.9004
 347,-155.898432,-155.8962002,-155.8941205,-155.8927042,-155.8923002,-1
 55.8928175,-155.8939121,-155.8952392,-155.8965101,-155.8974876,-155.89
 80121,-155.898054,-155.8977476,-155.8973615,-155.8971882,-155.8973613,
 -155.8977474,-155.8980537,-155.898012,-155.8974885,-155.8965112,-155.8
 952406,-155.8939131,-155.8928181,-155.8923005,-155.8927039,-155.894120
 2,-155.8961984,-155.8984305,-155.9004335,-155.901979,-155.9029455,-155
 .9032742\S2=0.,0.,0.,0.,0.,0.,0.,0.,0.,0.,0.,0.,0.,0.,0.,0.,0.,0.,0.,0
 .,0.,0.,0.,0.,0.,0.,0.,0.,0.,0.,0.,0.,0.,0.,0.,0.,0.\S2-1=0.,0.,0.,0.,
 0.,0.,0.,0.,0.,0.,0.,0.,0.,0.,0.,0.,0.,0.,0.,0.,0.,0.,0.,0.,0.,0.,0.,0
 .,0.,0.,0.,0.,0.,0.,0.,0.,0.\S2A=0.,0.,0.,0.,0.,0.,0.,0.,0.,0.,0.,0.,0
 .,0.,0.,0.,0.,0.,0.,0.,0.,0.,0.,0.,0.,0.,0.,0.,0.,0.,0.,0.,0.,0.,0.,0.
 ,0.\RMSD=2.949e-09,8.277e-09,1.863e-09,3.502e-09,8.424e-09,3.853e-09,7
 .100e-09,6.094e-09,4.678e-09,4.406e-09,3.230e-09,3.228e-09,2.473e-09,7
 .635e-09,2.659e-09,3.993e-09,5.268e-09,4.978e-09,7.304e-09,3.959e-09,6
 .477e-09,5.080e-09,3.608e-09,8.311e-09,7.693e-09,8.790e-09,3.710e-09,4
 .383e-09,3.138e-09,6.181e-09,7.614e-09,3.675e-09,2.982e-09,6.520e-09,2
 .970e-09,9.993e-09,6.876e-09\PG=C01 [X(C4H6)]\\@


 A true friend is someone who is there for
 you when he'd rather be anywhere else.
                               -- Len Wein
 Job cpu time:       2 days  7 hours 32 minutes 16.4 seconds.
 Elapsed time:       0 days  2 hours 34 minutes 36.1 seconds.
 File lengths (MBytes):  RWF=     41 Int=      0 D2E=      0 Chk=     10 Scr=      1
 Normal termination of Gaussian 16 at Fri Nov 29 16:55:59 2019.
