 Entering Gaussian System, Link 0=g16
 Initial command:
 /ichec/packages/gaussian/16b01/l1.exe "/localscratch/339542/Gau-57280.inp" -scrdir="/localscratch/339542/"
 Entering Link 1 = /ichec/packages/gaussian/16b01/l1.exe PID=     57293.
  
 Copyright (c) 1988-2017, Gaussian, Inc.  All Rights Reserved.
  
 This is part of the Gaussian(R) 16 program.  It is based on
 the Gaussian(R) 09 system (copyright 2009, Gaussian, Inc.),
 the Gaussian(R) 03 system (copyright 2003, Gaussian, Inc.),
 the Gaussian(R) 98 system (copyright 1998, Gaussian, Inc.),
 the Gaussian(R) 94 system (copyright 1995, Gaussian, Inc.),
 the Gaussian 92(TM) system (copyright 1992, Gaussian, Inc.),
 the Gaussian 90(TM) system (copyright 1990, Gaussian, Inc.),
 the Gaussian 88(TM) system (copyright 1988, Gaussian, Inc.),
 the Gaussian 86(TM) system (copyright 1986, Carnegie Mellon
 University), and the Gaussian 82(TM) system (copyright 1983,
 Carnegie Mellon University). Gaussian is a federally registered
 trademark of Gaussian, Inc.
  
 This software contains proprietary and confidential information,
 including trade secrets, belonging to Gaussian, Inc.
  
 This software is provided under written license and may be
 used, copied, transmitted, or stored only in accord with that
 written license.
  
 The following legend is applicable only to US Government
 contracts under FAR:
  
                    RESTRICTED RIGHTS LEGEND
  
 Use, reproduction and disclosure by the US Government is
 subject to restrictions as set forth in subparagraphs (a)
 and (c) of the Commercial Computer Software - Restricted
 Rights clause in FAR 52.227-19.
  
 Gaussian, Inc.
 340 Quinnipiac St., Bldg. 40, Wallingford CT 06492
  
  
 ---------------------------------------------------------------
 Warning -- This program may not be used in any manner that
 competes with the business of Gaussian, Inc. or will provide
 assistance to any competitor of Gaussian, Inc.  The licensee
 of this program is prohibited from giving any competitor of
 Gaussian, Inc. access to this program.  By using this program,
 the user acknowledges that Gaussian, Inc. is engaged in the
 business of creating and licensing software in the field of
 computational chemistry and represents and warrants to the
 licensee that it is not a competitor of Gaussian, Inc. and that
 it will not use this program in any manner prohibited above.
 ---------------------------------------------------------------
  

 Cite this work as:
 Gaussian 16, Revision B.01,
 M. J. Frisch, G. W. Trucks, H. B. Schlegel, G. E. Scuseria, 
 M. A. Robb, J. R. Cheeseman, G. Scalmani, V. Barone, 
 G. A. Petersson, H. Nakatsuji, X. Li, M. Caricato, A. V. Marenich, 
 J. Bloino, B. G. Janesko, R. Gomperts, B. Mennucci, H. P. Hratchian, 
 J. V. Ortiz, A. F. Izmaylov, J. L. Sonnenberg, D. Williams-Young, 
 F. Ding, F. Lipparini, F. Egidi, J. Goings, B. Peng, A. Petrone, 
 T. Henderson, D. Ranasinghe, V. G. Zakrzewski, J. Gao, N. Rega, 
 G. Zheng, W. Liang, M. Hada, M. Ehara, K. Toyota, R. Fukuda, 
 J. Hasegawa, M. Ishida, T. Nakajima, Y. Honda, O. Kitao, H. Nakai, 
 T. Vreven, K. Throssell, J. A. Montgomery, Jr., J. E. Peralta, 
 F. Ogliaro, M. J. Bearpark, J. J. Heyd, E. N. Brothers, K. N. Kudin, 
 V. N. Staroverov, T. A. Keith, R. Kobayashi, J. Normand, 
 K. Raghavachari, A. P. Rendell, J. C. Burant, S. S. Iyengar, 
 J. Tomasi, M. Cossi, J. M. Millam, M. Klene, C. Adamo, R. Cammi, 
 J. W. Ochterski, R. L. Martin, K. Morokuma, O. Farkas, 
 J. B. Foresman, and D. J. Fox, Gaussian, Inc., Wallingford CT, 2016.
 
 ******************************************
 Gaussian 16:  ES64L-G16RevB.01 20-Dec-2017
                31-May-2019 
 ******************************************
 %mem=80GB
 %nproc=40
 Will use up to   40 processors via shared memory.
 -----------------------------------------------
 # opt=maxcyc=500 freq=noraman uB2PLYPD3/cc-pvtz
 -----------------------------------------------
 1/6=500,18=20,19=15,38=1/1,3;
 2/9=110,12=2,17=6,18=5,40=1/2;
 3/5=16,6=1,11=2,25=1,30=1,71=1,74=-60,116=2/1,2,3;
 4//1;
 5/5=2,38=5/2;
 8/6=4,10=1/1;
 9/15=2,16=-3/6;
 10/5=1/2;
 6/7=2,8=2,9=2,10=2/1;
 7/12=2/1,2,3,16;
 1/6=500,18=20,19=15/3(2);
 2/9=110/2;
 99//99;
 2/9=110/2;
 3/5=16,6=1,11=2,25=1,30=1,71=1,74=-60,116=2/1,2,3;
 4/5=5,16=3,69=1/1;
 5/5=2,38=5/2;
 8/6=4,10=1/1;
 9/15=2,16=-3/6;
 10/5=1/2;
 7/12=2/1,2,3,16;
 1/6=500,18=20,19=15/3(-8);
 2/9=110/2;
 6/7=2,8=2,9=2,10=2/1;
 99/9=10/99;
 -------------------
 Title Card Required
 -------------------
 Symbolic Z-matrix:
 Charge =  0 Multiplicity = 2
 C                    -2.77439  -0.0586    0.36862 
 C                    -1.44848  -0.0586    0.36862 
 H                    -0.85489  -0.98264   0.3686 
 C                    -0.6161    1.23707   0.36866 
 C                     0.70981   1.23702   0.36866 
 H                    -1.20968   2.1611    0.36871 
 H                     1.30343   2.16104   0.3687 
 H                     1.3034    0.31298   0.36861 
 H                    -3.30939  -0.98525   0.36862 
 

 GradGradGradGradGradGradGradGradGradGradGradGradGradGradGradGradGradGrad
 Berny optimization.
 Initialization pass.
                           ----------------------------
                           !    Initial Parameters    !
                           ! (Angstroms and Degrees)  !
 --------------------------                            --------------------------
 ! Name  Definition              Value          Derivative Info.                !
 --------------------------------------------------------------------------------
 ! R1    R(1,2)                  1.3259         estimate D2E/DX2                !
 ! R2    R(1,9)                  1.07           estimate D2E/DX2                !
 ! R3    R(2,3)                  1.0983         estimate D2E/DX2                !
 ! R4    R(2,4)                  1.54           estimate D2E/DX2                !
 ! R5    R(4,5)                  1.3259         estimate D2E/DX2                !
 ! R6    R(4,6)                  1.0983         estimate D2E/DX2                !
 ! R7    R(5,7)                  1.0983         estimate D2E/DX2                !
 ! R8    R(5,8)                  1.0983         estimate D2E/DX2                !
 ! A1    A(2,1,9)              120.0            estimate D2E/DX2                !
 ! A2    A(1,2,3)              122.7159         estimate D2E/DX2                !
 ! A3    A(1,2,4)              122.718          estimate D2E/DX2                !
 ! A4    A(3,2,4)              114.5661         estimate D2E/DX2                !
 ! A5    A(2,4,5)              122.7159         estimate D2E/DX2                !
 ! A6    A(2,4,6)              114.5661         estimate D2E/DX2                !
 ! A7    A(5,4,6)              122.718          estimate D2E/DX2                !
 ! A8    A(4,5,7)              122.7159         estimate D2E/DX2                !
 ! A9    A(4,5,8)              122.718          estimate D2E/DX2                !
 ! A10   A(7,5,8)              114.5661         estimate D2E/DX2                !
 ! D1    D(9,1,2,3)              0.0012         estimate D2E/DX2                !
 ! D2    D(9,1,2,4)           -179.9984         estimate D2E/DX2                !
 ! D3    D(1,2,4,5)            180.0            estimate D2E/DX2                !
 ! D4    D(1,2,4,6)              0.0013         estimate D2E/DX2                !
 ! D5    D(3,2,4,5)              0.0004         estimate D2E/DX2                !
 ! D6    D(3,2,4,6)           -179.9983         estimate D2E/DX2                !
 ! D7    D(2,4,5,7)           -179.9988         estimate D2E/DX2                !
 ! D8    D(2,4,5,8)              0.0016         estimate D2E/DX2                !
 ! D9    D(6,4,5,7)             -0.0002         estimate D2E/DX2                !
 ! D10   D(6,4,5,8)           -179.9998         estimate D2E/DX2                !
 --------------------------------------------------------------------------------
 Trust Radius=3.00D-01 FncErr=1.00D-07 GrdErr=1.00D-07 EigMax=2.50D+02 EigMin=1.00D-04
 Number of steps in this run=    100 maximum allowed number of steps=    100.
 GradGradGradGradGradGradGradGradGradGradGradGradGradGradGradGradGradGrad

                          Input orientation:                          
 ---------------------------------------------------------------------
 Center     Atomic      Atomic             Coordinates (Angstroms)
 Number     Number       Type             X           Y           Z
 ---------------------------------------------------------------------
      1          6           0       -2.774395   -0.058600    0.368621
      2          6           0       -1.448479   -0.058600    0.368621
      3          1           0       -0.854894   -0.982638    0.368602
      4          6           0       -0.616102    1.237065    0.368657
      5          6           0        0.709814    1.237018    0.368657
      6          1           0       -1.209685    2.161101    0.368705
      7          1           0        1.303432    2.161035    0.368702
      8          1           0        1.303397    0.312983    0.368605
      9          1           0       -3.309395   -0.985247    0.368621
 ---------------------------------------------------------------------
                    Distance matrix (angstroms):
                    1          2          3          4          5
     1  C    0.000000
     2  C    1.325916   0.000000
     3  H    2.130336   1.098267   0.000000
     4  C    2.517335   1.540000   2.232511   0.000000
     5  C    3.717302   2.517311   2.715729   1.325916   0.000000
     6  H    2.715766   2.232508   3.163695   1.098263   2.130353
     7  H    4.642785   3.535505   3.813273   2.130336   1.098267
     8  H    4.094687   2.776850   2.517311   2.130353   1.098263
     9  H    1.070000   2.078866   2.454502   3.491776   4.592657
                    6          7          8          9
     6  H    0.000000
     7  H    2.513117   0.000000
     8  H    3.119474   1.848052   0.000000
     9  H    3.782629   5.583660   4.791999   0.000000
 Stoichiometry    C4H5(2)
 Framework group  C1[X(C4H5)]
 Deg. of freedom    21
 Full point group                 C1      NOp   1
 Largest Abelian subgroup         C1      NOp   1
 Largest concise Abelian subgroup C1      NOp   1
                         Standard orientation:                         
 ---------------------------------------------------------------------
 Center     Atomic      Atomic             Coordinates (Angstroms)
 Number     Number       Type             X           Y           Z
 ---------------------------------------------------------------------
      1          6           0        1.917685   -0.243309   -0.000020
      2          6           0        0.731169    0.348496   -0.000020
      3          1           0        0.612422    1.440325   -0.000039
      4          6           0       -0.591999   -0.439429    0.000017
      5          6           0       -1.778494    0.152418    0.000017
      6          1           0       -0.473253   -1.531254    0.000065
      7          1           0       -2.722125   -0.409499    0.000062
      8          1           0       -1.897240    1.244243   -0.000035
      9          1           0        2.810034    0.347126   -0.000020
 ---------------------------------------------------------------------
 Rotational constants (GHZ):          45.8197717           4.4990701           4.0968027
 Standard basis: CC-pVTZ (5D, 7F)
 There are   215 symmetry adapted cartesian basis functions of A   symmetry.
 There are   190 symmetry adapted basis functions of A   symmetry.
   190 basis functions,   293 primitive gaussians,   215 cartesian basis functions
    15 alpha electrons       14 beta electrons
       nuclear repulsion energy        95.4137015903 Hartrees.
 NAtoms=    9 NActive=    9 NUniq=    9 SFac= 1.00D+00 NAtFMM=   60 NAOKFM=F Big=F
 Integral buffers will be    131072 words long.
 Raffenetti 2 integral format.
 Two-electron integral symmetry is turned on.
 Nuclear repulsion after empirical dispersion term =       95.4093710294 Hartrees.
 One-electron integrals computed using PRISM.
 NBasis=   190 RedAO= T EigKep=  3.87D-04  NBF=   190
 NBsUse=   190 1.00D-06 EigRej= -1.00D+00 NBFU=   190
 ExpMin= 1.03D-01 ExpMax= 8.24D+03 ExpMxC= 2.81D+02 IAcc=3 IRadAn=         5 AccDes= 0.00D+00
 Harris functional with IExCor=  419 and IRadAn=       5 diagonalized for initial guess.
 HarFok:  IExCor=  419 AccDes= 0.00D+00 IRadAn=         5 IDoV= 1 UseB2=F ITyADJ=14
 ICtDFT=  3500011 ScaDFX=  1.000000  1.000000  1.000000  1.000000
 FoFCou: FMM=F IPFlag=           0 FMFlag=      100000 FMFlg1=           0
         NFxFlg=           0 DoJE=T BraDBF=F KetDBF=T FulRan=T
         wScrn=  0.000000 ICntrl=       500 IOpCl=  0 I1Cent=   200000004 NGrid=           0
         NMat0=    1 NMatS0=      1 NMatT0=    0 NMatD0=    1 NMtDS0=    0 NMtDT0=    0
 Petite list used in FoFCou.
 Initial guess <Sx>= 0.0000 <Sy>= 0.0000 <Sz>= 0.5000 <S**2>= 0.7500 S= 0.5000
 Keep R1 and R2 ints in memory in canonical form, NReq=370972403.
 Requested convergence on RMS density matrix=1.00D-08 within 128 cycles.
 Requested convergence on MAX density matrix=1.00D-06.
 Requested convergence on             energy=1.00D-06.
 No special actions if energy rises.
 Integral accuracy reduced to 1.0D-05 until final iterations.
 Initial convergence to 1.0D-05 achieved.  Increase integral accuracy.
 SCF Done:  E(UB2PLYPD3) =  -155.004566888     A.U. after   23 cycles
            NFock= 23  Conv=0.83D-08     -V/T= 2.0058
 <Sx>= 0.0000 <Sy>= 0.0000 <Sz>= 0.5000 <S**2>= 0.8035 S= 0.5264
 <L.S>=  0.00000000000    
 Annihilation of the first spin contaminant:
 S**2 before annihilation     0.8035,   after     0.7509
 DoSCS=T DFT=T ScalE2(SS,OS)=  0.270000  0.270000
 ExpMin= 1.03D-01 ExpMax= 8.24D+03 ExpMxC= 2.81D+02 IAcc=3 IRadAn=         5 AccDes= 0.00D+00
 HarFok:  IExCor=  205 AccDes= 0.00D+00 IRadAn=         5 IDoV=-2 UseB2=F ITyADJ=14
 ICtDFT= 12500011 ScaDFX=  1.000000  1.000000  1.000000  1.000000
 Range of M.O.s used for correlation:     5   190
 NBasis=   190 NAE=    15 NBE=    14 NFC=     4 NFV=     0
 NROrb=    186 NOA=    11 NOB=    10 NVA=   175 NVB=   176

 **** Warning!!: The largest alpha MO coefficient is  0.11084717D+02


 **** Warning!!: The largest beta MO coefficient is  0.12051949D+02

 DoSCS=T DFT=T ScalE2(SS,OS)=  0.270000  0.270000
 Fully direct method using O(ONN) memory.
 JobTyp=2 Pass  1:  I=   5 to  15 NPSUse= 40 ParTrn=T ParDer=T DoDerP=T.
 JobTyp=3 Pass  1:  I=   5 to  14 NPSUse= 40 ParTrn=T ParDer=T DoDerP=T.
 Spin components of T(2) and E(2):
     alpha-alpha T2 =       0.4253991390D-01 E2=     -0.2538378126D-01
     alpha-beta  T2 =       0.2518445947D+00 E2=     -0.1541199826D+00
     beta-beta   T2 =       0.3789530350D-01 E2=     -0.2202793082D-01
 (S**2,0)=  0.80349D+00           (S**2,1)=  0.77478D+00
 Scaling Projection term by:   0.270000
 E(PUHF)=      -0.15500929591D+03        E(PMP2)=      -0.15520703612D+03
 E2(B2PLYPD3) =    -0.2015316947D+00 E(B2PLYPD3) =    -0.15520609858298D+03
          IDoAtm=111111111
          Differentiating once with respect to electric field.
                with respect to dipole field.
          Differentiating once with respect to nuclear coordinates.
 Keep R1 and R2 ints in memory in canonical form, NReq=370978875.
          There are     1 degrees of freedom in the 1st order CPHF.  IDoFFX=0 NUNeed=     1.
 LinEq1:  Iter=  0 NonCon=     1 RMS=1.05D-03 Max=2.41D-02 NDo=     1
 AX will form     1 AO Fock derivatives at one time.
 LinEq1:  Iter=  1 NonCon=     1 RMS=4.36D-04 Max=1.19D-02 NDo=     1
 LinEq1:  Iter=  2 NonCon=     1 RMS=2.97D-04 Max=7.39D-03 NDo=     1
 LinEq1:  Iter=  3 NonCon=     1 RMS=1.29D-04 Max=4.13D-03 NDo=     1
 LinEq1:  Iter=  4 NonCon=     1 RMS=7.02D-05 Max=1.99D-03 NDo=     1
 LinEq1:  Iter=  5 NonCon=     1 RMS=2.47D-05 Max=6.19D-04 NDo=     1
 LinEq1:  Iter=  6 NonCon=     1 RMS=1.28D-05 Max=3.19D-04 NDo=     1
 LinEq1:  Iter=  7 NonCon=     1 RMS=7.15D-06 Max=1.51D-04 NDo=     1
 LinEq1:  Iter=  8 NonCon=     1 RMS=2.33D-06 Max=3.61D-05 NDo=     1
 LinEq1:  Iter=  9 NonCon=     1 RMS=1.41D-06 Max=3.02D-05 NDo=     1
 LinEq1:  Iter= 10 NonCon=     1 RMS=4.16D-07 Max=4.40D-06 NDo=     1
 LinEq1:  Iter= 11 NonCon=     1 RMS=8.35D-08 Max=1.05D-06 NDo=     1
 LinEq1:  Iter= 12 NonCon=     1 RMS=2.34D-08 Max=3.31D-07 NDo=     1
 LinEq1:  Iter= 13 NonCon=     1 RMS=5.35D-09 Max=6.32D-08 NDo=     1
 LinEq1:  Iter= 14 NonCon=     1 RMS=1.29D-09 Max=2.50D-08 NDo=     1
 LinEq1:  Iter= 15 NonCon=     1 RMS=2.74D-10 Max=5.26D-09 NDo=     1
 LinEq1:  Iter= 16 NonCon=     1 RMS=6.90D-11 Max=1.21D-09 NDo=     1
 LinEq1:  Iter= 17 NonCon=     0 RMS=1.82D-11 Max=1.90D-10 NDo=     1
 Linear equations converged to 1.000D-10 1.000D-09 after    17 iterations.
 End of Minotr F.D. properties file   721 does not exist.
 End of Minotr F.D. properties file   722 does not exist.
 End of Minotr F.D. properties file   788 does not exist.

 **********************************************************************

            Population analysis using the SCF Density.

 **********************************************************************

 Orbital symmetries:
 Alpha Orbitals:
       Occupied  (A) (A) (A) (A) (A) (A) (A) (A) (A) (A) (A) (A)
                 (A) (A) (A)
       Virtual   (A) (A) (A) (A) (A) (A) (A) (A) (A) (A) (A) (A)
                 (A) (A) (A) (A) (A) (A) (A) (A) (A) (A) (A) (A)
                 (A) (A) (A) (A) (A) (A) (A) (A) (A) (A) (A) (A)
                 (A) (A) (A) (A) (A) (A) (A) (A) (A) (A) (A) (A)
                 (A) (A) (A) (A) (A) (A) (A) (A) (A) (A) (A) (A)
                 (A) (A) (A) (A) (A) (A) (A) (A) (A) (A) (A) (A)
                 (A) (A) (A) (A) (A) (A) (A) (A) (A) (A) (A) (A)
                 (A) (A) (A) (A) (A) (A) (A) (A) (A) (A) (A) (A)
                 (A) (A) (A) (A) (A) (A) (A) (A) (A) (A) (A) (A)
                 (A) (A) (A) (A) (A) (A) (A) (A) (A) (A) (A) (A)
                 (A) (A) (A) (A) (A) (A) (A) (A) (A) (A) (A) (A)
                 (A) (A) (A) (A) (A) (A) (A) (A) (A) (A) (A) (A)
                 (A) (A) (A) (A) (A) (A) (A) (A) (A) (A) (A) (A)
                 (A) (A) (A) (A) (A) (A) (A) (A) (A) (A) (A) (A)
                 (A) (A) (A) (A) (A) (A) (A)
 Beta  Orbitals:
       Occupied  (A) (A) (A) (A) (A) (A) (A) (A) (A) (A) (A) (A)
                 (A) (A)
       Virtual   (A) (A) (A) (A) (A) (A) (A) (A) (A) (A) (A) (A)
                 (A) (A) (A) (A) (A) (A) (A) (A) (A) (A) (A) (A)
                 (A) (A) (A) (A) (A) (A) (A) (A) (A) (A) (A) (A)
                 (A) (A) (A) (A) (A) (A) (A) (A) (A) (A) (A) (A)
                 (A) (A) (A) (A) (A) (A) (A) (A) (A) (A) (A) (A)
                 (A) (A) (A) (A) (A) (A) (A) (A) (A) (A) (A) (A)
                 (A) (A) (A) (A) (A) (A) (A) (A) (A) (A) (A) (A)
                 (A) (A) (A) (A) (A) (A) (A) (A) (A) (A) (A) (A)
                 (A) (A) (A) (A) (A) (A) (A) (A) (A) (A) (A) (A)
                 (A) (A) (A) (A) (A) (A) (A) (A) (A) (A) (A) (A)
                 (A) (A) (A) (A) (A) (A) (A) (A) (A) (A) (A) (A)
                 (A) (A) (A) (A) (A) (A) (A) (A) (A) (A) (A) (A)
                 (A) (A) (A) (A) (A) (A) (A) (A) (A) (A) (A) (A)
                 (A) (A) (A) (A) (A) (A) (A) (A) (A) (A) (A) (A)
                 (A) (A) (A) (A) (A) (A) (A) (A)
 The electronic state is 2-A.
 Alpha  occ. eigenvalues --  -10.64962 -10.63629 -10.63568 -10.61806  -0.92380
 Alpha  occ. eigenvalues --   -0.85653  -0.69146  -0.62988  -0.55337  -0.51522
 Alpha  occ. eigenvalues --   -0.48001  -0.42056  -0.37807  -0.33945  -0.29301
 Alpha virt. eigenvalues --    0.02584   0.09536   0.10620   0.11544   0.11751
 Alpha virt. eigenvalues --    0.15915   0.16916   0.22987   0.27242   0.30354
 Alpha virt. eigenvalues --    0.33870   0.34272   0.36236   0.38134   0.38934
 Alpha virt. eigenvalues --    0.41821   0.44124   0.47196   0.47671   0.48685
 Alpha virt. eigenvalues --    0.50571   0.51904   0.53947   0.56293   0.57615
 Alpha virt. eigenvalues --    0.58052   0.60133   0.65201   0.66260   0.69022
 Alpha virt. eigenvalues --    0.72533   0.72899   0.75973   0.78501   0.78857
 Alpha virt. eigenvalues --    0.82378   0.91312   0.97122   0.98160   0.99141
 Alpha virt. eigenvalues --    1.03124   1.04642   1.07527   1.08787   1.12496
 Alpha virt. eigenvalues --    1.15765   1.18737   1.21260   1.23478   1.27181
 Alpha virt. eigenvalues --    1.28672   1.31028   1.33067   1.34954   1.41235
 Alpha virt. eigenvalues --    1.44634   1.47248   1.47364   1.48884   1.51762
 Alpha virt. eigenvalues --    1.55965   1.60961   1.63274   1.76242   1.81684
 Alpha virt. eigenvalues --    1.98632   2.11294   2.18833   2.18910   2.27875
 Alpha virt. eigenvalues --    2.33246   2.34723   2.36880   2.38427   2.44730
 Alpha virt. eigenvalues --    2.48032   2.52642   2.53635   2.55794   2.59156
 Alpha virt. eigenvalues --    2.66075   2.71132   2.74284   2.75838   2.78349
 Alpha virt. eigenvalues --    2.80978   2.85466   2.87453   2.88122   2.90569
 Alpha virt. eigenvalues --    2.93951   2.97622   2.98014   2.99599   3.02429
 Alpha virt. eigenvalues --    3.04645   3.07388   3.07452   3.12057   3.13556
 Alpha virt. eigenvalues --    3.15610   3.19179   3.19868   3.22659   3.24093
 Alpha virt. eigenvalues --    3.26158   3.28424   3.29738   3.30232   3.31659
 Alpha virt. eigenvalues --    3.40265   3.40688   3.42060   3.46629   3.49966
 Alpha virt. eigenvalues --    3.53140   3.55888   3.60285   3.62231   3.68888
 Alpha virt. eigenvalues --    3.70921   3.77036   3.78713   3.83712   3.85346
 Alpha virt. eigenvalues --    3.86339   3.88720   3.95176   3.95824   3.98672
 Alpha virt. eigenvalues --    4.00384   4.03157   4.03866   4.07803   4.09107
 Alpha virt. eigenvalues --    4.12424   4.15809   4.16661   4.27178   4.28923
 Alpha virt. eigenvalues --    4.34368   4.40552   4.43264   4.49979   4.55362
 Alpha virt. eigenvalues --    4.58025   4.62740   4.66468   4.66650   4.74495
 Alpha virt. eigenvalues --    4.78888   4.85956   4.88210   4.89598   5.01794
 Alpha virt. eigenvalues --    5.02985   5.05541   5.08434   5.19999   5.23176
 Alpha virt. eigenvalues --    5.25132   5.27428   5.38109   5.45033   5.49559
 Alpha virt. eigenvalues --    5.58194   5.89445   5.95802   6.09173   6.16133
 Alpha virt. eigenvalues --    6.48544  10.22054  10.97714  13.59458  14.32843
  Beta  occ. eigenvalues --  -10.63953 -10.63365 -10.62719 -10.61999  -0.91558
  Beta  occ. eigenvalues --   -0.83984  -0.67691  -0.61421  -0.54317  -0.50243
  Beta  occ. eigenvalues --   -0.47266  -0.41076  -0.37764  -0.28286
  Beta virt. eigenvalues --   -0.03007   0.03780   0.09774   0.10755   0.11781
  Beta virt. eigenvalues --    0.12133   0.16202   0.17029   0.23310   0.29225
  Beta virt. eigenvalues --    0.31505   0.34029   0.34636   0.37028   0.38636
  Beta virt. eigenvalues --    0.39408   0.42772   0.44224   0.47828   0.47979
  Beta virt. eigenvalues --    0.49426   0.50758   0.52874   0.55929   0.56869
  Beta virt. eigenvalues --    0.58081   0.59253   0.60576   0.65656   0.66686
  Beta virt. eigenvalues --    0.69737   0.73324   0.73674   0.76261   0.79487
  Beta virt. eigenvalues --    0.80460   0.82747   0.92637   0.97556   0.98229
  Beta virt. eigenvalues --    1.00162   1.03296   1.05733   1.07586   1.09280
  Beta virt. eigenvalues --    1.12832   1.17487   1.19236   1.22372   1.23668
  Beta virt. eigenvalues --    1.27611   1.29455   1.32004   1.34067   1.35465
  Beta virt. eigenvalues --    1.42154   1.45827   1.47608   1.47759   1.48947
  Beta virt. eigenvalues --    1.51895   1.56171   1.61190   1.63631   1.77497
  Beta virt. eigenvalues --    1.82319   1.99003   2.11587   2.19382   2.19439
  Beta virt. eigenvalues --    2.29171   2.34849   2.35100   2.36873   2.38994
  Beta virt. eigenvalues --    2.45010   2.49188   2.52797   2.54408   2.56748
  Beta virt. eigenvalues --    2.61341   2.66181   2.72464   2.75920   2.77197
  Beta virt. eigenvalues --    2.79762   2.82124   2.85600   2.87889   2.88929
  Beta virt. eigenvalues --    2.90632   2.94297   2.97927   2.98571   2.99974
  Beta virt. eigenvalues --    3.05605   3.05788   3.07734   3.07984   3.12612
  Beta virt. eigenvalues --    3.13750   3.16301   3.19747   3.20948   3.23168
  Beta virt. eigenvalues --    3.27205   3.27273   3.29155   3.32230   3.32397
  Beta virt. eigenvalues --    3.32410   3.40485   3.42005   3.42380   3.47675
  Beta virt. eigenvalues --    3.50980   3.54221   3.57011   3.60676   3.62686
  Beta virt. eigenvalues --    3.69088   3.71228   3.77494   3.79425   3.84565
  Beta virt. eigenvalues --    3.85815   3.86834   3.89203   3.95498   3.96190
  Beta virt. eigenvalues --    3.99145   4.00823   4.03700   4.04223   4.07928
  Beta virt. eigenvalues --    4.09476   4.12870   4.15910   4.17257   4.27538
  Beta virt. eigenvalues --    4.29458   4.34768   4.40772   4.43931   4.50629
  Beta virt. eigenvalues --    4.55736   4.58339   4.63370   4.66684   4.67319
  Beta virt. eigenvalues --    4.74616   4.79100   4.86526   4.89071   4.90119
  Beta virt. eigenvalues --    5.02044   5.03801   5.05455   5.09293   5.20714
  Beta virt. eigenvalues --    5.24515   5.25129   5.27769   5.38554   5.45169
  Beta virt. eigenvalues --    5.50016   5.58633   5.90189   5.96993   6.09205
  Beta virt. eigenvalues --    6.16401   6.48840  10.22653  10.97822  13.60313
  Beta virt. eigenvalues --   14.32836
          Condensed to atoms (all electrons):
               1          2          3          4          5          6
     1  C    5.281399   0.619802  -0.051436  -0.058416   0.000876   0.003892
     2  C    0.619802   4.845526   0.407822   0.388035  -0.062545  -0.037777
     3  H   -0.051436   0.407822   0.536506  -0.037139   0.001110   0.005138
     4  C   -0.058416   0.388035  -0.037139   4.832168   0.614513   0.408826
     5  C    0.000876  -0.062545   0.001110   0.614513   4.959410  -0.041547
     6  H    0.003892  -0.037777   0.005138   0.408826  -0.041547   0.532590
     7  H   -0.000260   0.006255  -0.000364  -0.042721   0.415932  -0.007796
     8  H    0.000091  -0.006520   0.005300  -0.047311   0.409323   0.006018
     9  H    0.409094  -0.067246  -0.006359   0.006276  -0.000384  -0.000359
               7          8          9
     1  C   -0.000260   0.000091   0.409094
     2  C    0.006255  -0.006520  -0.067246
     3  H   -0.000364   0.005300  -0.006359
     4  C   -0.042721  -0.047311   0.006276
     5  C    0.415932   0.409323  -0.000384
     6  H   -0.007796   0.006018  -0.000359
     7  H    0.542950  -0.037142   0.000020
     8  H   -0.037142   0.553717  -0.000058
     9  H    0.000020  -0.000058   0.509842
          Atomic-Atomic Spin Densities.
               1          2          3          4          5          6
     1  C    1.177891  -0.022230  -0.022840  -0.012722   0.000320   0.007450
     2  C   -0.022230  -0.251389   0.015490   0.015403   0.006059  -0.001731
     3  H   -0.022840   0.015490   0.089234  -0.012327   0.001820   0.001479
     4  C   -0.012722   0.015403  -0.012327   0.139676  -0.005268  -0.008296
     5  C    0.000320   0.006059   0.001820  -0.005268  -0.121306   0.002601
     6  H    0.007450  -0.001731   0.001479  -0.008296   0.002601  -0.000728
     7  H   -0.000026   0.000067  -0.000155   0.001406  -0.002134  -0.000537
     8  H   -0.000089   0.000116   0.001046  -0.000603  -0.001358   0.000202
     9  H   -0.000430   0.002025  -0.006723   0.001176  -0.000093  -0.000372
               7          8          9
     1  C   -0.000026  -0.000089  -0.000430
     2  C    0.000067   0.000116   0.002025
     3  H   -0.000155   0.001046  -0.006723
     4  C    0.001406  -0.000603   0.001176
     5  C   -0.002134  -0.001358  -0.000093
     6  H   -0.000537   0.000202  -0.000372
     7  H    0.008499  -0.001069   0.000003
     8  H   -0.001069   0.006940  -0.000018
     9  H    0.000003  -0.000018   0.035900
 Mulliken charges and spin densities:
               1          2
     1  C   -0.205042   1.127325
     2  C   -0.093353  -0.236190
     3  H    0.139421   0.067024
     4  C   -0.064232   0.118444
     5  C   -0.296688  -0.119359
     6  H    0.131015   0.000068
     7  H    0.123125   0.006052
     8  H    0.116582   0.005168
     9  H    0.149173   0.031468
 Sum of Mulliken charges =  -0.00000   1.00000
 Mulliken charges and spin densities with hydrogens summed into heavy atoms:
               1          2
     1  C   -0.055869   1.158793
     2  C    0.046068  -0.169165
     4  C    0.066783   0.118511
     5  C   -0.056981  -0.108139
 Electronic spatial extent (au):  <R**2>=            321.0650
 Charge=             -0.0000 electrons
 Dipole moment (field-independent basis, Debye):
    X=             -0.1782    Y=              0.6923    Z=              0.0000  Tot=              0.7149
 Quadrupole moment (field-independent basis, Debye-Ang):
   XX=            -22.6790   YY=            -22.9725   ZZ=            -28.3723
   XY=              1.3053   XZ=             -0.0000   YZ=             -0.0002
 Traceless Quadrupole moment (field-independent basis, Debye-Ang):
   XX=              1.9956   YY=              1.7021   ZZ=             -3.6977
   XY=              1.3053   XZ=             -0.0000   YZ=             -0.0002
 Octapole moment (field-independent basis, Debye-Ang**2):
  XXX=             -0.9329  YYY=              2.1490  ZZZ=              0.0000  XYY=             -2.0526
  XXY=              3.6831  XXZ=              0.0002  XZZ=             -0.3446  YZZ=              0.3123
  YYZ=              0.0000  XYZ=              0.0001
 Hexadecapole moment (field-independent basis, Debye-Ang**3):
 XXXX=           -326.9423 YYYY=            -60.6731 ZZZZ=            -33.9807 XXXY=             13.8529
 XXXZ=              0.0013 YYYX=              2.6350 YYYZ=              0.0001 ZZZX=              0.0022
 ZZZY=              0.0006 XXYY=            -70.4782 XXZZ=            -74.0458 YYZZ=            -17.7078
 XXYZ=             -0.0003 YYXZ=              0.0006 ZZXY=              0.3366
 N-N= 9.540937102938D+01 E-N=-5.500864077287D+02  KE= 1.541148324017D+02
                          Isotropic Fermi Contact Couplings
        Atom                 a.u.       MegaHertz       Gauss      10(-4) cm-1
     1  C(13)              0.37849     425.49046     151.82558     141.92834
     2  C(13)              0.00935      10.51343       3.75145       3.50690
     3  H(1)               0.03087     137.99767      49.24100      46.03107
     4  C(13)              0.03128      35.16715      12.54851      11.73050
     5  C(13)              0.00581       6.52980       2.32999       2.17811
     6  H(1)               0.00068       3.03194       1.08187       1.01135
     7  H(1)              -0.00091      -4.08671      -1.45824      -1.36318
     8  H(1)              -0.00109      -4.89213      -1.74563      -1.63184
     9  H(1)               0.02265     101.24030      36.12506      33.77013
 --------------------------------------------------------
       Center         ----  Spin Dipole Couplings  ----
                      3XX-RR        3YY-RR        3ZZ-RR
 --------------------------------------------------------
     1   Atom       -0.504432      0.955803     -0.451371
     2   Atom        0.065529      0.018104     -0.083633
     3   Atom        0.000748      0.009067     -0.009815
     4   Atom        0.069258      0.002386     -0.071645
     5   Atom       -0.012882     -0.019818      0.032700
     6   Atom        0.014615     -0.004978     -0.009638
     7   Atom        0.003668     -0.002007     -0.001661
     8   Atom        0.001045      0.001460     -0.002505
     9   Atom        0.058438     -0.000398     -0.058040
 --------------------------------------------------------
                        XY            XZ            YZ
 --------------------------------------------------------
     1   Atom       -0.092345      0.000002     -0.000033
     2   Atom       -0.060957     -0.000002      0.000001
     3   Atom       -0.006404     -0.000000     -0.000001
     4   Atom        0.013627     -0.000002     -0.000003
     5   Atom       -0.003065      0.000001      0.000003
     6   Atom        0.007562     -0.000001     -0.000000
     7   Atom        0.002684     -0.000000      0.000000
     8   Atom       -0.001692      0.000000     -0.000000
     9   Atom        0.036429      0.000001     -0.000001
 --------------------------------------------------------


 ---------------------------------------------------------------------------------
              Anisotropic Spin Dipole Couplings in Principal Axis System
 ---------------------------------------------------------------------------------

       Atom             a.u.   MegaHertz   Gauss  10(-4) cm-1        Axes

              Baa    -0.5102   -68.470   -24.432   -22.839  0.9980  0.0629  0.0000
     1 C(13)  Bbb    -0.4514   -60.570   -21.613   -20.204 -0.0000  0.0000  1.0000
              Bcc     0.9616   129.040    46.045    43.043 -0.0629  0.9980 -0.0000
 
              Baa    -0.0836   -11.223    -4.005    -3.743  0.0000 -0.0000  1.0000
     2 C(13)  Bbb    -0.0236    -3.166    -1.130    -1.056  0.5646  0.8254 -0.0000
              Bcc     0.1072    14.388     5.134     4.799  0.8254 -0.5646 -0.0000
 
              Baa    -0.0098    -5.237    -1.869    -1.747  0.0000  0.0000  1.0000
     3 H(1)   Bbb    -0.0027    -1.456    -0.519    -0.486  0.8788  0.4771 -0.0000
              Bcc     0.0125     6.693     2.388     2.232 -0.4771  0.8788 -0.0000
 
              Baa    -0.0716    -9.614    -3.431    -3.207  0.0000  0.0000  1.0000
     4 C(13)  Bbb    -0.0003    -0.038    -0.014    -0.013 -0.1923  0.9813 -0.0000
              Bcc     0.0719     9.652     3.444     3.220  0.9813  0.1923 -0.0000
 
              Baa    -0.0210    -2.815    -1.005    -0.939  0.3540  0.9352 -0.0001
     5 C(13)  Bbb    -0.0117    -1.573    -0.561    -0.525  0.9352 -0.3540  0.0000
              Bcc     0.0327     4.388     1.566     1.464  0.0000  0.0001  1.0000
 
              Baa    -0.0096    -5.142    -1.835    -1.715  0.0000  0.0000  1.0000
     6 H(1)   Bbb    -0.0076    -4.032    -1.439    -1.345 -0.3228  0.9465 -0.0000
              Bcc     0.0172     9.174     3.274     3.060  0.9465  0.3228 -0.0000
 
              Baa    -0.0031    -1.641    -0.586    -0.547 -0.3698  0.9291 -0.0001
     7 H(1)   Bbb    -0.0017    -0.886    -0.316    -0.296  0.0000  0.0001  1.0000
              Bcc     0.0047     2.527     0.902     0.843  0.9291  0.3698 -0.0000
 
              Baa    -0.0025    -1.337    -0.477    -0.446  0.0000  0.0000  1.0000
     8 H(1)   Bbb    -0.0005    -0.241    -0.086    -0.080  0.7489  0.6626 -0.0000
              Bcc     0.0030     1.578     0.563     0.526 -0.6626  0.7489 -0.0000
 
              Baa    -0.0580   -30.967   -11.050   -10.330 -0.0000  0.0000  1.0000
     9 H(1)   Bbb    -0.0178    -9.499    -3.390    -3.169 -0.4311  0.9023 -0.0000
              Bcc     0.0758    40.467    14.440    13.498  0.9023  0.4311  0.0000
 

 ---------------------------------------------------------------------------------

 Calling FoFJK, ICntrl=  10002127 FMM=F ISym2X=0 I1Cent= 0 IOpClX= 1 NMat=1 NMatS=1 NMatT=0.
 ***** Axes restored to original set *****
 -------------------------------------------------------------------
 Center     Atomic                   Forces (Hartrees/Bohr)
 Number     Number              X              Y              Z
 -------------------------------------------------------------------
      1        6           0.034994987   -0.022194897    0.000000226
      2        6           0.012975746    0.050278542    0.000000719
      3        1          -0.008281517    0.003059066   -0.000000127
      4        6          -0.028545084   -0.025555816    0.000000610
      5        6           0.019254193    0.003087469   -0.000000612
      6        1           0.008246065   -0.008087495   -0.000000688
      7        1          -0.008864879   -0.008163403   -0.000000722
      8        1          -0.008605879    0.007050243    0.000000948
      9        1          -0.021173632    0.000526291   -0.000000353
 -------------------------------------------------------------------
 Cartesian Forces:  Max     0.050278542 RMS     0.016319362

 GradGradGradGradGradGradGradGradGradGradGradGradGradGradGradGradGradGrad
 Berny optimization.
 FormGI is forming the generalized inverse of G from B-inverse, IUseBI=4.
 Internal  Forces:  Max     0.037609187 RMS     0.011447451
 Search for a local minimum.
 Step number   1 out of a maximum of  100
 All quantities printed in internal units (Hartrees-Bohrs-Radians)
 Mixed Optimization -- RFO/linear search
 Second derivative matrix not updated -- first step.
 ITU=  0
     Eigenvalues ---    0.00237   0.01281   0.01763   0.03069   0.03069
     Eigenvalues ---    0.03069   0.16000   0.16000   0.16000   0.16000
     Eigenvalues ---    0.16000   0.22000   0.22000   0.28519   0.33875
     Eigenvalues ---    0.33875   0.33875   0.33875   0.37230   0.60481
     Eigenvalues ---    0.60481
 RFO step:  Lambda=-1.52789895D-02 EMin= 2.36824256D-03
 Linear search not attempted -- first point.
 Iteration  1 RMS(Cart)=  0.05363331 RMS(Int)=  0.00582780
 Iteration  2 RMS(Cart)=  0.00692263 RMS(Int)=  0.00006844
 Iteration  3 RMS(Cart)=  0.00008767 RMS(Int)=  0.00000006
 Iteration  4 RMS(Cart)=  0.00000001 RMS(Int)=  0.00000006
 Variable       Old X    -DE/DX   Delta X   Delta X   Delta X     New X
                                 (Linear)    (Quad)   (Total)
    R1        2.50562  -0.01382   0.00000  -0.02229  -0.02229   2.48333
    R2        2.02201   0.01013   0.00000   0.02614   0.02614   2.04815
    R3        2.07542  -0.00705   0.00000  -0.01991  -0.01991   2.05551
    R4        2.91018  -0.03665   0.00000  -0.12198  -0.12198   2.78820
    R5        2.50562   0.00178   0.00000   0.00288   0.00288   2.50849
    R6        2.07542  -0.01126   0.00000  -0.03181  -0.03181   2.04361
    R7        2.07542  -0.01166   0.00000  -0.03293  -0.03293   2.04249
    R8        2.07542  -0.01058   0.00000  -0.02989  -0.02989   2.04552
    A1        2.09440   0.03761   0.00000   0.21457   0.21457   2.30896
    A2        2.14180  -0.00924   0.00000  -0.04729  -0.04729   2.09451
    A3        2.14183   0.00745   0.00000   0.03165   0.03165   2.17348
    A4        1.99956   0.00179   0.00000   0.01564   0.01564   2.01519
    A5        2.14180   0.00099   0.00000   0.00421   0.00421   2.14601
    A6        1.99956   0.00217   0.00000   0.01309   0.01309   2.01264
    A7        2.14183  -0.00316   0.00000  -0.01730  -0.01730   2.12453
    A8        2.14180  -0.00184   0.00000  -0.01051  -0.01051   2.13129
    A9        2.14183  -0.00264   0.00000  -0.01505  -0.01505   2.12678
   A10        1.99956   0.00448   0.00000   0.02556   0.02556   2.02512
    D1        0.00002  -0.00000   0.00000  -0.00000  -0.00000   0.00002
    D2       -3.14156  -0.00000   0.00000  -0.00001  -0.00001  -3.14158
    D3        3.14159   0.00000   0.00000   0.00001   0.00001  -3.14159
    D4        0.00002  -0.00000   0.00000  -0.00001  -0.00001   0.00001
    D5        0.00001  -0.00000   0.00000  -0.00000  -0.00000   0.00000
    D6       -3.14156  -0.00000   0.00000  -0.00002  -0.00002  -3.14158
    D7       -3.14157  -0.00000   0.00000  -0.00001  -0.00001  -3.14159
    D8        0.00003  -0.00000   0.00000  -0.00002  -0.00002   0.00001
    D9       -0.00000  -0.00000   0.00000   0.00000   0.00000  -0.00000
   D10       -3.14159  -0.00000   0.00000  -0.00000  -0.00000  -3.14159
         Item               Value     Threshold  Converged?
 Maximum Force            0.037609     0.000450     NO 
 RMS     Force            0.011447     0.000300     NO 
 Maximum Displacement     0.183701     0.001800     NO 
 RMS     Displacement     0.057855     0.001200     NO 
 Predicted change in Energy=-8.177739D-03
 GradGradGradGradGradGradGradGradGradGradGradGradGradGradGradGradGradGrad

                          Input orientation:                          
 ---------------------------------------------------------------------
 Center     Atomic      Atomic             Coordinates (Angstroms)
 Number     Number       Type             X           Y           Z
 ---------------------------------------------------------------------
      1          6           0       -2.714031   -0.099324    0.368626
      2          6           0       -1.401238   -0.040259    0.368626
      3          1           0       -0.815478   -0.956795    0.368595
      4          6           0       -0.620346    1.211604    0.368664
      5          6           0        0.706889    1.234820    0.368657
      6          1           0       -1.205035    2.121346    0.368705
      7          1           0        1.265368    2.160192    0.368690
      8          1           0        1.294172    0.325544    0.368614
      9          1           0       -3.406605   -0.933010    0.368614
 ---------------------------------------------------------------------
                    Distance matrix (angstroms):
                    1          2          3          4          5
     1  C    0.000000
     2  C    1.314121   0.000000
     3  H    2.083209   1.087729   0.000000
     4  C    2.470232   1.475449   2.177161   0.000000
     5  C    3.671870   2.463742   2.668479   1.327438   0.000000
     6  H    2.684855   2.170491   3.102694   1.081431   2.107458
     7  H    4.576136   3.457277   3.747736   2.110862   1.080838
     8  H    4.030658   2.720119   2.468809   2.109617   1.082444
     9  H    1.083832   2.195109   2.591236   3.516050   4.649766
                    6          7          8          9
     6  H    0.000000
     7  H    2.470708   0.000000
     8  H    3.077489   1.834874   0.000000
     9  H    3.765104   5.603145   4.866340   0.000000
 Stoichiometry    C4H5(2)
 Framework group  C1[X(C4H5)]
 Deg. of freedom    21
 Full point group                 C1      NOp   1
 Largest Abelian subgroup         C1      NOp   1
 Largest concise Abelian subgroup C1      NOp   1
                         Standard orientation:                         
 ---------------------------------------------------------------------
 Center     Atomic      Atomic             Coordinates (Angstroms)
 Number     Number       Type             X           Y           Z
 ---------------------------------------------------------------------
      1          6           0        1.892469   -0.205018   -0.000018
      2          6           0        0.694065    0.334187   -0.000017
      3          1           0        0.584485    1.416382   -0.000048
      4          6           0       -0.567396   -0.431103    0.000020
      5          6           0       -1.762526    0.146612    0.000013
      6          1           0       -0.455709   -1.506751    0.000061
      7          1           0       -2.678254   -0.427543    0.000047
      8          1           0       -1.876739    1.223013   -0.000029
      9          1           0        2.886547    0.226838   -0.000029
 ---------------------------------------------------------------------
 Rotational constants (GHZ):          48.7805471           4.6113417           4.2130701
 Standard basis: CC-pVTZ (5D, 7F)
 There are   215 symmetry adapted cartesian basis functions of A   symmetry.
 There are   190 symmetry adapted basis functions of A   symmetry.
   190 basis functions,   293 primitive gaussians,   215 cartesian basis functions
    15 alpha electrons       14 beta electrons
       nuclear repulsion energy        96.7287997062 Hartrees.
 NAtoms=    9 NActive=    9 NUniq=    9 SFac= 1.00D+00 NAtFMM=   60 NAOKFM=F Big=F
 Integral buffers will be    131072 words long.
 Raffenetti 2 integral format.
 Two-electron integral symmetry is turned on.
 Nuclear repulsion after empirical dispersion term =       96.7244385455 Hartrees.
 One-electron integrals computed using PRISM.
 NBasis=   190 RedAO= T EigKep=  3.45D-04  NBF=   190
 NBsUse=   190 1.00D-06 EigRej= -1.00D+00 NBFU=   190
 Initial guess from the checkpoint file:  "/localscratch/339542/Gau-57293.chk"
 B after Tr=    -0.000000   -0.000000    0.000000
         Rot=    0.999998    0.000001    0.000000   -0.001763 Ang=   0.20 deg.
 Initial guess <Sx>= 0.0000 <Sy>= 0.0000 <Sz>= 0.5000 <S**2>= 0.8031 S= 0.5262
 ExpMin= 1.03D-01 ExpMax= 8.24D+03 ExpMxC= 2.81D+02 IAcc=3 IRadAn=         5 AccDes= 0.00D+00
 Harris functional with IExCor=  419 and IRadAn=       5 diagonalized for initial guess.
 HarFok:  IExCor=  419 AccDes= 0.00D+00 IRadAn=         5 IDoV= 1 UseB2=F ITyADJ=14
 ICtDFT=  3500011 ScaDFX=  1.000000  1.000000  1.000000  1.000000
 FoFCou: FMM=F IPFlag=           0 FMFlag=      100000 FMFlg1=           0
         NFxFlg=           0 DoJE=T BraDBF=F KetDBF=T FulRan=T
         wScrn=  0.000000 ICntrl=       500 IOpCl=  0 I1Cent=   200000004 NGrid=           0
         NMat0=    1 NMatS0=      1 NMatT0=    0 NMatD0=    1 NMtDS0=    0 NMtDT0=    0
 Petite list used in FoFCou.
 Keep R1 and R2 ints in memory in canonical form, NReq=370972403.
 Requested convergence on RMS density matrix=1.00D-08 within 128 cycles.
 Requested convergence on MAX density matrix=1.00D-06.
 Requested convergence on             energy=1.00D-06.
 No special actions if energy rises.
 Integral accuracy reduced to 1.0D-05 until final iterations.
 Initial convergence to 1.0D-05 achieved.  Increase integral accuracy.
 SCF Done:  E(UB2PLYPD3) =  -155.014420572     A.U. after   18 cycles
            NFock= 18  Conv=0.12D-08     -V/T= 2.0045
 <Sx>= 0.0000 <Sy>= 0.0000 <Sz>= 0.5000 <S**2>= 0.8030 S= 0.5261
 <L.S>=  0.00000000000    
 Annihilation of the first spin contaminant:
 S**2 before annihilation     0.8030,   after     0.7509
 DoSCS=T DFT=T ScalE2(SS,OS)=  0.270000  0.270000
 ExpMin= 1.03D-01 ExpMax= 8.24D+03 ExpMxC= 2.81D+02 IAcc=3 IRadAn=         5 AccDes= 0.00D+00
 HarFok:  IExCor=  205 AccDes= 0.00D+00 IRadAn=         5 IDoV=-2 UseB2=F ITyADJ=14
 ICtDFT= 12500011 ScaDFX=  1.000000  1.000000  1.000000  1.000000
 Range of M.O.s used for correlation:     5   190
 NBasis=   190 NAE=    15 NBE=    14 NFC=     4 NFV=     0
 NROrb=    186 NOA=    11 NOB=    10 NVA=   175 NVB=   176

 **** Warning!!: The largest alpha MO coefficient is  0.12431765D+02


 **** Warning!!: The largest beta MO coefficient is  0.12747404D+02

 DoSCS=T DFT=T ScalE2(SS,OS)=  0.270000  0.270000
 Fully direct method using O(ONN) memory.
 JobTyp=2 Pass  1:  I=   5 to  15 NPSUse= 40 ParTrn=T ParDer=T DoDerP=T.
 JobTyp=3 Pass  1:  I=   5 to  14 NPSUse= 40 ParTrn=T ParDer=T DoDerP=T.
 Spin components of T(2) and E(2):
     alpha-alpha T2 =       0.4237630366D-01 E2=     -0.2549046468D-01
     alpha-beta  T2 =       0.2477001608D+00 E2=     -0.1534834786D+00
     beta-beta   T2 =       0.3723054099D-01 E2=     -0.2194494461D-01
 (S**2,0)=  0.80296D+00           (S**2,1)=  0.77453D+00
 Scaling Projection term by:   0.270000
 E(PUHF)=      -0.15501914424D+03        E(PMP2)=      -0.15521627611D+03
 E2(B2PLYPD3) =    -0.2009188879D+00 E(B2PLYPD3) =    -0.15521533945963D+03
          IDoAtm=111111111
          Differentiating once with respect to electric field.
                with respect to dipole field.
          Differentiating once with respect to nuclear coordinates.
 Keep R1 and R2 ints in memory in canonical form, NReq=370978875.
          There are     1 degrees of freedom in the 1st order CPHF.  IDoFFX=0 NUNeed=     1.
 LinEq1:  Iter=  0 NonCon=     1 RMS=1.03D-03 Max=2.52D-02 NDo=     1
 AX will form     1 AO Fock derivatives at one time.
 LinEq1:  Iter=  1 NonCon=     1 RMS=4.32D-04 Max=1.23D-02 NDo=     1
 LinEq1:  Iter=  2 NonCon=     1 RMS=2.96D-04 Max=7.27D-03 NDo=     1
 LinEq1:  Iter=  3 NonCon=     1 RMS=1.26D-04 Max=4.20D-03 NDo=     1
 LinEq1:  Iter=  4 NonCon=     1 RMS=6.68D-05 Max=1.71D-03 NDo=     1
 LinEq1:  Iter=  5 NonCon=     1 RMS=2.28D-05 Max=5.91D-04 NDo=     1
 LinEq1:  Iter=  6 NonCon=     1 RMS=1.08D-05 Max=2.76D-04 NDo=     1
 LinEq1:  Iter=  7 NonCon=     1 RMS=6.46D-06 Max=1.57D-04 NDo=     1
 LinEq1:  Iter=  8 NonCon=     1 RMS=2.18D-06 Max=3.42D-05 NDo=     1
 LinEq1:  Iter=  9 NonCon=     1 RMS=1.19D-06 Max=2.38D-05 NDo=     1
 LinEq1:  Iter= 10 NonCon=     1 RMS=3.40D-07 Max=3.60D-06 NDo=     1
 LinEq1:  Iter= 11 NonCon=     1 RMS=6.70D-08 Max=7.63D-07 NDo=     1
 LinEq1:  Iter= 12 NonCon=     1 RMS=1.87D-08 Max=2.99D-07 NDo=     1
 LinEq1:  Iter= 13 NonCon=     1 RMS=4.48D-09 Max=4.93D-08 NDo=     1
 LinEq1:  Iter= 14 NonCon=     1 RMS=1.06D-09 Max=1.13D-08 NDo=     1
 LinEq1:  Iter= 15 NonCon=     1 RMS=1.97D-10 Max=2.61D-09 NDo=     1
 LinEq1:  Iter= 16 NonCon=     0 RMS=3.95D-11 Max=3.61D-10 NDo=     1
 Linear equations converged to 1.000D-10 1.000D-09 after    16 iterations.
 End of Minotr F.D. properties file   721 does not exist.
 End of Minotr F.D. properties file   722 does not exist.
 End of Minotr F.D. properties file   788 does not exist.
 Calling FoFJK, ICntrl=  10002127 FMM=F ISym2X=0 I1Cent= 0 IOpClX= 1 NMat=1 NMatS=1 NMatT=0.
 ***** Axes restored to original set *****
 -------------------------------------------------------------------
 Center     Atomic                   Forces (Hartrees/Bohr)
 Number     Number              X              Y              Z
 -------------------------------------------------------------------
      1        6           0.004050928   -0.011719032    0.000000372
      2        6           0.001571481    0.014461072   -0.000000142
      3        1          -0.000951261   -0.002902371   -0.000000001
      4        6          -0.009272534   -0.009021595    0.000000187
      5        6           0.007086290    0.002187553   -0.000000258
      6        1           0.001908978    0.001540161   -0.000000064
      7        1          -0.001684275    0.000155422   -0.000000065
      8        1          -0.001630671   -0.000530808    0.000000210
      9        1          -0.001078935    0.005829598   -0.000000239
 -------------------------------------------------------------------
 Cartesian Forces:  Max     0.014461072 RMS     0.004883847

 GradGradGradGradGradGradGradGradGradGradGradGradGradGradGradGradGradGrad
 Berny optimization.
 Using GEDIIS/GDIIS optimizer.
 FormGI is forming the generalized inverse of G from B-inverse, IUseBI=4.
 Internal  Forces:  Max     0.009329345 RMS     0.002755380
 Search for a local minimum.
 Step number   2 out of a maximum of  100
 All quantities printed in internal units (Hartrees-Bohrs-Radians)
 Mixed Optimization -- RFO/linear search
 Update second derivatives using D2CorX and points    1    2
 DE= -9.24D-03 DEPred=-8.18D-03 R= 1.13D+00
 TightC=F SS=  1.41D+00  RLast= 2.65D-01 DXNew= 5.0454D-01 7.9630D-01
 Trust test= 1.13D+00 RLast= 2.65D-01 DXMaxT set to 5.05D-01
 ITU=  1  0
 Use linear search instead of GDIIS.
     Eigenvalues ---    0.00237   0.01234   0.01739   0.03069   0.03069
     Eigenvalues ---    0.03069   0.13241   0.16000   0.16000   0.16000
     Eigenvalues ---    0.16274   0.21836   0.22018   0.27543   0.33796
     Eigenvalues ---    0.33875   0.33875   0.34552   0.38619   0.60044
     Eigenvalues ---    0.60769
 RFO step:  Lambda=-4.64910340D-04 EMin= 2.36824256D-03
 Quartic linear search produced a step of  0.26523.
 Iteration  1 RMS(Cart)=  0.01924134 RMS(Int)=  0.00066701
 Iteration  2 RMS(Cart)=  0.00069135 RMS(Int)=  0.00000011
 Iteration  3 RMS(Cart)=  0.00000017 RMS(Int)=  0.00000004
 Variable       Old X    -DE/DX   Delta X   Delta X   Delta X     New X
                                 (Linear)    (Quad)   (Total)
    R1        2.48333  -0.00270  -0.00591  -0.00023  -0.00614   2.47719
    R2        2.04815  -0.00379   0.00693  -0.01935  -0.01241   2.03573
    R3        2.05551   0.00193  -0.00528   0.01216   0.00688   2.06239
    R4        2.78820  -0.00671  -0.03235   0.00086  -0.03150   2.75670
    R5        2.50849   0.00380   0.00076   0.00725   0.00801   2.51650
    R6        2.04361   0.00026  -0.00844   0.00889   0.00045   2.04406
    R7        2.04249  -0.00074  -0.00874   0.00544  -0.00330   2.03919
    R8        2.04552  -0.00044  -0.00793   0.00579  -0.00214   2.04339
    A1        2.30896   0.00933   0.05691   0.01745   0.07436   2.38333
    A2        2.09451  -0.00349  -0.01254  -0.01299  -0.02553   2.06898
    A3        2.17348   0.00212   0.00839   0.00411   0.01251   2.18599
    A4        2.01519   0.00137   0.00415   0.00888   0.01302   2.02822
    A5        2.14601   0.00107   0.00112   0.00507   0.00619   2.15220
    A6        2.01264   0.00196   0.00347   0.01314   0.01661   2.02925
    A7        2.12453  -0.00303  -0.00459  -0.01821  -0.02280   2.10173
    A8        2.13129  -0.00094  -0.00279  -0.00468  -0.00747   2.12382
    A9        2.12678  -0.00122  -0.00399  -0.00572  -0.00971   2.11707
   A10        2.02512   0.00217   0.00678   0.01040   0.01718   2.04230
    D1        0.00002  -0.00000  -0.00000  -0.00001  -0.00001   0.00001
    D2       -3.14158  -0.00000  -0.00000  -0.00000  -0.00001  -3.14158
    D3       -3.14159  -0.00000   0.00000  -0.00002  -0.00002   3.14158
    D4        0.00001  -0.00000  -0.00000  -0.00003  -0.00003  -0.00002
    D5        0.00000   0.00000  -0.00000  -0.00001  -0.00001  -0.00001
    D6       -3.14158  -0.00000  -0.00000  -0.00002  -0.00002   3.14158
    D7       -3.14159  -0.00000  -0.00000  -0.00000  -0.00001   3.14159
    D8        0.00001  -0.00000  -0.00000  -0.00001  -0.00001  -0.00000
    D9       -0.00000   0.00000   0.00000   0.00000   0.00000   0.00000
   D10       -3.14159  -0.00000  -0.00000  -0.00000  -0.00000   3.14159
         Item               Value     Threshold  Converged?
 Maximum Force            0.009329     0.000450     NO 
 RMS     Force            0.002755     0.000300     NO 
 Maximum Displacement     0.051028     0.001800     NO 
 RMS     Displacement     0.019149     0.001200     NO 
 Predicted change in Energy=-6.576460D-04
 GradGradGradGradGradGradGradGradGradGradGradGradGradGradGradGradGradGrad

                          Input orientation:                          
 ---------------------------------------------------------------------
 Center     Atomic      Atomic             Coordinates (Angstroms)
 Number     Number       Type             X           Y           Z
 ---------------------------------------------------------------------
      1          6           0       -2.698299   -0.120099    0.368637
      2          6           0       -1.389886   -0.039850    0.368621
      3          1           0       -0.810686   -0.964844    0.368576
      4          6           0       -0.622506    1.200784    0.368662
      5          6           0        0.708668    1.237355    0.368660
      6          1           0       -1.195609    2.118150    0.368696
      7          1           0        1.250042    2.170818    0.368690
      8          1           0        1.295580    0.329185    0.368627
      9          1           0       -3.433608   -0.907383    0.368621
 ---------------------------------------------------------------------
                    Distance matrix (angstroms):
                    1          2          3          4          5
     1  C    0.000000
     2  C    1.310872   0.000000
     3  H    2.068013   1.091368   0.000000
     4  C    2.460416   1.458782   2.173788   0.000000
     5  C    3.667439   2.456661   2.675466   1.331677   0.000000
     6  H    2.695892   2.166728   3.106931   1.081669   2.098111
     7  H    4.564833   3.443294   3.752197   2.108887   1.079092
     8  H    4.019071   2.710704   2.472018   2.106832   1.081313
     9  H    1.077263   2.220229   2.623551   3.513782   4.664585
                    6          7          8          9
     6  H    0.000000
     7  H    2.446219   0.000000
     8  H    3.066989   1.842196   0.000000
     9  H    3.763309   5.604632   4.888182   0.000000
 Stoichiometry    C4H5(2)
 Framework group  C1[X(C4H5)]
 Deg. of freedom    21
 Full point group                 C1      NOp   1
 Largest Abelian subgroup         C1      NOp   1
 Largest concise Abelian subgroup C1      NOp   1
                         Standard orientation:                         
 ---------------------------------------------------------------------
 Center     Atomic      Atomic             Coordinates (Angstroms)
 Number     Number       Type             X           Y           Z
 ---------------------------------------------------------------------
      1          6           0        1.888950   -0.193111   -0.000008
      2          6           0        0.686899    0.329825   -0.000024
      3          1           0        0.591156    1.416985   -0.000069
      4          6           0       -0.560347   -0.426760    0.000018
      5          6           0       -1.762831    0.145426    0.000015
      6          1           0       -0.466570   -1.504356    0.000051
      7          1           0       -2.669192   -0.440193    0.000046
      8          1           0       -1.873088    1.221103   -0.000018
      9          1           0        2.901666    0.174180   -0.000023
 ---------------------------------------------------------------------
 Rotational constants (GHZ):          49.5324337           4.6247436           4.2298144
 Standard basis: CC-pVTZ (5D, 7F)
 There are   215 symmetry adapted cartesian basis functions of A   symmetry.
 There are   190 symmetry adapted basis functions of A   symmetry.
   190 basis functions,   293 primitive gaussians,   215 cartesian basis functions
    15 alpha electrons       14 beta electrons
       nuclear repulsion energy        96.9511266502 Hartrees.
 NAtoms=    9 NActive=    9 NUniq=    9 SFac= 1.00D+00 NAtFMM=   60 NAOKFM=F Big=F
 Integral buffers will be    131072 words long.
 Raffenetti 2 integral format.
 Two-electron integral symmetry is turned on.
 Nuclear repulsion after empirical dispersion term =       96.9467632448 Hartrees.
 One-electron integrals computed using PRISM.
 NBasis=   190 RedAO= T EigKep=  3.28D-04  NBF=   190
 NBsUse=   190 1.00D-06 EigRej= -1.00D+00 NBFU=   190
 Initial guess from the checkpoint file:  "/localscratch/339542/Gau-57293.chk"
 B after Tr=    -0.000000   -0.000000    0.000000
         Rot=    1.000000    0.000001    0.000000    0.000012 Ang=   0.00 deg.
 Initial guess <Sx>= 0.0000 <Sy>= 0.0000 <Sz>= 0.5000 <S**2>= 0.8029 S= 0.5261
 ExpMin= 1.03D-01 ExpMax= 8.24D+03 ExpMxC= 2.81D+02 IAcc=3 IRadAn=         5 AccDes= 0.00D+00
 Harris functional with IExCor=  419 and IRadAn=       5 diagonalized for initial guess.
 HarFok:  IExCor=  419 AccDes= 0.00D+00 IRadAn=         5 IDoV= 1 UseB2=F ITyADJ=14
 ICtDFT=  3500011 ScaDFX=  1.000000  1.000000  1.000000  1.000000
 FoFCou: FMM=F IPFlag=           0 FMFlag=      100000 FMFlg1=           0
         NFxFlg=           0 DoJE=T BraDBF=F KetDBF=T FulRan=T
         wScrn=  0.000000 ICntrl=       500 IOpCl=  0 I1Cent=   200000004 NGrid=           0
         NMat0=    1 NMatS0=      1 NMatT0=    0 NMatD0=    1 NMtDS0=    0 NMtDT0=    0
 Petite list used in FoFCou.
 Keep R1 and R2 ints in memory in canonical form, NReq=370972403.
 Requested convergence on RMS density matrix=1.00D-08 within 128 cycles.
 Requested convergence on MAX density matrix=1.00D-06.
 Requested convergence on             energy=1.00D-06.
 No special actions if energy rises.
 Integral accuracy reduced to 1.0D-05 until final iterations.
 Initial convergence to 1.0D-05 achieved.  Increase integral accuracy.
 SCF Done:  E(UB2PLYPD3) =  -155.015115388     A.U. after   16 cycles
            NFock= 16  Conv=0.51D-08     -V/T= 2.0043
 <Sx>= 0.0000 <Sy>= 0.0000 <Sz>= 0.5000 <S**2>= 0.8045 S= 0.5269
 <L.S>=  0.00000000000    
 Annihilation of the first spin contaminant:
 S**2 before annihilation     0.8045,   after     0.7510
 DoSCS=T DFT=T ScalE2(SS,OS)=  0.270000  0.270000
 ExpMin= 1.03D-01 ExpMax= 8.24D+03 ExpMxC= 2.81D+02 IAcc=3 IRadAn=         5 AccDes= 0.00D+00
 HarFok:  IExCor=  205 AccDes= 0.00D+00 IRadAn=         5 IDoV=-2 UseB2=F ITyADJ=14
 ICtDFT= 12500011 ScaDFX=  1.000000  1.000000  1.000000  1.000000
 Range of M.O.s used for correlation:     5   190
 NBasis=   190 NAE=    15 NBE=    14 NFC=     4 NFV=     0
 NROrb=    186 NOA=    11 NOB=    10 NVA=   175 NVB=   176

 **** Warning!!: The largest alpha MO coefficient is  0.13589346D+02


 **** Warning!!: The largest beta MO coefficient is  0.14290642D+02

 DoSCS=T DFT=T ScalE2(SS,OS)=  0.270000  0.270000
 Fully direct method using O(ONN) memory.
 JobTyp=2 Pass  1:  I=   5 to  15 NPSUse= 40 ParTrn=T ParDer=T DoDerP=T.
 JobTyp=3 Pass  1:  I=   5 to  14 NPSUse= 40 ParTrn=T ParDer=T DoDerP=T.
 Spin components of T(2) and E(2):
     alpha-alpha T2 =       0.4246500868D-01 E2=     -0.2555323226D-01
     alpha-beta  T2 =       0.2473760279D+00 E2=     -0.1534433405D+00
     beta-beta   T2 =       0.3717125625D-01 E2=     -0.2194204891D-01
 (S**2,0)=  0.80448D+00           (S**2,1)=  0.77537D+00
 Scaling Projection term by:   0.270000
 E(PUHF)=      -0.15501996089D+03        E(PMP2)=      -0.15521701675D+03
 E2(B2PLYPD3) =    -0.2009386216D+00 E(B2PLYPD3) =    -0.15521605400935D+03
          IDoAtm=111111111
          Differentiating once with respect to electric field.
                with respect to dipole field.
          Differentiating once with respect to nuclear coordinates.
 Keep R1 and R2 ints in memory in canonical form, NReq=370978875.
          There are     1 degrees of freedom in the 1st order CPHF.  IDoFFX=0 NUNeed=     1.
 LinEq1:  Iter=  0 NonCon=     1 RMS=1.03D-03 Max=2.59D-02 NDo=     1
 AX will form     1 AO Fock derivatives at one time.
 LinEq1:  Iter=  1 NonCon=     1 RMS=4.37D-04 Max=1.26D-02 NDo=     1
 LinEq1:  Iter=  2 NonCon=     1 RMS=3.00D-04 Max=7.31D-03 NDo=     1
 LinEq1:  Iter=  3 NonCon=     1 RMS=1.28D-04 Max=4.30D-03 NDo=     1
 LinEq1:  Iter=  4 NonCon=     1 RMS=6.68D-05 Max=1.64D-03 NDo=     1
 LinEq1:  Iter=  5 NonCon=     1 RMS=2.29D-05 Max=6.00D-04 NDo=     1
 LinEq1:  Iter=  6 NonCon=     1 RMS=1.11D-05 Max=2.88D-04 NDo=     1
 LinEq1:  Iter=  7 NonCon=     1 RMS=6.78D-06 Max=1.68D-04 NDo=     1
 LinEq1:  Iter=  8 NonCon=     1 RMS=2.22D-06 Max=3.62D-05 NDo=     1
 LinEq1:  Iter=  9 NonCon=     1 RMS=1.16D-06 Max=2.32D-05 NDo=     1
 LinEq1:  Iter= 10 NonCon=     1 RMS=3.31D-07 Max=3.44D-06 NDo=     1
 LinEq1:  Iter= 11 NonCon=     1 RMS=6.52D-08 Max=7.56D-07 NDo=     1
 LinEq1:  Iter= 12 NonCon=     1 RMS=1.83D-08 Max=3.06D-07 NDo=     1
 LinEq1:  Iter= 13 NonCon=     1 RMS=4.42D-09 Max=4.71D-08 NDo=     1
 LinEq1:  Iter= 14 NonCon=     1 RMS=1.05D-09 Max=1.12D-08 NDo=     1
 LinEq1:  Iter= 15 NonCon=     1 RMS=1.90D-10 Max=2.60D-09 NDo=     1
 LinEq1:  Iter= 16 NonCon=     0 RMS=3.49D-11 Max=3.24D-10 NDo=     1
 Linear equations converged to 1.000D-10 1.000D-09 after    16 iterations.
 End of Minotr F.D. properties file   721 does not exist.
 End of Minotr F.D. properties file   722 does not exist.
 End of Minotr F.D. properties file   788 does not exist.
 Calling FoFJK, ICntrl=  10002127 FMM=F ISym2X=0 I1Cent= 0 IOpClX= 1 NMat=1 NMatS=1 NMatT=0.
 ***** Axes restored to original set *****
 -------------------------------------------------------------------
 Center     Atomic                   Forces (Hartrees/Bohr)
 Number     Number              X              Y              Z
 -------------------------------------------------------------------
      1        6          -0.000130082   -0.002096403    0.000000040
      2        6          -0.001163486    0.000016606    0.000000261
      3        1           0.000201951   -0.000444522    0.000000037
      4        6           0.000678505    0.000690575   -0.000000300
      5        6           0.000653281    0.000256989   -0.000000015
      6        1           0.000234313    0.000481368    0.000000120
      7        1          -0.000317534    0.000349181    0.000000067
      8        1          -0.000073618   -0.000358791   -0.000000064
      9        1          -0.000083329    0.001104997   -0.000000147
 -------------------------------------------------------------------
 Cartesian Forces:  Max     0.002096403 RMS     0.000587075

 GradGradGradGradGradGradGradGradGradGradGradGradGradGradGradGradGradGrad
 Berny optimization.
 Using GEDIIS/GDIIS optimizer.
 FormGI is forming the generalized inverse of G from B-inverse, IUseBI=4.
 Internal  Forces:  Max     0.001825169 RMS     0.000553292
 Search for a local minimum.
 Step number   3 out of a maximum of  100
 All quantities printed in internal units (Hartrees-Bohrs-Radians)
 Mixed Optimization -- En-DIIS/RFO-DIIS
 Update second derivatives using D2CorX and points    1    2    3
 DE= -7.15D-04 DEPred=-6.58D-04 R= 1.09D+00
 TightC=F SS=  1.41D+00  RLast= 9.54D-02 DXNew= 8.4853D-01 2.8615D-01
 Trust test= 1.09D+00 RLast= 9.54D-02 DXMaxT set to 5.05D-01
 ITU=  1  1  0
 Use linear search instead of GDIIS.
     Eigenvalues ---    0.00237   0.01208   0.01708   0.03069   0.03069
     Eigenvalues ---    0.03069   0.11073   0.16000   0.16000   0.16064
     Eigenvalues ---    0.16270   0.21755   0.22020   0.30215   0.33779
     Eigenvalues ---    0.33875   0.33877   0.34748   0.38639   0.60210
     Eigenvalues ---    0.60759
 RFO step:  Lambda=-3.55722423D-05 EMin= 2.36824258D-03
 Quartic linear search produced a step of  0.10543.
 Iteration  1 RMS(Cart)=  0.00540192 RMS(Int)=  0.00003126
 Iteration  2 RMS(Cart)=  0.00003145 RMS(Int)=  0.00000000
 Iteration  3 RMS(Cart)=  0.00000000 RMS(Int)=  0.00000000
 Variable       Old X    -DE/DX   Delta X   Delta X   Delta X     New X
                                 (Linear)    (Quad)   (Total)
    R1        2.47719   0.00027  -0.00065   0.00079   0.00014   2.47733
    R2        2.03573  -0.00075  -0.00131  -0.00116  -0.00247   2.03326
    R3        2.06239   0.00048   0.00073   0.00095   0.00168   2.06407
    R4        2.75670   0.00183  -0.00332   0.00849   0.00517   2.76187
    R5        2.51650   0.00027   0.00084  -0.00007   0.00078   2.51728
    R6        2.04406   0.00028   0.00005   0.00069   0.00074   2.04479
    R7        2.03919   0.00014  -0.00035   0.00049   0.00014   2.03933
    R8        2.04339   0.00026  -0.00023   0.00081   0.00058   2.04397
    A1        2.38333   0.00166   0.00784   0.00739   0.01523   2.39856
    A2        2.06898  -0.00030  -0.00269  -0.00009  -0.00278   2.06619
    A3        2.18599   0.00046   0.00132   0.00161   0.00293   2.18892
    A4        2.02822  -0.00016   0.00137  -0.00152  -0.00014   2.02807
    A5        2.15220   0.00036   0.00065   0.00136   0.00201   2.15422
    A6        2.02925   0.00029   0.00175   0.00120   0.00295   2.03220
    A7        2.10173  -0.00064  -0.00240  -0.00256  -0.00497   2.09677
    A8        2.12382  -0.00044  -0.00079  -0.00253  -0.00332   2.12050
    A9        2.11707  -0.00004  -0.00102   0.00029  -0.00073   2.11634
   A10        2.04230   0.00048   0.00181   0.00224   0.00405   2.04634
    D1        0.00001  -0.00000  -0.00000   0.00000   0.00000   0.00001
    D2       -3.14158  -0.00000  -0.00000  -0.00001  -0.00001   3.14159
    D3        3.14158   0.00000  -0.00000   0.00004   0.00004  -3.14157
    D4       -0.00002   0.00000  -0.00000   0.00005   0.00004   0.00003
    D5       -0.00001  -0.00000  -0.00000   0.00003   0.00003   0.00002
    D6        3.14158   0.00000  -0.00000   0.00003   0.00003  -3.14157
    D7        3.14159   0.00000  -0.00000   0.00000   0.00000  -3.14159
    D8       -0.00000   0.00000  -0.00000   0.00000   0.00000   0.00000
    D9        0.00000   0.00000   0.00000  -0.00000  -0.00000   0.00000
   D10        3.14159   0.00000  -0.00000  -0.00000  -0.00000   3.14159
         Item               Value     Threshold  Converged?
 Maximum Force            0.001825     0.000450     NO 
 RMS     Force            0.000553     0.000300     NO 
 Maximum Displacement     0.016879     0.001800     NO 
 RMS     Displacement     0.005390     0.001200     NO 
 Predicted change in Energy=-2.399374D-05
 GradGradGradGradGradGradGradGradGradGradGradGradGradGradGradGradGradGrad

                          Input orientation:                          
 ---------------------------------------------------------------------
 Center     Atomic      Atomic             Coordinates (Angstroms)
 Number     Number       Type             X           Y           Z
 ---------------------------------------------------------------------
      1          6           0       -2.698267   -0.126329    0.368623
      2          6           0       -1.389993   -0.042646    0.368634
      3          1           0       -0.810472   -0.968486    0.368609
      4          6           0       -0.620793    1.200080    0.368669
      5          6           0        0.710729    1.238936    0.368652
      6          1           0       -1.191108    2.119641    0.368714
      7          1           0        1.247443    2.175173    0.368681
      8          1           0        1.298698    0.331081    0.368608
      9          1           0       -3.442540   -0.903334    0.368599
 ---------------------------------------------------------------------
                    Distance matrix (angstroms):
                    1          2          3          4          5
     1  C    0.000000
     2  C    1.310948   0.000000
     3  H    2.067123   1.092256   0.000000
     4  C    2.464804   1.461518   2.176845   0.000000
     5  C    3.672220   2.460789   2.680814   1.332089   0.000000
     6  H    2.704794   2.171413   3.111496   1.082058   2.095858
     7  H    4.567882   3.445981   3.757340   2.107395   1.079167
     8  H    4.023052   2.714540   2.477392   2.107037   1.081623
     9  H    1.075955   2.225699   2.632874   3.519461   4.673218
                    6          7          8          9
     6  H    0.000000
     7  H    2.439183   0.000000
     8  H    3.065628   1.844804   0.000000
     9  H    3.769260   5.610094   4.899298   0.000000
 Stoichiometry    C4H5(2)
 Framework group  C1[X(C4H5)]
 Deg. of freedom    21
 Full point group                 C1      NOp   1
 Largest Abelian subgroup         C1      NOp   1
 Largest concise Abelian subgroup C1      NOp   1
                         Standard orientation:                         
 ---------------------------------------------------------------------
 Center     Atomic      Atomic             Coordinates (Angstroms)
 Number     Number       Type             X           Y           Z
 ---------------------------------------------------------------------
      1          6           0        1.891436   -0.191524   -0.000021
      2          6           0        0.688620    0.329838   -0.000010
      3          1           0        0.594378    1.418021   -0.000036
      4          6           0       -0.562173   -0.426172    0.000025
      5          6           0       -1.765269    0.145687    0.000008
      6          1           0       -0.473266   -1.504571    0.000069
      7          1           0       -2.669498   -0.443355    0.000037
      8          1           0       -1.875224    1.221706   -0.000036
      9          1           0        2.907923    0.161226   -0.000045
 ---------------------------------------------------------------------
 Rotational constants (GHZ):          49.5713592           4.6110184           4.2186124
 Standard basis: CC-pVTZ (5D, 7F)
 There are   215 symmetry adapted cartesian basis functions of A   symmetry.
 There are   190 symmetry adapted basis functions of A   symmetry.
   190 basis functions,   293 primitive gaussians,   215 cartesian basis functions
    15 alpha electrons       14 beta electrons
       nuclear repulsion energy        96.8669861742 Hartrees.
 NAtoms=    9 NActive=    9 NUniq=    9 SFac= 1.00D+00 NAtFMM=   60 NAOKFM=F Big=F
 Integral buffers will be    131072 words long.
 Raffenetti 2 integral format.
 Two-electron integral symmetry is turned on.
 Nuclear repulsion after empirical dispersion term =       96.8626265476 Hartrees.
 One-electron integrals computed using PRISM.
 NBasis=   190 RedAO= T EigKep=  3.28D-04  NBF=   190
 NBsUse=   190 1.00D-06 EigRej= -1.00D+00 NBFU=   190
 Initial guess from the checkpoint file:  "/localscratch/339542/Gau-57293.chk"
 B after Tr=     0.000000    0.000000    0.000000
         Rot=    1.000000   -0.000001   -0.000000    0.000225 Ang=  -0.03 deg.
 Initial guess <Sx>= 0.0000 <Sy>= 0.0000 <Sz>= 0.5000 <S**2>= 0.8045 S= 0.5269
 Keep R1 and R2 ints in memory in canonical form, NReq=370972403.
 Requested convergence on RMS density matrix=1.00D-08 within 128 cycles.
 Requested convergence on MAX density matrix=1.00D-06.
 Requested convergence on             energy=1.00D-06.
 No special actions if energy rises.
 SCF Done:  E(UB2PLYPD3) =  -155.015093107     A.U. after   14 cycles
            NFock= 14  Conv=0.74D-08     -V/T= 2.0044
 <Sx>= 0.0000 <Sy>= 0.0000 <Sz>= 0.5000 <S**2>= 0.8040 S= 0.5267
 <L.S>=  0.00000000000    
 Annihilation of the first spin contaminant:
 S**2 before annihilation     0.8040,   after     0.7510
 DoSCS=T DFT=T ScalE2(SS,OS)=  0.270000  0.270000
 ExpMin= 1.03D-01 ExpMax= 8.24D+03 ExpMxC= 2.81D+02 IAcc=3 IRadAn=         5 AccDes= 0.00D+00
 HarFok:  IExCor=  205 AccDes= 0.00D+00 IRadAn=         5 IDoV=-2 UseB2=F ITyADJ=14
 ICtDFT= 12500011 ScaDFX=  1.000000  1.000000  1.000000  1.000000
 Range of M.O.s used for correlation:     5   190
 NBasis=   190 NAE=    15 NBE=    14 NFC=     4 NFV=     0
 NROrb=    186 NOA=    11 NOB=    10 NVA=   175 NVB=   176

 **** Warning!!: The largest alpha MO coefficient is  0.13739453D+02


 **** Warning!!: The largest beta MO coefficient is  0.14248439D+02

 DoSCS=T DFT=T ScalE2(SS,OS)=  0.270000  0.270000
 Fully direct method using O(ONN) memory.
 JobTyp=2 Pass  1:  I=   5 to  15 NPSUse= 40 ParTrn=T ParDer=T DoDerP=T.
 JobTyp=3 Pass  1:  I=   5 to  14 NPSUse= 40 ParTrn=T ParDer=T DoDerP=T.
 Spin components of T(2) and E(2):
     alpha-alpha T2 =       0.4250538306D-01 E2=     -0.2556144165D-01
     alpha-beta  T2 =       0.2475846523D+00 E2=     -0.1534866342D+00
     beta-beta   T2 =       0.3718592633D-01 E2=     -0.2193717677D-01
 (S**2,0)=  0.80405D+00           (S**2,1)=  0.77508D+00
 Scaling Projection term by:   0.270000
 E(PUHF)=      -0.15501993283D+03        E(PMP2)=      -0.15521703883D+03
 E2(B2PLYPD3) =    -0.2009852527D+00 E(B2PLYPD3) =    -0.15521607835962D+03
          IDoAtm=111111111
          Differentiating once with respect to electric field.
                with respect to dipole field.
          Differentiating once with respect to nuclear coordinates.
 Keep R1 and R2 ints in memory in canonical form, NReq=370978875.
          There are     1 degrees of freedom in the 1st order CPHF.  IDoFFX=0 NUNeed=     1.
 LinEq1:  Iter=  0 NonCon=     1 RMS=1.03D-03 Max=2.58D-02 NDo=     1
 AX will form     1 AO Fock derivatives at one time.
 LinEq1:  Iter=  1 NonCon=     1 RMS=4.37D-04 Max=1.25D-02 NDo=     1
 LinEq1:  Iter=  2 NonCon=     1 RMS=3.00D-04 Max=7.33D-03 NDo=     1
 LinEq1:  Iter=  3 NonCon=     1 RMS=1.29D-04 Max=4.31D-03 NDo=     1
 LinEq1:  Iter=  4 NonCon=     1 RMS=6.69D-05 Max=1.64D-03 NDo=     1
 LinEq1:  Iter=  5 NonCon=     1 RMS=2.30D-05 Max=6.03D-04 NDo=     1
 LinEq1:  Iter=  6 NonCon=     1 RMS=1.13D-05 Max=2.92D-04 NDo=     1
 LinEq1:  Iter=  7 NonCon=     1 RMS=6.87D-06 Max=1.69D-04 NDo=     1
 LinEq1:  Iter=  8 NonCon=     1 RMS=2.23D-06 Max=3.63D-05 NDo=     1
 LinEq1:  Iter=  9 NonCon=     1 RMS=1.16D-06 Max=2.33D-05 NDo=     1
 LinEq1:  Iter= 10 NonCon=     1 RMS=3.33D-07 Max=3.44D-06 NDo=     1
 LinEq1:  Iter= 11 NonCon=     1 RMS=6.57D-08 Max=7.64D-07 NDo=     1
 LinEq1:  Iter= 12 NonCon=     1 RMS=1.85D-08 Max=3.10D-07 NDo=     1
 LinEq1:  Iter= 13 NonCon=     1 RMS=4.46D-09 Max=4.74D-08 NDo=     1
 LinEq1:  Iter= 14 NonCon=     1 RMS=1.05D-09 Max=1.12D-08 NDo=     1
 LinEq1:  Iter= 15 NonCon=     1 RMS=1.92D-10 Max=2.58D-09 NDo=     1
 LinEq1:  Iter= 16 NonCon=     0 RMS=3.51D-11 Max=3.21D-10 NDo=     1
 Linear equations converged to 1.000D-10 1.000D-09 after    16 iterations.
 End of Minotr F.D. properties file   721 does not exist.
 End of Minotr F.D. properties file   722 does not exist.
 End of Minotr F.D. properties file   788 does not exist.
 Calling FoFJK, ICntrl=  10002127 FMM=F ISym2X=0 I1Cent= 0 IOpClX= 1 NMat=1 NMatS=1 NMatT=0.
 ***** Axes restored to original set *****
 -------------------------------------------------------------------
 Center     Atomic                   Forces (Hartrees/Bohr)
 Number     Number              X              Y              Z
 -------------------------------------------------------------------
      1        6           0.000424294   -0.000028710    0.000000391
      2        6          -0.000549807   -0.000051017   -0.000000640
      3        1           0.000252039    0.000112221    0.000000039
      4        6           0.000097264    0.000052490    0.000000345
      5        6          -0.000089433   -0.000317191    0.000000139
      6        1          -0.000100303   -0.000032919   -0.000000168
      7        1          -0.000075449    0.000092935   -0.000000109
      8        1           0.000027691   -0.000002186    0.000000050
      9        1           0.000013704    0.000174378   -0.000000047
 -------------------------------------------------------------------
 Cartesian Forces:  Max     0.000549807 RMS     0.000165498

 GradGradGradGradGradGradGradGradGradGradGradGradGradGradGradGradGradGrad
 Berny optimization.
 Using GEDIIS/GDIIS optimizer.
 FormGI is forming the generalized inverse of G from B-inverse, IUseBI=4.
 Internal  Forces:  Max     0.000446422 RMS     0.000150929
 Search for a local minimum.
 Step number   4 out of a maximum of  100
 All quantities printed in internal units (Hartrees-Bohrs-Radians)
 Mixed Optimization -- En-DIIS/RFO-DIIS
 Swapping is turned off.
 Update second derivatives using D2CorX and points    1    2    3    4
 DE= -2.44D-05 DEPred=-2.40D-05 R= 1.01D+00
 TightC=F SS=  1.41D+00  RLast= 1.87D-02 DXNew= 8.4853D-01 5.6201D-02
 Trust test= 1.01D+00 RLast= 1.87D-02 DXMaxT set to 5.05D-01
 ITU=  1  1  1  0
     Eigenvalues ---    0.00237   0.01206   0.01702   0.03069   0.03069
     Eigenvalues ---    0.03069   0.09366   0.16000   0.16000   0.16069
     Eigenvalues ---    0.16643   0.21992   0.22231   0.31994   0.33790
     Eigenvalues ---    0.33874   0.33891   0.34650   0.38066   0.60281
     Eigenvalues ---    0.62004
 En-DIIS/RFO-DIIS/Sim-DIIS IScMMF=       -3 using points:     4    3
 RFO step:  Lambda=-2.72992515D-06.
 DidBck=F Rises=F RFO-DIIS coefs:    1.09702   -0.09702
 Iteration  1 RMS(Cart)=  0.00137858 RMS(Int)=  0.00000161
 Iteration  2 RMS(Cart)=  0.00000157 RMS(Int)=  0.00000000
 Iteration  3 RMS(Cart)=  0.00000000 RMS(Int)=  0.00000000
 Variable       Old X    -DE/DX   Delta X   Delta X   Delta X     New X
                                 (Linear)    (Quad)   (Total)
    R1        2.47733  -0.00045   0.00001  -0.00078  -0.00077   2.47657
    R2        2.03326  -0.00014  -0.00024  -0.00034  -0.00058   2.03268
    R3        2.06407   0.00004   0.00016   0.00009   0.00025   2.06432
    R4        2.76187  -0.00025   0.00050  -0.00119  -0.00068   2.76118
    R5        2.51728  -0.00014   0.00008  -0.00023  -0.00016   2.51712
    R6        2.04479   0.00002   0.00007   0.00006   0.00013   2.04492
    R7        2.03933   0.00004   0.00001   0.00012   0.00013   2.03946
    R8        2.04397   0.00002   0.00006   0.00003   0.00008   2.04406
    A1        2.39856   0.00023   0.00148   0.00112   0.00260   2.40116
    A2        2.06619   0.00036  -0.00027   0.00216   0.00189   2.06808
    A3        2.18892  -0.00016   0.00028  -0.00078  -0.00050   2.18842
    A4        2.02807  -0.00020  -0.00001  -0.00138  -0.00139   2.02668
    A5        2.15422  -0.00012   0.00020  -0.00061  -0.00041   2.15380
    A6        2.03220  -0.00004   0.00029  -0.00043  -0.00014   2.03207
    A7        2.09677   0.00017  -0.00048   0.00103   0.00055   2.09732
    A8        2.12050  -0.00017  -0.00032  -0.00097  -0.00129   2.11921
    A9        2.11634   0.00011  -0.00007   0.00066   0.00059   2.11693
   A10        2.04634   0.00006   0.00039   0.00031   0.00070   2.04704
[...]
          (Kelvin)           1151.82  1256.98  1374.75  1376.28  1501.63
                             1707.06  1816.04  1915.23  2100.33  2396.43
                             2561.07  4395.58  4549.04  4584.46  4681.22
                             4712.69
 
 Zero-point correction=                           0.071881 (Hartree/Particle)
 Thermal correction to Energy=                    0.076531
 Thermal correction to Enthalpy=                  0.077475
 Thermal correction to Gibbs Free Energy=         0.044916
 Sum of electronic and zero-point Energies=           -155.144199
 Sum of electronic and thermal Energies=              -155.139549
 Sum of electronic and thermal Enthalpies=            -155.138605
 Sum of electronic and thermal Free Energies=         -155.171164
 
                     E (Thermal)             CV                S
                      KCal/Mol        Cal/Mol-Kelvin    Cal/Mol-Kelvin
 Total                   48.024             15.611             68.526
 Electronic               0.000              0.000              1.377
 Translational            0.889              2.981             37.828
 Rotational               0.889              2.981             23.325
 Vibrational             46.247              9.649              5.996
 Vibration     1          0.626              1.877              2.415
 Vibration     2          0.693              1.672              1.413
 Vibration     3          0.870              1.218              0.623
 Vibration     4          0.927              1.094              0.502
                       Q            Log10(Q)             Ln(Q)
 Total Bot       0.218748D-20        -20.660057        -47.571539
 Total V=0       0.252839D+13         12.402843         28.558602
 Vib (Bot)       0.257848D-32        -32.588637        -75.038109
 Vib (Bot)    1  0.117205D+01          0.068945          0.158751
 Vib (Bot)    2  0.632363D+00         -0.199034         -0.458292
 Vib (Bot)    3  0.315213D+00         -0.501395         -1.154505
 Vib (Bot)    4  0.269298D+00         -0.569767         -1.311938
 Vib (V=0)       0.298032D+01          0.474264          1.092032
 Vib (V=0)    1  0.177424D+01          0.249013          0.573373
 Vib (V=0)    2  0.130615D+01          0.115994          0.267086
 Vib (V=0)    3  0.109107D+01          0.037851          0.087156
 Vib (V=0)    4  0.106791D+01          0.028534          0.065703
 Electronic      0.200000D+01          0.301030          0.693147
 Translational   0.151827D+08          7.181348         16.535666
 Rotational      0.279384D+05          4.446201         10.237757
 ***** Axes restored to original set *****
 -------------------------------------------------------------------
 Center     Atomic                   Forces (Hartrees/Bohr)
 Number     Number              X              Y              Z
 -------------------------------------------------------------------
      1        6           0.000011701    0.000034009    0.000000952
      2        6           0.000021911   -0.000067484   -0.000001423
      3        1          -0.000005152    0.000024940   -0.000000241
      4        6          -0.000003650    0.000023391    0.000000940
      5        6          -0.000023385    0.000025025    0.000000586
      6        1           0.000004706   -0.000010013   -0.000000643
      7        1           0.000012632   -0.000019906   -0.000000366
      8        1           0.000001547    0.000003905    0.000000201
      9        1          -0.000020310   -0.000013868   -0.000000006
 -------------------------------------------------------------------
 Cartesian Forces:  Max     0.000067484 RMS     0.000019260
 FormGI is forming the generalized inverse of G from B-inverse, IUseBI=4.

 GradGradGradGradGradGradGradGradGradGradGradGradGradGradGradGradGradGrad
 Berny optimization.
 Internal  Forces:  Max     0.000034559 RMS     0.000013267
 Search for a local minimum.
 Step number   1 out of a maximum of    2
 All quantities printed in internal units (Hartrees-Bohrs-Radians)
 Second derivative matrix not updated -- analytic derivatives used.
 ITU=  0
     Eigenvalues ---    0.00651   0.01379   0.02462   0.02908   0.03529
     Eigenvalues ---    0.04100   0.07883   0.10476   0.10822   0.11299
     Eigenvalues ---    0.12337   0.13996   0.17987   0.33302   0.34527
     Eigenvalues ---    0.36003   0.36144   0.36683   0.37575   0.63946
     Eigenvalues ---    0.68831
 Angle between quadratic step and forces=  29.43 degrees.
 Linear search not attempted -- first point.
 Iteration  1 RMS(Cart)=  0.00018603 RMS(Int)=  0.00000003
 Iteration  2 RMS(Cart)=  0.00000003 RMS(Int)=  0.00000000
 Variable       Old X    -DE/DX   Delta X   Delta X   Delta X     New X
                                 (Linear)    (Quad)   (Total)
    R1        2.47644   0.00001   0.00000   0.00001   0.00001   2.47645
    R2        2.03267   0.00002   0.00000   0.00006   0.00006   2.03274
    R3        2.06428  -0.00002   0.00000  -0.00009  -0.00009   2.06418
    R4        2.76164   0.00001   0.00000   0.00008   0.00008   2.76172
    R5        2.51712  -0.00001   0.00000  -0.00002  -0.00002   2.51710
    R6        2.04487  -0.00001   0.00000  -0.00003  -0.00003   2.04483
    R7        2.03952  -0.00001   0.00000  -0.00003  -0.00003   2.03949
    R8        2.04395  -0.00000   0.00000   0.00000   0.00000   2.04395
    A1        2.40204   0.00001   0.00000   0.00017   0.00017   2.40221
    A2        2.06949   0.00003   0.00000   0.00026   0.00026   2.06975
    A3        2.18790  -0.00003   0.00000  -0.00029  -0.00029   2.18761
    A4        2.02579   0.00001   0.00000   0.00003   0.00003   2.02582
    A5        2.15365  -0.00001   0.00000  -0.00005  -0.00005   2.15360
    A6        2.03185   0.00000   0.00000  -0.00001  -0.00001   2.03184
    A7        2.09768   0.00000   0.00000   0.00006   0.00006   2.09774
    A8        2.11906   0.00003   0.00000   0.00023   0.00023   2.11929
    A9        2.11711  -0.00001   0.00000  -0.00007  -0.00007   2.11704
   A10        2.04701  -0.00002   0.00000  -0.00016  -0.00016   2.04685
    D1        0.00001  -0.00000   0.00000  -0.00001  -0.00001  -0.00000
    D2        3.14158   0.00000   0.00000   0.00001   0.00001   3.14159
    D3       -3.14149  -0.00000   0.00000  -0.00010  -0.00010  -3.14159
    D4        0.00010  -0.00000   0.00000  -0.00010  -0.00010   0.00000
    D5        0.00008  -0.00000   0.00000  -0.00008  -0.00008   0.00000
    D6       -3.14151  -0.00000   0.00000  -0.00008  -0.00008  -3.14159
    D7       -3.14159  -0.00000   0.00000  -0.00001  -0.00001  -3.14159
    D8        0.00000  -0.00000   0.00000  -0.00000  -0.00000   0.00000
    D9        0.00000  -0.00000   0.00000  -0.00000  -0.00000  -0.00000
   D10        3.14159  -0.00000   0.00000   0.00000   0.00000  -3.14159
         Item               Value     Threshold  Converged?
 Maximum Force            0.000035     0.000450     YES
 RMS     Force            0.000013     0.000300     YES
 Maximum Displacement     0.000468     0.001800     YES
 RMS     Displacement     0.000186     0.001200     YES
 Predicted change in Energy=-1.752255D-08
 Optimization completed.
    -- Stationary point found.
                           ----------------------------
                           !   Optimized Parameters   !
                           ! (Angstroms and Degrees)  !
 --------------------------                            --------------------------
 ! Name  Definition              Value          Derivative Info.                !
 --------------------------------------------------------------------------------
 ! R1    R(1,2)                  1.3105         -DE/DX =    0.0                 !
 ! R2    R(1,9)                  1.0756         -DE/DX =    0.0                 !
 ! R3    R(2,3)                  1.0924         -DE/DX =    0.0                 !
 ! R4    R(2,4)                  1.4614         -DE/DX =    0.0                 !
 ! R5    R(4,5)                  1.332          -DE/DX =    0.0                 !
 ! R6    R(4,6)                  1.0821         -DE/DX =    0.0                 !
 ! R7    R(5,7)                  1.0793         -DE/DX =    0.0                 !
 ! R8    R(5,8)                  1.0816         -DE/DX =    0.0                 !
 ! A1    A(2,1,9)              137.6268         -DE/DX =    0.0                 !
 ! A2    A(1,2,3)              118.573          -DE/DX =    0.0                 !
 ! A3    A(1,2,4)              125.3576         -DE/DX =    0.0                 !
 ! A4    A(3,2,4)              116.0694         -DE/DX =    0.0                 !
 ! A5    A(2,4,5)              123.3951         -DE/DX =    0.0                 !
 ! A6    A(2,4,6)              116.4166         -DE/DX =    0.0                 !
 ! A7    A(5,4,6)              120.1883         -DE/DX =    0.0                 !
 ! A8    A(4,5,7)              121.4131         -DE/DX =    0.0                 !
 ! A9    A(4,5,8)              121.3016         -DE/DX =    0.0                 !
 ! A10   A(7,5,8)              117.2852         -DE/DX =    0.0                 !
 ! D1    D(9,1,2,3)              0.0005         -DE/DX =    0.0                 !
 ! D2    D(9,1,2,4)            179.9995         -DE/DX =    0.0                 !
 ! D3    D(1,2,4,5)           -179.9944         -DE/DX =    0.0                 !
 ! D4    D(1,2,4,6)              0.0059         -DE/DX =    0.0                 !
 ! D5    D(3,2,4,5)              0.0046         -DE/DX =    0.0                 !
 ! D6    D(3,2,4,6)           -179.9951         -DE/DX =    0.0                 !
 ! D7    D(2,4,5,7)           -179.9996         -DE/DX =    0.0                 !
 ! D8    D(2,4,5,8)              0.0003         -DE/DX =    0.0                 !
 ! D9    D(6,4,5,7)              0.0001         -DE/DX =    0.0                 !
 ! D10   D(6,4,5,8)           -180.0            -DE/DX =    0.0                 !
 --------------------------------------------------------------------------------
 GradGradGradGradGradGradGradGradGradGradGradGradGradGradGradGradGradGrad


 ----------------------------------------------------------------------

 Electric dipole moment (input orientation):
 (Debye = 10**-18 statcoulomb cm , SI units = C m)
                  (au)            (Debye)         (10**-30 SI)
   Tot        0.239937D+00      0.609858D+00      0.203427D+01
   x          0.122392D+00      0.311089D+00      0.103768D+01
   y         -0.206373D+00     -0.524548D+00     -0.174970D+01
   z          0.000000D+00      0.000000D+00      0.000000D+00

 Dipole polarizability, Alpha (input orientation).
 (esu units = cm**3 , SI units = C**2 m**2 J**-1)
 Alpha(0;0):
               (au)            (10**-24 esu)      (10**-40 SI)
   iso        0.488399D+02      0.723733D+01      0.805261D+01
   aniso      0.489483D+02      0.725338D+01      0.807048D+01
   xx         0.767380D+02      0.113714D+02      0.126524D+02
   yx         0.119000D+02      0.176340D+01      0.196205D+01
   yy         0.434526D+02      0.643901D+01      0.716437D+01
   zx         0.409046D-03      0.606144D-04      0.674426D-04
   zy         0.543795D-03      0.805822D-04      0.896597D-04
   zz         0.263291D+02      0.390157D+01      0.434108D+01

 ----------------------------------------------------------------------

 Dipole orientation:
     6         -4.23116733         -1.69946258         -2.39433589
     6         -2.33400428         -0.57421817         -1.26857284
     1         -2.28645762         -0.54602319          0.79496504
     6         -0.22909328          0.67420605         -2.54819233
     6          1.66450487          1.79709668         -1.32782752
     1         -0.26561737          0.65273195         -4.59262046
     1          3.18997406          2.70187374         -2.33479356
     1          1.73515655          1.83881146          0.71447067
     1         -5.91721670         -2.69948138         -1.85678020

 Electric dipole moment (dipole orientation):
 (Debye = 10**-18 statcoulomb cm , SI units = C m)
                  (au)            (Debye)         (10**-30 SI)
   Tot        0.239937D+00      0.609858D+00      0.203427D+01
   x          0.000000D+00      0.000000D+00      0.000000D+00
   y          0.000000D+00      0.000000D+00      0.000000D+00
   z          0.239937D+00      0.609858D+00      0.203427D+01

 Dipole polarizability, Alpha (dipole orientation).
 (esu units = cm**3 , SI units = C**2 m**2 J**-1)
 Alpha(0;0):
               (au)            (10**-24 esu)      (10**-40 SI)
   iso        0.488399D+02      0.723733D+01      0.805261D+01
   aniso      0.489483D+02      0.725338D+01      0.807048D+01
   xx         0.649388D+02      0.962294D+01      0.107070D+02
   yx         0.228984D+02      0.339319D+01      0.377544D+01
   yy         0.399095D+02      0.591397D+01      0.658018D+01
   zx         0.765236D+01      0.113396D+01      0.126170D+01
   zy         0.453770D+01      0.672417D+00      0.748165D+00
   zz         0.416714D+02      0.617506D+01      0.687068D+01

 ----------------------------------------------------------------------
 1\1\GINC-N68\Freq\UB2PLYPD3-FC\CC-pVTZ\C4H5(2)\ROOT\31-May-2019\0\\#N 
 Geom=AllCheck Guess=TCheck SCRF=Check GenChk UB2PLYPD3(FC)/CC-pVTZ Fre
 q\\Title Card Required\\0,2\C,-2.6973200714,-0.1265746559,0.3685948844
 \C,-1.3894775616,-0.0435596569,0.3686564827\H,-0.8072999702,-0.9678643
 489,0.3686743329\C,-0.6209988627,1.1994677117,0.3686832542\C,0.7104377
 308,1.2382726356,0.3686366895\H,-1.1921425271,2.118559113,0.3687492527
 \H,1.2458865381,2.1753519047,0.3686645382\H,1.299066213,0.3308612172,0
 .3685711054\H,-3.4444556188,-0.9003968905,0.3685590201\\Version=ES64L-
 G16RevB.01\State=2-A\HF=-155.0150944\MP2=-155.2160803\PUHF=-155.019925
 8\PMP2-0=-155.2170386\S2=0.803815\S2-1=0.774925\S2A=0.751031\RMSD=1.29
 3e-09\RMSF=1.926e-05\ZeroPoint=0.0718809\Thermal=0.0765311\Dipole=0.12
 23917,-0.206373,0.0000042\DipoleDeriv=-0.177922,-0.0420501,0.0000059,0
 .0243504,-0.1457229,0.0000064,-0.0000005,-0.0000045,-0.253302,0.014290
 7,-0.038788,0.0000114,0.0256244,0.0966456,-0.0000035,-0.0000219,-0.000
 0161,-0.0946371,-0.0053839,0.0858531,-0.0000035,0.0242176,-0.0432309,0
 .0000008,0.0000002,0.0000016,0.1180402,0.1685063,0.0416991,-0.0000132,
 0.1404369,0.1603911,0.0000151,0.0000165,0.0000248,-0.1023941,-0.155440
 4,-0.0898113,-0.0000121,-0.1271824,0.0572188,0.0000159,-0.0000058,0.00
 00231,-0.2904807,0.0030458,0.0609495,0.0000073,0.0112473,-0.0571447,-0
 .00001,0.0000052,-0.0000104,0.1373363,0.0169158,-0.0352028,0.0000023,-
 0.0699267,-0.0468524,-0.0000061,-0.0000071,-0.000012,0.1366097,0.02557
 71,0.0238984,0.0000058,0.0839303,-0.0683027,-0.0000126,0.00001,-0.0000
 091,0.1440208,0.1104105,-0.0065479,-0.0000039,-0.1126979,0.0469981,-0.
 000006,0.0000033,0.0000025,0.2048068\Polar=76.7380235,11.900045,43.452
 6039,0.000409,0.0005438,26.3290673\PG=C01 [X(C4H5)]\NImag=0\\0.8607769
 4,0.21832022,0.28187174,0.00003785,0.00001041,0.04482593,-0.60927485,-
 0.05993153,-0.00002731,0.87225768,-0.02347900,-0.07958927,-0.00000189,
 0.02480056,0.54182322,-0.00002666,-0.00000335,-0.03650967,0.00003024,0
 .00000348,0.12214602,-0.02782305,0.02741402,-0.00000176,-0.11529087,0.
 11821391,-0.00000203,0.13197284,0.00307770,0.00213214,0.00000004,0.107
 92346,-0.23109279,0.00000360,-0.12524238,0.25251005,-0.00000208,0.0000
 0118,0.01510872,-0.00000164,0.00000423,-0.03840769,0.00000397,-0.00000
 368,0.01651373,-0.01606303,-0.02860605,0.00000027,-0.13929941,-0.07761
 382,-0.00000208,0.00792447,0.01676060,-0.00000035,0.88094804,-0.009037
 85,0.00341346,0.00000036,-0.06274524,-0.22273044,-0.00000383,-0.014767
 35,-0.02330347,-0.00000134,-0.02963547,0.61496059,-0.00000146,-0.00000
 104,-0.00273923,-0.00000042,-0.00000384,-0.06219127,-0.00000029,-0.000
 00006,0.00909280,-0.00002642,0.00002288,0.12824791,-0.01335897,-0.0024
 9319,-0.00000085,-0.00989623,-0.00429184,0.00000135,0.00193670,0.00137
 900,-0.00000004,-0.57102780,-0.01046581,0.00001857,0.86837987,-0.00267
 887,-0.00483071,-0.00000002,-0.03665258,-0.00021870,0.00000073,-0.0006
 9779,0.00175955,-0.00000002,-0.00777309,-0.11656929,-0.00000202,0.0153
 1872,0.65469304,0.00000062,-0.00000012,0.00218795,-0.00000171,-0.00000
 081,0.00603634,-0.00000012,-0.00000011,-0.00120432,0.00001899,-0.00000
 199,-0.05114447,-0.00002684,0.00002610,0.10869372,0.00139750,-0.000238
 79,0.00000012,0.00921006,-0.01564302,-0.00000084,-0.00159510,-0.002934
 84,-0.00000007,-0.13287105,0.12391123,0.00000915,-0.01459647,0.0294588
 8,0.00000216,0.14221926,0.00123078,0.00105967,0.00000016,0.01320725,-0
 .01961058,-0.00000128,-0.00255665,-0.00336701,-0.00000024,0.12597172,-
 0.26040788,-0.00001540,-0.00311527,0.00422182,0.00000003,-0.13374878,0
 .27535680,-0.00000002,0.00000007,-0.00092169,0.00000087,0.00000020,0.0
 0308463,-0.00000008,0.00000008,0.00244006,0.00000903,-0.00001591,-0.04
 183046,0.00000072,-0.00000117,0.00605191,-0.00001076,0.00001669,0.0272
 4326,-0.00037006,-0.00125171,0.00000004,-0.00462121,0.00183470,0.00000
 065,0.00013318,-0.00015933,-0.00000003,-0.01211244,-0.03044932,-0.0000
 0073,-0.12411865,-0.11895882,-0.00000269,0.00123223,0.00018206,-0.0000
 0030,0.13017209,-0.00019746,0.00013483,0.,0.00027074,0.00117253,-0.000
 00059,0.00020238,0.00044469,0.,0.00381797,0.00288849,-0.00000030,-0.12
 480123,-0.27974946,-0.00000761,-0.00035161,0.00114605,0.00000046,0.134
 03095,0.28946363,0.00000005,0.00000020,0.00044350,0.00000072,-0.000000
 32,0.01287493,0.00000007,-0.00000010,-0.00055024,0.00000052,0.00000098
 ,0.00498503,-0.00000302,-0.00000814,-0.03454398,-0.00000038,0.00000041
 ,-0.00762827,0.00000278,0.00000835,0.02343921,0.00021313,-0.00043264,0
 .00000002,0.00189114,0.00183198,-0.00000037,-0.00006588,-0.00110708,0.
 ,-0.01461711,0.03023877,0.00000216,-0.13738289,0.12330541,0.00000967,-
 0.00494647,-0.00104471,0.00000054,0.01005896,-0.01301988,-0.00000088,0
 .14486723,-0.00025251,-0.00000261,-0.00000002,-0.00136304,0.00157821,0
 .00000046,0.00070990,0.00044659,0.00000001,-0.00191185,0.00229938,-0.0
 0000010,0.12849535,-0.25954030,-0.00001549,-0.00071631,0.00133221,-0.0
 0000045,0.01477624,-0.01548469,-0.00000140,-0.13980095,0.26933866,-0.0
 0000013,-0.00000009,0.00006839,-0.00000046,0.00000017,-0.00827929,-0.0
 0000002,0.00000020,0.00010592,0.00000075,-0.00000124,0.00571470,0.0000
 1004,-0.00001525,-0.03577041,0.00000062,-0.00000042,0.01165721,0.00000
 040,-0.00000038,0.00239321,-0.00001116,0.00001701,0.02354600,-0.195497
 63,-0.15278033,-0.00000837,-0.00497631,-0.02565345,-0.00000026,0.00280
 772,0.00030287,0.00000026,-0.00288166,0.00295104,-0.00000056,0.0000644
 3,-0.00132186,-0.00000008,-0.00004996,-0.00012642,0.,-0.00037409,0.000
 04814,0.00000014,-0.00001811,0.00006317,-0.00000004,0.20092561,-0.1869
 8300,-0.20418926,-0.00000905,0.01449037,0.00866782,0.00000077,-0.00327
 604,0.00047025,-0.00000015,-0.00101002,-0.00055083,-0.00000012,-0.0000
 2574,0.00023404,0.,0.00026323,0.00026891,0.00000003,-0.00000475,-0.000
 01607,0.00000002,0.00002911,0.00003254,0.,0.17651685,0.19508258,-0.000
 00816,-0.00000725,-0.02246390,-0.00000029,-0.00000123,0.00124600,0.000
 00026,0.00000002,-0.00309897,-0.00000071,0.00000008,0.00986498,0.00000
 006,-0.00000021,-0.00030675,0.,0.00000005,-0.00009665,-0.00000012,0.00
 000006,-0.00141340,0.00000003,-0.00000002,0.00056426,0.00000892,0.0000
 0850,0.01570442\\-0.00001170,-0.00003401,-0.00000095,-0.00002191,0.000
 06748,0.00000142,0.00000515,-0.00002494,0.00000024,0.00000365,-0.00002
 339,-0.00000094,0.00002339,-0.00002503,-0.00000059,-0.00000471,0.00001
 001,0.00000064,-0.00001263,0.00001991,0.00000037,-0.00000155,-0.000003
 91,-0.00000020,0.00002031,0.00001387,0.\\\@


 MEN HAVE BECOME THE TOOLS OF THEIR TOOLS... THOREAU   
 Job cpu time:       0 days  4 hours 37 minutes 14.9 seconds.
 Elapsed time:       0 days  0 hours  7 minutes  8.2 seconds.
 File lengths (MBytes):  RWF=   9023 Int=      0 D2E=      0 Chk=      7 Scr=      1
 Normal termination of Gaussian 16 at Fri May 31 16:57:09 2019.
