 Entering Gaussian System, Link 0=g16
 Initial command:
 /ichec/packages/gaussian/16b01/l1.exe "/localscratch/339542/Gau-88728.inp" -scrdir="/localscratch/339542/"
 Entering Link 1 = /ichec/packages/gaussian/16b01/l1.exe PID=     88861.
  
 Copyright (c) 1988-2017, Gaussian, Inc.  All Rights Reserved.
  
 This is part of the Gaussian(R) 16 program.  It is based on
 the Gaussian(R) 09 system (copyright 2009, Gaussian, Inc.),
 the Gaussian(R) 03 system (copyright 2003, Gaussian, Inc.),
 the Gaussian(R) 98 system (copyright 1998, Gaussian, Inc.),
 the Gaussian(R) 94 system (copyright 1995, Gaussian, Inc.),
 the Gaussian 92(TM) system (copyright 1992, Gaussian, Inc.),
 the Gaussian 90(TM) system (copyright 1990, Gaussian, Inc.),
 the Gaussian 88(TM) system (copyright 1988, Gaussian, Inc.),
 the Gaussian 86(TM) system (copyright 1986, Carnegie Mellon
 University), and the Gaussian 82(TM) system (copyright 1983,
 Carnegie Mellon University). Gaussian is a federally registered
 trademark of Gaussian, Inc.
  
 This software contains proprietary and confidential information,
 including trade secrets, belonging to Gaussian, Inc.
  
 This software is provided under written license and may be
 used, copied, transmitted, or stored only in accord with that
 written license.
  
 The following legend is applicable only to US Government
 contracts under FAR:
  
                    RESTRICTED RIGHTS LEGEND
  
 Use, reproduction and disclosure by the US Government is
 subject to restrictions as set forth in subparagraphs (a)
 and (c) of the Commercial Computer Software - Restricted
 Rights clause in FAR 52.227-19.
  
 Gaussian, Inc.
 340 Quinnipiac St., Bldg. 40, Wallingford CT 06492
  
  
 ---------------------------------------------------------------
 Warning -- This program may not be used in any manner that
 competes with the business of Gaussian, Inc. or will provide
 assistance to any competitor of Gaussian, Inc.  The licensee
 of this program is prohibited from giving any competitor of
 Gaussian, Inc. access to this program.  By using this program,
 the user acknowledges that Gaussian, Inc. is engaged in the
 business of creating and licensing software in the field of
 computational chemistry and represents and warrants to the
 licensee that it is not a competitor of Gaussian, Inc. and that
 it will not use this program in any manner prohibited above.
 ---------------------------------------------------------------
  

 Cite this work as:
 Gaussian 16, Revision B.01,
 M. J. Frisch, G. W. Trucks, H. B. Schlegel, G. E. Scuseria, 
 M. A. Robb, J. R. Cheeseman, G. Scalmani, V. Barone, 
 G. A. Petersson, H. Nakatsuji, X. Li, M. Caricato, A. V. Marenich, 
 J. Bloino, B. G. Janesko, R. Gomperts, B. Mennucci, H. P. Hratchian, 
 J. V. Ortiz, A. F. Izmaylov, J. L. Sonnenberg, D. Williams-Young, 
 F. Ding, F. Lipparini, F. Egidi, J. Goings, B. Peng, A. Petrone, 
 T. Henderson, D. Ranasinghe, V. G. Zakrzewski, J. Gao, N. Rega, 
 G. Zheng, W. Liang, M. Hada, M. Ehara, K. Toyota, R. Fukuda, 
 J. Hasegawa, M. Ishida, T. Nakajima, Y. Honda, O. Kitao, H. Nakai, 
 T. Vreven, K. Throssell, J. A. Montgomery, Jr., J. E. Peralta, 
 F. Ogliaro, M. J. Bearpark, J. J. Heyd, E. N. Brothers, K. N. Kudin, 
 V. N. Staroverov, T. A. Keith, R. Kobayashi, J. Normand, 
 K. Raghavachari, A. P. Rendell, J. C. Burant, S. S. Iyengar, 
 J. Tomasi, M. Cossi, J. M. Millam, M. Klene, C. Adamo, R. Cammi, 
 J. W. Ochterski, R. L. Martin, K. Morokuma, O. Farkas, 
 J. B. Foresman, and D. J. Fox, Gaussian, Inc., Wallingford CT, 2016.
 
 ******************************************
 Gaussian 16:  ES64L-G16RevB.01 20-Dec-2017
                31-May-2019 
 ******************************************
 %mem=80GB
 %nproc=40
 Will use up to   40 processors via shared memory.
 -----------------------------------------------
 # opt=maxcyc=500 freq=noraman uB2PLYPD3/cc-pvtz
 -----------------------------------------------
 1/6=500,18=20,19=15,38=1/1,3;
 2/9=110,12=2,17=6,18=5,40=1/2;
 3/5=16,6=1,11=2,25=1,30=1,71=1,74=-60,116=2/1,2,3;
 4//1;
 5/5=2,38=5/2;
 8/6=4,10=1/1;
 9/15=2,16=-3/6;
 10/5=1/2;
 6/7=2,8=2,9=2,10=2/1;
 7/12=2/1,2,3,16;
 1/6=500,18=20,19=15/3(2);
 2/9=110/2;
 99//99;
 2/9=110/2;
 3/5=16,6=1,11=2,25=1,30=1,71=1,74=-60,116=2/1,2,3;
 4/5=5,16=3,69=1/1;
 5/5=2,38=5/2;
 8/6=4,10=1/1;
 9/15=2,16=-3/6;
 10/5=1/2;
 7/12=2/1,2,3,16;
 1/6=500,18=20,19=15/3(-8);
 2/9=110/2;
 6/7=2,8=2,9=2,10=2/1;
 99/9=10/99;
 -------------------
 Title Card Required
 -------------------
 Symbolic Z-matrix:
 Charge =  0 Multiplicity = 1
 C                    -2.77439  -0.0586    0.36862 
 C                    -1.44848  -0.0586    0.36862 
 H                    -3.36798   0.86544   0.36862 
 H                    -3.36801  -0.98261   0.3686 
 H                    -0.85489  -0.98264   0.3686 
 C                    -0.6161    1.23707   0.36866 
 C                     0.70981   1.23702   0.36866 
 H                    -1.20968   2.1611    0.36871 
 H                     1.30343   2.16104   0.3687 
 H                     1.3034    0.31298   0.36861 
 

 GradGradGradGradGradGradGradGradGradGradGradGradGradGradGradGradGradGrad
 Berny optimization.
 Initialization pass.
                           ----------------------------
                           !    Initial Parameters    !
                           ! (Angstroms and Degrees)  !
 --------------------------                            --------------------------
 ! Name  Definition              Value          Derivative Info.                !
 --------------------------------------------------------------------------------
 ! R1    R(1,2)                  1.3259         estimate D2E/DX2                !
 ! R2    R(1,3)                  1.0983         estimate D2E/DX2                !
 ! R3    R(1,4)                  1.0983         estimate D2E/DX2                !
 ! R4    R(2,5)                  1.0983         estimate D2E/DX2                !
 ! R5    R(2,6)                  1.54           estimate D2E/DX2                !
 ! R6    R(6,7)                  1.3259         estimate D2E/DX2                !
 ! R7    R(6,8)                  1.0983         estimate D2E/DX2                !
 ! R8    R(7,9)                  1.0983         estimate D2E/DX2                !
 ! R9    R(7,10)                 1.0983         estimate D2E/DX2                !
 ! A1    A(2,1,3)              122.7159         estimate D2E/DX2                !
 ! A2    A(2,1,4)              122.718          estimate D2E/DX2                !
 ! A3    A(3,1,4)              114.5661         estimate D2E/DX2                !
 ! A4    A(1,2,5)              122.7159         estimate D2E/DX2                !
 ! A5    A(1,2,6)              122.718          estimate D2E/DX2                !
 ! A6    A(5,2,6)              114.5661         estimate D2E/DX2                !
 ! A7    A(2,6,7)              122.7159         estimate D2E/DX2                !
 ! A8    A(2,6,8)              114.5661         estimate D2E/DX2                !
 ! A9    A(7,6,8)              122.718          estimate D2E/DX2                !
 ! A10   A(6,7,9)              122.7159         estimate D2E/DX2                !
 ! A11   A(6,7,10)             122.718          estimate D2E/DX2                !
 ! A12   A(9,7,10)             114.5661         estimate D2E/DX2                !
 ! D1    D(3,1,2,5)           -179.9988         estimate D2E/DX2                !
 ! D2    D(3,1,2,6)              0.0016         estimate D2E/DX2                !
 ! D3    D(4,1,2,5)             -0.0002         estimate D2E/DX2                !
 ! D4    D(4,1,2,6)           -179.9998         estimate D2E/DX2                !
 ! D5    D(1,2,6,7)            180.0            estimate D2E/DX2                !
 ! D6    D(1,2,6,8)              0.0013         estimate D2E/DX2                !
 ! D7    D(5,2,6,7)              0.0004         estimate D2E/DX2                !
 ! D8    D(5,2,6,8)           -179.9983         estimate D2E/DX2                !
 ! D9    D(2,6,7,9)           -179.9988         estimate D2E/DX2                !
 ! D10   D(2,6,7,10)             0.0016         estimate D2E/DX2                !
 ! D11   D(8,6,7,9)             -0.0002         estimate D2E/DX2                !
 ! D12   D(8,6,7,10)          -179.9998         estimate D2E/DX2                !
 --------------------------------------------------------------------------------
 Trust Radius=3.00D-01 FncErr=1.00D-07 GrdErr=1.00D-07 EigMax=2.50D+02 EigMin=1.00D-04
 Number of steps in this run=    100 maximum allowed number of steps=    100.
 GradGradGradGradGradGradGradGradGradGradGradGradGradGradGradGradGradGrad

                          Input orientation:                          
 ---------------------------------------------------------------------
 Center     Atomic      Atomic             Coordinates (Angstroms)
 Number     Number       Type             X           Y           Z
 ---------------------------------------------------------------------
      1          6           0       -2.774395   -0.058600    0.368621
      2          6           0       -1.448479   -0.058600    0.368621
      3          1           0       -3.367980    0.865438    0.368621
      4          1           0       -3.368011   -0.982614    0.368599
      5          1           0       -0.854894   -0.982638    0.368602
      6          6           0       -0.616102    1.237065    0.368657
      7          6           0        0.709814    1.237018    0.368657
      8          1           0       -1.209685    2.161101    0.368705
      9          1           0        1.303432    2.161035    0.368702
     10          1           0        1.303397    0.312983    0.368605
 ---------------------------------------------------------------------
                    Distance matrix (angstroms):
                    1          2          3          4          5
     1  C    0.000000
     2  C    1.325916   0.000000
     3  H    1.098267   2.130336   0.000000
     4  H    1.098263   2.130353   1.848052   0.000000
     5  H    2.130336   1.098267   3.119453   2.513117   0.000000
     6  C    2.517335   1.540000   2.776858   3.535531   2.232511
     7  C    3.717302   2.517311   4.094688   4.642782   2.715729
     8  H    2.715766   2.232508   2.517335   3.813307   3.163695
     9  H    4.642785   3.535505   4.847748   5.630711   3.813273
    10  H    4.094687   2.776850   4.703931   4.847744   2.517311
                    6          7          8          9         10
     6  C    0.000000
     7  C    1.325916   0.000000
     8  H    1.098263   2.130353   0.000000
     9  H    2.130336   1.098267   2.513117   0.000000
    10  H    2.130353   1.098263   3.119474   1.848052   0.000000
 Stoichiometry    C4H6
 Framework group  C1[X(C4H6)]
 Deg. of freedom    24
 Full point group                 C1      NOp   1
 Largest Abelian subgroup         C1      NOp   1
 Largest concise Abelian subgroup C1      NOp   1
                         Standard orientation:                         
 ---------------------------------------------------------------------
 Center     Atomic      Atomic             Coordinates (Angstroms)
 Number     Number       Type             X           Y           Z
 ---------------------------------------------------------------------
      1          6           0        1.855103    0.114856    0.000018
      2          6           0        0.643264   -0.423196    0.000018
      3          1           0        2.022647    1.200267    0.000018
      4          1           0        2.772608   -0.488772    0.000040
      5          1           0        0.475721   -1.508608    0.000037
      6          6           0       -0.643274    0.423219   -0.000018
      7          6           0       -1.855094   -0.114876   -0.000018
      8          1           0       -0.475731    1.508627   -0.000066
      9          1           0       -2.772602    0.488754   -0.000063
     10          1           0       -2.022637   -1.200284    0.000034
 ---------------------------------------------------------------------
 Rotational constants (GHZ):          40.1627654           4.3295977           3.9082801
 Standard basis: CC-pVTZ (5D, 7F)
 There are   230 symmetry adapted cartesian basis functions of A   symmetry.
 There are   204 symmetry adapted basis functions of A   symmetry.
   204 basis functions,   310 primitive gaussians,   230 cartesian basis functions
    15 alpha electrons       15 beta electrons
       nuclear repulsion energy       102.4615378413 Hartrees.
 NAtoms=   10 NActive=   10 NUniq=   10 SFac= 1.00D+00 NAtFMM=   60 NAOKFM=F Big=F
 Integral buffers will be    131072 words long.
 Raffenetti 2 integral format.
 Two-electron integral symmetry is turned on.
 Nuclear repulsion after empirical dispersion term =      102.4567519914 Hartrees.
 One-electron integrals computed using PRISM.
 NBasis=   204 RedAO= T EigKep=  3.39D-04  NBF=   204
 NBsUse=   204 1.00D-06 EigRej= -1.00D+00 NBFU=   204
 ExpMin= 1.03D-01 ExpMax= 8.24D+03 ExpMxC= 2.81D+02 IAcc=3 IRadAn=         5 AccDes= 0.00D+00
 Harris functional with IExCor=  419 and IRadAn=       5 diagonalized for initial guess.
 HarFok:  IExCor=  419 AccDes= 0.00D+00 IRadAn=         5 IDoV= 1 UseB2=F ITyADJ=14
 ICtDFT=  3500011 ScaDFX=  1.000000  1.000000  1.000000  1.000000
 FoFCou: FMM=F IPFlag=           0 FMFlag=      100000 FMFlg1=           0
         NFxFlg=           0 DoJE=T BraDBF=F KetDBF=T FulRan=T
         wScrn=  0.000000 ICntrl=       500 IOpCl=  0 I1Cent=   200000004 NGrid=           0
         NMat0=    1 NMatS0=      1 NMatT0=    0 NMatD0=    1 NMtDS0=    0 NMtDT0=    0
 Petite list used in FoFCou.
 Initial guess <Sx>= 0.0000 <Sy>= 0.0000 <Sz>= 0.0000 <S**2>=-0.0000 S=-0.0000
 Keep R1 and R2 ints in memory in canonical form, NReq=479624292.
 Requested convergence on RMS density matrix=1.00D-08 within 128 cycles.
 Requested convergence on MAX density matrix=1.00D-06.
 Requested convergence on             energy=1.00D-06.
 No special actions if energy rises.
 Integral accuracy reduced to 1.0D-05 until final iterations.
 Initial convergence to 1.0D-05 achieved.  Increase integral accuracy.
 SCF Done:  E(UB2PLYPD3) =  -155.683488180     A.U. after   11 cycles
            NFock= 11  Conv=0.39D-08     -V/T= 2.0063
 <Sx>= 0.0000 <Sy>= 0.0000 <Sz>= 0.0000 <S**2>=-0.0000 S=-0.0000
 <L.S>=  0.00000000000    
 Annihilation of the first spin contaminant:
 S**2 before annihilation    -0.0000,   after     0.0000
 DoSCS=T DFT=T ScalE2(SS,OS)=  0.270000  0.270000
 ExpMin= 1.03D-01 ExpMax= 8.24D+03 ExpMxC= 2.81D+02 IAcc=3 IRadAn=         5 AccDes= 0.00D+00
 HarFok:  IExCor=  205 AccDes= 0.00D+00 IRadAn=         5 IDoV=-2 UseB2=F ITyADJ=14
 ICtDFT= 12500011 ScaDFX=  1.000000  1.000000  1.000000  1.000000
 Range of M.O.s used for correlation:     5   204
 NBasis=   204 NAE=    15 NBE=    15 NFC=     4 NFV=     0
 NROrb=    200 NOA=    11 NOB=    11 NVA=   189 NVB=   189

 **** Warning!!: The largest alpha MO coefficient is  0.15495515D+02


 **** Warning!!: The largest beta MO coefficient is  0.15495515D+02

 DoSCS=T DFT=T ScalE2(SS,OS)=  0.270000  0.270000
 Fully direct method using O(ONN) memory.
 JobTyp=2 Pass  1:  I=   5 to  15 NPSUse= 40 ParTrn=T ParDer=T DoDerP=T.
 JobTyp=3 Pass  1:  I=   5 to  15 NPSUse= 40 ParTrn=T ParDer=T DoDerP=T.
 Spin components of T(2) and E(2):
     alpha-alpha T2 =       0.4122288983D-01 E2=     -0.2455314058D-01
     alpha-beta  T2 =       0.2676507374D+00 E2=     -0.1652485168D+00
     beta-beta   T2 =       0.4122288983D-01 E2=     -0.2455314058D-01
 (S**2,0)=  0.00000D+00           (S**2,1)=  0.00000D+00
 E(PUHF)=      -0.15568348818D+03        E(PMP2)=      -0.15589784298D+03
 E2(B2PLYPD3) =    -0.2143547979D+00 E(B2PLYPD3) =    -0.15589784297822D+03
          IDoAtm=1111111111
          Differentiating once with respect to electric field.
                with respect to dipole field.
          Differentiating once with respect to nuclear coordinates.
 Keep R1 and R2 ints in memory in canonical form, NReq=479631582.
          There are     1 degrees of freedom in the 1st order CPHF.  IDoFFX=0 NUNeed=     1.
 LinEq1:  Iter=  0 NonCon=     1 RMS=6.97D-04 Max=1.52D-02 NDo=     1
 AX will form     1 AO Fock derivatives at one time.
 LinEq1:  Iter=  1 NonCon=     1 RMS=2.63D-04 Max=4.15D-03 NDo=     1
 LinEq1:  Iter=  2 NonCon=     1 RMS=7.25D-05 Max=2.62D-03 NDo=     1
 LinEq1:  Iter=  3 NonCon=     1 RMS=4.00D-05 Max=1.04D-03 NDo=     1
 LinEq1:  Iter=  4 NonCon=     1 RMS=1.00D-05 Max=2.55D-04 NDo=     1
 LinEq1:  Iter=  5 NonCon=     1 RMS=1.60D-06 Max=2.63D-05 NDo=     1
 LinEq1:  Iter=  6 NonCon=     1 RMS=1.74D-07 Max=3.05D-06 NDo=     1
 LinEq1:  Iter=  7 NonCon=     1 RMS=2.79D-08 Max=6.36D-07 NDo=     1
 LinEq1:  Iter=  8 NonCon=     1 RMS=5.15D-09 Max=7.75D-08 NDo=     1
 LinEq1:  Iter=  9 NonCon=     1 RMS=1.23D-09 Max=2.09D-08 NDo=     1
 LinEq1:  Iter= 10 NonCon=     1 RMS=2.48D-10 Max=5.42D-09 NDo=     1
 LinEq1:  Iter= 11 NonCon=     1 RMS=1.50D-10 Max=4.03D-09 NDo=     1
 LinEq1:  Iter= 12 NonCon=     0 RMS=2.98D-11 Max=4.34D-10 NDo=     1
 Linear equations converged to 1.000D-10 1.000D-09 after    12 iterations.
 End of Minotr F.D. properties file   721 does not exist.
 End of Minotr F.D. properties file   722 does not exist.
 End of Minotr F.D. properties file   788 does not exist.

 **********************************************************************

            Population analysis using the SCF Density.

 **********************************************************************

 Orbital symmetries:
 Alpha Orbitals:
       Occupied  (A) (A) (A) (A) (A) (A) (A) (A) (A) (A) (A) (A)
                 (A) (A) (A)
       Virtual   (A) (A) (A) (A) (A) (A) (A) (A) (A) (A) (A) (A)
                 (A) (A) (A) (A) (A) (A) (A) (A) (A) (A) (A) (A)
                 (A) (A) (A) (A) (A) (A) (A) (A) (A) (A) (A) (A)
                 (A) (A) (A) (A) (A) (A) (A) (A) (A) (A) (A) (A)
                 (A) (A) (A) (A) (A) (A) (A) (A) (A) (A) (A) (A)
                 (A) (A) (A) (A) (A) (A) (A) (A) (A) (A) (A) (A)
                 (A) (A) (A) (A) (A) (A) (A) (A) (A) (A) (A) (A)
                 (A) (A) (A) (A) (A) (A) (A) (A) (A) (A) (A) (A)
                 (A) (A) (A) (A) (A) (A) (A) (A) (A) (A) (A) (A)
                 (A) (A) (A) (A) (A) (A) (A) (A) (A) (A) (A) (A)
                 (A) (A) (A) (A) (A) (A) (A) (A) (A) (A) (A) (A)
                 (A) (A) (A) (A) (A) (A) (A) (A) (A) (A) (A) (A)
                 (A) (A) (A) (A) (A) (A) (A) (A) (A) (A) (A) (A)
                 (A) (A) (A) (A) (A) (A) (A) (A) (A) (A) (A) (A)
                 (A) (A) (A) (A) (A) (A) (A) (A) (A) (A) (A) (A)
                 (A) (A) (A) (A) (A) (A) (A) (A) (A)
 Beta  Orbitals:
       Occupied  (A) (A) (A) (A) (A) (A) (A) (A) (A) (A) (A) (A)
                 (A) (A) (A)
       Virtual   (A) (A) (A) (A) (A) (A) (A) (A) (A) (A) (A) (A)
                 (A) (A) (A) (A) (A) (A) (A) (A) (A) (A) (A) (A)
                 (A) (A) (A) (A) (A) (A) (A) (A) (A) (A) (A) (A)
                 (A) (A) (A) (A) (A) (A) (A) (A) (A) (A) (A) (A)
                 (A) (A) (A) (A) (A) (A) (A) (A) (A) (A) (A) (A)
                 (A) (A) (A) (A) (A) (A) (A) (A) (A) (A) (A) (A)
                 (A) (A) (A) (A) (A) (A) (A) (A) (A) (A) (A) (A)
                 (A) (A) (A) (A) (A) (A) (A) (A) (A) (A) (A) (A)
                 (A) (A) (A) (A) (A) (A) (A) (A) (A) (A) (A) (A)
                 (A) (A) (A) (A) (A) (A) (A) (A) (A) (A) (A) (A)
                 (A) (A) (A) (A) (A) (A) (A) (A) (A) (A) (A) (A)
                 (A) (A) (A) (A) (A) (A) (A) (A) (A) (A) (A) (A)
                 (A) (A) (A) (A) (A) (A) (A) (A) (A) (A) (A) (A)
                 (A) (A) (A) (A) (A) (A) (A) (A) (A) (A) (A) (A)
                 (A) (A) (A) (A) (A) (A) (A) (A) (A) (A) (A) (A)
                 (A) (A) (A) (A) (A) (A) (A) (A) (A)
 The electronic state is 1-A.
 Alpha  occ. eigenvalues --  -10.63209 -10.63171 -10.61703 -10.61703  -0.91749
 Alpha  occ. eigenvalues --   -0.84891  -0.68845  -0.63631  -0.54163  -0.52886
 Alpha  occ. eigenvalues --   -0.47382  -0.45090  -0.39599  -0.37288  -0.28281
 Alpha virt. eigenvalues --    0.03091   0.09899   0.10012   0.10970   0.11585
 Alpha virt. eigenvalues --    0.15686   0.15802   0.17641   0.23650   0.28388
 Alpha virt. eigenvalues --    0.33272   0.34166   0.35176   0.36975   0.38477
 Alpha virt. eigenvalues --    0.39362   0.40468   0.44340   0.47425   0.47859
 Alpha virt. eigenvalues --    0.48643   0.50274   0.52286   0.54332   0.55633
 Alpha virt. eigenvalues --    0.57481   0.58786   0.59502   0.65057   0.66801
 Alpha virt. eigenvalues --    0.67641   0.71478   0.73061   0.75466   0.75511
 Alpha virt. eigenvalues --    0.78250   0.78377   0.82358   0.94862   0.97031
 Alpha virt. eigenvalues --    0.97829   0.98696   1.02502   1.02514   1.06589
 Alpha virt. eigenvalues --    1.08040   1.11103   1.13004   1.17237   1.18835
 Alpha virt. eigenvalues --    1.20026   1.23549   1.28057   1.28354   1.29597
 Alpha virt. eigenvalues --    1.32946   1.35516   1.39524   1.43341   1.48391
 Alpha virt. eigenvalues --    1.48892   1.50999   1.54002   1.55269   1.56603
 Alpha virt. eigenvalues --    1.58604   1.64347   1.71144   1.80733   1.81096
 Alpha virt. eigenvalues --    2.00759   2.12554   2.19710   2.20117   2.27509
 Alpha virt. eigenvalues --    2.34849   2.36406   2.37912   2.38613   2.46268
 Alpha virt. eigenvalues --    2.52315   2.52502   2.55572   2.57609   2.63318
 Alpha virt. eigenvalues --    2.67395   2.73658   2.76152   2.78139   2.82351
 Alpha virt. eigenvalues --    2.84794   2.85473   2.87973   2.89987   2.94208
 Alpha virt. eigenvalues --    2.94642   2.98419   2.98546   2.99283   3.00915
 Alpha virt. eigenvalues --    3.02666   3.06489   3.11237   3.11606   3.11760
 Alpha virt. eigenvalues --    3.12575   3.19525   3.20011   3.20209   3.23891
 Alpha virt. eigenvalues --    3.25582   3.25752   3.29698   3.29734   3.30521
 Alpha virt. eigenvalues --    3.40260   3.41221   3.43753   3.44252   3.46384
 Alpha virt. eigenvalues --    3.54988   3.55436   3.55746   3.61706   3.63202
 Alpha virt. eigenvalues --    3.67246   3.69397   3.70226   3.77455   3.80637
 Alpha virt. eigenvalues --    3.83681   3.83713   3.88905   3.91562   3.95544
 Alpha virt. eigenvalues --    3.95911   3.96470   3.96817   3.99390   4.04140
 Alpha virt. eigenvalues --    4.06691   4.09150   4.11909   4.12099   4.13219
 Alpha virt. eigenvalues --    4.16740   4.18141   4.18760   4.29106   4.32635
 Alpha virt. eigenvalues --    4.38810   4.39976   4.44147   4.49415   4.57428
 Alpha virt. eigenvalues --    4.60049   4.64480   4.67562   4.69594   4.74724
 Alpha virt. eigenvalues --    4.75461   4.78111   4.86164   4.89206   4.93204
 Alpha virt. eigenvalues --    5.02728   5.03636   5.04437   5.06690   5.13448
 Alpha virt. eigenvalues --    5.23602   5.25519   5.25681   5.28708   5.40963
 Alpha virt. eigenvalues --    5.48540   5.49190   5.52699   5.62217   6.02832
 Alpha virt. eigenvalues --    6.07414   6.08745   6.20632   6.21659   6.64728
 Alpha virt. eigenvalues --   10.86986  11.28710  14.03651  14.56750
  Beta  occ. eigenvalues --  -10.63209 -10.63171 -10.61703 -10.61703  -0.91749
  Beta  occ. eigenvalues --   -0.84891  -0.68845  -0.63631  -0.54163  -0.52886
  Beta  occ. eigenvalues --   -0.47382  -0.45090  -0.39599  -0.37288  -0.28281
  Beta virt. eigenvalues --    0.03091   0.09899   0.10012   0.10970   0.11585
  Beta virt. eigenvalues --    0.15686   0.15802   0.17641   0.23650   0.28388
  Beta virt. eigenvalues --    0.33272   0.34166   0.35176   0.36975   0.38477
  Beta virt. eigenvalues --    0.39362   0.40468   0.44340   0.47425   0.47859
  Beta virt. eigenvalues --    0.48643   0.50274   0.52286   0.54332   0.55633
  Beta virt. eigenvalues --    0.57481   0.58786   0.59502   0.65057   0.66801
  Beta virt. eigenvalues --    0.67641   0.71478   0.73061   0.75466   0.75511
  Beta virt. eigenvalues --    0.78250   0.78377   0.82358   0.94862   0.97031
  Beta virt. eigenvalues --    0.97829   0.98696   1.02502   1.02514   1.06589
  Beta virt. eigenvalues --    1.08040   1.11103   1.13004   1.17237   1.18835
  Beta virt. eigenvalues --    1.20026   1.23549   1.28057   1.28354   1.29597
  Beta virt. eigenvalues --    1.32946   1.35516   1.39524   1.43341   1.48391
  Beta virt. eigenvalues --    1.48892   1.50999   1.54002   1.55269   1.56603
  Beta virt. eigenvalues --    1.58604   1.64347   1.71144   1.80733   1.81096
  Beta virt. eigenvalues --    2.00759   2.12554   2.19710   2.20117   2.27509
  Beta virt. eigenvalues --    2.34849   2.36406   2.37912   2.38613   2.46268
  Beta virt. eigenvalues --    2.52315   2.52502   2.55572   2.57609   2.63318
  Beta virt. eigenvalues --    2.67395   2.73658   2.76152   2.78139   2.82351
  Beta virt. eigenvalues --    2.84794   2.85473   2.87973   2.89987   2.94208
  Beta virt. eigenvalues --    2.94642   2.98419   2.98546   2.99283   3.00915
  Beta virt. eigenvalues --    3.02666   3.06489   3.11237   3.11606   3.11760
  Beta virt. eigenvalues --    3.12575   3.19525   3.20011   3.20209   3.23891
  Beta virt. eigenvalues --    3.25582   3.25752   3.29698   3.29734   3.30521
  Beta virt. eigenvalues --    3.40260   3.41221   3.43753   3.44252   3.46384
  Beta virt. eigenvalues --    3.54988   3.55436   3.55746   3.61706   3.63202
  Beta virt. eigenvalues --    3.67246   3.69397   3.70226   3.77455   3.80637
  Beta virt. eigenvalues --    3.83681   3.83713   3.88905   3.91562   3.95544
  Beta virt. eigenvalues --    3.95911   3.96470   3.96817   3.99390   4.04140
  Beta virt. eigenvalues --    4.06691   4.09150   4.11909   4.12099   4.13219
  Beta virt. eigenvalues --    4.16740   4.18141   4.18760   4.29106   4.32635
  Beta virt. eigenvalues --    4.38810   4.39976   4.44147   4.49415   4.57428
  Beta virt. eigenvalues --    4.60049   4.64480   4.67562   4.69594   4.74724
  Beta virt. eigenvalues --    4.75461   4.78111   4.86164   4.89206   4.93204
  Beta virt. eigenvalues --    5.02728   5.03636   5.04437   5.06690   5.13448
  Beta virt. eigenvalues --    5.23602   5.25519   5.25681   5.28708   5.40963
  Beta virt. eigenvalues --    5.48540   5.49190   5.52699   5.62217   6.02832
  Beta virt. eigenvalues --    6.07414   6.08745   6.20632   6.21659   6.64728
  Beta virt. eigenvalues --   10.86986  11.28710  14.03651  14.56750
          Condensed to atoms (all electrons):
               1          2          3          4          5          6
     1  C    4.947735   0.621205   0.410730   0.416196  -0.041165  -0.060211
     2  C    0.621205   4.829945  -0.047844  -0.042913   0.408454   0.399179
     3  H    0.410730  -0.047844   0.551383  -0.037433   0.006072  -0.006372
     4  H    0.416196  -0.042913  -0.037433   0.545704  -0.008085   0.006224
     5  H   -0.041165   0.408454   0.006072  -0.008085   0.539206  -0.039241
     6  C   -0.060211   0.399179  -0.006372   0.006224  -0.039241   4.829944
     7  C    0.001027  -0.060216   0.000318  -0.000331   0.000530   0.621206
     8  H    0.000530  -0.039239   0.004850  -0.000362   0.004618   0.408454
     9  H   -0.000331   0.006224  -0.000051   0.000020  -0.000362  -0.042915
    10  H    0.000318  -0.006372   0.000050  -0.000051   0.004849  -0.047842
               7          8          9         10
     1  C    0.001027   0.000530  -0.000331   0.000318
     2  C   -0.060216  -0.039239   0.006224  -0.006372
     3  H    0.000318   0.004850  -0.000051   0.000050
     4  H   -0.000331  -0.000362   0.000020  -0.000051
     5  H    0.000530   0.004618  -0.000362   0.004849
     6  C    0.621206   0.408454  -0.042915  -0.047842
     7  C    4.947734  -0.041163   0.416194   0.410732
     8  H   -0.041163   0.539197  -0.008085   0.006071
     9  H    0.416194  -0.008085   0.545712  -0.037433
    10  H    0.410732   0.006071  -0.037433   0.551373
          Atomic-Atomic Spin Densities.
               1          2          3          4          5          6
     1  C   -0.000000  -0.000000  -0.000000   0.000000  -0.000000  -0.000000
     2  C   -0.000000   0.000000   0.000000   0.000000   0.000000   0.000000
     3  H   -0.000000   0.000000  -0.000000   0.000000  -0.000000   0.000000
     4  H    0.000000   0.000000   0.000000   0.000000   0.000000  -0.000000
     5  H   -0.000000   0.000000  -0.000000   0.000000   0.000000   0.000000
     6  C   -0.000000   0.000000   0.000000  -0.000000   0.000000  -0.000000
     7  C   -0.000000   0.000000  -0.000000  -0.000000  -0.000000   0.000000
     8  H   -0.000000   0.000000   0.000000  -0.000000   0.000000  -0.000000
     9  H    0.000000  -0.000000   0.000000   0.000000  -0.000000  -0.000000
    10  H    0.000000  -0.000000   0.000000  -0.000000   0.000000   0.000000
               7          8          9         10
     1  C   -0.000000  -0.000000   0.000000   0.000000
     2  C    0.000000   0.000000  -0.000000  -0.000000
     3  H   -0.000000   0.000000   0.000000   0.000000
     4  H   -0.000000  -0.000000   0.000000  -0.000000
     5  H   -0.000000   0.000000  -0.000000   0.000000
     6  C    0.000000  -0.000000  -0.000000   0.000000
     7  C    0.000000   0.000000   0.000000  -0.000000
     8  H    0.000000   0.000000  -0.000000  -0.000000
     9  H    0.000000  -0.000000  -0.000000   0.000000
    10  H   -0.000000  -0.000000   0.000000   0.000000
 Mulliken charges and spin densities:
               1          2
     1  C   -0.296034  -0.000000
     2  C   -0.068423   0.000000
     3  H    0.118298  -0.000000
     4  H    0.121031   0.000000
     5  H    0.125124   0.000000
     6  C   -0.068425  -0.000000
     7  C   -0.296032   0.000000
     8  H    0.125130  -0.000000
     9  H    0.121027  -0.000000
    10  H    0.118305   0.000000
 Sum of Mulliken charges =  -0.00000  -0.00000
 Mulliken charges and spin densities with hydrogens summed into heavy atoms:
               1          2
     1  C   -0.056705  -0.000000
     2  C    0.056701   0.000000
     6  C    0.056705  -0.000000
     7  C   -0.056701   0.000000
 Electronic spatial extent (au):  <R**2>=            343.4635
 Charge=             -0.0000 electrons
 Dipole moment (field-independent basis, Debye):
    X=             -0.0000    Y=              0.0000    Z=              0.0000  Tot=              0.0000
 Quadrupole moment (field-independent basis, Debye-Ang):
   XX=            -23.1571   YY=            -23.0024   ZZ=            -29.1996
   XY=              0.3446   XZ=              0.0001   YZ=             -0.0002
 Traceless Quadrupole moment (field-independent basis, Debye-Ang):
   XX=              1.9626   YY=              2.1173   ZZ=             -4.0799
   XY=              0.3446   XZ=              0.0001   YZ=             -0.0002
 Octapole moment (field-independent basis, Debye-Ang**2):
  XXX=              0.0002  YYY=              0.0001  ZZZ=              0.0000  XYY=             -0.0002
  XXY=             -0.0003  XXZ=             -0.0000  XZZ=             -0.0000  YZZ=              0.0000
  YYZ=              0.0000  XYZ=              0.0002
 Hexadecapole moment (field-independent basis, Debye-Ang**3):
 XXXX=           -348.1412 YYYY=            -66.5229 ZZZZ=            -34.7992 XXXY=             -4.5522
 XXXZ=             -0.0009 YYYX=              2.5623 YYYZ=              0.0003 ZZZX=             -0.0024
 ZZZY=              0.0007 XXYY=            -70.3588 XXZZ=            -78.0175 YYZZ=            -19.2300
 XXYZ=             -0.0003 YYXZ=             -0.0006 ZZXY=              0.4507
 N-N= 1.024567519914D+02 E-N=-5.655032010281D+02  KE= 1.547116626037D+02
                          Isotropic Fermi Contact Couplings
        Atom                 a.u.       MegaHertz       Gauss      10(-4) cm-1
     1  C(13)             -0.00000      -0.00000      -0.00000      -0.00000
     2  C(13)              0.00000       0.00000       0.00000       0.00000
     3  H(1)               0.00000       0.00000       0.00000       0.00000
     4  H(1)               0.00000       0.00000       0.00000       0.00000
     5  H(1)              -0.00000      -0.00000      -0.00000      -0.00000
     6  C(13)             -0.00000      -0.00000      -0.00000      -0.00000
     7  C(13)              0.00000       0.00000       0.00000       0.00000
     8  H(1)              -0.00000      -0.00000      -0.00000      -0.00000
     9  H(1)              -0.00000      -0.00000      -0.00000      -0.00000
    10  H(1)              -0.00000      -0.00000      -0.00000      -0.00000
 --------------------------------------------------------
       Center         ----  Spin Dipole Couplings  ----
                      3XX-RR        3YY-RR        3ZZ-RR
 --------------------------------------------------------
     1   Atom        0.000000      0.000000      0.000000
     2   Atom        0.000000      0.000000      0.000000
     3   Atom        0.000000      0.000000      0.000000
     4   Atom        0.000000      0.000000      0.000000
     5   Atom        0.000000      0.000000      0.000000
     6   Atom        0.000000      0.000000      0.000000
     7   Atom        0.000000      0.000000      0.000000
     8   Atom        0.000000      0.000000      0.000000
     9   Atom        0.000000      0.000000      0.000000
    10   Atom        0.000000      0.000000      0.000000
 --------------------------------------------------------
                        XY            XZ            YZ
 --------------------------------------------------------
     1   Atom        0.000000      0.000000      0.000000
     2   Atom        0.000000      0.000000      0.000000
     3   Atom        0.000000      0.000000      0.000000
     4   Atom        0.000000      0.000000      0.000000
     5   Atom        0.000000      0.000000      0.000000
     6   Atom        0.000000      0.000000      0.000000
     7   Atom        0.000000      0.000000      0.000000
     8   Atom        0.000000      0.000000      0.000000
     9   Atom        0.000000      0.000000      0.000000
    10   Atom        0.000000      0.000000      0.000000
 --------------------------------------------------------


 ---------------------------------------------------------------------------------
              Anisotropic Spin Dipole Couplings in Principal Axis System
 ---------------------------------------------------------------------------------

       Atom             a.u.   MegaHertz   Gauss  10(-4) cm-1        Axes

              Baa     0.0000     0.000     0.000     0.000  1.0000  0.0000  0.0000
     1 C(13)  Bbb     0.0000     0.000     0.000     0.000 -0.0000  1.0000  0.0000
              Bcc     0.0000     0.000     0.000     0.000  0.0000  0.0000  1.0000
 
              Baa     0.0000     0.000     0.000     0.000  1.0000  0.0000  0.0000
     2 C(13)  Bbb     0.0000     0.000     0.000     0.000 -0.0000  1.0000  0.0000
              Bcc     0.0000     0.000     0.000     0.000  0.0000  0.0000  1.0000
 
              Baa     0.0000     0.000     0.000     0.000  1.0000  0.0000  0.0000
     3 H(1)   Bbb     0.0000     0.000     0.000     0.000 -0.0000  1.0000  0.0000
              Bcc     0.0000     0.000     0.000     0.000  0.0000  0.0000  1.0000
 
              Baa     0.0000     0.000     0.000     0.000  1.0000  0.0000  0.0000
     4 H(1)   Bbb     0.0000     0.000     0.000     0.000 -0.0000  1.0000  0.0000
              Bcc     0.0000     0.000     0.000     0.000  0.0000  0.0000  1.0000
 
              Baa     0.0000     0.000     0.000     0.000  1.0000  0.0000  0.0000
     5 H(1)   Bbb     0.0000     0.000     0.000     0.000 -0.0000  1.0000  0.0000
              Bcc     0.0000     0.000     0.000     0.000  0.0000  0.0000  1.0000
 
              Baa     0.0000     0.000     0.000     0.000  1.0000  0.0000  0.0000
     6 C(13)  Bbb     0.0000     0.000     0.000     0.000 -0.0000  1.0000  0.0000
              Bcc     0.0000     0.000     0.000     0.000  0.0000  0.0000  1.0000
 
              Baa     0.0000     0.000     0.000     0.000  1.0000  0.0000  0.0000
     7 C(13)  Bbb     0.0000     0.000     0.000     0.000 -0.0000  1.0000  0.0000
              Bcc     0.0000     0.000     0.000     0.000  0.0000  0.0000  1.0000
 
              Baa     0.0000     0.000     0.000     0.000  1.0000  0.0000  0.0000
     8 H(1)   Bbb     0.0000     0.000     0.000     0.000 -0.0000  1.0000  0.0000
              Bcc     0.0000     0.000     0.000     0.000  0.0000  0.0000  1.0000
 
              Baa     0.0000     0.000     0.000     0.000  1.0000  0.0000  0.0000
     9 H(1)   Bbb     0.0000     0.000     0.000     0.000 -0.0000  1.0000  0.0000
              Bcc     0.0000     0.000     0.000     0.000  0.0000  0.0000  1.0000
 
              Baa     0.0000     0.000     0.000     0.000  1.0000  0.0000  0.0000
    10 H(1)   Bbb     0.0000     0.000     0.000     0.000 -0.0000  1.0000  0.0000
              Bcc     0.0000     0.000     0.000     0.000  0.0000  0.0000  1.0000
 

 ---------------------------------------------------------------------------------

 Calling FoFJK, ICntrl=  10002127 FMM=F ISym2X=0 I1Cent= 0 IOpClX= 1 NMat=1 NMatS=1 NMatT=0.
 ***** Axes restored to original set *****
 -------------------------------------------------------------------
 Center     Atomic                   Forces (Hartrees/Bohr)
 Number     Number              X              Y              Z
 -------------------------------------------------------------------
      1        6          -0.021309460   -0.003743917   -0.000001743
      2        6           0.034435097    0.030093128    0.000000639
      3        1           0.008763983   -0.007067894    0.000000970
      4        1           0.008648936    0.008125895    0.000000344
      5        1          -0.007915819    0.006972370    0.000000340
      6        6          -0.034436391   -0.030103469    0.000000440
      7        6           0.021309672    0.003756246   -0.000000589
      8        1           0.007917131   -0.006969912   -0.000000635
      9        1          -0.008647781   -0.008128166   -0.000000747
     10        1          -0.008765368    0.007065720    0.000000982
 -------------------------------------------------------------------
 Cartesian Forces:  Max     0.034436391 RMS     0.013997043

 GradGradGradGradGradGradGradGradGradGradGradGradGradGradGradGradGradGrad
 Berny optimization.
 FormGI is forming the generalized inverse of G from B-inverse, IUseBI=4.
 Internal  Forces:  Max     0.041152575 RMS     0.008752204
 Search for a local minimum.
 Step number   1 out of a maximum of  100
 All quantities printed in internal units (Hartrees-Bohrs-Radians)
 Mixed Optimization -- RFO/linear search
 Second derivative matrix not updated -- first step.
 ITU=  0
     Eigenvalues ---    0.00237   0.01763   0.01763   0.03069   0.03069
     Eigenvalues ---    0.03069   0.03069   0.16000   0.16000   0.16000
     Eigenvalues ---    0.16000   0.16000   0.16000   0.22000   0.22000
     Eigenvalues ---    0.28519   0.33875   0.33875   0.33875   0.33875
     Eigenvalues ---    0.33875   0.33875   0.60481   0.60481
 RFO step:  Lambda=-8.44163049D-03 EMin= 2.36824256D-03
 Linear search not attempted -- first point.
 Iteration  1 RMS(Cart)=  0.03909501 RMS(Int)=  0.00019832
 Iteration  2 RMS(Cart)=  0.00021060 RMS(Int)=  0.00000006
 Iteration  3 RMS(Cart)=  0.00000004 RMS(Int)=  0.00000005
 Variable       Old X    -DE/DX   Delta X   Delta X   Delta X     New X
                                 (Linear)    (Quad)   (Total)
    R1        2.50562   0.00390   0.00000   0.00635   0.00635   2.51197
    R2        2.07542  -0.01068   0.00000  -0.03077  -0.03077   2.04465
    R3        2.07542  -0.01151   0.00000  -0.03316  -0.03316   2.04226
    R4        2.07542  -0.01014   0.00000  -0.02922  -0.02922   2.04620
    R5        2.91018  -0.04115   0.00000  -0.14015  -0.14015   2.77003
    R6        2.50562   0.00390   0.00000   0.00635   0.00635   2.51197
    R7        2.07542  -0.01014   0.00000  -0.02922  -0.02922   2.04620
    R8        2.07542  -0.01151   0.00000  -0.03316  -0.03316   2.04226
    R9        2.07542  -0.01068   0.00000  -0.03077  -0.03077   2.04465
    A1        2.14180  -0.00292   0.00000  -0.01734  -0.01734   2.12445
    A2        2.14183  -0.00153   0.00000  -0.00910  -0.00910   2.13273
    A3        1.99956   0.00445   0.00000   0.02644   0.02644   2.02600
    A4        2.14180  -0.00378   0.00000  -0.02123  -0.02123   2.12057
    A5        2.14183   0.00156   0.00000   0.00683   0.00683   2.14867
    A6        1.99956   0.00222   0.00000   0.01440   0.01440   2.01395
    A7        2.14180   0.00157   0.00000   0.00686   0.00686   2.14865
    A8        1.99956   0.00222   0.00000   0.01440   0.01440   2.01396
    A9        2.14183  -0.00379   0.00000  -0.02126  -0.02126   2.12058
   A10        2.14180  -0.00153   0.00000  -0.00907  -0.00907   2.13272
   A11        2.14183  -0.00293   0.00000  -0.01737  -0.01737   2.12446
   A12        1.99956   0.00445   0.00000   0.02644   0.02644   2.02600
    D1       -3.14157  -0.00000   0.00000  -0.00002  -0.00002  -3.14159
    D2        0.00003  -0.00000   0.00000  -0.00002  -0.00002   0.00001
    D3       -0.00000   0.00000   0.00000   0.00000   0.00000   0.00000
    D4       -3.14159   0.00000   0.00000   0.00000   0.00000  -3.14159
    D5        3.14159   0.00000   0.00000  -0.00000  -0.00000   3.14159
    D6        0.00002  -0.00000   0.00000  -0.00002  -0.00002   0.00000
    D7        0.00001   0.00000   0.00000  -0.00000  -0.00000   0.00000
    D8       -3.14156  -0.00000   0.00000  -0.00002  -0.00002  -3.14159
    D9       -3.14157  -0.00000   0.00000  -0.00002  -0.00002  -3.14159
   D10        0.00003  -0.00000   0.00000  -0.00002  -0.00002   0.00001
   D11       -0.00000  -0.00000   0.00000   0.00000   0.00000  -0.00000
   D12       -3.14159  -0.00000   0.00000  -0.00000  -0.00000  -3.14159
         Item               Value     Threshold  Converged?
 Maximum Force            0.041153     0.000450     NO 
 RMS     Force            0.008752     0.000300     NO 
 Maximum Displacement     0.087103     0.001800     NO 
 RMS     Displacement     0.039112     0.001200     NO 
 Predicted change in Energy=-4.343643D-03
 GradGradGradGradGradGradGradGradGradGradGradGradGradGradGradGradGradGrad

                          Input orientation:                          
 ---------------------------------------------------------------------
 Center     Atomic      Atomic             Coordinates (Angstroms)
 Number     Number       Type             X           Y           Z
 ---------------------------------------------------------------------
      1          6           0       -2.755515   -0.042437    0.368618
      2          6           0       -1.426307   -0.028772    0.368618
      3          1           0       -3.333856    0.872007    0.368643
      4          1           0       -3.321918   -0.962839    0.368593
      5          1           0       -0.851090   -0.946155    0.368591
      6          6           0       -0.638273    1.207220    0.368658
      7          6           0        0.690935    1.220869    0.368659
      8          1           0       -1.213487    2.124603    0.368691
      9          1           0        1.257341    2.141270    0.368691
     10          1           0        1.269271    0.306423    0.368625
 ---------------------------------------------------------------------
                    Distance matrix (angstroms):
                    1          2          3          4          5
     1  C    0.000000
     2  C    1.329278   0.000000
     3  H    1.081983   2.109537   0.000000
     4  H    1.080718   2.113249   1.834885   0.000000
     5  H    2.107971   1.082804   3.077311   2.470884   0.000000
     6  C    2.458527   1.465835   2.716345   3.451246   2.163865
     7  C    3.670689   2.458519   4.039881   4.568541   2.659668
     8  H    2.659683   2.163866   2.462714   3.738686   3.092068
     9  H    4.568544   3.451239   4.763414   5.532188   3.738673
    10  H    4.039877   2.716339   4.637743   4.763406   2.462698
                    6          7          8          9         10
     6  C    0.000000
     7  C    1.329278   0.000000
     8  H    1.082803   2.107975   0.000000
     9  H    2.113245   1.080719   2.470885   0.000000
    10  H    2.109540   1.081981   3.077314   1.834885   0.000000
 Stoichiometry    C4H6
 Framework group  C1[X(C4H6)]
 Deg. of freedom    24
 Full point group                 C1      NOp   1
 Largest Abelian subgroup         C1      NOp   1
 Largest concise Abelian subgroup C1      NOp   1
                         Standard orientation:                         
 ---------------------------------------------------------------------
 Center     Atomic      Atomic             Coordinates (Angstroms)
 Number     Number       Type             X           Y           Z
 ---------------------------------------------------------------------
      1          6           0        1.832159    0.108114    0.000020
      2          6           0        0.607816   -0.409540    0.000021
      3          1           0        1.997754    1.177350   -0.000005
      4          1           0        2.718677   -0.509977    0.000046
      5          1           0        0.446257   -1.480224    0.000047
      6          6           0       -0.607819    0.409548   -0.000020
      7          6           0       -1.832156   -0.108121   -0.000021
      8          1           0       -0.446264    1.480231   -0.000052
      9          1           0       -2.718677    0.509968   -0.000053
     10          1           0       -1.997746   -1.177356    0.000013
 ---------------------------------------------------------------------
 Rotational constants (GHZ):          41.9854715           4.4812069           4.0490431
 Standard basis: CC-pVTZ (5D, 7F)
 There are   230 symmetry adapted cartesian basis functions of A   symmetry.
 There are   204 symmetry adapted basis functions of A   symmetry.
   204 basis functions,   310 primitive gaussians,   230 cartesian basis functions
    15 alpha electrons       15 beta electrons
       nuclear repulsion energy       104.1098365104 Hartrees.
 NAtoms=   10 NActive=   10 NUniq=   10 SFac= 1.00D+00 NAtFMM=   60 NAOKFM=F Big=F
 Integral buffers will be    131072 words long.
 Raffenetti 2 integral format.
 Two-electron integral symmetry is turned on.
 Nuclear repulsion after empirical dispersion term =      104.1049928754 Hartrees.
 One-electron integrals computed using PRISM.
 NBasis=   204 RedAO= T EigKep=  3.14D-04  NBF=   204
 NBsUse=   204 1.00D-06 EigRej= -1.00D+00 NBFU=   204
 Initial guess from the checkpoint file:  "/localscratch/339542/Gau-88861.chk"
 B after Tr=    -0.000000    0.000000   -0.000000
         Rot=    0.999996    0.000000    0.000000    0.002898 Ang=   0.33 deg.
 Initial guess <Sx>= 0.0000 <Sy>= 0.0000 <Sz>= 0.0000 <S**2>=-0.0000 S=-0.0000
 ExpMin= 1.03D-01 ExpMax= 8.24D+03 ExpMxC= 2.81D+02 IAcc=3 IRadAn=         5 AccDes= 0.00D+00
 Harris functional with IExCor=  419 and IRadAn=       5 diagonalized for initial guess.
 HarFok:  IExCor=  419 AccDes= 0.00D+00 IRadAn=         5 IDoV= 1 UseB2=F ITyADJ=14
 ICtDFT=  3500011 ScaDFX=  1.000000  1.000000  1.000000  1.000000
 FoFCou: FMM=F IPFlag=           0 FMFlag=      100000 FMFlg1=           0
         NFxFlg=           0 DoJE=T BraDBF=F KetDBF=T FulRan=T
         wScrn=  0.000000 ICntrl=       500 IOpCl=  0 I1Cent=   200000004 NGrid=           0
         NMat0=    1 NMatS0=      1 NMatT0=    0 NMatD0=    1 NMtDS0=    0 NMtDT0=    0
 Petite list used in FoFCou.
 Keep R1 and R2 ints in memory in canonical form, NReq=479624292.
 Requested convergence on RMS density matrix=1.00D-08 within 128 cycles.
 Requested convergence on MAX density matrix=1.00D-06.
 Requested convergence on             energy=1.00D-06.
 No special actions if energy rises.
 Integral accuracy reduced to 1.0D-05 until final iterations.
 Initial convergence to 1.0D-05 achieved.  Increase integral accuracy.
 SCF Done:  E(UB2PLYPD3) =  -155.689010683     A.U. after   10 cycles
            NFock= 10  Conv=0.29D-08     -V/T= 2.0046
 <Sx>= 0.0000 <Sy>= 0.0000 <Sz>= 0.0000 <S**2>=-0.0000 S=-0.0000
 <L.S>=  0.00000000000    
 Annihilation of the first spin contaminant:
 S**2 before annihilation    -0.0000,   after     0.0000
 DoSCS=T DFT=T ScalE2(SS,OS)=  0.270000  0.270000
 ExpMin= 1.03D-01 ExpMax= 8.24D+03 ExpMxC= 2.81D+02 IAcc=3 IRadAn=         5 AccDes= 0.00D+00
 HarFok:  IExCor=  205 AccDes= 0.00D+00 IRadAn=         5 IDoV=-2 UseB2=F ITyADJ=14
 ICtDFT= 12500011 ScaDFX=  1.000000  1.000000  1.000000  1.000000
 Range of M.O.s used for correlation:     5   204
 NBasis=   204 NAE=    15 NBE=    15 NFC=     4 NFV=     0
 NROrb=    200 NOA=    11 NOB=    11 NVA=   189 NVB=   189

 **** Warning!!: The largest alpha MO coefficient is  0.15008645D+02


 **** Warning!!: The largest beta MO coefficient is  0.15008645D+02

 DoSCS=T DFT=T ScalE2(SS,OS)=  0.270000  0.270000
 Fully direct method using O(ONN) memory.
 JobTyp=2 Pass  1:  I=   5 to  15 NPSUse= 40 ParTrn=T ParDer=T DoDerP=T.
 JobTyp=3 Pass  1:  I=   5 to  15 NPSUse= 40 ParTrn=T ParDer=T DoDerP=T.
 Spin components of T(2) and E(2):
     alpha-alpha T2 =       0.4089180169D-01 E2=     -0.2461565781D-01
     alpha-beta  T2 =       0.2639072111D+00 E2=     -0.1646249583D+00
     beta-beta   T2 =       0.4089180169D-01 E2=     -0.2461565781D-01
 (S**2,0)=  0.00000D+00           (S**2,1)=  0.00000D+00
 E(PUHF)=      -0.15568901068D+03        E(PMP2)=      -0.15590286696D+03
 E2(B2PLYPD3) =    -0.2138562740D+00 E(B2PLYPD3) =    -0.15590286695690D+03
          IDoAtm=1111111111
          Differentiating once with respect to electric field.
                with respect to dipole field.
          Differentiating once with respect to nuclear coordinates.
 Keep R1 and R2 ints in memory in canonical form, NReq=479631582.
          There are     1 degrees of freedom in the 1st order CPHF.  IDoFFX=0 NUNeed=     1.
 LinEq1:  Iter=  0 NonCon=     1 RMS=7.04D-04 Max=1.59D-02 NDo=     1
 AX will form     1 AO Fock derivatives at one time.
 LinEq1:  Iter=  1 NonCon=     1 RMS=2.57D-04 Max=4.20D-03 NDo=     1
 LinEq1:  Iter=  2 NonCon=     1 RMS=7.36D-05 Max=2.74D-03 NDo=     1
 LinEq1:  Iter=  3 NonCon=     1 RMS=4.09D-05 Max=1.12D-03 NDo=     1
 LinEq1:  Iter=  4 NonCon=     1 RMS=1.02D-05 Max=2.49D-04 NDo=     1
 LinEq1:  Iter=  5 NonCon=     1 RMS=1.63D-06 Max=2.38D-05 NDo=     1
 LinEq1:  Iter=  6 NonCon=     1 RMS=1.78D-07 Max=3.44D-06 NDo=     1
 LinEq1:  Iter=  7 NonCon=     1 RMS=3.22D-08 Max=6.11D-07 NDo=     1
 LinEq1:  Iter=  8 NonCon=     1 RMS=6.61D-09 Max=9.72D-08 NDo=     1
 LinEq1:  Iter=  9 NonCon=     1 RMS=1.45D-09 Max=2.60D-08 NDo=     1
 LinEq1:  Iter= 10 NonCon=     1 RMS=1.98D-10 Max=4.29D-09 NDo=     1
 LinEq1:  Iter= 11 NonCon=     0 RMS=3.49D-11 Max=8.59D-10 NDo=     1
 Linear equations converged to 1.000D-10 1.000D-09 after    11 iterations.
 End of Minotr F.D. properties file   721 does not exist.
 End of Minotr F.D. properties file   722 does not exist.
 End of Minotr F.D. properties file   788 does not exist.
 Calling FoFJK, ICntrl=  10002127 FMM=F ISym2X=0 I1Cent= 0 IOpClX= 1 NMat=1 NMatS=1 NMatT=0.
 ***** Axes restored to original set *****
 -------------------------------------------------------------------
 Center     Atomic                   Forces (Hartrees/Bohr)
 Number     Number              X              Y              Z
 -------------------------------------------------------------------
      1        6          -0.008386206   -0.003407026   -0.000000217
      2        6           0.010176276    0.009508683    0.000000548
      3        1           0.001452822    0.000743220    0.000000150
      4        1           0.001316372   -0.000234174   -0.000000118
      5        1          -0.002085828   -0.002051962   -0.000000113
      6        6          -0.010176603   -0.009511509   -0.000000311
      7        6           0.008386302    0.003410940   -0.000000096
      8        1           0.002085904    0.002052705    0.000000041
      9        1          -0.001316248    0.000233309    0.000000011
     10        1          -0.001452792   -0.000744186    0.000000105
 -------------------------------------------------------------------
 Cartesian Forces:  Max     0.010176603 RMS     0.004389125

 GradGradGradGradGradGradGradGradGradGradGradGradGradGradGradGradGradGrad
 Berny optimization.
 Using GEDIIS/GDIIS optimizer.
 FormGI is forming the generalized inverse of G from B-inverse, IUseBI=4.
 Internal  Forces:  Max     0.005646771 RMS     0.002158833
 Search for a local minimum.
 Step number   2 out of a maximum of  100
 All quantities printed in internal units (Hartrees-Bohrs-Radians)
 Mixed Optimization -- RFO/linear search
 Update second derivatives using D2CorX and points    1    2
 DE= -5.02D-03 DEPred=-4.34D-03 R= 1.16D+00
 TightC=F SS=  1.41D+00  RLast= 1.71D-01 DXNew= 5.0454D-01 5.1176D-01
 Trust test= 1.16D+00 RLast= 1.71D-01 DXMaxT set to 5.05D-01
 ITU=  1  0
 Use linear search instead of GDIIS.
     Eigenvalues ---    0.00237   0.01735   0.01735   0.03069   0.03069
     Eigenvalues ---    0.03069   0.03069   0.14070   0.16000   0.16000
     Eigenvalues ---    0.16000   0.16000   0.16053   0.21443   0.22000
     Eigenvalues ---    0.27665   0.33811   0.33875   0.33875   0.33875
     Eigenvalues ---    0.33875   0.35585   0.60481   0.60936
 RFO step:  Lambda=-4.81928952D-04 EMin= 2.36824256D-03
 Quartic linear search produced a step of  0.14173.
 Iteration  1 RMS(Cart)=  0.01042712 RMS(Int)=  0.00010784
 Iteration  2 RMS(Cart)=  0.00010975 RMS(Int)=  0.00000002
 Iteration  3 RMS(Cart)=  0.00000000 RMS(Int)=  0.00000002
 Variable       Old X    -DE/DX   Delta X   Delta X   Delta X     New X
                                 (Linear)    (Quad)   (Total)
    R1        2.51197   0.00565   0.00090   0.01004   0.01094   2.52291
    R2        2.04465  -0.00015  -0.00436   0.00278  -0.00158   2.04307
    R3        2.04226  -0.00049  -0.00470   0.00188  -0.00281   2.03945
    R4        2.04620   0.00063  -0.00414   0.00524   0.00110   2.04730
    R5        2.77003  -0.00517  -0.01986  -0.00512  -0.02499   2.74504
    R6        2.51197   0.00565   0.00090   0.01004   0.01094   2.52291
    R7        2.04620   0.00063  -0.00414   0.00524   0.00110   2.04730
    R8        2.04226  -0.00049  -0.00470   0.00188  -0.00282   2.03945
    R9        2.04465  -0.00015  -0.00436   0.00278  -0.00158   2.04307
    A1        2.12445  -0.00137  -0.00246  -0.00744  -0.00990   2.11456
    A2        2.13273  -0.00059  -0.00129  -0.00296  -0.00425   2.12848
    A3        2.02600   0.00195   0.00375   0.01040   0.01415   2.04015
    A4        2.12057  -0.00407  -0.00301  -0.02394  -0.02695   2.09361
    A5        2.14867   0.00229   0.00097   0.01102   0.01199   2.16065
    A6        2.01395   0.00178   0.00204   0.01293   0.01497   2.02892
    A7        2.14865   0.00229   0.00097   0.01103   0.01200   2.16065
    A8        2.01396   0.00178   0.00204   0.01292   0.01497   2.02892
    A9        2.12058  -0.00407  -0.00301  -0.02395  -0.02696   2.09361
   A10        2.13272  -0.00058  -0.00129  -0.00296  -0.00424   2.12848
   A11        2.12446  -0.00137  -0.00246  -0.00744  -0.00990   2.11456
   A12        2.02600   0.00195   0.00375   0.01040   0.01415   2.04015
    D1       -3.14159  -0.00000  -0.00000   0.00001   0.00000  -3.14159
    D2        0.00001  -0.00000  -0.00000  -0.00000  -0.00000   0.00000
    D3        0.00000  -0.00000   0.00000  -0.00000  -0.00000  -0.00000
    D4       -3.14159  -0.00000   0.00000  -0.00001  -0.00001   3.14159
    D5        3.14159   0.00000  -0.00000   0.00002   0.00002  -3.14157
    D6        0.00000   0.00000  -0.00000   0.00003   0.00003   0.00003
    D7        0.00000  -0.00000  -0.00000   0.00002   0.00001   0.00002
    D8       -3.14159  -0.00000  -0.00000   0.00002   0.00002  -3.14157
    D9       -3.14159  -0.00000  -0.00000   0.00001   0.00000  -3.14159
   D10        0.00001  -0.00000  -0.00000   0.00000   0.00000   0.00001
   D11       -0.00000   0.00000   0.00000  -0.00000  -0.00000  -0.00000
   D12       -3.14159  -0.00000  -0.00000  -0.00000  -0.00000   3.14159
         Item               Value     Threshold  Converged?
 Maximum Force            0.005647     0.000450     NO 
 RMS     Force            0.002159     0.000300     NO 
 Maximum Displacement     0.032893     0.001800     NO 
 RMS     Displacement     0.010446     0.001200     NO 
 Predicted change in Energy=-3.594010D-04
 GradGradGradGradGradGradGradGradGradGradGradGradGradGradGradGradGradGrad

                          Input orientation:                          
 ---------------------------------------------------------------------
 Center     Atomic      Atomic             Coordinates (Angstroms)
 Number     Number       Type             X           Y           Z
 ---------------------------------------------------------------------
      1          6           0       -2.760583   -0.044551    0.368615
      2          6           0       -1.425719   -0.021301    0.368627
      3          1           0       -3.335952    0.870779    0.368629
      4          1           0       -3.315701   -0.970066    0.368586
      5          1           0       -0.868496   -0.950399    0.368608
      6          6           0       -0.638861    1.199740    0.368664
      7          6           0        0.696003    1.222988    0.368654
      8          1           0       -1.196083    2.128839    0.368708
      9          1           0        1.251122    2.148502    0.368687
     10          1           0        1.271370    0.307657    0.368612
 ---------------------------------------------------------------------
                    Distance matrix (angstroms):
                    1          2          3          4          5
     1  C    0.000000
     2  C    1.335066   0.000000
     3  H    1.081147   2.108268   0.000000
     4  H    1.079228   2.114754   1.840957   0.000000
     5  H    2.097749   1.083384   3.066762   2.447284   0.000000
     6  C    2.459667   1.452613   2.717078   3.445799   2.162367
     7  C    3.681662   2.459666   4.047309   4.572008   2.677923
     8  H    2.677926   2.162368   2.482288   3.754463   3.096614
     9  H    4.572008   3.445798   4.761704   5.530040   3.754461
    10  H    4.047307   2.717076   4.641607   4.761701   2.482284
                    6          7          8          9         10
     6  C    0.000000
     7  C    1.335066   0.000000
     8  H    1.083384   2.097749   0.000000
     9  H    2.114755   1.079228   2.447284   0.000000
    10  H    2.108268   1.081147   3.066762   1.840957   0.000000
 Stoichiometry    C4H6
 Framework group  C1[X(C4H6)]
 Deg. of freedom    24
 Full point group                 C1      NOp   1
 Largest Abelian subgroup         C1      NOp   1
 Largest concise Abelian subgroup C1      NOp   1
                         Standard orientation:                         
 ---------------------------------------------------------------------
 Center     Atomic      Atomic             Coordinates (Angstroms)
 Number     Number       Type             X           Y           Z
 ---------------------------------------------------------------------
      1          6           0        1.837617    0.108743    0.000025
      2          6           0        0.604416   -0.402743    0.000012
      3          1           0        1.999816    1.177654    0.000010
      4          1           0        2.716012   -0.518278    0.000054
      5          1           0        0.464350   -1.477035    0.000032
      6          6           0       -0.604417    0.402744   -0.000024
      7          6           0       -1.837616   -0.108743   -0.000014
      8          1           0       -0.464352    1.477036   -0.000068
      9          1           0       -2.716013    0.518276   -0.000047
     10          1           0       -1.999814   -1.177655    0.000028
 ---------------------------------------------------------------------
 Rotational constants (GHZ):          42.4393155           4.4653085           4.0402122
 Standard basis: CC-pVTZ (5D, 7F)
 There are   230 symmetry adapted cartesian basis functions of A   symmetry.
 There are   204 symmetry adapted basis functions of A   symmetry.
   204 basis functions,   310 primitive gaussians,   230 cartesian basis functions
    15 alpha electrons       15 beta electrons
       nuclear repulsion energy       104.0877598232 Hartrees.
 NAtoms=   10 NActive=   10 NUniq=   10 SFac= 1.00D+00 NAtFMM=   60 NAOKFM=F Big=F
 Integral buffers will be    131072 words long.
 Raffenetti 2 integral format.
 Two-electron integral symmetry is turned on.
 Nuclear repulsion after empirical dispersion term =      104.0829196923 Hartrees.
 One-electron integrals computed using PRISM.
 NBasis=   204 RedAO= T EigKep=  3.12D-04  NBF=   204
 NBsUse=   204 1.00D-06 EigRej= -1.00D+00 NBFU=   204
 Initial guess from the checkpoint file:  "/localscratch/339542/Gau-88861.chk"
 B after Tr=     0.000000   -0.000000    0.000000
         Rot=    1.000000   -0.000000   -0.000000   -0.000286 Ang=  -0.03 deg.
 Initial guess <Sx>= 0.0000 <Sy>= 0.0000 <Sz>= 0.0000 <S**2>=-0.0000 S=-0.0000
 ExpMin= 1.03D-01 ExpMax= 8.24D+03 ExpMxC= 2.81D+02 IAcc=3 IRadAn=         5 AccDes= 0.00D+00
 Harris functional with IExCor=  419 and IRadAn=       5 diagonalized for initial guess.
 HarFok:  IExCor=  419 AccDes= 0.00D+00 IRadAn=         5 IDoV= 1 UseB2=F ITyADJ=14
 ICtDFT=  3500011 ScaDFX=  1.000000  1.000000  1.000000  1.000000
 FoFCou: FMM=F IPFlag=           0 FMFlag=      100000 FMFlg1=           0
         NFxFlg=           0 DoJE=T BraDBF=F KetDBF=T FulRan=T
         wScrn=  0.000000 ICntrl=       500 IOpCl=  0 I1Cent=   200000004 NGrid=           0
         NMat0=    1 NMatS0=      1 NMatT0=    0 NMatD0=    1 NMtDS0=    0 NMtDT0=    0
 Petite list used in FoFCou.
 Keep R1 and R2 ints in memory in canonical form, NReq=479624292.
 Requested convergence on RMS density matrix=1.00D-08 within 128 cycles.
 Requested convergence on MAX density matrix=1.00D-06.
 Requested convergence on             energy=1.00D-06.
 No special actions if energy rises.
 Integral accuracy reduced to 1.0D-05 until final iterations.
 Initial convergence to 1.0D-05 achieved.  Increase integral accuracy.
 SCF Done:  E(UB2PLYPD3) =  -155.689159315     A.U. after    9 cycles
            NFock=  9  Conv=0.38D-08     -V/T= 2.0046
 <Sx>= 0.0000 <Sy>= 0.0000 <Sz>= 0.0000 <S**2>=-0.0000 S=-0.0000
 <L.S>=  0.00000000000    
 Annihilation of the first spin contaminant:
 S**2 before annihilation    -0.0000,   after     0.0000
 DoSCS=T DFT=T ScalE2(SS,OS)=  0.270000  0.270000
 ExpMin= 1.03D-01 ExpMax= 8.24D+03 ExpMxC= 2.81D+02 IAcc=3 IRadAn=         5 AccDes= 0.00D+00
 HarFok:  IExCor=  205 AccDes= 0.00D+00 IRadAn=         5 IDoV=-2 UseB2=F ITyADJ=14
 ICtDFT= 12500011 ScaDFX=  1.000000  1.000000  1.000000  1.000000
 Range of M.O.s used for correlation:     5   204
 NBasis=   204 NAE=    15 NBE=    15 NFC=     4 NFV=     0
 NROrb=    200 NOA=    11 NOB=    11 NVA=   189 NVB=   189

 **** Warning!!: The largest alpha MO coefficient is  0.14903445D+02


 **** Warning!!: The largest beta MO coefficient is  0.14903445D+02

 DoSCS=T DFT=T ScalE2(SS,OS)=  0.270000  0.270000
 Fully direct method using O(ONN) memory.
 JobTyp=2 Pass  1:  I=   5 to  15 NPSUse= 40 ParTrn=T ParDer=T DoDerP=T.
 JobTyp=3 Pass  1:  I=   5 to  15 NPSUse= 40 ParTrn=T ParDer=T DoDerP=T.
 Spin components of T(2) and E(2):
     alpha-alpha T2 =       0.4105078530D-01 E2=     -0.2465815411D-01
     alpha-beta  T2 =       0.2650327919D+00 E2=     -0.1647776522D+00
     beta-beta   T2 =       0.4105078530D-01 E2=     -0.2465815411D-01
 (S**2,0)=  0.00000D+00           (S**2,1)=  0.00000D+00
 E(PUHF)=      -0.15568915931D+03        E(PMP2)=      -0.15590325328D+03
 E2(B2PLYPD3) =    -0.2140939605D+00 E(B2PLYPD3) =    -0.15590325327523D+03
          IDoAtm=1111111111
          Differentiating once with respect to electric field.
                with respect to dipole field.
          Differentiating once with respect to nuclear coordinates.
 Keep R1 and R2 ints in memory in canonical form, NReq=479631582.
          There are     1 degrees of freedom in the 1st order CPHF.  IDoFFX=0 NUNeed=     1.
 LinEq1:  Iter=  0 NonCon=     1 RMS=7.10D-04 Max=1.64D-02 NDo=     1
 AX will form     1 AO Fock derivatives at one time.
 LinEq1:  Iter=  1 NonCon=     1 RMS=2.58D-04 Max=4.28D-03 NDo=     1
 LinEq1:  Iter=  2 NonCon=     1 RMS=7.52D-05 Max=2.81D-03 NDo=     1
 LinEq1:  Iter=  3 NonCon=     1 RMS=4.21D-05 Max=1.17D-03 NDo=     1
 LinEq1:  Iter=  4 NonCon=     1 RMS=1.06D-05 Max=2.53D-04 NDo=     1
 LinEq1:  Iter=  5 NonCon=     1 RMS=1.68D-06 Max=2.54D-05 NDo=     1
 LinEq1:  Iter=  6 NonCon=     1 RMS=1.85D-07 Max=3.64D-06 NDo=     1
 LinEq1:  Iter=  7 NonCon=     1 RMS=3.58D-08 Max=6.30D-07 NDo=     1
 LinEq1:  Iter=  8 NonCon=     1 RMS=7.24D-09 Max=1.07D-07 NDo=     1
 LinEq1:  Iter=  9 NonCon=     1 RMS=1.51D-09 Max=2.69D-08 NDo=     1
 LinEq1:  Iter= 10 NonCon=     1 RMS=2.05D-10 Max=4.39D-09 NDo=     1
 LinEq1:  Iter= 11 NonCon=     1 RMS=3.14D-11 Max=1.04D-09 NDo=     1
 LinEq1:  Iter= 12 NonCon=     0 RMS=1.90D-11 Max=4.57D-10 NDo=     1
 Linear equations converged to 1.000D-10 1.000D-09 after    12 iterations.
 End of Minotr F.D. properties file   721 does not exist.
 End of Minotr F.D. properties file   722 does not exist.
 End of Minotr F.D. properties file   788 does not exist.
 Calling FoFJK, ICntrl=  10002127 FMM=F ISym2X=0 I1Cent= 0 IOpClX= 1 NMat=1 NMatS=1 NMatT=0.
 ***** Axes restored to original set *****
 -------------------------------------------------------------------
 Center     Atomic                   Forces (Hartrees/Bohr)
 Number     Number              X              Y              Z
 -------------------------------------------------------------------
      1        6          -0.001111471   -0.000426198   -0.000000133
      2        6           0.000731077    0.000585444   -0.000000315
      3        1           0.000050385    0.000557774    0.000000203
      4        1           0.000435970   -0.000456050    0.000000043
      5        1          -0.000346445   -0.000832375   -0.000000086
      6        6          -0.000730910   -0.000585529    0.000000563
      7        6           0.001111314    0.000426309    0.000000063
      8        1           0.000346387    0.000832369   -0.000000276
      9        1          -0.000435957    0.000456046   -0.000000130
     10        1          -0.000050350   -0.000557791    0.000000068
 -------------------------------------------------------------------
 Cartesian Forces:  Max     0.001111471 RMS     0.000504551

 GradGradGradGradGradGradGradGradGradGradGradGradGradGradGradGradGradGrad
 Berny optimization.
 Using GEDIIS/GDIIS optimizer.
 FormGI is forming the generalized inverse of G from B-inverse, IUseBI=4.
 Internal  Forces:  Max     0.000940857 RMS     0.000441014
 Search for a local minimum.
 Step number   3 out of a maximum of  100
 All quantities printed in internal units (Hartrees-Bohrs-Radians)
 Mixed Optimization -- En-DIIS/RFO-DIIS
 Update second derivatives using D2CorX and points    1    2    3
 DE= -3.86D-04 DEPred=-3.59D-04 R= 1.07D+00
 TightC=F SS=  1.41D+00  RLast= 6.09D-02 DXNew= 8.4853D-01 1.8269D-01
 Trust test= 1.07D+00 RLast= 6.09D-02 DXMaxT set to 5.05D-01
 ITU=  1  1  0
 Use linear search instead of GDIIS.
     Eigenvalues ---    0.00237   0.01702   0.01702   0.03069   0.03069
     Eigenvalues ---    0.03069   0.03069   0.12011   0.16000   0.16000
     Eigenvalues ---    0.16000   0.16032   0.16222   0.21569   0.22000
     Eigenvalues ---    0.30066   0.33787   0.33875   0.33875   0.33875
     Eigenvalues ---    0.33888   0.37447   0.59353   0.60481
 RFO step:  Lambda=-2.07491306D-05 EMin= 2.36824262D-03
 Quartic linear search produced a step of  0.16867.
 Iteration  1 RMS(Cart)=  0.00432326 RMS(Int)=  0.00001272
 Iteration  2 RMS(Cart)=  0.00001253 RMS(Int)=  0.00000001
 Iteration  3 RMS(Cart)=  0.00000000 RMS(Int)=  0.00000001
 Variable       Old X    -DE/DX   Delta X   Delta X   Delta X     New X
                                 (Linear)    (Quad)   (Total)
    R1        2.52291   0.00063   0.00184  -0.00027   0.00158   2.52449
    R2        2.04307   0.00045  -0.00027   0.00132   0.00105   2.04412
    R3        2.03945   0.00017  -0.00047   0.00052   0.00004   2.03949
    R4        2.04730   0.00054   0.00018   0.00126   0.00145   2.04874
    R5        2.74504   0.00061  -0.00421   0.00421  -0.00001   2.74503
    R6        2.52291   0.00063   0.00184  -0.00027   0.00158   2.52449
    R7        2.04730   0.00054   0.00019   0.00126   0.00145   2.04874
    R8        2.03945   0.00017  -0.00048   0.00052   0.00004   2.03949
    R9        2.04307   0.00045  -0.00027   0.00132   0.00105   2.04412
    A1        2.11456  -0.00005  -0.00167   0.00090  -0.00077   2.11378
    A2        2.12848  -0.00060  -0.00072  -0.00374  -0.00446   2.12402
    A3        2.04015   0.00064   0.00239   0.00284   0.00523   2.04538
    A4        2.09361  -0.00094  -0.00455  -0.00269  -0.00723   2.08638
    A5        2.16065   0.00040   0.00202   0.00043   0.00245   2.16310
    A6        2.02892   0.00054   0.00252   0.00226   0.00478   2.03370
    A7        2.16065   0.00040   0.00202   0.00043   0.00245   2.16310
    A8        2.02892   0.00054   0.00252   0.00226   0.00478   2.03370
    A9        2.09361  -0.00094  -0.00455  -0.00269  -0.00723   2.08638
   A10        2.12848  -0.00060  -0.00072  -0.00374  -0.00446   2.12402
   A11        2.11456  -0.00005  -0.00167   0.00090  -0.00077   2.11378
   A12        2.04015   0.00064   0.00239   0.00284   0.00523   2.04538
    D1       -3.14159  -0.00000   0.00000  -0.00001  -0.00001   3.14159
    D2        0.00000  -0.00000  -0.00000  -0.00000  -0.00000  -0.00000
    D3       -0.00000   0.00000  -0.00000  -0.00000  -0.00000  -0.00000
    D4        3.14159   0.00000  -0.00000   0.00000   0.00000  -3.14159
    D5       -3.14157  -0.00000   0.00000  -0.00008  -0.00008   3.14153
    D6        0.00003  -0.00000   0.00000  -0.00010  -0.00009  -0.00007
    D7        0.00002  -0.00000   0.00000  -0.00008  -0.00008  -0.00006
    D8       -3.14157  -0.00000   0.00000  -0.00009  -0.00009   3.14153
    D9       -3.14159  -0.00000   0.00000  -0.00001  -0.00001   3.14159
   D10        0.00001  -0.00000   0.00000  -0.00001  -0.00001  -0.00000
   D11       -0.00000  -0.00000  -0.00000   0.00000   0.00000   0.00000
   D12        3.14159   0.00000  -0.00000   0.00000   0.00000  -3.14159
         Item               Value     Threshold  Converged?
 Maximum Force            0.000941     0.000450     NO 
 RMS     Force            0.000441     0.000300     NO 
 Maximum Displacement     0.012622     0.001800     NO 
 RMS     Displacement     0.004324     0.001200     NO 
 Predicted change in Energy=-1.884314D-05
 GradGradGradGradGradGradGradGradGradGradGradGradGradGradGradGradGradGrad

                          Input orientation:                          
 ---------------------------------------------------------------------
 Center     Atomic      Atomic             Coordinates (Angstroms)
 Number     Number       Type             X           Y           Z
 ---------------------------------------------------------------------
      1          6           0       -2.762435   -0.044900    0.368632
      2          6           0       -1.426754   -0.020631    0.368598
      3          1           0       -3.338079    0.870913    0.368695
      4          1           0       -3.312736   -0.973315    0.368600
      5          1           0       -0.875176   -0.953980    0.368538
      6          6           0       -0.637826    1.199068    0.368640
      7          6           0        0.697855    1.223338    0.368674
      8          1           0       -1.189404    2.132418    0.368637
      9          1           0        1.248156    2.151752    0.368699
     10          1           0        1.273499    0.307524    0.368676
 ---------------------------------------------------------------------
                    Distance matrix (angstroms):
                    1          2          3          4          5
     1  C    0.000000
     2  C    1.335901   0.000000
     3  H    1.081703   2.109032   0.000000
     4  H    1.079252   2.112945   1.844402   0.000000
     5  H    2.094796   1.084149   3.065310   2.437637   0.000000
     6  C    2.461995   1.452609   2.720120   3.445924   2.166091
     7  C    3.685381   2.461995   4.051292   4.572759   2.686101
     8  H    2.686101   2.166092   2.491626   3.762195   3.102352
     9  H    4.572759   3.445924   4.761734   5.528814   3.762195
    10  H    4.051291   2.720120   4.645865   4.761733   2.491625
                    6          7          8          9         10
     6  C    0.000000
     7  C    1.335901   0.000000
     8  H    1.084149   2.094796   0.000000
     9  H    2.112945   1.079252   2.437637   0.000000
    10  H    2.109031   1.081703   3.065310   1.844402   0.000000
 Stoichiometry    C4H6
 Framework group  C1[X(C4H6)]
 Deg. of freedom    24
 Full point group                 C1      NOp   1
 Largest Abelian subgroup         C1      NOp   1
 Largest concise Abelian subgroup C1      NOp   1
                         Standard orientation:                         
 ---------------------------------------------------------------------
 Center     Atomic      Atomic             Coordinates (Angstroms)
 Number     Number       Type             X           Y           Z
 ---------------------------------------------------------------------
      1          6           0        1.839417    0.109787    0.000005
      2          6           0        0.605234   -0.401510    0.000039
      3          1           0        2.001313    1.179305   -0.000058
      4          1           0        2.714768   -0.521518    0.000037
      5          1           0        0.472405   -1.477491    0.000099
      6          6           0       -0.605234    0.401510   -0.000003
      7          6           0       -1.839417   -0.109787   -0.000037
      8          1           0       -0.472406    1.477491   -0.000000
      9          1           0       -2.714768    0.521518   -0.000062
     10          1           0       -2.001313   -1.179306   -0.000039
 ---------------------------------------------------------------------
 Rotational constants (GHZ):          42.4417228           4.4575901           4.0339142
 Standard basis: CC-pVTZ (5D, 7F)
 There are   230 symmetry adapted cartesian basis functions of A   symmetry.
 There are   204 symmetry adapted basis functions of A   symmetry.
   204 basis functions,   310 primitive gaussians,   230 cartesian basis functions
    15 alpha electrons       15 beta electrons
       nuclear repulsion energy       104.0300553647 Hartrees.
 NAtoms=   10 NActive=   10 NUniq=   10 SFac= 1.00D+00 NAtFMM=   60 NAOKFM=F Big=F
 Integral buffers will be    131072 words long.
 Raffenetti 2 integral format.
 Two-electron integral symmetry is turned on.
 Nuclear repulsion after empirical dispersion term =      104.0252178966 Hartrees.
 One-electron integrals computed using PRISM.
 NBasis=   204 RedAO= T EigKep=  3.13D-04  NBF=   204
 NBsUse=   204 1.00D-06 EigRej= -1.00D+00 NBFU=   204
 Initial guess from the checkpoint file:  "/localscratch/339542/Gau-88861.chk"
 B after Tr=    -0.000000   -0.000000    0.000000
         Rot=    1.000000    0.000000    0.000000   -0.000264 Ang=   0.03 deg.
 Initial guess <Sx>= 0.0000 <Sy>= 0.0000 <Sz>= 0.0000 <S**2>=-0.0000 S=-0.0000
 Keep R1 and R2 ints in memory in canonical form, NReq=479624292.
 Requested convergence on RMS density matrix=1.00D-08 within 128 cycles.
 Requested convergence on MAX density matrix=1.00D-06.
 Requested convergence on             energy=1.00D-06.
 No special actions if energy rises.
 SCF Done:  E(UB2PLYPD3) =  -155.689130550     A.U. after    7 cycles
            NFock=  7  Conv=0.49D-08     -V/T= 2.0047
 <Sx>= 0.0000 <Sy>= 0.0000 <Sz>= 0.0000 <S**2>=-0.0000 S=-0.0000
 <L.S>=  0.00000000000    
 Annihilation of the first spin contaminant:
 S**2 before annihilation    -0.0000,   after    -0.0000
 DoSCS=T DFT=T ScalE2(SS,OS)=  0.270000  0.270000
 ExpMin= 1.03D-01 ExpMax= 8.24D+03 ExpMxC= 2.81D+02 IAcc=3 IRadAn=         5 AccDes= 0.00D+00
 HarFok:  IExCor=  205 AccDes= 0.00D+00 IRadAn=         5 IDoV=-2 UseB2=F ITyADJ=14
 ICtDFT= 12500011 ScaDFX=  1.000000  1.000000  1.000000  1.000000
 Range of M.O.s used for correlation:     5   204
 NBasis=   204 NAE=    15 NBE=    15 NFC=     4 NFV=     0
 NROrb=    200 NOA=    11 NOB=    11 NVA=   189 NVB=   189

 **** Warning!!: The largest alpha MO coefficient is  0.14817169D+02


 **** Warning!!: The largest beta MO coefficient is  0.14817169D+02

 DoSCS=T DFT=T ScalE2(SS,OS)=  0.270000  0.270000
 Fully direct method using O(ONN) memory.
 JobTyp=2 Pass  1:  I=   5 to  15 NPSUse= 40 ParTrn=T ParDer=T DoDerP=T.
 JobTyp=3 Pass  1:  I=   5 to  15 NPSUse= 40 ParTrn=T ParDer=T DoDerP=T.
 Spin components of T(2) and E(2):
     alpha-alpha T2 =       0.4108355553D-01 E2=     -0.2466252770D-01
     alpha-beta  T2 =       0.2653033421D+00 E2=     -0.1648176871D+00
     beta-beta   T2 =       0.4108355553D-01 E2=     -0.2466252770D-01
 (S**2,0)=  0.00000D+00           (S**2,1)=  0.00000D+00
 E(PUHF)=      -0.15568913055D+03        E(PMP2)=      -0.15590327329D+03
 E2(B2PLYPD3) =    -0.2141427425D+00 E(B2PLYPD3) =    -0.15590327329203D+03
          IDoAtm=1111111111
          Differentiating once with respect to electric field.
                with respect to dipole field.
          Differentiating once with respect to nuclear coordinates.
 Keep R1 and R2 ints in memory in canonical form, NReq=479631582.
          There are     1 degrees of freedom in the 1st order CPHF.  IDoFFX=0 NUNeed=     1.
 LinEq1:  Iter=  0 NonCon=     1 RMS=7.11D-04 Max=1.65D-02 NDo=     1
 AX will form     1 AO Fock derivatives at one time.
 LinEq1:  Iter=  1 NonCon=     1 RMS=2.59D-04 Max=4.29D-03 NDo=     1
 LinEq1:  Iter=  2 NonCon=     1 RMS=7.54D-05 Max=2.82D-03 NDo=     1
 LinEq1:  Iter=  3 NonCon=     1 RMS=4.23D-05 Max=1.18D-03 NDo=     1
 LinEq1:  Iter=  4 NonCon=     1 RMS=1.06D-05 Max=2.54D-04 NDo=     1
 LinEq1:  Iter=  5 NonCon=     1 RMS=1.68D-06 Max=2.55D-05 NDo=     1
 LinEq1:  Iter=  6 NonCon=     1 RMS=1.87D-07 Max=3.67D-06 NDo=     1
 LinEq1:  Iter=  7 NonCon=     1 RMS=3.65D-08 Max=6.38D-07 NDo=     1
 LinEq1:  Iter=  8 NonCon=     1 RMS=7.36D-09 Max=1.09D-07 NDo=     1
 LinEq1:  Iter=  9 NonCon=     1 RMS=1.52D-09 Max=2.71D-08 NDo=     1
 LinEq1:  Iter= 10 NonCon=     1 RMS=2.05D-10 Max=4.42D-09 NDo=     1
 LinEq1:  Iter= 11 NonCon=     0 RMS=2.01D-11 Max=3.24D-10 NDo=     1
 Linear equations converged to 1.000D-10 1.000D-09 after    11 iterations.
 End of Minotr F.D. properties file   721 does not exist.
 End of Minotr F.D. properties file   722 does not exist.
 End of Minotr F.D. properties file   788 does not exist.
 Calling FoFJK, ICntrl=  10002127 FMM=F ISym2X=0 I1Cent= 0 IOpClX= 1 NMat=1 NMatS=1 NMatT=0.
 ***** Axes restored to original set *****
 -------------------------------------------------------------------
 Center     Atomic                   Forces (Hartrees/Bohr)
 Number     Number              X              Y              Z
 -------------------------------------------------------------------
      1        6          -0.000061234    0.000219966   -0.000000269
      2        6          -0.000114228   -0.000070182    0.000000294
      3        1          -0.000004221    0.000015853   -0.000000208
      4        1           0.000069402   -0.000151181    0.000000053
      5        1           0.000031438   -0.000027554    0.000000372
      6        6           0.000114292    0.000070326   -0.000000516
      7        6           0.000061200   -0.000220154   -0.000000425
      8        1          -0.000031480    0.000027515    0.000000581
      9        1          -0.000069416    0.000151220    0.000000249
[...]
 Vib (V=0)    1  0.176860D+01          0.247630          0.570190
 Vib (V=0)    2  0.131465D+01          0.118809          0.273569
 Vib (V=0)    3  0.108924D+01          0.037122          0.085477
 Vib (V=0)    4  0.107846D+01          0.032804          0.075534
 Electronic      0.100000D+01          0.000000          0.000000
 Translational   0.156175D+08          7.193611         16.563901
 Rotational      0.314165D+05          4.497158         10.355089
 ***** Axes restored to original set *****
 -------------------------------------------------------------------
 Center     Atomic                   Forces (Hartrees/Bohr)
 Number     Number              X              Y              Z
 -------------------------------------------------------------------
      1        6          -0.000061203    0.000219950   -0.000000267
      2        6          -0.000114218   -0.000070196    0.000000293
      3        1          -0.000004232    0.000015865   -0.000000207
      4        1           0.000069398   -0.000151179    0.000000053
      5        1           0.000031425   -0.000027539    0.000000371
      6        6           0.000114281    0.000070339   -0.000000518
      7        6           0.000061170   -0.000220138   -0.000000424
      8        1          -0.000031466    0.000027499    0.000000579
      9        1          -0.000069411    0.000151218    0.000000249
     10        1           0.000004257   -0.000015821   -0.000000131
 -------------------------------------------------------------------
 Cartesian Forces:  Max     0.000220138 RMS     0.000081587
 FormGI is forming the generalized inverse of G from B-inverse, IUseBI=4.

 GradGradGradGradGradGradGradGradGradGradGradGradGradGradGradGradGradGrad
 Berny optimization.
 Internal  Forces:  Max     0.000182593 RMS     0.000063118
 Search for a local minimum.
 Step number   1 out of a maximum of    2
 All quantities printed in internal units (Hartrees-Bohrs-Radians)
 Second derivative matrix not updated -- analytic derivatives used.
 ITU=  0
     Eigenvalues ---    0.00737   0.02360   0.02406   0.02996   0.03247
     Eigenvalues ---    0.03922   0.04096   0.10466   0.10622   0.10953
     Eigenvalues ---    0.11144   0.11641   0.13549   0.15706   0.18976
     Eigenvalues ---    0.34721   0.35386   0.35728   0.36094   0.36170
     Eigenvalues ---    0.36647   0.36686   0.60164   0.60850
 Angle between quadratic step and forces=  17.39 degrees.
 Linear search not attempted -- first point.
 Iteration  1 RMS(Cart)=  0.00074293 RMS(Int)=  0.00000050
 Iteration  2 RMS(Cart)=  0.00000056 RMS(Int)=  0.00000000
 Variable       Old X    -DE/DX   Delta X   Delta X   Delta X     New X
                                 (Linear)    (Quad)   (Total)
    R1        2.52449  -0.00001   0.00000   0.00001   0.00001   2.52450
    R2        2.04412   0.00002   0.00000  -0.00003  -0.00003   2.04409
    R3        2.03949   0.00009   0.00000   0.00028   0.00028   2.03977
    R4        2.04874   0.00004   0.00000   0.00012   0.00012   2.04886
    R5        2.74503   0.00005   0.00000   0.00016   0.00016   2.74520
    R6        2.52449  -0.00001   0.00000   0.00001   0.00001   2.52450
    R7        2.04874   0.00004   0.00000   0.00012   0.00012   2.04886
    R8        2.03949   0.00009   0.00000   0.00028   0.00028   2.03977
    R9        2.04412   0.00002   0.00000  -0.00003  -0.00003   2.04409
    A1        2.11378   0.00009   0.00000   0.00068   0.00068   2.11447
    A2        2.12402  -0.00018   0.00000  -0.00158  -0.00158   2.12244
    A3        2.04538   0.00010   0.00000   0.00090   0.00090   2.04627
    A4        2.08638  -0.00001   0.00000  -0.00016  -0.00016   2.08622
    A5        2.16310   0.00005   0.00000   0.00037   0.00037   2.16347
    A6        2.03370  -0.00004   0.00000  -0.00021  -0.00021   2.03349
    A7        2.16310   0.00005   0.00000   0.00037   0.00037   2.16347
    A8        2.03370  -0.00004   0.00000  -0.00021  -0.00021   2.03349
    A9        2.08638  -0.00001   0.00000  -0.00016  -0.00016   2.08622
   A10        2.12402  -0.00018   0.00000  -0.00158  -0.00158   2.12244
   A11        2.11378   0.00009   0.00000   0.00069   0.00069   2.11447
   A12        2.04538   0.00010   0.00000   0.00090   0.00090   2.04627
    D1        3.14159   0.00000   0.00000   0.00000   0.00000  -3.14159
    D2       -0.00000   0.00000   0.00000   0.00000   0.00000   0.00000
    D3       -0.00000   0.00000   0.00000   0.00000   0.00000   0.00000
    D4       -3.14159   0.00000   0.00000  -0.00000  -0.00000   3.14159
    D5        3.14153   0.00000   0.00000   0.00006   0.00006  -3.14159
    D6       -0.00007   0.00000   0.00000   0.00007   0.00007   0.00000
    D7       -0.00006   0.00000   0.00000   0.00006   0.00006   0.00000
    D8        3.14153   0.00000   0.00000   0.00007   0.00007  -3.14159
    D9        3.14159   0.00000   0.00000   0.00001   0.00001   3.14159
   D10       -0.00000   0.00000   0.00000   0.00000   0.00000  -0.00000
   D11        0.00000   0.00000   0.00000  -0.00000  -0.00000   0.00000
   D12       -3.14159   0.00000   0.00000  -0.00000  -0.00000   3.14159
         Item               Value     Threshold  Converged?
 Maximum Force            0.000183     0.000450     YES
 RMS     Force            0.000063     0.000300     YES
 Maximum Displacement     0.001599     0.001800     YES
 RMS     Displacement     0.000743     0.001200     YES
 Predicted change in Energy=-4.951623D-07
 Optimization completed.
    -- Stationary point found.
                           ----------------------------
                           !   Optimized Parameters   !
                           ! (Angstroms and Degrees)  !
 --------------------------                            --------------------------
 ! Name  Definition              Value          Derivative Info.                !
 --------------------------------------------------------------------------------
 ! R1    R(1,2)                  1.3359         -DE/DX =    0.0                 !
 ! R2    R(1,3)                  1.0817         -DE/DX =    0.0                 !
 ! R3    R(1,4)                  1.0793         -DE/DX =    0.0001              !
 ! R4    R(2,5)                  1.0841         -DE/DX =    0.0                 !
 ! R5    R(2,6)                  1.4526         -DE/DX =    0.0001              !
 ! R6    R(6,7)                  1.3359         -DE/DX =    0.0                 !
 ! R7    R(6,8)                  1.0841         -DE/DX =    0.0                 !
 ! R8    R(7,9)                  1.0793         -DE/DX =    0.0001              !
 ! R9    R(7,10)                 1.0817         -DE/DX =    0.0                 !
 ! A1    A(2,1,3)              121.1109         -DE/DX =    0.0001              !
 ! A2    A(2,1,4)              121.6976         -DE/DX =   -0.0002              !
 ! A3    A(3,1,4)              117.1915         -DE/DX =    0.0001              !
 ! A4    A(1,2,5)              119.5407         -DE/DX =    0.0                 !
 ! A5    A(1,2,6)              123.9366         -DE/DX =    0.0                 !
 ! A6    A(5,2,6)              116.5227         -DE/DX =    0.0                 !
 ! A7    A(2,6,7)              123.9366         -DE/DX =    0.0                 !
 ! A8    A(2,6,8)              116.5227         -DE/DX =    0.0                 !
 ! A9    A(7,6,8)              119.5407         -DE/DX =    0.0                 !
 ! A10   A(6,7,9)              121.6976         -DE/DX =   -0.0002              !
 ! A11   A(6,7,10)             121.1109         -DE/DX =    0.0001              !
 ! A12   A(9,7,10)             117.1915         -DE/DX =    0.0001              !
 ! D1    D(3,1,2,5)           -180.0002         -DE/DX =    0.0                 !
 ! D2    D(3,1,2,6)             -0.0001         -DE/DX =    0.0                 !
 ! D3    D(4,1,2,5)              0.0            -DE/DX =    0.0                 !
 ! D4    D(4,1,2,6)            180.0001         -DE/DX =    0.0                 !
 ! D5    D(1,2,6,7)           -180.0035         -DE/DX =    0.0                 !
 ! D6    D(1,2,6,8)             -0.0038         -DE/DX =    0.0                 !
 ! D7    D(5,2,6,7)             -0.0034         -DE/DX =    0.0                 !
 ! D8    D(5,2,6,8)           -180.0037         -DE/DX =    0.0                 !
 ! D9    D(2,6,7,9)            179.9997         -DE/DX =    0.0                 !
 ! D10   D(2,6,7,10)            -0.0002         -DE/DX =    0.0                 !
 ! D11   D(8,6,7,9)              0.0            -DE/DX =    0.0                 !
 ! D12   D(8,6,7,10)           180.0001         -DE/DX =    0.0                 !
 --------------------------------------------------------------------------------
 GradGradGradGradGradGradGradGradGradGradGradGradGradGradGradGradGradGrad


 ----------------------------------------------------------------------

 Electric dipole moment (input orientation):
 (Debye = 10**-18 statcoulomb cm , SI units = C m)
                  (au)            (Debye)         (10**-30 SI)
   Tot        0.000000D+00      0.000000D+00      0.000000D+00
   x          0.000000D+00      0.000000D+00      0.000000D+00
   y          0.000000D+00      0.000000D+00      0.000000D+00
   z          0.000000D+00      0.000000D+00      0.000000D+00

 Dipole polarizability, Alpha (input orientation).
 (esu units = cm**3 , SI units = C**2 m**2 J**-1)
 Alpha(0;0):
               (au)            (10**-24 esu)      (10**-40 SI)
   iso        0.504091D+02      0.746985D+01      0.831133D+01
   aniso      0.497461D+02      0.737162D+01      0.820203D+01
   xx         0.796036D+02      0.117960D+02      0.131249D+02
   yx         0.102129D+02      0.151340D+01      0.168388D+01
   yy         0.448310D+02      0.664327D+01      0.739164D+01
   zx         0.333716D-03      0.494516D-04      0.550223D-04
   zy         0.585051D-03      0.866955D-04      0.964618D-04
   zz         0.267925D+02      0.397024D+01      0.441749D+01

 ----------------------------------------------------------------------

 Dipole orientation:
     6         -5.24258055          0.07302673         -0.50342945
     6         -2.72023876          0.02624915         -0.59637936
     1         -6.32900800         -1.65687739         -0.42898815
     1         -6.28242031          1.82751795         -0.49922918
     1         -1.67927104          1.78930101         -0.66978652
     6         -1.22957169         -2.27874946         -0.60653635
     6          1.29276540         -2.32552985         -0.69961422
     1         -2.27053432         -4.04179945         -0.53301048
     1          2.33260634         -4.08002027         -0.70380242
     1          2.37918746         -0.59562747         -0.77417770

 Electric dipole moment (dipole orientation):
 (Debye = 10**-18 statcoulomb cm , SI units = C m)
                  (au)            (Debye)         (10**-30 SI)
   Tot        0.000000D+00      0.000000D+00      0.000000D+00
   x          0.000000D+00      0.000000D+00      0.000000D+00
   y          0.000000D+00      0.000000D+00      0.000000D+00
   z          0.000000D+00      0.000000D+00      0.000000D+00

 Dipole polarizability, Alpha (dipole orientation).
 (esu units = cm**3 , SI units = C**2 m**2 J**-1)
 Alpha(0;0):
               (au)            (10**-24 esu)      (10**-40 SI)
   iso        0.504091D+02      0.746985D+01      0.831133D+01
   aniso      0.497461D+02      0.737162D+01      0.820203D+01
   xx         0.795380D+02      0.117863D+02      0.131140D+02
   yx        -0.102298D+02     -0.151590D+01     -0.168667D+01
   yy         0.448316D+02      0.664335D+01      0.739172D+01
   zx        -0.176300D+01     -0.261249D+00     -0.290679D+00
   zy         0.259703D-01      0.384839D-02      0.428192D-02
   zz         0.268577D+02      0.397990D+01      0.442823D+01

 ----------------------------------------------------------------------
 1\1\GINC-N68\Freq\UB2PLYPD3-FC\CC-pVTZ\C4H6\ROOT\31-May-2019\0\\#N Geo
 m=AllCheck Guess=TCheck SCRF=Check GenChk UB2PLYPD3(FC)/CC-pVTZ Freq\\
 Title Card Required\\0,1\C,-2.7624345922,-0.0449002635,0.3686317085\C,
 -1.426753931,-0.0206308745,0.3685980757\H,-3.3380792633,0.8709130434,0
 .3686945994\H,-3.3127360536,-0.9733148217,0.3686000045\H,-0.8751756487
 ,-0.953979847,0.368538057\C,-0.6378260741,1.1990684961,0.3686398027\C,
 0.6978546178,1.2233380335,0.3686739485\H,-1.1894040054,2.1324177108,0.
 3686369374\H,1.2481564669,2.1517522963,0.3686992378\H,1.2734988437,0.3
 075243766,0.3686757785\\Version=ES64L-G16RevB.01\State=1-A\HF=-155.689
 1305\MP2=-155.9032733\PUHF=-155.6891305\PMP2-0=-155.9032733\S2=0.\S2-1
 =0.\S2A=0.\RMSD=8.044e-10\RMSF=8.159e-05\ZeroPoint=0.0853999\Thermal=0
 .0900468\Dipole=0.,0.,-0.0000015\DipoleDeriv=-0.1419009,-0.0681089,-0.
 0000094,-0.1181081,0.0750387,0.0000179,-0.000011,0.0000209,-0.2919177,
 0.1181136,0.0045965,-0.0000102,0.0837564,0.1172207,0.0000147,0.0000139
 ,0.0000213,-0.1203208,0.0217864,0.0233266,0.0000048,0.0817048,-0.07062
 54,-0.0000124,0.0000095,-0.0000105,0.1436909,0.0129079,-0.0357368,0.00
 00013,-0.0744536,-0.0502434,-0.0000074,-0.0000049,-0.0000103,0.1356921
 ,-0.0109069,0.0759226,0.0000065,0.0271006,-0.0713904,-0.0000108,0.0000
 04,-0.0000108,0.1328554,0.1181135,0.0045964,0.0000111,0.0837563,0.1172
 207,0.0000008,-0.0000048,-0.000006,-0.1203208,-0.1419009,-0.068109,0.0
 000041,-0.1181084,0.0750387,0.0000056,-0.000002,0.0000015,-0.2919177,-
 0.010907,0.0759226,-0.0000018,0.0271007,-0.0713906,-0.0000024,-0.00000
 34,-0.0000016,0.1328555,0.012908,-0.0357368,-0.0000034,-0.0744535,-0.0
 502433,-0.0000046,0.0000015,-0.0000009,0.1356922,0.0217863,0.0233266,-
 0.000003,0.0817049,-0.0706256,-0.0000014,-0.0000029,-0.0000036,0.14369
 09\Polar=79.6036273,10.2129288,44.831037,0.0003337,0.0005851,26.792517
 5\PG=C01 [X(C4H6)]\NImag=0\\0.82685248,0.01297578,0.65267078,-0.000018
 67,0.00002729,0.10599667,-0.52176766,-0.00316780,0.00001261,0.83006306
 ,0.00667409,-0.11632931,-0.00000290,-0.03661408,0.61943857,0.00001243,
 -0.00000276,-0.05008708,-0.00001759,0.00002410,0.13289752,-0.13402614,
 0.12152118,0.00000898,-0.01362724,0.03038111,0.00000200,0.14078637,0.1
 2633039,-0.26294639,-0.00001508,-0.00122855,0.00208830,-0.00000012,-0.
 13783876,0.27317727,0.00000932,-0.00001498,-0.03481095,0.00000052,-0.0
 0000094,0.00519213,-0.00001027,0.00001656,0.02294750,-0.12851975,-0.12
 126951,-0.00000343,-0.01175442,-0.03034521,-0.00000104,0.01005439,0.01
 437123,0.00000048,0.13425332,-0.12690945,-0.27571222,-0.00000868,0.004
 04958,0.00343115,-0.00000019,-0.01344946,-0.01559230,-0.00000052,0.136
 36475,0.28514404,-0.00000376,-0.00000893,-0.03359197,0.00000047,0.0000
 0072,0.00463538,-0.00000088,-0.00000132,0.00240822,0.00000377,0.000009
 46,0.02266886,-0.01428281,0.03036392,0.00000201,-0.12616028,0.11706137
 ,0.00000764,-0.00511567,-0.00059378,0.00000043,0.00125445,-0.00038326,
 -0.00000026,0.13496011,-0.00265869,0.00325113,-0.00000005,0.11934074,-
 0.26130918,-0.00001404,-0.00085408,0.00131256,-0.00000046,0.00019763,0
 .00115788,0.00000041,-0.12833540,0.27779830,0.00000068,-0.00000088,0.0
 0576624,0.00000735,-0.00001443,-0.04146982,0.00000039,-0.00000048,0.01
 129662,-0.00000021,0.00000044,-0.00732268,-0.00000904,0.00001550,0.026
 89393,-0.03839098,-0.03609131,-0.00000121,-0.12461255,-0.06021780,-0.0
 0000252,0.00162536,-0.00166490,-0.00000036,-0.00476247,0.00011886,0.00
 000050,0.00938717,0.01547524,0.00000120,0.83006287,-0.01601720,0.00324
 918,-0.00000019,-0.06021779,-0.23127828,-0.00000598,0.00196679,0.00139
 909,0.00000025,0.00255031,0.00086273,-0.00000050,-0.01543940,-0.021552
 28,-0.00000025,-0.03661398,0.61943864,-0.00000024,0.00000049,0.0059570
 1,-0.00000174,-0.00000518,-0.06496247,-0.00000026,0.00000047,-0.008005
 29,0.00000052,-0.00000058,0.01278187,-0.00000078,-0.00000118,0.0030607
 5,0.00001576,0.00000707,0.13289753,0.00861471,-0.00148961,-0.00000011,
 -0.03839098,-0.01601719,-0.00000077,0.00012585,-0.00013472,-0.00000006
 ,-0.00008793,0.00001914,0.00000005,0.00148222,0.00121027,-0.00000015,-
 0.52176755,0.00667404,-0.00001184,0.82685236,-0.00148960,-0.00606732,-
 0.00000033,-0.03609129,0.00324918,-0.00000065,-0.00040769,0.00028714,-
 0.00000006,-0.00173212,0.00022510,0.00000019,-0.00070285,0.00137191,0.
 00000009,-0.00316784,-0.11632932,-0.00000154,0.01297608,0.65267082,0.0
 0000001,-0.00000023,0.00213084,-0.00000121,0.,0.00595701,0.,0.,0.00006
 425,-0.00000004,0.00000004,-0.00021080,0.00000005,0.00000022,-0.001214
 21,-0.00001239,-0.00000133,-0.05008709,0.00001841,0.00000776,0.1059966
 7,0.00148222,-0.00070284,-0.00000010,0.00938717,-0.01543940,-0.0000001
 9,-0.00009442,0.00073849,0.,0.00005461,0.00024885,0.00000004,-0.001485
 39,-0.00295794,-0.00000012,-0.12616019,0.11706128,-0.00000051,-0.01428
 282,0.03036394,-0.00000009,0.13496003,0.00121027,0.00137191,-0.0000000
 6,0.01547524,-0.02155225,-0.00000034,-0.00116272,0.00047076,0.00000016
 ,-0.00025504,0.00048319,-0.00000005,-0.00295794,-0.00298429,-0.0000000
 4,0.11934066,-0.26130921,0.00000041,-0.00265868,0.00325111,-0.00000010
 ,-0.12833533,0.27779833,0.00000023,0.00000008,-0.00121421,-0.00000018,
 -0.00000144,0.00306075,0.,0.00000001,0.00024173,0.,0.,-0.00020861,-0.0
 0000008,-0.00000037,0.00295605,-0.00000017,0.00000101,-0.04146984,-0.0
 0000081,0.00000072,0.00576625,0.00000121,0.00000006,0.02689394,-0.0000
 8793,-0.00173212,-0.00000008,-0.00476247,0.00255031,-0.00000032,0.0000
 1695,0.00010615,-0.00000002,-0.00050915,0.00001181,0.00000009,0.000054
 61,-0.00025504,-0.00000002,-0.01175440,-0.03034518,-0.00000091,-0.1285
 1988,-0.12126965,-0.00000393,0.00125445,0.00019763,0.00000020,0.134253
 43,0.00001914,0.00022510,-0.00000001,0.00011886,0.00086273,-0.00000016
 ,-0.00007083,-0.00000777,0.,0.00001181,0.00000820,0.00000002,0.0002488
 5,0.00048320,0.00000004,0.00404959,0.00343116,0.00000012,-0.12690958,-
 0.27571222,-0.00000633,-0.00038326,0.00115788,0.00000009,0.13636488,0.
 28514402,-0.00000007,-0.00000016,-0.00021080,-0.00000049,-0.00000029,0
 .01278187,0.,-0.00000001,0.00025869,-0.00000009,0.00000006,-0.00141896
 ,-0.00000002,0.00000010,-0.00020861,-0.00000023,-0.00000076,0.00463538
 ,-0.00000391,-0.00000597,-0.03359194,0.00000025,0.00000012,-0.00732268
 ,0.00000457,0.00000681,0.02266885,0.00012585,-0.00040769,-0.00000002,0
 .00162536,0.00196679,0.00000036,0.00025454,-0.00008553,-0.00000005,0.0
 0001695,-0.00007083,0.,-0.00009442,-0.00116272,-0.00000007,-0.01362726
 ,0.03038113,-0.00000002,-0.13402598,0.12152104,-0.00000080,-0.00511568
 ,-0.00085408,-0.00000041,0.01005439,-0.01344947,-0.00000002,0.14078624
 ,-0.00013472,0.00028714,0.00000002,-0.00166491,0.00139909,0.00000014,-
 0.00008553,-0.00018867,0.,0.00010615,-0.00000777,0.,0.00073849,0.00047
 076,0.,-0.00122854,0.00208828,-0.00000007,0.12633025,-0.26294642,-0.00
 000002,-0.00059378,0.00131257,-0.00000018,0.01437122,-0.01559230,0.000
 00011,-0.13783863,0.27317731,0.00000006,0.00000008,0.00006425,0.000000
 26,0.00000037,-0.00800529,0.00000004,-0.00000003,0.00040710,0.00000003
 ,-0.00000002,0.00025869,0.00000005,-0.00000014,0.00024173,-0.00000058,
 0.00000069,0.00519214,-0.00000082,-0.00000021,-0.03481098,-0.00000048,
 -0.00000016,0.01129662,0.00000042,-0.00000060,0.00240821,0.00000102,0.
 00000002,0.02294751\\0.00006120,-0.00021995,0.00000027,0.00011422,0.00
 007020,-0.00000029,0.00000423,-0.00001587,0.00000021,-0.00006940,0.000
 15118,-0.00000005,-0.00003142,0.00002754,-0.00000037,-0.00011428,-0.00
 007034,0.00000052,-0.00006117,0.00022014,0.00000042,0.00003147,-0.0000
 2750,-0.00000058,0.00006941,-0.00015122,-0.00000025,-0.00000426,0.0000
 1582,0.00000013\\\@


    THE DOUGHNUT CREED
 AS YOU RAMBLE ON THROUGH LIFE, BROTHER
 WHATEVER BE YOUR GOAL
 KEEP YOUR EYE UPON THE DOUGHNUT
 AND NOT UPON THE HOLE.
 Job cpu time:       0 days  5 hours 46 minutes  5.3 seconds.
 Elapsed time:       0 days  0 hours  8 minutes 54.4 seconds.
 File lengths (MBytes):  RWF=  11250 Int=      0 D2E=      0 Chk=      8 Scr=      1
 Normal termination of Gaussian 16 at Fri May 31 16:45:05 2019.
