 Entering Gaussian System, Link 0=g16
 Initial command:
 /ichec/packages/gaussian/16b01/l1.exe "/localscratch/339542/Gau-36541.inp" -scrdir="/localscratch/339542/"
 Entering Link 1 = /ichec/packages/gaussian/16b01/l1.exe PID=     36570.
  
 Copyright (c) 1988-2017, Gaussian, Inc.  All Rights Reserved.
  
 This is part of the Gaussian(R) 16 program.  It is based on
 the Gaussian(R) 09 system (copyright 2009, Gaussian, Inc.),
 the Gaussian(R) 03 system (copyright 2003, Gaussian, Inc.),
 the Gaussian(R) 98 system (copyright 1998, Gaussian, Inc.),
 the Gaussian(R) 94 system (copyright 1995, Gaussian, Inc.),
 the Gaussian 92(TM) system (copyright 1992, Gaussian, Inc.),
 the Gaussian 90(TM) system (copyright 1990, Gaussian, Inc.),
 the Gaussian 88(TM) system (copyright 1988, Gaussian, Inc.),
 the Gaussian 86(TM) system (copyright 1986, Carnegie Mellon
 University), and the Gaussian 82(TM) system (copyright 1983,
 Carnegie Mellon University). Gaussian is a federally registered
 trademark of Gaussian, Inc.
  
 This software contains proprietary and confidential information,
 including trade secrets, belonging to Gaussian, Inc.
  
 This software is provided under written license and may be
 used, copied, transmitted, or stored only in accord with that
 written license.
  
 The following legend is applicable only to US Government
 contracts under FAR:
  
                    RESTRICTED RIGHTS LEGEND
  
 Use, reproduction and disclosure by the US Government is
 subject to restrictions as set forth in subparagraphs (a)
 and (c) of the Commercial Computer Software - Restricted
 Rights clause in FAR 52.227-19.
  
 Gaussian, Inc.
 340 Quinnipiac St., Bldg. 40, Wallingford CT 06492
  
  
 ---------------------------------------------------------------
 Warning -- This program may not be used in any manner that
 competes with the business of Gaussian, Inc. or will provide
 assistance to any competitor of Gaussian, Inc.  The licensee
 of this program is prohibited from giving any competitor of
 Gaussian, Inc. access to this program.  By using this program,
 the user acknowledges that Gaussian, Inc. is engaged in the
 business of creating and licensing software in the field of
 computational chemistry and represents and warrants to the
 licensee that it is not a competitor of Gaussian, Inc. and that
 it will not use this program in any manner prohibited above.
 ---------------------------------------------------------------
  

 Cite this work as:
 Gaussian 16, Revision B.01,
 M. J. Frisch, G. W. Trucks, H. B. Schlegel, G. E. Scuseria, 
 M. A. Robb, J. R. Cheeseman, G. Scalmani, V. Barone, 
 G. A. Petersson, H. Nakatsuji, X. Li, M. Caricato, A. V. Marenich, 
 J. Bloino, B. G. Janesko, R. Gomperts, B. Mennucci, H. P. Hratchian, 
 J. V. Ortiz, A. F. Izmaylov, J. L. Sonnenberg, D. Williams-Young, 
 F. Ding, F. Lipparini, F. Egidi, J. Goings, B. Peng, A. Petrone, 
 T. Henderson, D. Ranasinghe, V. G. Zakrzewski, J. Gao, N. Rega, 
 G. Zheng, W. Liang, M. Hada, M. Ehara, K. Toyota, R. Fukuda, 
 J. Hasegawa, M. Ishida, T. Nakajima, Y. Honda, O. Kitao, H. Nakai, 
 T. Vreven, K. Throssell, J. A. Montgomery, Jr., J. E. Peralta, 
 F. Ogliaro, M. J. Bearpark, J. J. Heyd, E. N. Brothers, K. N. Kudin, 
 V. N. Staroverov, T. A. Keith, R. Kobayashi, J. Normand, 
 K. Raghavachari, A. P. Rendell, J. C. Burant, S. S. Iyengar, 
 J. Tomasi, M. Cossi, J. M. Millam, M. Klene, C. Adamo, R. Cammi, 
 J. W. Ochterski, R. L. Martin, K. Morokuma, O. Farkas, 
 J. B. Foresman, and D. J. Fox, Gaussian, Inc., Wallingford CT, 2016.
 
 ******************************************
 Gaussian 16:  ES64L-G16RevB.01 20-Dec-2017
                31-May-2019 
 ******************************************
 %mem=80GB
 %nproc=40
 Will use up to   40 processors via shared memory.
 -----------------------------------------------
 # opt=maxcyc=500 freq=noraman uB2PLYPD3/cc-pvtz
 -----------------------------------------------
 1/6=500,18=20,19=15,38=1/1,3;
 2/9=110,12=2,17=6,18=5,40=1/2;
 3/5=16,6=1,11=2,25=1,30=1,71=1,74=-60,116=2/1,2,3;
 4//1;
 5/5=2,38=5/2;
 8/6=4,10=1/1;
 9/15=2,16=-3/6;
 10/5=1/2;
 6/7=2,8=2,9=2,10=2/1;
 7/12=2/1,2,3,16;
 1/6=500,18=20,19=15/3(2);
 2/9=110/2;
 99//99;
 2/9=110/2;
 3/5=16,6=1,11=2,25=1,30=1,71=1,74=-60,116=2/1,2,3;
 4/5=5,16=3,69=1/1;
 5/5=2,38=5/2;
 8/6=4,10=1/1;
 9/15=2,16=-3/6;
 10/5=1/2;
 7/12=2/1,2,3,16;
 1/6=500,18=20,19=15/3(-8);
 2/9=110/2;
 6/7=2,8=2,9=2,10=2/1;
 99/9=10/99;
 -------------------
 Title Card Required
 -------------------
 Symbolic Z-matrix:
 Charge =  0 Multiplicity = 2
 C                    -2.77439  -0.0586    0.36862 
 C                    -1.44848  -0.0586    0.36862 
 C                    -0.6161    1.23707   0.36866 
 C                     0.70981   1.23702   0.36866 
 H                    -1.20968   2.1611    0.36871 
 H                     1.30343   2.16104   0.3687 
 H                     1.3034    0.31298   0.36861 
 H                    -3.30939  -0.98525   0.36862 
 H                    -3.30939   0.86805   0.36862 
 

 GradGradGradGradGradGradGradGradGradGradGradGradGradGradGradGradGradGrad
 Berny optimization.
 Initialization pass.
                           ----------------------------
                           !    Initial Parameters    !
                           ! (Angstroms and Degrees)  !
 --------------------------                            --------------------------
 ! Name  Definition              Value          Derivative Info.                !
 --------------------------------------------------------------------------------
 ! R1    R(1,2)                  1.3259         estimate D2E/DX2                !
 ! R2    R(1,8)                  1.07           estimate D2E/DX2                !
 ! R3    R(1,9)                  1.07           estimate D2E/DX2                !
 ! R4    R(2,3)                  1.54           estimate D2E/DX2                !
 ! R5    R(3,4)                  1.3259         estimate D2E/DX2                !
 ! R6    R(3,5)                  1.0983         estimate D2E/DX2                !
 ! R7    R(4,6)                  1.0983         estimate D2E/DX2                !
 ! R8    R(4,7)                  1.0983         estimate D2E/DX2                !
 ! A1    A(2,1,8)              120.0            estimate D2E/DX2                !
 ! A2    A(2,1,9)              120.0            estimate D2E/DX2                !
 ! A3    A(8,1,9)              120.0            estimate D2E/DX2                !
 ! A4    A(1,2,3)              122.718          estimate D2E/DX2                !
 ! A5    A(2,3,4)              122.7159         estimate D2E/DX2                !
 ! A6    A(2,3,5)              114.5661         estimate D2E/DX2                !
 ! A7    A(4,3,5)              122.718          estimate D2E/DX2                !
 ! A8    A(3,4,6)              122.7159         estimate D2E/DX2                !
 ! A9    A(3,4,7)              122.718          estimate D2E/DX2                !
 ! A10   A(6,4,7)              114.5661         estimate D2E/DX2                !
 ! D1    D(8,1,2,3)           -179.9984         estimate D2E/DX2                !
 ! D2    D(9,1,2,3)              0.0016         estimate D2E/DX2                !
 ! D3    D(2,1,8,9)            180.0            estimate D2E/DX2                !
 ! D4    D(1,2,3,4)            180.0            estimate D2E/DX2                !
 ! D5    D(1,2,3,5)              0.0013         estimate D2E/DX2                !
 ! D6    D(2,3,4,6)           -179.9988         estimate D2E/DX2                !
 ! D7    D(2,3,4,7)              0.0016         estimate D2E/DX2                !
 ! D8    D(5,3,4,6)             -0.0002         estimate D2E/DX2                !
 ! D9    D(5,3,4,7)           -179.9998         estimate D2E/DX2                !
 --------------------------------------------------------------------------------
 Trust Radius=3.00D-01 FncErr=1.00D-07 GrdErr=1.00D-07 EigMax=2.50D+02 EigMin=1.00D-04
 Number of steps in this run=    100 maximum allowed number of steps=    100.
 GradGradGradGradGradGradGradGradGradGradGradGradGradGradGradGradGradGrad

                          Input orientation:                          
 ---------------------------------------------------------------------
 Center     Atomic      Atomic             Coordinates (Angstroms)
 Number     Number       Type             X           Y           Z
 ---------------------------------------------------------------------
      1          6           0       -2.774395   -0.058600    0.368621
      2          6           0       -1.448479   -0.058600    0.368621
      3          6           0       -0.616102    1.237065    0.368657
      4          6           0        0.709814    1.237018    0.368657
      5          1           0       -1.209685    2.161101    0.368705
      6          1           0        1.303432    2.161035    0.368702
      7          1           0        1.303397    0.312983    0.368605
      8          1           0       -3.309395   -0.985247    0.368621
      9          1           0       -3.309395    0.868047    0.368621
 ---------------------------------------------------------------------
                    Distance matrix (angstroms):
                    1          2          3          4          5
     1  C    0.000000
     2  C    1.325916   0.000000
     3  C    2.517335   1.540000   0.000000
     4  C    3.717302   2.517311   1.325916   0.000000
     5  H    2.715766   2.232508   1.098263   2.130353   0.000000
     6  H    4.642785   3.535505   2.130336   1.098267   2.513117
     7  H    4.094687   2.776850   2.130353   1.098263   3.119474
     8  H    1.070000   2.078866   3.491776   4.592657   3.782629
     9  H    1.070000   2.078866   2.718455   4.036109   2.465921
                    6          7          8          9
     6  H    0.000000
     7  H    1.848052   0.000000
     8  H    5.583660   4.791999   0.000000
     9  H    4.790614   4.646068   1.853294   0.000000
 Stoichiometry    C4H5(2)
 Framework group  C1[X(C4H5)]
 Deg. of freedom    21
 Full point group                 C1      NOp   1
 Largest Abelian subgroup         C1      NOp   1
 Largest concise Abelian subgroup C1      NOp   1
                         Standard orientation:                         
 ---------------------------------------------------------------------
 Center     Atomic      Atomic             Coordinates (Angstroms)
 Number     Number       Type             X           Y           Z
 ---------------------------------------------------------------------
      1          6           0       -1.875734    0.046423   -0.000020
      2          6           0       -0.658772   -0.479940   -0.000020
      3          6           0        0.619559    0.378820    0.000016
      4          6           0        1.836502   -0.147586    0.000016
      5          1           0        0.441576    1.462565    0.000064
      6          1           0        2.748157    0.464848    0.000061
      7          1           0        2.014485   -1.231331   -0.000036
      8          1           0       -2.734632   -0.591695   -0.000020
      9          1           0       -1.998911    1.109309   -0.000020
 ---------------------------------------------------------------------
 Rotational constants (GHZ):          49.4087835           4.3575766           4.0044102
 Standard basis: CC-pVTZ (5D, 7F)
 There are   215 symmetry adapted cartesian basis functions of A   symmetry.
 There are   190 symmetry adapted basis functions of A   symmetry.
   190 basis functions,   293 primitive gaussians,   215 cartesian basis functions
    15 alpha electrons       14 beta electrons
       nuclear repulsion energy        94.8829125493 Hartrees.
 NAtoms=    9 NActive=    9 NUniq=    9 SFac= 1.00D+00 NAtFMM=   60 NAOKFM=F Big=F
 Integral buffers will be    131072 words long.
 Raffenetti 2 integral format.
 Two-electron integral symmetry is turned on.
 Nuclear repulsion after empirical dispersion term =       94.8786835640 Hartrees.
 One-electron integrals computed using PRISM.
 NBasis=   190 RedAO= T EigKep=  3.66D-04  NBF=   190
 NBsUse=   190 1.00D-06 EigRej= -1.00D+00 NBFU=   190
 ExpMin= 1.03D-01 ExpMax= 8.24D+03 ExpMxC= 2.81D+02 IAcc=3 IRadAn=         5 AccDes= 0.00D+00
 Harris functional with IExCor=  419 and IRadAn=       5 diagonalized for initial guess.
 HarFok:  IExCor=  419 AccDes= 0.00D+00 IRadAn=         5 IDoV= 1 UseB2=F ITyADJ=14
 ICtDFT=  3500011 ScaDFX=  1.000000  1.000000  1.000000  1.000000
 FoFCou: FMM=F IPFlag=           0 FMFlag=      100000 FMFlg1=           0
         NFxFlg=           0 DoJE=T BraDBF=F KetDBF=T FulRan=T
         wScrn=  0.000000 ICntrl=       500 IOpCl=  0 I1Cent=   200000004 NGrid=           0
         NMat0=    1 NMatS0=      1 NMatT0=    0 NMatD0=    1 NMtDS0=    0 NMtDT0=    0
 Petite list used in FoFCou.
 Initial guess <Sx>= 0.0000 <Sy>= 0.0000 <Sz>= 0.5000 <S**2>= 0.7500 S= 0.5000
 Keep R1 and R2 ints in memory in canonical form, NReq=370972403.
 Requested convergence on RMS density matrix=1.00D-08 within 128 cycles.
 Requested convergence on MAX density matrix=1.00D-06.
 Requested convergence on             energy=1.00D-06.
 No special actions if energy rises.
 Integral accuracy reduced to 1.0D-05 until final iterations.
 Initial convergence to 1.0D-05 achieved.  Increase integral accuracy.
 SCF Done:  E(UB2PLYPD3) =  -155.008029654     A.U. after   23 cycles
            NFock= 23  Conv=0.90D-08     -V/T= 2.0056
 <Sx>= 0.0000 <Sy>= 0.0000 <Sz>= 0.5000 <S**2>= 0.7856 S= 0.5176
 <L.S>=  0.00000000000    
 Annihilation of the first spin contaminant:
 S**2 before annihilation     0.7856,   after     0.7504
 DoSCS=T DFT=T ScalE2(SS,OS)=  0.270000  0.270000
 ExpMin= 1.03D-01 ExpMax= 8.24D+03 ExpMxC= 2.81D+02 IAcc=3 IRadAn=         5 AccDes= 0.00D+00
 HarFok:  IExCor=  205 AccDes= 0.00D+00 IRadAn=         5 IDoV=-2 UseB2=F ITyADJ=14
 ICtDFT= 12500011 ScaDFX=  1.000000  1.000000  1.000000  1.000000
 Range of M.O.s used for correlation:     5   190
 NBasis=   190 NAE=    15 NBE=    14 NFC=     4 NFV=     0
 NROrb=    186 NOA=    11 NOB=    10 NVA=   175 NVB=   176

 **** Warning!!: The largest alpha MO coefficient is  0.15052183D+02


 **** Warning!!: The largest beta MO coefficient is  0.14588231D+02

 DoSCS=T DFT=T ScalE2(SS,OS)=  0.270000  0.270000
 Fully direct method using O(ONN) memory.
 JobTyp=2 Pass  1:  I=   5 to  15 NPSUse= 40 ParTrn=T ParDer=T DoDerP=T.
 JobTyp=3 Pass  1:  I=   5 to  14 NPSUse= 40 ParTrn=T ParDer=T DoDerP=T.
 Spin components of T(2) and E(2):
     alpha-alpha T2 =       0.4274118689D-01 E2=     -0.2547535651D-01
     alpha-beta  T2 =       0.2529787302D+00 E2=     -0.1545047485D+00
     beta-beta   T2 =       0.3790414804D-01 E2=     -0.2199128471D-01
 (S**2,0)=  0.78560D+00           (S**2,1)=  0.76479D+00
 Scaling Projection term by:   0.270000
 E(PUHF)=      -0.15501173064D+03        E(PMP2)=      -0.15521071014D+03
 E2(B2PLYPD3) =    -0.2019713897D+00 E(B2PLYPD3) =    -0.15521000104351D+03
          IDoAtm=111111111
          Differentiating once with respect to electric field.
                with respect to dipole field.
          Differentiating once with respect to nuclear coordinates.
 Keep R1 and R2 ints in memory in canonical form, NReq=370978875.
          There are     1 degrees of freedom in the 1st order CPHF.  IDoFFX=0 NUNeed=     1.
 LinEq1:  Iter=  0 NonCon=     1 RMS=9.88D-04 Max=2.41D-02 NDo=     1
 AX will form     1 AO Fock derivatives at one time.
 LinEq1:  Iter=  1 NonCon=     1 RMS=4.13D-04 Max=1.24D-02 NDo=     1
 LinEq1:  Iter=  2 NonCon=     1 RMS=2.73D-04 Max=7.23D-03 NDo=     1
 LinEq1:  Iter=  3 NonCon=     1 RMS=9.93D-05 Max=2.84D-03 NDo=     1
 LinEq1:  Iter=  4 NonCon=     1 RMS=6.37D-05 Max=1.69D-03 NDo=     1
 LinEq1:  Iter=  5 NonCon=     1 RMS=2.51D-05 Max=6.92D-04 NDo=     1
 LinEq1:  Iter=  6 NonCon=     1 RMS=1.19D-05 Max=2.91D-04 NDo=     1
 LinEq1:  Iter=  7 NonCon=     1 RMS=6.24D-06 Max=1.05D-04 NDo=     1
 LinEq1:  Iter=  8 NonCon=     1 RMS=2.00D-06 Max=4.31D-05 NDo=     1
 LinEq1:  Iter=  9 NonCon=     1 RMS=9.41D-07 Max=2.27D-05 NDo=     1
 LinEq1:  Iter= 10 NonCon=     1 RMS=4.22D-07 Max=6.58D-06 NDo=     1
 LinEq1:  Iter= 11 NonCon=     1 RMS=8.84D-08 Max=1.43D-06 NDo=     1
 LinEq1:  Iter= 12 NonCon=     1 RMS=2.57D-08 Max=4.93D-07 NDo=     1
 LinEq1:  Iter= 13 NonCon=     1 RMS=6.15D-09 Max=9.59D-08 NDo=     1
 LinEq1:  Iter= 14 NonCon=     1 RMS=1.53D-09 Max=2.52D-08 NDo=     1
 LinEq1:  Iter= 15 NonCon=     1 RMS=3.07D-10 Max=4.04D-09 NDo=     1
 LinEq1:  Iter= 16 NonCon=     0 RMS=7.38D-11 Max=9.80D-10 NDo=     1
 Linear equations converged to 1.000D-10 1.000D-09 after    16 iterations.
 End of Minotr F.D. properties file   721 does not exist.
 End of Minotr F.D. properties file   722 does not exist.
 End of Minotr F.D. properties file   788 does not exist.

 **********************************************************************

            Population analysis using the SCF Density.

 **********************************************************************

 Orbital symmetries:
 Alpha Orbitals:
       Occupied  (A) (A) (A) (A) (A) (A) (A) (A) (A) (A) (A) (A)
                 (A) (A) (A)
       Virtual   (A) (A) (A) (A) (A) (A) (A) (A) (A) (A) (A) (A)
                 (A) (A) (A) (A) (A) (A) (A) (A) (A) (A) (A) (A)
                 (A) (A) (A) (A) (A) (A) (A) (A) (A) (A) (A) (A)
                 (A) (A) (A) (A) (A) (A) (A) (A) (A) (A) (A) (A)
                 (A) (A) (A) (A) (A) (A) (A) (A) (A) (A) (A) (A)
                 (A) (A) (A) (A) (A) (A) (A) (A) (A) (A) (A) (A)
                 (A) (A) (A) (A) (A) (A) (A) (A) (A) (A) (A) (A)
                 (A) (A) (A) (A) (A) (A) (A) (A) (A) (A) (A) (A)
                 (A) (A) (A) (A) (A) (A) (A) (A) (A) (A) (A) (A)
                 (A) (A) (A) (A) (A) (A) (A) (A) (A) (A) (A) (A)
                 (A) (A) (A) (A) (A) (A) (A) (A) (A) (A) (A) (A)
                 (A) (A) (A) (A) (A) (A) (A) (A) (A) (A) (A) (A)
                 (A) (A) (A) (A) (A) (A) (A) (A) (A) (A) (A) (A)
                 (A) (A) (A) (A) (A) (A) (A) (A) (A) (A) (A) (A)
                 (A) (A) (A) (A) (A) (A) (A)
 Beta  Orbitals:
       Occupied  (A) (A) (A) (A) (A) (A) (A) (A) (A) (A) (A) (A)
                 (A) (A)
       Virtual   (A) (A) (A) (A) (A) (A) (A) (A) (A) (A) (A) (A)
                 (A) (A) (A) (A) (A) (A) (A) (A) (A) (A) (A) (A)
                 (A) (A) (A) (A) (A) (A) (A) (A) (A) (A) (A) (A)
                 (A) (A) (A) (A) (A) (A) (A) (A) (A) (A) (A) (A)
                 (A) (A) (A) (A) (A) (A) (A) (A) (A) (A) (A) (A)
                 (A) (A) (A) (A) (A) (A) (A) (A) (A) (A) (A) (A)
                 (A) (A) (A) (A) (A) (A) (A) (A) (A) (A) (A) (A)
                 (A) (A) (A) (A) (A) (A) (A) (A) (A) (A) (A) (A)
                 (A) (A) (A) (A) (A) (A) (A) (A) (A) (A) (A) (A)
                 (A) (A) (A) (A) (A) (A) (A) (A) (A) (A) (A) (A)
                 (A) (A) (A) (A) (A) (A) (A) (A) (A) (A) (A) (A)
                 (A) (A) (A) (A) (A) (A) (A) (A) (A) (A) (A) (A)
                 (A) (A) (A) (A) (A) (A) (A) (A) (A) (A) (A) (A)
                 (A) (A) (A) (A) (A) (A) (A) (A) (A) (A) (A) (A)
                 (A) (A) (A) (A) (A) (A) (A) (A)
 The electronic state is 2-A.
 Alpha  occ. eigenvalues --  -10.66089 -10.64317 -10.62289 -10.61407  -0.92625
 Alpha  occ. eigenvalues --   -0.85738  -0.69491  -0.61935  -0.54461  -0.53725
 Alpha  occ. eigenvalues --   -0.47523  -0.43632  -0.38283  -0.32591  -0.28794
 Alpha virt. eigenvalues --    0.02785   0.09872   0.10787   0.11049   0.12413
 Alpha virt. eigenvalues --    0.15933   0.16616   0.21197   0.25818   0.33473
 Alpha virt. eigenvalues --    0.33974   0.35125   0.36485   0.39050   0.39373
 Alpha virt. eigenvalues --    0.40487   0.41957   0.44011   0.47599   0.48761
 Alpha virt. eigenvalues --    0.51506   0.53412   0.54861   0.55179   0.57450
 Alpha virt. eigenvalues --    0.58803   0.59430   0.64869   0.66891   0.71079
 Alpha virt. eigenvalues --    0.71865   0.71897   0.77089   0.77958   0.80148
 Alpha virt. eigenvalues --    0.83537   0.93278   0.95575   0.96833   0.99112
 Alpha virt. eigenvalues --    1.02818   1.03570   1.06740   1.10070   1.12219
 Alpha virt. eigenvalues --    1.16470   1.18399   1.22179   1.23343   1.27467
 Alpha virt. eigenvalues --    1.29325   1.33287   1.33946   1.35018   1.35236
 Alpha virt. eigenvalues --    1.41006   1.44222   1.48985   1.53211   1.54363
 Alpha virt. eigenvalues --    1.54450   1.60943   1.62454   1.71894   1.77903
 Alpha virt. eigenvalues --    1.93975   2.11167   2.17733   2.19565   2.24110
 Alpha virt. eigenvalues --    2.34114   2.35132   2.36547   2.37209   2.46211
 Alpha virt. eigenvalues --    2.47374   2.53023   2.56814   2.57076   2.62873
 Alpha virt. eigenvalues --    2.65325   2.68273   2.68695   2.77102   2.80083
 Alpha virt. eigenvalues --    2.82776   2.84947   2.87483   2.88365   2.91919
 Alpha virt. eigenvalues --    2.94526   2.96137   2.97773   2.98975   2.99673
 Alpha virt. eigenvalues --    3.03410   3.08433   3.08798   3.11435   3.14535
 Alpha virt. eigenvalues --    3.16492   3.17625   3.20545   3.21698   3.24467
 Alpha virt. eigenvalues --    3.24872   3.27771   3.29868   3.30988   3.33867
 Alpha virt. eigenvalues --    3.37206   3.39559   3.42363   3.44091   3.48637
 Alpha virt. eigenvalues --    3.49479   3.57158   3.58257   3.59748   3.67876
 Alpha virt. eigenvalues --    3.72531   3.74342   3.78512   3.82258   3.85666
 Alpha virt. eigenvalues --    3.89458   3.93273   3.94257   3.95924   3.97895
 Alpha virt. eigenvalues --    3.98212   4.01605   4.04009   4.06713   4.14436
 Alpha virt. eigenvalues --    4.15102   4.15977   4.18590   4.20679   4.28311
 Alpha virt. eigenvalues --    4.34693   4.38560   4.38994   4.49297   4.54047
 Alpha virt. eigenvalues --    4.58167   4.62682   4.68181   4.69003   4.76514
 Alpha virt. eigenvalues --    4.80275   4.89392   4.91600   4.99459   5.04359
 Alpha virt. eigenvalues --    5.04834   5.06043   5.14219   5.17356   5.19756
 Alpha virt. eigenvalues --    5.24194   5.33151   5.34816   5.42378   5.51800
 Alpha virt. eigenvalues --    5.74272   5.91707   6.04905   6.08295   6.20290
 Alpha virt. eigenvalues --    6.44350   9.62123  10.80405  13.84679  14.45528
  Beta  occ. eigenvalues --  -10.64312 -10.63935 -10.62164 -10.61703  -0.90861
  Beta  occ. eigenvalues --   -0.84938  -0.68639  -0.59330  -0.53731  -0.52093
  Beta  occ. eigenvalues --   -0.46961  -0.42189  -0.37226  -0.28800
  Beta virt. eigenvalues --   -0.02453   0.02995   0.10323   0.10993   0.12592
  Beta virt. eigenvalues --    0.12900   0.16183   0.17022   0.21943   0.26351
  Beta virt. eigenvalues --    0.33885   0.34026   0.36624   0.37201   0.39164
  Beta virt. eigenvalues --    0.40039   0.42587   0.43529   0.44579   0.47963
  Beta virt. eigenvalues --    0.49147   0.51735   0.53549   0.54989   0.55653
  Beta virt. eigenvalues --    0.57941   0.59712   0.60500   0.65090   0.67954
  Beta virt. eigenvalues --    0.72160   0.72396   0.72569   0.77729   0.78185
  Beta virt. eigenvalues --    0.81604   0.84548   0.93852   0.96018   0.97312
  Beta virt. eigenvalues --    0.99172   1.03088   1.04391   1.06936   1.10171
  Beta virt. eigenvalues --    1.12464   1.18162   1.19736   1.22576   1.25784
  Beta virt. eigenvalues --    1.27884   1.29634   1.33453   1.34518   1.35632
  Beta virt. eigenvalues --    1.36704   1.41318   1.45549   1.49370   1.53576
  Beta virt. eigenvalues --    1.54897   1.55826   1.61936   1.63039   1.72590
  Beta virt. eigenvalues --    1.78611   1.94387   2.11692   2.18331   2.19587
  Beta virt. eigenvalues --    2.24660   2.35192   2.35588   2.37664   2.37884
  Beta virt. eigenvalues --    2.46598   2.48328   2.53638   2.57704   2.57999
  Beta virt. eigenvalues --    2.63012   2.66626   2.68791   2.70371   2.78392
  Beta virt. eigenvalues --    2.80403   2.83481   2.85127   2.88524   2.89091
  Beta virt. eigenvalues --    2.92896   2.94671   2.97213   2.97976   2.98749
  Beta virt. eigenvalues --    3.00316   3.04345   3.08455   3.09157   3.11803
  Beta virt. eigenvalues --    3.14773   3.16785   3.18469   3.21167   3.22563
  Beta virt. eigenvalues --    3.25836   3.27291   3.28965   3.32355   3.34245
  Beta virt. eigenvalues --    3.34541   3.39359   3.41439   3.42563   3.45447
  Beta virt. eigenvalues --    3.48968   3.50611   3.57432   3.58743   3.60166
  Beta virt. eigenvalues --    3.68866   3.73056   3.74726   3.79186   3.82574
  Beta virt. eigenvalues --    3.86112   3.90014   3.94011   3.94951   3.96196
  Beta virt. eigenvalues --    3.98390   3.99537   4.02134   4.04562   4.06969
  Beta virt. eigenvalues --    4.14657   4.15872   4.16482   4.18970   4.21688
  Beta virt. eigenvalues --    4.28745   4.35193   4.39210   4.39906   4.50085
  Beta virt. eigenvalues --    4.54956   4.58823   4.63411   4.68325   4.69454
  Beta virt. eigenvalues --    4.76942   4.80476   4.90181   4.92102   4.99562
  Beta virt. eigenvalues --    5.04855   5.04988   5.06361   5.14683   5.17352
  Beta virt. eigenvalues --    5.20045   5.24380   5.33737   5.35042   5.42595
  Beta virt. eigenvalues --    5.52338   5.75058   5.92325   6.05126   6.08505
  Beta virt. eigenvalues --    6.20792   6.44918   9.63325  10.80526  13.84855
  Beta virt. eigenvalues --   14.45707
          Condensed to atoms (all electrons):
               1          2          3          4          5          6
     1  C    4.976288   0.601863  -0.063699   0.000782   0.001776  -0.000305
     2  C    0.601863   5.179958   0.388812  -0.065517  -0.039621   0.006488
     3  C   -0.063699   0.388812   4.815524   0.629984   0.407475  -0.045800
     4  C    0.000782  -0.065517   0.629984   4.932169  -0.040929   0.416036
     5  H    0.001776  -0.039621   0.407475  -0.040929   0.533623  -0.007514
     6  H   -0.000305   0.006488  -0.045800   0.416036  -0.007514   0.542923
     7  H    0.000280  -0.002206  -0.044579   0.406399   0.006326  -0.035915
     8  H    0.410601  -0.048211   0.004906  -0.000313  -0.000307   0.000018
     9  H    0.410735  -0.058563  -0.002399   0.000317   0.005536  -0.000029
               7          8          9
     1  C    0.000280   0.410601   0.410735
     2  C   -0.002206  -0.048211  -0.058563
     3  C   -0.044579   0.004906  -0.002399
     4  C    0.406399  -0.000313   0.000317
     5  H    0.006326  -0.000307   0.005536
     6  H   -0.035915   0.000018  -0.000029
     7  H    0.542238  -0.000058   0.000101
     8  H   -0.000058   0.521009  -0.031336
     9  H    0.000101  -0.031336   0.534003
          Atomic-Atomic Spin Densities.
               1          2          3          4          5          6
     1  C   -0.231118  -0.013610   0.007203  -0.000290   0.001931   0.000021
     2  C   -0.013610   1.145401  -0.021090  -0.006920  -0.015831  -0.000101
     3  C    0.007203  -0.021090  -0.034959   0.009094  -0.000697   0.000533
     4  C   -0.000290  -0.006920   0.009094   0.075410  -0.000717   0.001695
     5  H    0.001931  -0.015831  -0.000697  -0.000717   0.047249  -0.000215
     6  H    0.000021  -0.000101   0.000533   0.001695  -0.000215  -0.009011
     7  H   -0.000027   0.006273  -0.003344  -0.003951   0.001208   0.000690
     8  H    0.008779  -0.006779   0.000260   0.000003  -0.000430   0.000001
     9  H    0.010351  -0.023890  -0.002527   0.000163   0.006296  -0.000012
               7          8          9
     1  C   -0.000027   0.008779   0.010351
     2  C    0.006273  -0.006779  -0.023890
     3  C   -0.003344   0.000260  -0.002527
     4  C   -0.003951   0.000003   0.000163
     5  H    0.001208  -0.000430   0.006296
     6  H    0.000690   0.000001  -0.000012
     7  H    0.000338  -0.000041   0.000122
     8  H   -0.000041   0.032196  -0.009723
     9  H    0.000122  -0.009723   0.085632
 Mulliken charges and spin densities:
               1          2
     1  C   -0.338320  -0.216760
     2  C    0.036997   1.063455
     3  C   -0.090224  -0.045526
     4  C   -0.278929   0.074486
     5  H    0.133636   0.038795
     6  H    0.124098  -0.006398
     7  H    0.127414   0.001271
     8  H    0.143692   0.024266
     9  H    0.141635   0.066412
 Sum of Mulliken charges =  -0.00000   1.00000
 Mulliken charges and spin densities with hydrogens summed into heavy atoms:
               1          2
     1  C   -0.052992  -0.126082
     2  C    0.036997   1.063455
     3  C    0.043412  -0.006731
     4  C   -0.027417   0.069359
 Electronic spatial extent (au):  <R**2>=            330.7910
 Charge=             -0.0000 electrons
 Dipole moment (field-independent basis, Debye):
    X=              0.1094    Y=              0.7009    Z=              0.0000  Tot=              0.7093
 Quadrupole moment (field-independent basis, Debye-Ang):
   XX=            -21.7051   YY=            -23.2366   ZZ=            -28.3510
   XY=             -0.5702   XZ=              0.0000   YZ=              0.0001
 Traceless Quadrupole moment (field-independent basis, Debye-Ang):
   XX=              2.7258   YY=              1.1943   ZZ=             -3.9201
   XY=             -0.5702   XZ=              0.0000   YZ=              0.0001
 Octapole moment (field-independent basis, Debye-Ang**2):
  XXX=              0.4171  YYY=              3.1985  ZZZ=              0.0001  XYY=              0.4691
  XXY=             -0.3820  XXZ=              0.0002  XZZ=              0.1959  YZZ=              0.3600
  YYZ=              0.0001  XYZ=              0.0002
 Hexadecapole moment (field-independent basis, Debye-Ang**3):
 XXXX=           -340.3566 YYYY=            -59.6300 ZZZZ=            -33.9634 XXXY=              5.0283
 XXXZ=             -0.0013 YYYX=             -4.0239 YYYZ=             -0.0003 ZZZX=             -0.0022
 ZZZY=             -0.0005 XXYY=            -66.3446 XXZZ=            -76.5260 YYZZ=            -17.0906
 XXYZ=              0.0002 YYXZ=             -0.0007 ZZXY=             -0.6512
 N-N= 9.487868356401D+01 E-N=-5.490326424761D+02  KE= 1.541382900075D+02
                          Isotropic Fermi Contact Couplings
        Atom                 a.u.       MegaHertz       Gauss      10(-4) cm-1
     1  C(13)              0.02357      26.49925       9.45559       8.83920
     2  C(13)              0.36009     404.81417     144.44776     135.03147
     3  C(13)              0.04669      52.48791      18.72899      17.50808
     4  C(13)              0.00085       0.95439       0.34055       0.31835
     5  H(1)               0.01432      64.02854      22.84698      21.35762
     6  H(1)               0.00039       1.72501       0.61553       0.57540
     7  H(1)               0.00090       4.02588       1.43653       1.34289
     8  H(1)               0.01305      58.35277      20.82172      19.46439
     9  H(1)               0.02774     123.99893      44.24590      41.36159
 --------------------------------------------------------
       Center         ----  Spin Dipole Couplings  ----
                      3XX-RR        3YY-RR        3ZZ-RR
 --------------------------------------------------------
     1   Atom        0.057594      0.009252     -0.066846
     2   Atom       -0.485407      0.951685     -0.466277
     3   Atom        0.005514     -0.009906      0.004392
     4   Atom        0.047149      0.021043     -0.068191
     5   Atom       -0.003568      0.014611     -0.011044
     6   Atom        0.005043     -0.001113     -0.003930
     7   Atom        0.017565     -0.009671     -0.007894
     8   Atom        0.024964     -0.012139     -0.012825
     9   Atom        0.001329      0.009247     -0.010576
 --------------------------------------------------------
                        XY            XZ            YZ
 --------------------------------------------------------
     1   Atom       -0.055380     -0.000002      0.000003
     2   Atom       -0.179868     -0.000001      0.000002
     3   Atom        0.073783      0.000001     -0.000001
     4   Atom        0.006095      0.000001      0.000004
     5   Atom        0.004575      0.000000      0.000001
     6   Atom       -0.001467     -0.000000     -0.000000
     7   Atom       -0.002143     -0.000000      0.000000
     8   Atom       -0.000439     -0.000000     -0.000000
     9   Atom       -0.007518     -0.000000     -0.000000
 --------------------------------------------------------


 ---------------------------------------------------------------------------------
              Anisotropic Spin Dipole Couplings in Principal Axis System
 ---------------------------------------------------------------------------------

       Atom             a.u.   MegaHertz   Gauss  10(-4) cm-1        Axes

              Baa    -0.0668    -8.970    -3.201    -2.992  0.0000 -0.0000  1.0000
     1 C(13)  Bbb    -0.0270    -3.623    -1.293    -1.209  0.5477  0.8367  0.0000
              Bcc     0.0938    12.594     4.494     4.201  0.8367 -0.5477 -0.0000
 
              Baa    -0.5076   -68.112   -24.304   -22.720  0.9925  0.1223  0.0000
     2 C(13)  Bbb    -0.4663   -62.570   -22.327   -20.871 -0.0000 -0.0000  1.0000
              Bcc     0.9739   130.682    46.631    43.591 -0.1223  0.9925  0.0000
 
              Baa    -0.0764   -10.250    -3.657    -3.419 -0.6694  0.7429  0.0000
     3 C(13)  Bbb     0.0044     0.589     0.210     0.197  0.0000 -0.0000  1.0000
              Bcc     0.0720     9.660     3.447     3.222  0.7429  0.6694  0.0000
 
              Baa    -0.0682    -9.151    -3.265    -3.052 -0.0000 -0.0000  1.0000
     4 C(13)  Bbb     0.0197     2.642     0.943     0.881 -0.2167  0.9762  0.0000
              Bcc     0.0485     6.508     2.322     2.171  0.9762  0.2167  0.0000
 
              Baa    -0.0110    -5.892    -2.103    -1.965  0.0000 -0.0000  1.0000
     5 H(1)   Bbb    -0.0047    -2.483    -0.886    -0.828  0.9729 -0.2310 -0.0000
              Bcc     0.0157     8.376     2.989     2.794  0.2310  0.9729  0.0000
 
              Baa    -0.0039    -2.097    -0.748    -0.699  0.0000  0.0000  1.0000
     6 H(1)   Bbb    -0.0014    -0.771    -0.275    -0.257  0.2206  0.9754 -0.0000
              Bcc     0.0054     2.868     1.023     0.957  0.9754 -0.2206 -0.0000
 
              Baa    -0.0098    -5.249    -1.873    -1.751  0.0779  0.9970 -0.0000
     7 H(1)   Bbb    -0.0079    -4.212    -1.503    -1.405  0.0000  0.0000  1.0000
              Bcc     0.0177     9.461     3.376     3.156  0.9970 -0.0779 -0.0000
 
              Baa    -0.0128    -6.843    -2.442    -2.283  0.0000  0.0003  1.0000
     8 H(1)   Bbb    -0.0121    -6.479    -2.312    -2.161  0.0118  0.9999 -0.0003
              Bcc     0.0250    13.322     4.754     4.444  0.9999 -0.0118 -0.0000
 
              Baa    -0.0106    -5.643    -2.014    -1.882  0.0000  0.0000  1.0000
     9 H(1)   Bbb    -0.0032    -1.712    -0.611    -0.571  0.8561  0.5168 -0.0000
              Bcc     0.0138     7.355     2.624     2.453 -0.5168  0.8561 -0.0000
 

 ---------------------------------------------------------------------------------

 Calling FoFJK, ICntrl=  10002127 FMM=F ISym2X=0 I1Cent= 0 IOpClX= 1 NMat=1 NMatS=1 NMatT=0.
 ***** Axes restored to original set *****
 -------------------------------------------------------------------
 Center     Atomic                   Forces (Hartrees/Bohr)
 Number     Number              X              Y              Z
 -------------------------------------------------------------------
      1        6           0.023928468   -0.021861506   -0.000000229
      2        6           0.000352825    0.063302764    0.000001398
      3        6          -0.016977892   -0.041811505   -0.000000183
      4        6           0.022024167    0.004495214   -0.000000659
      5        1           0.004560225   -0.008005352   -0.000000465
      6        1          -0.009064084   -0.007705361   -0.000000698
      7        1          -0.009677719    0.007842804    0.000001049
      8        1          -0.008890661   -0.004353220   -0.000000374
      9        1          -0.006255329    0.008096161    0.000000161
 -------------------------------------------------------------------
 Cartesian Forces:  Max     0.063302764 RMS     0.017409910

 GradGradGradGradGradGradGradGradGradGradGradGradGradGradGradGradGradGrad
 Berny optimization.
 FormGI is forming the generalized inverse of G from B-inverse, IUseBI=4.
 Internal  Forces:  Max     0.042953006 RMS     0.012197970
 Search for a local minimum.
 Step number   1 out of a maximum of  100
 All quantities printed in internal units (Hartrees-Bohrs-Radians)
 Mixed Optimization -- RFO/linear search
 Second derivative matrix not updated -- first step.
 ITU=  0
     Eigenvalues ---    0.00237   0.01356   0.02220   0.03069   0.03069
     Eigenvalues ---    0.03069   0.16000   0.16000   0.16000   0.16000
     Eigenvalues ---    0.16000   0.22000   0.25000   0.28519   0.33875
     Eigenvalues ---    0.33875   0.33875   0.37230   0.37230   0.60481
     Eigenvalues ---    0.60481
 RFO step:  Lambda=-1.39179605D-02 EMin= 2.36824256D-03
 Linear search not attempted -- first point.
 Iteration  1 RMS(Cart)=  0.06333346 RMS(Int)=  0.00270135
 Iteration  2 RMS(Cart)=  0.00484720 RMS(Int)=  0.00000176
 Iteration  3 RMS(Cart)=  0.00000147 RMS(Int)=  0.00000000
 Iteration  4 RMS(Cart)=  0.00000000 RMS(Int)=  0.00000000
 Variable       Old X    -DE/DX   Delta X   Delta X   Delta X     New X
                                 (Linear)    (Quad)   (Total)
    R1        2.50562  -0.00878   0.00000  -0.01419  -0.01419   2.49142
    R2        2.02201   0.00822   0.00000   0.02127   0.02127   2.04328
    R3        2.02201   0.01014   0.00000   0.02625   0.02625   2.04826
    R4        2.91018  -0.04295   0.00000  -0.14360  -0.14360   2.76657
    R5        2.50562   0.00328   0.00000   0.00530   0.00530   2.51092
    R6        2.07542  -0.00920   0.00000  -0.02609  -0.02609   2.04933
    R7        2.07542  -0.01138   0.00000  -0.03227  -0.03227   2.04315
    R8        2.07542  -0.01183   0.00000  -0.03354  -0.03354   2.04187
    A1        2.09440   0.00652   0.00000   0.03750   0.03750   2.13190
    A2        2.09440  -0.00188   0.00000  -0.01079  -0.01079   2.08360
    A3        2.09440  -0.00465   0.00000  -0.02671  -0.02671   2.06769
    A4        2.14183   0.03700   0.00000   0.14019   0.14019   2.28203
    A5        2.14180   0.00747   0.00000   0.03191   0.03191   2.17371
    A6        1.99956  -0.00424   0.00000  -0.01888  -0.01888   1.98067
    A7        2.14183  -0.00322   0.00000  -0.01303  -0.01303   2.12880
    A8        2.14180  -0.00209   0.00000  -0.01201  -0.01201   2.12979
    A9        2.14183  -0.00301   0.00000  -0.01729  -0.01729   2.12455
   A10        1.99956   0.00510   0.00000   0.02930   0.02930   2.02885
    D1       -3.14156  -0.00000   0.00000  -0.00001  -0.00001  -3.14158
    D2        0.00003  -0.00000   0.00000  -0.00001  -0.00001   0.00002
    D3        3.14159   0.00000   0.00000   0.00000   0.00000  -3.14159
    D4        3.14159   0.00000   0.00000  -0.00000  -0.00000   3.14159
    D5        0.00002  -0.00000   0.00000  -0.00002  -0.00002   0.00001
    D6       -3.14157  -0.00000   0.00000  -0.00001  -0.00001  -3.14159
    D7        0.00003  -0.00000   0.00000  -0.00002  -0.00002   0.00001
    D8       -0.00000   0.00000   0.00000   0.00000   0.00000  -0.00000
    D9       -3.14159  -0.00000   0.00000  -0.00000  -0.00000  -3.14159
         Item               Value     Threshold  Converged?
 Maximum Force            0.042953     0.000450     NO 
 RMS     Force            0.012198     0.000300     NO 
 Maximum Displacement     0.218198     0.001800     NO 
 RMS     Displacement     0.062755     0.001200     NO 
 Predicted change in Energy=-7.303983D-03
 GradGradGradGradGradGradGradGradGradGradGradGradGradGradGradGradGradGrad

                          Input orientation:                          
 ---------------------------------------------------------------------
 Center     Atomic      Atomic             Coordinates (Angstroms)
 Number     Number       Type             X           Y           Z
 ---------------------------------------------------------------------
      1          6           0       -2.772079   -0.062578    0.368622
      2          6           0       -1.459096    0.056865    0.368622
      3          6           0       -0.607852    1.247958    0.368660
      4          6           0        0.720666    1.224585    0.368657
      5          1           0       -1.165793    2.177879    0.368699
      6          1           0        1.310090    2.130977    0.368691
      7          1           0        1.272631    0.295692    0.368617
      8          1           0       -3.262129   -1.026407    0.368605
      9          1           0       -3.387244    0.829831    0.368635
 ---------------------------------------------------------------------
                    Distance matrix (angstroms):
                    1          2          3          4          5
     1  C    0.000000
     2  C    1.318405   0.000000
     3  C    2.530096   1.464008   0.000000
     4  C    3.722372   2.472839   1.328723   0.000000
     5  H    2.756774   2.141197   1.084458   2.113645   0.000000
     6  H    4.634198   3.459817   2.111450   1.081188   2.476327
     7  H    4.060547   2.742148   2.107849   1.080513   3.080347
     8  H    1.081256   2.103428   3.495415   4.574891   3.829109
     9  H    1.083892   2.077313   2.810667   4.126833   2.598476
                    6          7          8          9
     6  H    0.000000
     7  H    1.835667   0.000000
     8  H    5.556462   4.723558   0.000000
     9  H    4.874210   4.690388   1.860450   0.000000
 Stoichiometry    C4H5(2)
 Framework group  C1[X(C4H5)]
 Deg. of freedom    21
 Full point group                 C1      NOp   1
 Largest Abelian subgroup         C1      NOp   1
 Largest concise Abelian subgroup C1      NOp   1
                         Standard orientation:                         
 ---------------------------------------------------------------------
 Center     Atomic      Atomic             Coordinates (Angstroms)
 Number     Number       Type             X           Y           Z
 ---------------------------------------------------------------------
      1          6           0       -1.884568    0.009234   -0.000020
      2          6           0       -0.628620   -0.391744   -0.000019
      3          6           0        0.619075    0.374139    0.000018
      4          6           0        1.833750   -0.164442    0.000015
      5          1           0        0.467044    1.447888    0.000057
      6          1           0        2.729464    0.441086    0.000049
      7          1           0        1.980677   -1.234919   -0.000025
      8          1           0       -2.711097   -0.687877   -0.000037
      9          1           0       -2.103911    1.070701   -0.000007
 ---------------------------------------------------------------------
 Rotational constants (GHZ):          54.3612381           4.3616705           4.0377055
 Standard basis: CC-pVTZ (5D, 7F)
 There are   215 symmetry adapted cartesian basis functions of A   symmetry.
 There are   190 symmetry adapted basis functions of A   symmetry.
   190 basis functions,   293 primitive gaussians,   215 cartesian basis functions
    15 alpha electrons       14 beta electrons
       nuclear repulsion energy        95.7766920991 Hartrees.
 NAtoms=    9 NActive=    9 NUniq=    9 SFac= 1.00D+00 NAtFMM=   60 NAOKFM=F Big=F
 Integral buffers will be    131072 words long.
 Raffenetti 2 integral format.
 Two-electron integral symmetry is turned on.
 Nuclear repulsion after empirical dispersion term =       95.7724639467 Hartrees.
 One-electron integrals computed using PRISM.
 NBasis=   190 RedAO= T EigKep=  3.48D-04  NBF=   190
 NBsUse=   190 1.00D-06 EigRej= -1.00D+00 NBFU=   190
 Initial guess from the checkpoint file:  "/localscratch/339542/Gau-36570.chk"
 B after Tr=    -0.000000   -0.000000    0.000000
         Rot=    0.999998   -0.000001   -0.000000   -0.001791 Ang=  -0.21 deg.
 Initial guess <Sx>= 0.0000 <Sy>= 0.0000 <Sz>= 0.5000 <S**2>= 0.7853 S= 0.5175
 ExpMin= 1.03D-01 ExpMax= 8.24D+03 ExpMxC= 2.81D+02 IAcc=3 IRadAn=         5 AccDes= 0.00D+00
 Harris functional with IExCor=  419 and IRadAn=       5 diagonalized for initial guess.
 HarFok:  IExCor=  419 AccDes= 0.00D+00 IRadAn=         5 IDoV= 1 UseB2=F ITyADJ=14
 ICtDFT=  3500011 ScaDFX=  1.000000  1.000000  1.000000  1.000000
 FoFCou: FMM=F IPFlag=           0 FMFlag=      100000 FMFlg1=           0
         NFxFlg=           0 DoJE=T BraDBF=F KetDBF=T FulRan=T
         wScrn=  0.000000 ICntrl=       500 IOpCl=  0 I1Cent=   200000004 NGrid=           0
         NMat0=    1 NMatS0=      1 NMatT0=    0 NMatD0=    1 NMtDS0=    0 NMtDT0=    0
 Petite list used in FoFCou.
 Keep R1 and R2 ints in memory in canonical form, NReq=370972403.
 Requested convergence on RMS density matrix=1.00D-08 within 128 cycles.
 Requested convergence on MAX density matrix=1.00D-06.
 Requested convergence on             energy=1.00D-06.
 No special actions if energy rises.
 Integral accuracy reduced to 1.0D-05 until final iterations.
 Initial convergence to 1.0D-05 achieved.  Increase integral accuracy.
 SCF Done:  E(UB2PLYPD3) =  -155.017840183     A.U. after   17 cycles
            NFock= 17  Conv=0.19D-08     -V/T= 2.0047
 <Sx>= 0.0000 <Sy>= 0.0000 <Sz>= 0.5000 <S**2>= 0.7887 S= 0.5192
 <L.S>=  0.00000000000    
 Annihilation of the first spin contaminant:
 S**2 before annihilation     0.7887,   after     0.7506
 DoSCS=T DFT=T ScalE2(SS,OS)=  0.270000  0.270000
 ExpMin= 1.03D-01 ExpMax= 8.24D+03 ExpMxC= 2.81D+02 IAcc=3 IRadAn=         5 AccDes= 0.00D+00
 HarFok:  IExCor=  205 AccDes= 0.00D+00 IRadAn=         5 IDoV=-2 UseB2=F ITyADJ=14
 ICtDFT= 12500011 ScaDFX=  1.000000  1.000000  1.000000  1.000000
 Range of M.O.s used for correlation:     5   190
 NBasis=   190 NAE=    15 NBE=    14 NFC=     4 NFV=     0
 NROrb=    186 NOA=    11 NOB=    10 NVA=   175 NVB=   176

 **** Warning!!: The largest alpha MO coefficient is  0.17674599D+02


 **** Warning!!: The largest beta MO coefficient is  0.18068051D+02

 DoSCS=T DFT=T ScalE2(SS,OS)=  0.270000  0.270000
 Fully direct method using O(ONN) memory.
 JobTyp=2 Pass  1:  I=   5 to  15 NPSUse= 40 ParTrn=T ParDer=T DoDerP=T.
 JobTyp=3 Pass  1:  I=   5 to  14 NPSUse= 40 ParTrn=T ParDer=T DoDerP=T.
 Spin components of T(2) and E(2):
     alpha-alpha T2 =       0.4259381377D-01 E2=     -0.2555797388D-01
     alpha-beta  T2 =       0.2498786573D+00 E2=     -0.1539550594D+00
     beta-beta   T2 =       0.3766667471D-01 E2=     -0.2201681625D-01
 (S**2,0)=  0.78867D+00           (S**2,1)=  0.76654D+00
 Scaling Projection term by:   0.270000
 E(PUHF)=      -0.15502181060D+03        E(PMP2)=      -0.15522013801D+03
 E2(B2PLYPD3) =    -0.2015298495D+00 E(B2PLYPD3) =    -0.15521937003251D+03
          IDoAtm=111111111
          Differentiating once with respect to electric field.
                with respect to dipole field.
          Differentiating once with respect to nuclear coordinates.
 Keep R1 and R2 ints in memory in canonical form, NReq=370978875.
          There are     1 degrees of freedom in the 1st order CPHF.  IDoFFX=0 NUNeed=     1.
 LinEq1:  Iter=  0 NonCon=     1 RMS=1.01D-03 Max=2.43D-02 NDo=     1
 AX will form     1 AO Fock derivatives at one time.
 LinEq1:  Iter=  1 NonCon=     1 RMS=4.27D-04 Max=1.39D-02 NDo=     1
 LinEq1:  Iter=  2 NonCon=     1 RMS=2.85D-04 Max=7.58D-03 NDo=     1
 LinEq1:  Iter=  3 NonCon=     1 RMS=1.01D-04 Max=3.03D-03 NDo=     1
 LinEq1:  Iter=  4 NonCon=     1 RMS=6.53D-05 Max=1.72D-03 NDo=     1
 LinEq1:  Iter=  5 NonCon=     1 RMS=2.39D-05 Max=6.77D-04 NDo=     1
 LinEq1:  Iter=  6 NonCon=     1 RMS=9.35D-06 Max=2.47D-04 NDo=     1
 LinEq1:  Iter=  7 NonCon=     1 RMS=4.89D-06 Max=9.28D-05 NDo=     1
 LinEq1:  Iter=  8 NonCon=     1 RMS=2.09D-06 Max=5.13D-05 NDo=     1
 LinEq1:  Iter=  9 NonCon=     1 RMS=9.54D-07 Max=1.72D-05 NDo=     1
 LinEq1:  Iter= 10 NonCon=     1 RMS=3.97D-07 Max=5.77D-06 NDo=     1
 LinEq1:  Iter= 11 NonCon=     1 RMS=9.40D-08 Max=1.12D-06 NDo=     1
 LinEq1:  Iter= 12 NonCon=     1 RMS=3.20D-08 Max=6.12D-07 NDo=     1
 LinEq1:  Iter= 13 NonCon=     1 RMS=6.03D-09 Max=7.24D-08 NDo=     1
 LinEq1:  Iter= 14 NonCon=     1 RMS=1.23D-09 Max=1.73D-08 NDo=     1
 LinEq1:  Iter= 15 NonCon=     1 RMS=2.22D-10 Max=2.47D-09 NDo=     1
 LinEq1:  Iter= 16 NonCon=     0 RMS=5.61D-11 Max=5.81D-10 NDo=     1
 Linear equations converged to 1.000D-10 1.000D-09 after    16 iterations.
 End of Minotr F.D. properties file   721 does not exist.
 End of Minotr F.D. properties file   722 does not exist.
 End of Minotr F.D. properties file   788 does not exist.
 Calling FoFJK, ICntrl=  10002127 FMM=F ISym2X=0 I1Cent= 0 IOpClX= 1 NMat=1 NMatS=1 NMatT=0.
 ***** Axes restored to original set *****
 -------------------------------------------------------------------
 Center     Atomic                   Forces (Hartrees/Bohr)
 Number     Number              X              Y              Z
 -------------------------------------------------------------------
      1        6           0.010006059   -0.008093241   -0.000000499
      2        6          -0.001798739    0.020167882    0.000000953
      3        6          -0.008107698   -0.019876005   -0.000000544
      4        6           0.007059245    0.002747292   -0.000000205
      5        1           0.001405054    0.003221309    0.000000081
      6        1          -0.002157587    0.000288251   -0.000000034
      7        1          -0.001838248   -0.000801558    0.000000152
      8        1          -0.001590834    0.001234336   -0.000000122
      9        1          -0.002977250    0.001111733    0.000000217
 -------------------------------------------------------------------
 Cartesian Forces:  Max     0.020167882 RMS     0.006466543

 GradGradGradGradGradGradGradGradGradGradGradGradGradGradGradGradGradGrad
 Berny optimization.
 Using GEDIIS/GDIIS optimizer.
 FormGI is forming the generalized inverse of G from B-inverse, IUseBI=4.
 Internal  Forces:  Max     0.015174711 RMS     0.004348129
 Search for a local minimum.
 Step number   2 out of a maximum of  100
 All quantities printed in internal units (Hartrees-Bohrs-Radians)
 Mixed Optimization -- RFO/linear search
 Update second derivatives using D2CorX and points    1    2
 DE= -9.37D-03 DEPred=-7.30D-03 R= 1.28D+00
 TightC=F SS=  1.41D+00  RLast= 2.23D-01 DXNew= 5.0454D-01 6.6798D-01
 Trust test= 1.28D+00 RLast= 2.23D-01 DXMaxT set to 5.05D-01
 ITU=  1  0
 Use linear search instead of GDIIS.
     Eigenvalues ---    0.00237   0.01366   0.02220   0.03069   0.03069
     Eigenvalues ---    0.03069   0.14230   0.16000   0.16000   0.16000
     Eigenvalues ---    0.16283   0.19310   0.22129   0.27380   0.33836
     Eigenvalues ---    0.33875   0.35266   0.37154   0.37839   0.60143
     Eigenvalues ---    0.60503
 RFO step:  Lambda=-7.56465511D-04 EMin= 2.36824256D-03
 Quartic linear search produced a step of  0.43036.
 Iteration  1 RMS(Cart)=  0.04997344 RMS(Int)=  0.00138517
 Iteration  2 RMS(Cart)=  0.00205041 RMS(Int)=  0.00000042
 Iteration  3 RMS(Cart)=  0.00000042 RMS(Int)=  0.00000002
 Variable       Old X    -DE/DX   Delta X   Delta X   Delta X     New X
                                 (Linear)    (Quad)   (Total)
    R1        2.49142  -0.00489  -0.00611  -0.00587  -0.01198   2.47944
    R2        2.04328  -0.00038   0.00915  -0.01033  -0.00117   2.04210
    R3        2.04826   0.00261   0.01130  -0.00097   0.01033   2.05859
    R4        2.76657  -0.01385  -0.06180  -0.00746  -0.06926   2.69732
    R5        2.51092   0.00302   0.00228   0.00502   0.00730   2.51822
    R6        2.04933   0.00204  -0.01123   0.01959   0.00836   2.05769
    R7        2.04315  -0.00093  -0.01389   0.00967  -0.00422   2.03893
    R8        2.04187  -0.00025  -0.01444   0.01308  -0.00135   2.04052
    A1        2.13190   0.00145   0.01614  -0.00488   0.01126   2.14316
    A2        2.08360   0.00114  -0.00464   0.01525   0.01060   2.09421
    A3        2.06769  -0.00259  -0.01149  -0.01037  -0.02187   2.04582
    A4        2.28203   0.01517   0.06033   0.02510   0.08543   2.36746
    A5        2.17371   0.00184   0.01373  -0.00233   0.01141   2.18512
    A6        1.98067   0.00201  -0.00813   0.02864   0.02051   2.00119
    A7        2.12880  -0.00385  -0.00561  -0.02631  -0.03192   2.09688
    A8        2.12979  -0.00132  -0.00517  -0.00608  -0.01125   2.11854
    A9        2.12455  -0.00137  -0.00744  -0.00399  -0.01143   2.11312
   A10        2.02885   0.00269   0.01261   0.01007   0.02267   2.05152
    D1       -3.14158  -0.00000  -0.00001   0.00000  -0.00000  -3.14158
    D2        0.00002  -0.00000  -0.00000  -0.00001  -0.00001   0.00001
    D3       -3.14159  -0.00000   0.00000  -0.00001  -0.00001   3.14159
    D4        3.14159   0.00000  -0.00000   0.00003   0.00003  -3.14157
    D5        0.00001  -0.00000  -0.00001   0.00003   0.00003   0.00003
    D6       -3.14159  -0.00000  -0.00001   0.00001   0.00000  -3.14159
    D7        0.00001  -0.00000  -0.00001   0.00001  -0.00000   0.00001
    D8       -0.00000   0.00000   0.00000   0.00000   0.00000  -0.00000
    D9       -3.14159  -0.00000  -0.00000  -0.00000  -0.00000   3.14159
         Item               Value     Threshold  Converged?
 Maximum Force            0.015175     0.000450     NO 
 RMS     Force            0.004348     0.000300     NO 
 Maximum Displacement     0.128837     0.001800     NO 
 RMS     Displacement     0.049822     0.001200     NO 
 Predicted change in Energy=-1.503404D-03
 GradGradGradGradGradGradGradGradGradGradGradGradGradGradGradGradGradGrad

                          Input orientation:                          
 ---------------------------------------------------------------------
 Center     Atomic      Atomic             Coordinates (Angstroms)
 Number     Number       Type             X           Y           Z
 ---------------------------------------------------------------------
      1          6           0       -2.770790   -0.066450    0.368618
      2          6           0       -1.472775    0.125043    0.368637
      3          6           0       -0.608740    1.261175    0.368667
      4          6           0        0.722988    1.213388    0.368654
      5          1           0       -1.121400    2.221822    0.368711
      6          1           0        1.317538    2.113749    0.368685
      7          1           0        1.246777    0.269137    0.368612
      8          1           0       -3.217235   -1.050553    0.368606
      9          1           0       -3.447167    0.787492    0.368620
 ---------------------------------------------------------------------
                    Distance matrix (angstroms):
                    1          2          3          4          5
     1  C    0.000000
     2  C    1.312064   0.000000
     3  C    2.537133   1.427358   0.000000
     4  C    3.720816   2.450687   1.332585   0.000000
     5  H    2.820758   2.126016   1.088882   2.102072   0.000000
     6  H    4.633324   3.426484   2.106521   1.078953   2.441331
     7  H    4.031558   2.723366   2.104063   1.079799   3.069404
     8  H    1.080635   2.103608   3.485445   4.544314   3.885995
     9  H    1.089359   2.082561   2.877679   4.191846   2.732488
                    6          7          8          9
     6  H    0.000000
     7  H    1.845969   0.000000
     8  H    5.529645   4.654995   0.000000
     9  H    4.945843   4.722478   1.852371   0.000000
 Stoichiometry    C4H5(2)
 Framework group  C1[X(C4H5)]
 Deg. of freedom    21
 Full point group                 C1      NOp   1
 Largest Abelian subgroup         C1      NOp   1
 Largest concise Abelian subgroup C1      NOp   1
                         Standard orientation:                         
 ---------------------------------------------------------------------
 Center     Atomic      Atomic             Coordinates (Angstroms)
 Number     Number       Type             X           Y           Z
 ---------------------------------------------------------------------
      1          6           0       -1.887569   -0.012247   -0.000026
      2          6           0       -0.616303   -0.336895   -0.000008
      3          6           0        0.619465    0.377409    0.000023
      4          6           0        1.829420   -0.180975    0.000009
      5          1           0        0.517573    1.461513    0.000066
      6          1           0        2.725556    0.419923    0.000040
      7          1           0        1.947908   -1.254253   -0.000033
      8          1           0       -2.679431   -0.747587   -0.000039
      9          1           0       -2.181683    1.036657   -0.000025
 ---------------------------------------------------------------------
 Rotational constants (GHZ):          56.1103944           4.3681553           4.0526586
 Standard basis: CC-pVTZ (5D, 7F)
 There are   215 symmetry adapted cartesian basis functions of A   symmetry.
 There are   190 symmetry adapted basis functions of A   symmetry.
   190 basis functions,   293 primitive gaussians,   215 cartesian basis functions
    15 alpha electrons       14 beta electrons
       nuclear repulsion energy        96.1508418325 Hartrees.
 NAtoms=    9 NActive=    9 NUniq=    9 SFac= 1.00D+00 NAtFMM=   60 NAOKFM=F Big=F
 Integral buffers will be    131072 words long.
 Raffenetti 2 integral format.
 Two-electron integral symmetry is turned on.
 Nuclear repulsion after empirical dispersion term =       96.1466192500 Hartrees.
 One-electron integrals computed using PRISM.
 NBasis=   190 RedAO= T EigKep=  3.32D-04  NBF=   190
 NBsUse=   190 1.00D-06 EigRej= -1.00D+00 NBFU=   190
 Initial guess from the checkpoint file:  "/localscratch/339542/Gau-36570.chk"
 B after Tr=     0.000000   -0.000000   -0.000000
         Rot=    1.000000    0.000001   -0.000000   -0.000177 Ang=   0.02 deg.
 Initial guess <Sx>= 0.0000 <Sy>= 0.0000 <Sz>= 0.5000 <S**2>= 0.7885 S= 0.5191
 ExpMin= 1.03D-01 ExpMax= 8.24D+03 ExpMxC= 2.81D+02 IAcc=3 IRadAn=         5 AccDes= 0.00D+00
 Harris functional with IExCor=  419 and IRadAn=       5 diagonalized for initial guess.
 HarFok:  IExCor=  419 AccDes= 0.00D+00 IRadAn=         5 IDoV= 1 UseB2=F ITyADJ=14
 ICtDFT=  3500011 ScaDFX=  1.000000  1.000000  1.000000  1.000000
 FoFCou: FMM=F IPFlag=           0 FMFlag=      100000 FMFlg1=           0
         NFxFlg=           0 DoJE=T BraDBF=F KetDBF=T FulRan=T
         wScrn=  0.000000 ICntrl=       500 IOpCl=  0 I1Cent=   200000004 NGrid=           0
         NMat0=    1 NMatS0=      1 NMatT0=    0 NMatD0=    1 NMtDS0=    0 NMtDT0=    0
 Petite list used in FoFCou.
 Keep R1 and R2 ints in memory in canonical form, NReq=370972403.
 Requested convergence on RMS density matrix=1.00D-08 within 128 cycles.
 Requested convergence on MAX density matrix=1.00D-06.
 Requested convergence on             energy=1.00D-06.
 No special actions if energy rises.
 Integral accuracy reduced to 1.0D-05 until final iterations.
 Initial convergence to 1.0D-05 achieved.  Increase integral accuracy.
 SCF Done:  E(UB2PLYPD3) =  -155.019307331     A.U. after   16 cycles
            NFock= 16  Conv=0.75D-08     -V/T= 2.0043
 <Sx>= 0.0000 <Sy>= 0.0000 <Sz>= 0.5000 <S**2>= 0.7920 S= 0.5208
 <L.S>=  0.00000000000    
 Annihilation of the first spin contaminant:
 S**2 before annihilation     0.7920,   after     0.7508
 DoSCS=T DFT=T ScalE2(SS,OS)=  0.270000  0.270000
 ExpMin= 1.03D-01 ExpMax= 8.24D+03 ExpMxC= 2.81D+02 IAcc=3 IRadAn=         5 AccDes= 0.00D+00
 HarFok:  IExCor=  205 AccDes= 0.00D+00 IRadAn=         5 IDoV=-2 UseB2=F ITyADJ=14
 ICtDFT= 12500011 ScaDFX=  1.000000  1.000000  1.000000  1.000000
 Range of M.O.s used for correlation:     5   190
 NBasis=   190 NAE=    15 NBE=    14 NFC=     4 NFV=     0
 NROrb=    186 NOA=    11 NOB=    10 NVA=   175 NVB=   176

 **** Warning!!: The largest alpha MO coefficient is  0.20007687D+02


 **** Warning!!: The largest beta MO coefficient is  0.20106659D+02

 DoSCS=T DFT=T ScalE2(SS,OS)=  0.270000  0.270000
 Fully direct method using O(ONN) memory.
 JobTyp=2 Pass  1:  I=   5 to  15 NPSUse= 40 ParTrn=T ParDer=T DoDerP=T.
 JobTyp=3 Pass  1:  I=   5 to  14 NPSUse= 40 ParTrn=T ParDer=T DoDerP=T.
 Spin components of T(2) and E(2):
     alpha-alpha T2 =       0.4267658322D-01 E2=     -0.2563538646D-01
     alpha-beta  T2 =       0.2492983336D+00 E2=     -0.1538672291D+00
     beta-beta   T2 =       0.3769202677D-01 E2=     -0.2206420588D-01
 (S**2,0)=  0.79196D+00           (S**2,1)=  0.76834D+00
 Scaling Projection term by:   0.270000
 E(PUHF)=      -0.15502354999D+03        E(PMP2)=      -0.15522170061D+03
 E2(B2PLYPD3) =    -0.2015668215D+00 E(B2PLYPD3) =    -0.15522087415270D+03
          IDoAtm=111111111
          Differentiating once with respect to electric field.
                with respect to dipole field.
          Differentiating once with respect to nuclear coordinates.
 Keep R1 and R2 ints in memory in canonical form, NReq=370978875.
          There are     1 degrees of freedom in the 1st order CPHF.  IDoFFX=0 NUNeed=     1.
 LinEq1:  Iter=  0 NonCon=     1 RMS=1.04D-03 Max=2.70D-02 NDo=     1
 AX will form     1 AO Fock derivatives at one time.
 LinEq1:  Iter=  1 NonCon=     1 RMS=4.42D-04 Max=1.49D-02 NDo=     1
 LinEq1:  Iter=  2 NonCon=     1 RMS=2.96D-04 Max=7.83D-03 NDo=     1
 LinEq1:  Iter=  3 NonCon=     1 RMS=1.04D-04 Max=3.11D-03 NDo=     1
 LinEq1:  Iter=  4 NonCon=     1 RMS=6.68D-05 Max=1.70D-03 NDo=     1
 LinEq1:  Iter=  5 NonCon=     1 RMS=2.36D-05 Max=6.75D-04 NDo=     1
 LinEq1:  Iter=  6 NonCon=     1 RMS=8.85D-06 Max=2.53D-04 NDo=     1
 LinEq1:  Iter=  7 NonCon=     1 RMS=4.72D-06 Max=1.20D-04 NDo=     1
 LinEq1:  Iter=  8 NonCon=     1 RMS=2.23D-06 Max=5.17D-05 NDo=     1
 LinEq1:  Iter=  9 NonCon=     1 RMS=8.53D-07 Max=1.61D-05 NDo=     1
 LinEq1:  Iter= 10 NonCon=     1 RMS=3.84D-07 Max=6.64D-06 NDo=     1
 LinEq1:  Iter= 11 NonCon=     1 RMS=1.08D-07 Max=1.22D-06 NDo=     1
 LinEq1:  Iter= 12 NonCon=     1 RMS=3.57D-08 Max=5.92D-07 NDo=     1
 LinEq1:  Iter= 13 NonCon=     1 RMS=6.35D-09 Max=8.00D-08 NDo=     1
 LinEq1:  Iter= 14 NonCon=     1 RMS=1.34D-09 Max=1.61D-08 NDo=     1
 LinEq1:  Iter= 15 NonCon=     1 RMS=2.81D-10 Max=3.41D-09 NDo=     1
 LinEq1:  Iter= 16 NonCon=     1 RMS=7.65D-11 Max=1.18D-09 NDo=     1
 LinEq1:  Iter= 17 NonCon=     0 RMS=1.39D-11 Max=1.74D-10 NDo=     1
 Linear equations converged to 1.000D-10 1.000D-09 after    17 iterations.
 End of Minotr F.D. properties file   721 does not exist.
 End of Minotr F.D. properties file   722 does not exist.
 End of Minotr F.D. properties file   788 does not exist.
 Calling FoFJK, ICntrl=  10002127 FMM=F ISym2X=0 I1Cent= 0 IOpClX= 1 NMat=1 NMatS=1 NMatT=0.
 ***** Axes restored to original set *****
 -------------------------------------------------------------------
 Center     Atomic                   Forces (Hartrees/Bohr)
 Number     Number              X              Y              Z
 -------------------------------------------------------------------
      1        6           0.001922714   -0.000977007    0.000000352
      2        6          -0.005000400   -0.001823101   -0.000000443
      3        6           0.002184120    0.001788178    0.000000464
      4        6           0.001271390    0.000351451   -0.000000073
      5        1           0.001193877    0.001193692   -0.000000049
      6        1          -0.000248426    0.000406228   -0.000000148
      7        1          -0.000124492   -0.000313309    0.000000138
      8        1          -0.000437537   -0.000090069   -0.000000198
      9        1          -0.000761246   -0.000536065   -0.000000042
 -------------------------------------------------------------------
 Cartesian Forces:  Max     0.005000400 RMS     0.001318586

 GradGradGradGradGradGradGradGradGradGradGradGradGradGradGradGradGradGrad
 Berny optimization.
 Using GEDIIS/GDIIS optimizer.
 FormGI is forming the generalized inverse of G from B-inverse, IUseBI=4.
 Internal  Forces:  Max     0.005368234 RMS     0.001566682
 Search for a local minimum.
 Step number   3 out of a maximum of  100
 All quantities printed in internal units (Hartrees-Bohrs-Radians)
 Mixed Optimization -- RFO/linear search
 Update second derivatives using D2CorX and points    1    2    3
 DE= -1.50D-03 DEPred=-1.50D-03 R= 1.00D+00
 TightC=F SS=  1.41D+00  RLast= 1.25D-01 DXNew= 8.4853D-01 3.7408D-01
 Trust test= 1.00D+00 RLast= 1.25D-01 DXMaxT set to 5.05D-01
 ITU=  1  1  0
 Use linear search instead of GDIIS.
     Eigenvalues ---    0.00237   0.01386   0.02186   0.03069   0.03069
     Eigenvalues ---    0.03069   0.11888   0.16000   0.16000   0.16005
     Eigenvalues ---    0.16232   0.19188   0.22102   0.33471   0.33850
     Eigenvalues ---    0.33879   0.36295   0.37242   0.38381   0.59938
     Eigenvalues ---    0.60525
 RFO step:  Lambda=-2.79578465D-04 EMin= 2.36824256D-03
 Quartic linear search produced a step of  0.09111.
 Iteration  1 RMS(Cart)=  0.02532293 RMS(Int)=  0.00024710
 Iteration  2 RMS(Cart)=  0.00030853 RMS(Int)=  0.00000002
 Iteration  3 RMS(Cart)=  0.00000002 RMS(Int)=  0.00000002
 Variable       Old X    -DE/DX   Delta X   Delta X   Delta X     New X
                                 (Linear)    (Quad)   (Total)
    R1        2.47944  -0.00048  -0.00109  -0.00115  -0.00224   2.47720
    R2        2.04210   0.00026  -0.00011   0.00140   0.00129   2.04340
    R3        2.05859   0.00005   0.00094   0.00081   0.00175   2.06034
    R4        2.69732   0.00532  -0.00631   0.01656   0.01025   2.70757
    R5        2.51822   0.00088   0.00066   0.00164   0.00231   2.52053
    R6        2.05769   0.00049   0.00076   0.00068   0.00144   2.05913
    R7        2.03893   0.00020  -0.00038  -0.00027  -0.00065   2.03827
    R8        2.04052   0.00021  -0.00012  -0.00030  -0.00042   2.04010
    A1        2.14316  -0.00015   0.00103  -0.00010   0.00092   2.14408
    A2        2.09421   0.00103   0.00097   0.00644   0.00740   2.10161
    A3        2.04582  -0.00088  -0.00199  -0.00633  -0.00833   2.03749
    A4        2.36746   0.00537   0.00778   0.02594   0.03372   2.40118
    A5        2.18512  -0.00008   0.00104   0.00038   0.00142   2.18654
    A6        2.00119   0.00170   0.00187   0.01047   0.01234   2.01353
    A7        2.09688  -0.00162  -0.00291  -0.01085  -0.01376   2.08311
    A8        2.11854  -0.00041  -0.00102  -0.00290  -0.00393   2.11462
    A9        2.11312  -0.00006  -0.00104  -0.00073  -0.00177   2.11135
   A10        2.05152   0.00047   0.00207   0.00363   0.00570   2.05722
    D1       -3.14158  -0.00000  -0.00000  -0.00001  -0.00001  -3.14159
    D2        0.00001  -0.00000  -0.00000   0.00000  -0.00000   0.00001
    D3        3.14159   0.00000  -0.00000   0.00001   0.00001  -3.14159
    D4       -3.14157  -0.00000   0.00000  -0.00005  -0.00005   3.14157
    D5        0.00003  -0.00000   0.00000  -0.00006  -0.00006  -0.00003
    D6       -3.14159  -0.00000   0.00000  -0.00001  -0.00001   3.14159
    D7        0.00001  -0.00000  -0.00000  -0.00001  -0.00001  -0.00000
    D8       -0.00000  -0.00000   0.00000  -0.00000  -0.00000  -0.00000
    D9        3.14159  -0.00000  -0.00000   0.00000   0.00000   3.14159
         Item               Value     Threshold  Converged?
 Maximum Force            0.005368     0.000450     NO 
 RMS     Force            0.001567     0.000300     NO 
 Maximum Displacement     0.061212     0.001800     NO 
 RMS     Displacement     0.025276     0.001200     NO 
 Predicted change in Energy=-1.520423D-04
 GradGradGradGradGradGradGradGradGradGradGradGradGradGradGradGradGradGrad

                          Input orientation:                          
 ---------------------------------------------------------------------
 Center     Atomic      Atomic             Coordinates (Angstroms)
 Number     Number       Type             X           Y           Z
 ---------------------------------------------------------------------
      1          6           0       -2.778809   -0.072308    0.368623
      2          6           0       -1.486220    0.145891    0.368615
      3          6           0       -0.604190    1.275003    0.368655
      4          6           0        0.728117    1.211794    0.368660
      5          1           0       -1.092724    2.248996    0.368683
      6          1           0        1.329313    2.107315    0.368689
      7          1           0        1.239182    0.260850    0.368634
      8          1           0       -3.205917   -1.065700    0.368583
      9          1           0       -3.479559    0.762962    0.368668
 ---------------------------------------------------------------------
                    Distance matrix (angstroms):
                    1          2          3          4          5
     1  C    0.000000
     2  C    1.310876   0.000000
     3  C    2.558166   1.432784   0.000000
     4  C    3.734628   2.457526   1.333805   0.000000
     5  H    2.869029   2.139600   1.089646   2.095531   0.000000
     6  H    4.650529   3.431386   2.105036   1.078608   2.426178
     7  H    4.031779   2.727825   2.103932   1.079575   3.064394
     8  H    1.081319   2.103642   3.499696   4.545723   3.931004
     9  H    1.090287   2.086666   2.920605   4.231546   2.811632
                    6          7          8          9
     6  H    0.000000
     7  H    1.848664   0.000000
     8  H    5.535010   4.638819   0.000000
     9  H    4.993249   4.745380   1.849023   0.000000
 Stoichiometry    C4H5(2)
 Framework group  C1[X(C4H5)]
 Deg. of freedom    21
 Full point group                 C1      NOp   1
 Largest Abelian subgroup         C1      NOp   1
 Largest concise Abelian subgroup C1      NOp   1
                         Standard orientation:                         
 ---------------------------------------------------------------------
 Center     Atomic      Atomic             Coordinates (Angstroms)
 Number     Number       Type             X           Y           Z
 ---------------------------------------------------------------------
      1          6           0       -1.897176   -0.018669   -0.000017
      2          6           0       -0.620759   -0.317260   -0.000026
      3          6           0        0.629265    0.382961    0.000015
      4          6           0        1.833496   -0.190507    0.000019
      5          1           0        0.555354    1.470097    0.000042
      6          1           0        2.734208    0.402886    0.000048
      7          1           0        1.937098   -1.265099   -0.000007
      8          1           0       -2.675185   -0.769636   -0.000058
      9          1           0       -2.220436    1.022594    0.000027
 ---------------------------------------------------------------------
 Rotational constants (GHZ):          56.1891465           4.3298762           4.0200922
 Standard basis: CC-pVTZ (5D, 7F)
 There are   215 symmetry adapted cartesian basis functions of A   symmetry.
 There are   190 symmetry adapted basis functions of A   symmetry.
   190 basis functions,   293 primitive gaussians,   215 cartesian basis functions
    15 alpha electrons       14 beta electrons
       nuclear repulsion energy        95.9280841266 Hartrees.
 NAtoms=    9 NActive=    9 NUniq=    9 SFac= 1.00D+00 NAtFMM=   60 NAOKFM=F Big=F
 Integral buffers will be    131072 words long.
 Raffenetti 2 integral format.
 Two-electron integral symmetry is turned on.
 Nuclear repulsion after empirical dispersion term =       95.9238767116 Hartrees.
 One-electron integrals computed using PRISM.
 NBasis=   190 RedAO= T EigKep=  3.36D-04  NBF=   190
 NBsUse=   190 1.00D-06 EigRej= -1.00D+00 NBFU=   190
 Initial guess from the checkpoint file:  "/localscratch/339542/Gau-36570.chk"
 B after Tr=    -0.000000    0.000000    0.000000
         Rot=    1.000000   -0.000001    0.000000    0.000738 Ang=  -0.08 deg.
 Initial guess <Sx>= 0.0000 <Sy>= 0.0000 <Sz>= 0.5000 <S**2>= 0.7919 S= 0.5207
 ExpMin= 1.03D-01 ExpMax= 8.24D+03 ExpMxC= 2.81D+02 IAcc=3 IRadAn=         5 AccDes= 0.00D+00
 Harris functional with IExCor=  419 and IRadAn=       5 diagonalized for initial guess.
 HarFok:  IExCor=  419 AccDes= 0.00D+00 IRadAn=         5 IDoV= 1 UseB2=F ITyADJ=14
 ICtDFT=  3500011 ScaDFX=  1.000000  1.000000  1.000000  1.000000
 FoFCou: FMM=F IPFlag=           0 FMFlag=      100000 FMFlg1=           0
         NFxFlg=           0 DoJE=T BraDBF=F KetDBF=T FulRan=T
         wScrn=  0.000000 ICntrl=       500 IOpCl=  0 I1Cent=   200000004 NGrid=           0
         NMat0=    1 NMatS0=      1 NMatT0=    0 NMatD0=    1 NMtDS0=    0 NMtDT0=    0
 Petite list used in FoFCou.
 Keep R1 and R2 ints in memory in canonical form, NReq=370972403.
 Requested convergence on RMS density matrix=1.00D-08 within 128 cycles.
 Requested convergence on MAX density matrix=1.00D-06.
 Requested convergence on             energy=1.00D-06.
 No special actions if energy rises.
 Integral accuracy reduced to 1.0D-05 until final iterations.
 Initial convergence to 1.0D-05 achieved.  Increase integral accuracy.
 SCF Done:  E(UB2PLYPD3) =  -155.019423695     A.U. after   16 cycles
            NFock= 16  Conv=0.27D-08     -V/T= 2.0044
 <Sx>= 0.0000 <Sy>= 0.0000 <Sz>= 0.5000 <S**2>= 0.7913 S= 0.5204
 <L.S>=  0.00000000000    
 Annihilation of the first spin contaminant:
 S**2 before annihilation     0.7913,   after     0.7507
 DoSCS=T DFT=T ScalE2(SS,OS)=  0.270000  0.270000
 ExpMin= 1.03D-01 ExpMax= 8.24D+03 ExpMxC= 2.81D+02 IAcc=3 IRadAn=         5 AccDes= 0.00D+00
 HarFok:  IExCor=  205 AccDes= 0.00D+00 IRadAn=         5 IDoV=-2 UseB2=F ITyADJ=14
 ICtDFT= 12500011 ScaDFX=  1.000000  1.000000  1.000000  1.000000
 Range of M.O.s used for correlation:     5   190
 NBasis=   190 NAE=    15 NBE=    14 NFC=     4 NFV=     0
 NROrb=    186 NOA=    11 NOB=    10 NVA=   175 NVB=   176

 **** Warning!!: The largest alpha MO coefficient is  0.19972039D+02


 **** Warning!!: The largest beta MO coefficient is  0.20134983D+02

 DoSCS=T DFT=T ScalE2(SS,OS)=  0.270000  0.270000
 Fully direct method using O(ONN) memory.
 JobTyp=2 Pass  1:  I=   5 to  15 NPSUse= 40 ParTrn=T ParDer=T DoDerP=T.
 JobTyp=3 Pass  1:  I=   5 to  14 NPSUse= 40 ParTrn=T ParDer=T DoDerP=T.
 Spin components of T(2) and E(2):
     alpha-alpha T2 =       0.4273688762D-01 E2=     -0.2563923606D-01
     alpha-beta  T2 =       0.2495956546D+00 E2=     -0.1539314980D+00
     beta-beta   T2 =       0.3770770152D-01 E2=     -0.2205280491D-01
 (S**2,0)=  0.79132D+00           (S**2,1)=  0.76784D+00
 Scaling Projection term by:   0.270000
 E(PUHF)=      -0.15502367100D+03        E(PMP2)=      -0.15522187174D+03
 E2(B2PLYPD3) =    -0.2016235389D+00 E(B2PLYPD3) =    -0.15522104723418D+03
          IDoAtm=111111111
          Differentiating once with respect to electric field.
                with respect to dipole field.
          Differentiating once with respect to nuclear coordinates.
 Keep R1 and R2 ints in memory in canonical form, NReq=370978875.
          There are     1 degrees of freedom in the 1st order CPHF.  IDoFFX=0 NUNeed=     1.
 LinEq1:  Iter=  0 NonCon=     1 RMS=1.04D-03 Max=2.68D-02 NDo=     1
 AX will form     1 AO Fock derivatives at one time.
 LinEq1:  Iter=  1 NonCon=     1 RMS=4.40D-04 Max=1.48D-02 NDo=     1
 LinEq1:  Iter=  2 NonCon=     1 RMS=2.95D-04 Max=7.86D-03 NDo=     1
 LinEq1:  Iter=  3 NonCon=     1 RMS=1.05D-04 Max=3.11D-03 NDo=     1
 LinEq1:  Iter=  4 NonCon=     1 RMS=6.70D-05 Max=1.69D-03 NDo=     1
 LinEq1:  Iter=  5 NonCon=     1 RMS=2.37D-05 Max=6.90D-04 NDo=     1
 LinEq1:  Iter=  6 NonCon=     1 RMS=9.20D-06 Max=2.71D-04 NDo=     1
 LinEq1:  Iter=  7 NonCon=     1 RMS=5.32D-06 Max=1.43D-04 NDo=     1
 LinEq1:  Iter=  8 NonCon=     1 RMS=2.33D-06 Max=4.89D-05 NDo=     1
 LinEq1:  Iter=  9 NonCon=     1 RMS=8.43D-07 Max=1.57D-05 NDo=     1
 LinEq1:  Iter= 10 NonCon=     1 RMS=3.84D-07 Max=6.88D-06 NDo=     1
 LinEq1:  Iter= 11 NonCon=     1 RMS=1.13D-07 Max=1.35D-06 NDo=     1
 LinEq1:  Iter= 12 NonCon=     1 RMS=3.68D-08 Max=5.94D-07 NDo=     1
 LinEq1:  Iter= 13 NonCon=     1 RMS=6.46D-09 Max=8.22D-08 NDo=     1
 LinEq1:  Iter= 14 NonCon=     1 RMS=1.39D-09 Max=1.63D-08 NDo=     1
 LinEq1:  Iter= 15 NonCon=     1 RMS=3.02D-10 Max=3.70D-09 NDo=     1
 LinEq1:  Iter= 16 NonCon=     1 RMS=8.09D-11 Max=1.29D-09 NDo=     1
 LinEq1:  Iter= 17 NonCon=     0 RMS=1.41D-11 Max=1.82D-10 NDo=     1
 Linear equations converged to 1.000D-10 1.000D-09 after    17 iterations.
 End of Minotr F.D. properties file   721 does not exist.
 End of Minotr F.D. properties file   722 does not exist.
 End of Minotr F.D. properties file   788 does not exist.
 Calling FoFJK, ICntrl=  10002127 FMM=F ISym2X=0 I1Cent= 0 IOpClX= 1 NMat=1 NMatS=1 NMatT=0.
 ***** Axes restored to original set *****
 -------------------------------------------------------------------
 Center     Atomic                   Forces (Hartrees/Bohr)
 Number     Number              X              Y              Z
 -------------------------------------------------------------------
      1        6           0.000509426    0.000857524   -0.000000393
      2        6          -0.000300823   -0.000512944    0.000000512
      3        6          -0.000129355    0.000936562   -0.000000230
      4        6          -0.000824936   -0.000904582   -0.000000055
      5        1           0.000229832    0.000135118   -0.000000010
      6        1           0.000113285    0.000337424    0.000000140
      7        1           0.000348833   -0.000243523   -0.000000114
      8        1           0.000220700   -0.000075958    0.000000053
      9        1          -0.000166963   -0.000529622    0.000000097
 -------------------------------------------------------------------
 Cartesian Forces:  Max     0.000936562 RMS     0.000407465

 GradGradGradGradGradGradGradGradGradGradGradGradGradGradGradGradGradGrad
 Berny optimization.
 Using GEDIIS/GDIIS optimizer.
 FormGI is forming the generalized inverse of G from B-inverse, IUseBI=4.
 Internal  Forces:  Max     0.001184091 RMS     0.000448750
 Search for a local minimum.
 Step number   4 out of a maximum of  100
 All quantities printed in internal units (Hartrees-Bohrs-Radians)
 Mixed Optimization -- En-DIIS/RFO-DIIS
 Update second derivatives using D2CorX and points    1    2    3    4
 DE= -1.73D-04 DEPred=-1.52D-04 R= 1.14D+00
 TightC=F SS=  1.41D+00  RLast= 4.22D-02 DXNew= 8.4853D-01 1.2656D-01
 Trust test= 1.14D+00 RLast= 4.22D-02 DXMaxT set to 5.05D-01
 ITU=  1  1  1  0
 Use linear search instead of GDIIS.
     Eigenvalues ---    0.00237   0.01396   0.02170   0.03069   0.03069
     Eigenvalues ---    0.03069   0.09278   0.16000   0.16004   0.16084
     Eigenvalues ---    0.16388   0.18786   0.23076   0.33690   0.33874
     Eigenvalues ---    0.34857   0.35775   0.37256   0.37842   0.59845
     Eigenvalues ---    0.60982
 RFO step:  Lambda=-2.85635947D-05 EMin= 2.36824276D-03
 Quartic linear search produced a step of  0.19300.
 Iteration  1 RMS(Cart)=  0.01256240 RMS(Int)=  0.00007262
 Iteration  2 RMS(Cart)=  0.00009377 RMS(Int)=  0.00000000
 Iteration  3 RMS(Cart)=  0.00000000 RMS(Int)=  0.00000000
 Variable       Old X    -DE/DX   Delta X   Delta X   Delta X     New X
                                 (Linear)    (Quad)   (Total)
    R1        2.47720  -0.00060  -0.00043  -0.00139  -0.00183   2.47537
    R2        2.04340  -0.00002   0.00025   0.00002   0.00027   2.04367
    R3        2.06034  -0.00030   0.00034  -0.00066  -0.00032   2.06002
    R4        2.70757   0.00004   0.00198  -0.00311  -0.00113   2.70644
    R5        2.52053  -0.00032   0.00045  -0.00062  -0.00018   2.52035
    R6        2.05913   0.00002   0.00028  -0.00012   0.00016   2.05929
    R7        2.03827   0.00034  -0.00013   0.00090   0.00077   2.03905
    R8        2.04010   0.00038  -0.00008   0.00106   0.00098   2.04108
    A1        2.14408  -0.00064   0.00018  -0.00438  -0.00421   2.13988
    A2        2.10161   0.00080   0.00143   0.00567   0.00710   2.10871
[...]
 Rotational constants (GHZ):          55.82971     4.33178     4.01988
 Zero-point vibrational energy     187711.3 (Joules/Mol)
                                   44.86409 (Kcal/Mol)
 Warning -- explicit consideration of   4 degrees of freedom as
           vibrations may cause significant error
 Vibrational temperatures:    149.11   338.37   594.48   696.70  1063.80
          (Kelvin)           1260.20  1296.66  1394.66  1415.09  1456.99
                             1670.02  1894.09  2035.68  2105.20  2411.11
                             2639.85  4420.77  4451.41  4564.35  4598.82
                             4695.63
 
 Zero-point correction=                           0.071495 (Hartree/Particle)
 Thermal correction to Energy=                    0.076469
 Thermal correction to Enthalpy=                  0.077413
 Thermal correction to Gibbs Free Energy=         0.044000
 Sum of electronic and zero-point Energies=           -155.149576
 Sum of electronic and thermal Energies=              -155.144602
 Sum of electronic and thermal Enthalpies=            -155.143658
 Sum of electronic and thermal Free Energies=         -155.177072
 
                     E (Thermal)             CV                S
                      KCal/Mol        Cal/Mol-Kelvin    Cal/Mol-Kelvin
 Total                   47.985             16.001             70.324
 Electronic               0.000              0.000              1.377
 Translational            0.889              2.981             37.828
 Rotational               0.889              2.981             23.318
 Vibrational             46.208             10.040              7.801
 Vibration     1          0.605              1.946              3.385
 Vibration     2          0.655              1.787              1.839
 Vibration     3          0.777              1.442              0.915
 Vibration     4          0.840              1.285              0.699
                       Q            Log10(Q)             Ln(Q)
 Total Bot       0.577453D-20        -20.238483        -46.600829
 Total V=0       0.443735D+13         12.647124         29.121079
 Vib (Bot)       0.683192D-32        -32.165457        -74.063702
 Vib (Bot)    1  0.197887D+01          0.296417          0.682524
 Vib (Bot)    2  0.835572D+00         -0.078016         -0.179639
 Vib (Bot)    3  0.427173D+00         -0.369396         -0.850565
 Vib (Bot)    4  0.344132D+00         -0.463274         -1.066729
 Vib (V=0)       0.524988D+01          0.720150          1.658206
 Vib (V=0)    1  0.254106D+01          0.405014          0.932580
 Vib (V=0)    2  0.147375D+01          0.168423          0.387807
 Vib (V=0)    3  0.115763D+01          0.063570          0.146375
 Vib (V=0)    4  0.110698D+01          0.044141          0.101637
 Electronic      0.200000D+01          0.301030          0.693147
 Translational   0.151827D+08          7.181348         16.535666
 Rotational      0.278353D+05          4.444596         10.234060
 ***** Axes restored to original set *****
 -------------------------------------------------------------------
 Center     Atomic                   Forces (Hartrees/Bohr)
 Number     Number              X              Y              Z
 -------------------------------------------------------------------
      1        6          -0.000104848    0.000118473   -0.000000114
      2        6           0.000122037   -0.000011170    0.000000012
      3        6          -0.000055439    0.000068309    0.000000020
      4        6          -0.000068230   -0.000003452   -0.000000008
      5        1          -0.000010258   -0.000075349    0.000000006
      6        1           0.000040728   -0.000056644   -0.000000007
      7        1          -0.000000463    0.000030148    0.000000008
      8        1           0.000041720   -0.000049558    0.000000052
      9        1           0.000034753   -0.000020756    0.000000032
 -------------------------------------------------------------------
 Cartesian Forces:  Max     0.000122037 RMS     0.000050862
 FormGI is forming the generalized inverse of G from B-inverse, IUseBI=4.

 GradGradGradGradGradGradGradGradGradGradGradGradGradGradGradGradGradGrad
 Berny optimization.
 Internal  Forces:  Max     0.000094871 RMS     0.000044151
 Search for a local minimum.
 Step number   1 out of a maximum of    2
 All quantities printed in internal units (Hartrees-Bohrs-Radians)
 Second derivative matrix not updated -- analytic derivatives used.
 ITU=  0
     Eigenvalues ---    0.00306   0.01476   0.02518   0.03048   0.03292
     Eigenvalues ---    0.04318   0.08496   0.10038   0.10418   0.10669
     Eigenvalues ---    0.11426   0.13936   0.15708   0.33702   0.34014
     Eigenvalues ---    0.35949   0.36403   0.36707   0.37181   0.63615
     Eigenvalues ---    0.68929
 Angle between quadratic step and forces=  25.08 degrees.
 Linear search not attempted -- first point.
 Iteration  1 RMS(Cart)=  0.00068518 RMS(Int)=  0.00000029
 Iteration  2 RMS(Cart)=  0.00000032 RMS(Int)=  0.00000000
 Variable       Old X    -DE/DX   Delta X   Delta X   Delta X     New X
                                 (Linear)    (Quad)   (Total)
    R1        2.47571   0.00002   0.00000   0.00009   0.00009   2.47580
    R2        2.04391   0.00003   0.00000   0.00009   0.00009   2.04401
    R3        2.05939  -0.00004   0.00000  -0.00017  -0.00017   2.05922
    R4        2.70759  -0.00009   0.00000  -0.00013  -0.00013   2.70747
    R5        2.52057  -0.00003   0.00000  -0.00006  -0.00006   2.52051
    R6        2.05887  -0.00006   0.00000  -0.00022  -0.00022   2.05865
    R7        2.03953  -0.00002   0.00000  -0.00006  -0.00006   2.03948
    R8        2.04102  -0.00003   0.00000  -0.00005  -0.00005   2.04097
    A1        2.13751  -0.00007   0.00000  -0.00067  -0.00067   2.13684
    A2        2.11105   0.00002   0.00000   0.00019   0.00019   2.11124
    A3        2.03462   0.00005   0.00000   0.00048   0.00048   2.03510
    A4        2.41483  -0.00004   0.00000  -0.00019  -0.00019   2.41464
    A5        2.17789  -0.00009   0.00000  -0.00065  -0.00065   2.17724
    A6        2.02208   0.00000   0.00000  -0.00004  -0.00004   2.02204
    A7        2.08321   0.00009   0.00000   0.00070   0.00070   2.08390
    A8        2.11254   0.00008   0.00000   0.00078   0.00078   2.11332
    A9        2.11376  -0.00003   0.00000  -0.00027  -0.00027   2.11349
   A10        2.05688  -0.00005   0.00000  -0.00050  -0.00050   2.05638
    D1        3.14159   0.00000   0.00000   0.00000   0.00000  -3.14159
    D2        0.00000  -0.00000   0.00000  -0.00000  -0.00000   0.00000
    D3       -3.14159  -0.00000   0.00000  -0.00000  -0.00000  -3.14159
    D4        3.14159   0.00000   0.00000   0.00000   0.00000  -3.14159
    D5       -0.00000   0.00000   0.00000   0.00000   0.00000   0.00000
    D6       -3.14159  -0.00000   0.00000  -0.00000  -0.00000   3.14159
    D7        0.00000  -0.00000   0.00000  -0.00000  -0.00000   0.00000
    D8        0.00000  -0.00000   0.00000  -0.00000  -0.00000  -0.00000
    D9       -3.14159  -0.00000   0.00000  -0.00000  -0.00000   3.14159
         Item               Value     Threshold  Converged?
 Maximum Force            0.000095     0.000450     YES
 RMS     Force            0.000044     0.000300     YES
 Maximum Displacement     0.001709     0.001800     YES
 RMS     Displacement     0.000685     0.001200     YES
 Predicted change in Energy=-1.712750D-07
 Optimization completed.
    -- Stationary point found.
                           ----------------------------
                           !   Optimized Parameters   !
                           ! (Angstroms and Degrees)  !
 --------------------------                            --------------------------
 ! Name  Definition              Value          Derivative Info.                !
 --------------------------------------------------------------------------------
 ! R1    R(1,2)                  1.3101         -DE/DX =    0.0                 !
 ! R2    R(1,8)                  1.0816         -DE/DX =    0.0                 !
 ! R3    R(1,9)                  1.0898         -DE/DX =    0.0                 !
 ! R4    R(2,3)                  1.4328         -DE/DX =   -0.0001              !
 ! R5    R(3,4)                  1.3338         -DE/DX =    0.0                 !
 ! R6    R(3,5)                  1.0895         -DE/DX =   -0.0001              !
 ! R7    R(4,6)                  1.0793         -DE/DX =    0.0                 !
 ! R8    R(4,7)                  1.0801         -DE/DX =    0.0                 !
 ! A1    A(2,1,8)              122.4705         -DE/DX =   -0.0001              !
 ! A2    A(2,1,9)              120.9545         -DE/DX =    0.0                 !
 ! A3    A(8,1,9)              116.575          -DE/DX =    0.0                 !
 ! A4    A(1,2,3)              138.3596         -DE/DX =    0.0                 !
 ! A5    A(2,3,4)              124.7841         -DE/DX =   -0.0001              !
 ! A6    A(2,3,5)              115.8569         -DE/DX =    0.0                 !
 ! A7    A(4,3,5)              119.359          -DE/DX =    0.0001              !
 ! A8    A(3,4,6)              121.0396         -DE/DX =    0.0001              !
 ! A9    A(3,4,7)              121.1097         -DE/DX =    0.0                 !
 ! A10   A(6,4,7)              117.8507         -DE/DX =   -0.0001              !
 ! D1    D(8,1,2,3)           -180.0001         -DE/DX =    0.0                 !
 ! D2    D(9,1,2,3)              0.0            -DE/DX =    0.0                 !
 ! D3    D(2,1,8,9)           -179.9999         -DE/DX =    0.0                 !
 ! D4    D(1,2,3,4)           -180.0001         -DE/DX =    0.0                 !
 ! D5    D(1,2,3,5)             -0.0002         -DE/DX =    0.0                 !
 ! D6    D(2,3,4,6)            180.0            -DE/DX =    0.0                 !
 ! D7    D(2,3,4,7)              0.0            -DE/DX =    0.0                 !
 ! D8    D(5,3,4,6)              0.0            -DE/DX =    0.0                 !
 ! D9    D(5,3,4,7)            180.0            -DE/DX =    0.0                 !
 --------------------------------------------------------------------------------
 GradGradGradGradGradGradGradGradGradGradGradGradGradGradGradGradGradGrad


 ----------------------------------------------------------------------

 Electric dipole moment (input orientation):
 (Debye = 10**-18 statcoulomb cm , SI units = C m)
                  (au)            (Debye)         (10**-30 SI)
   Tot        0.261964D+00      0.665846D+00      0.222102D+01
   x         -0.110276D-01     -0.280294D-01     -0.934959D-01
   y          0.261732D+00      0.665256D+00      0.221905D+01
   z          0.000000D+00      0.000000D+00      0.000000D+00

 Dipole polarizability, Alpha (input orientation).
 (esu units = cm**3 , SI units = C**2 m**2 J**-1)
 Alpha(0;0):
               (au)            (10**-24 esu)      (10**-40 SI)
   iso        0.505399D+02      0.748923D+01      0.833290D+01
   aniso      0.531357D+02      0.787390D+01      0.876089D+01
   xx         0.814244D+02      0.120658D+02      0.134251D+02
   yx         0.121658D+02      0.180279D+01      0.200587D+01
   yy         0.439144D+02      0.650744D+01      0.724051D+01
   zx         0.300823D-03      0.445774D-04      0.495990D-04
   zy         0.550378D-03      0.815577D-04      0.907451D-04
   zz         0.262808D+02      0.389441D+01      0.433312D+01

 ----------------------------------------------------------------------

 Dipole orientation:
     6         -5.21965615         -0.91713029          0.08504545
     6         -2.76896449         -0.81387199          0.42061487
     6         -1.00959086         -0.73974547          2.47735054
     6          1.49591691         -0.63418161          2.22327315
     1         -1.83225779         -0.77440700          4.36439921
     1          2.71727404         -0.58272327          3.85585974
     1          2.36817582         -0.59743005          0.37838974
     1         -6.07234841         -0.95305151         -1.77215707
     1         -6.50738094         -0.97139078          1.69125268

 Electric dipole moment (dipole orientation):
 (Debye = 10**-18 statcoulomb cm , SI units = C m)
                  (au)            (Debye)         (10**-30 SI)
   Tot        0.261964D+00      0.665846D+00      0.222102D+01
   x          0.000000D+00      0.000000D+00      0.000000D+00
   y          0.000000D+00      0.000000D+00      0.000000D+00
   z          0.261964D+00      0.665846D+00      0.222102D+01

 Dipole polarizability, Alpha (dipole orientation).
 (esu units = cm**3 , SI units = C**2 m**2 J**-1)
 Alpha(0;0):
               (au)            (10**-24 esu)      (10**-40 SI)
   iso        0.505399D+02      0.748923D+01      0.833290D+01
   aniso      0.531357D+02      0.787390D+01      0.876089D+01
   xx         0.822818D+02      0.121929D+02      0.135664D+02
   yx         0.235951D+01      0.349644D+00      0.389031D+00
   yy         0.263802D+02      0.390914D+01      0.434951D+01
   zx         0.105357D+02      0.156124D+01      0.173711D+01
   zy         0.443893D+00      0.657782D-01      0.731881D-01
   zz         0.429575D+02      0.636565D+01      0.708274D+01

 ----------------------------------------------------------------------
 1\1\GINC-N68\Freq\UB2PLYPD3-FC\CC-pVTZ\C4H5(2)\ROOT\31-May-2019\0\\#N 
 Geom=AllCheck Guess=TCheck SCRF=Check GenChk UB2PLYPD3(FC)/CC-pVTZ Fre
 q\\Title Card Required\\0,2\C,-2.7795344706,-0.0720783072,0.3686217005
 \C,-1.4901594364,0.1599804429,0.3686258225\C,-0.6049552397,1.286620206
 8,0.3686609434\C,0.7265622222,1.2081500649,0.3686573608\H,-1.082328051
 2,2.2659760627,0.3686923795\H,1.3365087676,2.0985431792,0.3686853088\H
 ,1.229238708,0.2521930277,0.3686263309\H,-3.1893882978,-1.0730079535,0
 .3685878454\H,-3.4967493322,0.7484254864,0.3686508682\\Version=ES64L-G
 16RevB.01\State=2-A\HF=-155.0194507\MP2=-155.2210714\PUHF=-155.0236953
 \PMP2-0=-155.2218944\S2=0.791061\S2-1=0.767668\S2A=0.75074\RMSD=2.023e
 -09\RMSF=5.086e-05\ZeroPoint=0.0714955\Thermal=0.076469\Dipole=-0.0110
 276,0.2617318,0.0000083\DipoleDeriv=-0.2891974,-0.2125585,-0.000007,-0
 .1862993,0.0622581,0.0000123,-0.0000047,0.000013,-0.2874317,0.1896845,
 0.1877332,0.0000053,0.2638849,-0.0537442,0.0000004,0.0000082,0.0000005
 ,-0.077646,0.0722412,-0.0054524,0.,-0.0239659,0.1455628,0.0000074,-0.0
 000016,0.0000071,-0.0907061,-0.0592299,-0.0071679,-0.0000004,-0.087461
 8,0.0895647,0.0000114,-0.0000029,0.0000112,-0.2598232,-0.0184716,0.047
 7531,0.0000017,-0.0007641,-0.097449,-0.0000075,0.,-0.0000077,0.138758,
 0.0186879,-0.0322594,-0.0000009,-0.0766064,-0.0356541,-0.0000053,-0.00
 00022,-0.0000053,0.1330381,0.0386712,0.0085444,0.0000003,0.0675062,-0.
 0436192,-0.0000061,0.0000022,-0.0000061,0.1456487,0.0470932,-0.0208209
 ,-0.0000005,-0.0425363,-0.0253086,-0.0000062,-0.0000019,-0.0000067,0.1
 606873,0.000521,0.0342284,0.0000015,0.0862426,-0.0416104,-0.0000063,0.
 0000029,-0.000006,0.1374749\Polar=81.4243724,12.1658217,43.9144061,0.0
 003008,0.0005504,26.2807804\PG=C01 [X(C4H5)]\NImag=0\\0.84066058,0.085
 17922,0.59159019,0.00000098,0.00001674,0.09554840,-0.59100703,-0.08109
 218,-0.00000113,0.82352527,-0.12034201,-0.09802826,-0.00000170,0.23859
 904,0.32848166,-0.00000247,-0.00000180,-0.03777247,0.00000592,0.000007
 99,0.06842652,0.00173697,-0.03324662,-0.00000116,-0.17829503,-0.094384
 06,-0.00000280,0.86553249,0.00773286,0.00515278,0.,-0.12372673,-0.2111
 6492,-0.00000475,-0.01359912,0.57002995,0.00000030,0.00000012,0.004196
 72,-0.00000386,-0.00000483,-0.05740386,-0.00000106,0.00001408,0.126722
 36,-0.01439133,-0.00385049,-0.00000006,-0.01057984,-0.00335707,-0.0000
 0013,-0.56461257,0.03313192,0.00000148,0.86535267,-0.00221029,-0.00540
 165,-0.00000023,-0.03313894,0.00288544,0.,0.02807484,-0.11000782,-0.00
 000192,-0.00736295,0.65779996,-0.00000007,-0.00000023,0.00185256,-0.00
 000103,-0.00000004,0.00424685,0.00000132,-0.00000192,-0.05084713,-0.00
 000086,0.00001751,0.11037940,0.00072011,0.00212173,0.00000007,0.008077
 17,-0.01937264,-0.00000062,-0.10184334,0.09507890,0.00000306,-0.012762
 78,0.03262137,0.00000105,0.11056277,0.00033341,0.00372331,0.00000014,0
 .00629665,-0.02878399,-0.00000111,0.10762023,-0.26272679,-0.00000716,-
 0.00088881,0.00047409,-0.00000020,-0.11090045,0.28502546,0.00000003,0.
 00000013,-0.00058075,0.00000017,-0.00000108,0.00567587,0.00000348,-0.0
 0000715,-0.03954196,-0.00000003,-0.00000023,0.00692147,-0.00000358,0.0
 0000838,0.02380149,-0.00065759,-0.00135762,-0.00000004,-0.00430020,0.0
 0175183,0.00000007,-0.01415912,-0.02863083,-0.00000090,-0.14555741,-0.
 12920407,-0.00000404,0.00130475,0.00005436,0.,0.15354924,-0.00002178,0
 .00057589,0.00000004,0.00060697,0.00036162,-0.00000042,0.00592762,0.00
 545877,0.00000002,-0.13609778,-0.25984040,-0.00000706,-0.00026440,0.00
 113568,0.00000029,0.14516303,0.26687730,0.,0.00000004,-0.00069335,0.00
 000004,-0.00000043,0.01349769,0.00000020,0.00000006,0.00481761,-0.0000
 0426,-0.00000707,-0.03532036,-0.00000001,0.00000028,-0.00779230,0.0000
 0453,0.00000765,0.02372714,-0.00017031,-0.00029188,0.,0.00186633,0.001
 23347,0.00000003,-0.01146283,0.03041868,0.00000099,-0.11647222,0.11232
 184,0.00000366,-0.00532423,-0.00029755,0.,0.01016432,-0.01530022,-0.00
 000049,0.12118672,-0.00011585,-0.00002684,0.,-0.00065982,0.00122743,0.
 00000031,-0.00183918,0.00175527,-0.00000014,0.11841644,-0.28624339,-0.
 00000808,-0.00008519,0.00112044,-0.00000033,0.01217405,-0.01457730,-0.
 00000056,-0.12803850,0.29681688,0.,0.,0.00029463,-0.00000003,0.0000003
 1,-0.00844877,-0.00000005,-0.00000018,0.00625240,0.00000387,-0.0000080
 7,-0.03703805,0.,-0.00000033,0.01153948,0.00000038,-0.00000054,0.00278
 038,-0.00000418,0.00000884,0.02406120,-0.08268175,-0.09898398,-0.00000
 333,-0.01709911,-0.02749586,-0.00000091,-0.00246406,0.00038257,0.00000
 004,-0.00054208,-0.00111311,-0.00000003,0.00007595,-0.00035307,-0.0000
 0001,-0.00033067,0.00008839,0.,0.00001445,0.00007785,0.,0.09463511,-0.
 09596941,-0.29701918,-0.00000902,-0.00558095,-0.00009963,0.00000015,0.
 00155166,0.00038106,-0.00000035,-0.00006391,0.00016010,0.,0.00021757,-
 0.00004532,0.00000002,-0.00000852,0.00002112,0.00000004,-0.00001283,0.
 00002407,0.,0.10870433,0.31389396,-0.00000320,-0.00000906,-0.03017783,
 -0.00000019,0.00000021,-0.00394639,0.00000012,-0.00000032,0.01020845,-
 0.00000002,0.,0.00030403,0.,0.00000001,-0.00061930,0.,0.00000004,-0.00
 121906,0.,0.,0.00022386,0.00000359,0.00001005,0.01647105,-0.15420966,0
 .13152184,0.00000469,-0.03218757,0.02336730,0.00000091,0.00556750,-0.0
 0078825,-0.00000005,-0.00043444,0.00001132,0.,-0.00081040,-0.00186478,
 -0.00000006,-0.00001332,-0.00010182,0.,0.00019777,0.00007022,0.,0.0083
 9216,-0.00883793,-0.00000030,0.17349795,0.12541384,-0.20056624,-0.0000
 0595,-0.00130403,0.00512065,-0.00000035,-0.00010535,0.00112170,0.00000
 019,0.00007266,0.00017368,0.00000002,0.00058310,0.00007712,-0.00000002
 ,0.00005778,-0.00001267,0.,-0.00003300,-0.00009656,-0.00000001,0.01869
 288,-0.01731619,-0.00000092,-0.14337789,0.21149851,0.00000445,-0.00000
 594,-0.03266790,0.00000012,-0.00000042,0.01572457,-0.00000004,0.000000
 18,-0.00440460,0.00000001,0.00000002,-0.00049877,0.00000002,0.,0.00059
 600,0.,0.,0.00020224,0.,-0.00000001,0.00033487,0.00000064,-0.00000088,
 0.00875518,-0.00000519,0.00000706,0.01195841\\0.00010485,-0.00011847,0
 .00000011,-0.00012204,0.00001117,-0.00000001,0.00005544,-0.00006831,-0
 .00000002,0.00006823,0.00000345,0.,0.00001026,0.00007535,0.,-0.0000407
 3,0.00005664,0.,0.00000046,-0.00003015,0.,-0.00004172,0.00004956,-0.00
 000005,-0.00003475,0.00002076,-0.00000003\\\@


 Other things may change us, but we start and end with family.
 -- Anthony Brandt
 Job cpu time:       0 days  4 hours 27 minutes 53.6 seconds.
 Elapsed time:       0 days  0 hours  6 minutes 55.3 seconds.
 File lengths (MBytes):  RWF=   9023 Int=      0 D2E=      0 Chk=      7 Scr=      1
 Normal termination of Gaussian 16 at Fri May 31 17:21:26 2019.
