 Entering Gaussian System, Link 0=g16
 Initial command:
 /ichec/packages/gaussian/16b01/l1.exe "/localscratch/339542/Gau-53897.inp" -scrdir="/localscratch/339542/"
 Entering Link 1 = /ichec/packages/gaussian/16b01/l1.exe PID=     53904.
  
 Copyright (c) 1988-2017, Gaussian, Inc.  All Rights Reserved.
  
 This is part of the Gaussian(R) 16 program.  It is based on
 the Gaussian(R) 09 system (copyright 2009, Gaussian, Inc.),
 the Gaussian(R) 03 system (copyright 2003, Gaussian, Inc.),
 the Gaussian(R) 98 system (copyright 1998, Gaussian, Inc.),
 the Gaussian(R) 94 system (copyright 1995, Gaussian, Inc.),
 the Gaussian 92(TM) system (copyright 1992, Gaussian, Inc.),
 the Gaussian 90(TM) system (copyright 1990, Gaussian, Inc.),
 the Gaussian 88(TM) system (copyright 1988, Gaussian, Inc.),
 the Gaussian 86(TM) system (copyright 1986, Carnegie Mellon
 University), and the Gaussian 82(TM) system (copyright 1983,
 Carnegie Mellon University). Gaussian is a federally registered
 trademark of Gaussian, Inc.
  
 This software contains proprietary and confidential information,
 including trade secrets, belonging to Gaussian, Inc.
  
 This software is provided under written license and may be
 used, copied, transmitted, or stored only in accord with that
 written license.
  
 The following legend is applicable only to US Government
 contracts under FAR:
  
                    RESTRICTED RIGHTS LEGEND
  
 Use, reproduction and disclosure by the US Government is
 subject to restrictions as set forth in subparagraphs (a)
 and (c) of the Commercial Computer Software - Restricted
 Rights clause in FAR 52.227-19.
  
 Gaussian, Inc.
 340 Quinnipiac St., Bldg. 40, Wallingford CT 06492
  
  
 ---------------------------------------------------------------
 Warning -- This program may not be used in any manner that
 competes with the business of Gaussian, Inc. or will provide
 assistance to any competitor of Gaussian, Inc.  The licensee
 of this program is prohibited from giving any competitor of
 Gaussian, Inc. access to this program.  By using this program,
 the user acknowledges that Gaussian, Inc. is engaged in the
 business of creating and licensing software in the field of
 computational chemistry and represents and warrants to the
 licensee that it is not a competitor of Gaussian, Inc. and that
 it will not use this program in any manner prohibited above.
 ---------------------------------------------------------------
  

 Cite this work as:
 Gaussian 16, Revision B.01,
 M. J. Frisch, G. W. Trucks, H. B. Schlegel, G. E. Scuseria, 
 M. A. Robb, J. R. Cheeseman, G. Scalmani, V. Barone, 
 G. A. Petersson, H. Nakatsuji, X. Li, M. Caricato, A. V. Marenich, 
 J. Bloino, B. G. Janesko, R. Gomperts, B. Mennucci, H. P. Hratchian, 
 J. V. Ortiz, A. F. Izmaylov, J. L. Sonnenberg, D. Williams-Young, 
 F. Ding, F. Lipparini, F. Egidi, J. Goings, B. Peng, A. Petrone, 
 T. Henderson, D. Ranasinghe, V. G. Zakrzewski, J. Gao, N. Rega, 
 G. Zheng, W. Liang, M. Hada, M. Ehara, K. Toyota, R. Fukuda, 
 J. Hasegawa, M. Ishida, T. Nakajima, Y. Honda, O. Kitao, H. Nakai, 
 T. Vreven, K. Throssell, J. A. Montgomery, Jr., J. E. Peralta, 
 F. Ogliaro, M. J. Bearpark, J. J. Heyd, E. N. Brothers, K. N. Kudin, 
 V. N. Staroverov, T. A. Keith, R. Kobayashi, J. Normand, 
 K. Raghavachari, A. P. Rendell, J. C. Burant, S. S. Iyengar, 
 J. Tomasi, M. Cossi, J. M. Millam, M. Klene, C. Adamo, R. Cammi, 
 J. W. Ochterski, R. L. Martin, K. Morokuma, O. Farkas, 
 J. B. Foresman, and D. J. Fox, Gaussian, Inc., Wallingford CT, 2016.
 
 ******************************************
 Gaussian 16:  ES64L-G16RevB.01 20-Dec-2017
                31-May-2019 
 ******************************************
 %mem=80GB
 %nproc=40
 Will use up to   40 processors via shared memory.
 -----------------------------------------------
 # opt=maxcyc=500 freq=noraman uB2PLYPD3/cc-pvtz
 -----------------------------------------------
 1/6=500,18=20,19=15,38=1/1,3;
 2/9=110,12=2,17=6,18=5,40=1/2;
 3/5=16,6=1,11=2,25=1,30=1,71=1,74=-60,116=2/1,2,3;
 4//1;
 5/5=2,38=5/2;
 8/6=4,10=1/1;
 9/15=2,16=-3/6;
 10/5=1/2;
 6/7=2,8=2,9=2,10=2/1;
 7/12=2/1,2,3,16;
 1/6=500,18=20,19=15/3(2);
 2/9=110/2;
 99//99;
 2/9=110/2;
 3/5=16,6=1,11=2,25=1,30=1,71=1,74=-60,116=2/1,2,3;
 4/5=5,16=3,69=1/1;
 5/5=2,38=5/2;
 8/6=4,10=1/1;
 9/15=2,16=-3/6;
 10/5=1/2;
 7/12=2/1,2,3,16;
 1/6=500,18=20,19=15/3(-8);
 2/9=110/2;
 6/7=2,8=2,9=2,10=2/1;
 99/9=10/99;
 -------------------
 Title Card Required
 -------------------
 Symbolic Z-matrix:
 Charge =  0 Multiplicity = 2
 C                     1.92001  -0.27715   0.0389 
 H                     2.90714  -0.66897   0.04836 
 C                     0.80932   0.16813   0.02574 
 C                    -0.5549    0.69266   0.01646 
 H                    -0.63579   1.46094   0.79681 
 H                    -0.72467   1.22322  -0.92586 
 C                    -1.59204  -0.36162   0.2099 
 H                    -2.63313  -0.11526   0.07401 
 H                    -1.32344  -1.3305    0.59667 
 

 GradGradGradGradGradGradGradGradGradGradGradGradGradGradGradGradGradGrad
 Berny optimization.
 Initialization pass.
                           ----------------------------
                           !    Initial Parameters    !
                           ! (Angstroms and Degrees)  !
 --------------------------                            --------------------------
 ! Name  Definition              Value          Derivative Info.                !
 --------------------------------------------------------------------------------
 ! R1    R(1,2)                  1.0621         estimate D2E/DX2                !
 ! R2    R(1,3)                  1.1967         estimate D2E/DX2                !
 ! R3    R(3,4)                  1.4616         estimate D2E/DX2                !
 ! R4    R(4,5)                  1.0981         estimate D2E/DX2                !
 ! R5    R(4,6)                  1.0947         estimate D2E/DX2                !
 ! R6    R(4,7)                  1.4915         estimate D2E/DX2                !
 ! R7    R(7,8)                  1.0784         estimate D2E/DX2                !
 ! R8    R(7,9)                  1.0773         estimate D2E/DX2                !
 ! A1    A(3,4,5)              108.3809         estimate D2E/DX2                !
 ! A2    A(3,4,6)              108.9146         estimate D2E/DX2                !
 ! A3    A(3,4,7)              113.2368         estimate D2E/DX2                !
 ! A4    A(5,4,6)              105.1428         estimate D2E/DX2                !
 ! A5    A(5,4,7)              110.5591         estimate D2E/DX2                !
 ! A6    A(6,4,7)              110.2673         estimate D2E/DX2                !
 ! A7    A(4,7,8)              119.5684         estimate D2E/DX2                !
 ! A8    A(4,7,9)              120.5931         estimate D2E/DX2                !
 ! A9    A(8,7,9)              119.4328         estimate D2E/DX2                !
 ! A10   L(2,1,3,9,-1)         180.2211         estimate D2E/DX2                !
 ! A11   L(1,3,4,9,-1)         179.144          estimate D2E/DX2                !
 ! A12   L(2,1,3,9,-2)         180.0989         estimate D2E/DX2                !
 ! A13   L(1,3,4,9,-2)         179.9456         estimate D2E/DX2                !
 ! D1    D(3,4,7,8)           -170.8916         estimate D2E/DX2                !
 ! D2    D(3,4,7,9)             16.4595         estimate D2E/DX2                !
 ! D3    D(5,4,7,8)             67.2684         estimate D2E/DX2                !
 ! D4    D(5,4,7,9)           -105.3805         estimate D2E/DX2                !
 ! D5    D(6,4,7,8)            -48.5745         estimate D2E/DX2                !
 ! D6    D(6,4,7,9)            138.7766         estimate D2E/DX2                !
 --------------------------------------------------------------------------------
 Trust Radius=3.00D-01 FncErr=1.00D-07 GrdErr=1.00D-07 EigMax=2.50D+02 EigMin=1.00D-04
 Number of steps in this run=    100 maximum allowed number of steps=    100.
 GradGradGradGradGradGradGradGradGradGradGradGradGradGradGradGradGradGrad

                          Input orientation:                          
 ---------------------------------------------------------------------
 Center     Atomic      Atomic             Coordinates (Angstroms)
 Number     Number       Type             X           Y           Z
 ---------------------------------------------------------------------
      1          6           0        1.920007   -0.277151    0.038897
      2          1           0        2.907137   -0.668967    0.048357
      3          6           0        0.809321    0.168132    0.025740
      4          6           0       -0.554900    0.692664    0.016458
      5          1           0       -0.635788    1.460943    0.796811
      6          1           0       -0.724670    1.223219   -0.925862
      7          6           0       -1.592038   -0.361622    0.209899
      8          1           0       -2.633125   -0.115263    0.074005
      9          1           0       -1.323442   -1.330503    0.596673
 ---------------------------------------------------------------------
                    Distance matrix (angstroms):
                    1          2          3          4          5
     1  C    0.000000
     2  H    1.062090   0.000000
     3  C    1.196693   2.258778   0.000000
     4  C    2.658234   3.720317   1.461615   0.000000
     5  H    3.182372   4.201073   2.086684   1.098065   0.000000
     6  H    3.190014   4.209453   2.090905   1.094659   1.741268
     7  C    3.517220   4.512553   2.465984   1.491507   2.140239
     8  H    4.556144   5.567921   3.454429   2.230488   2.645039
     9  H    3.455521   4.316953   2.668436   2.240650   2.881856
                    6          7          8          9
     6  H    0.000000
     7  C    2.134011   0.000000
     8  H    2.536428   1.078435   0.000000
     9  H    3.032843   1.077250   1.861521   0.000000
 Stoichiometry    C4H5(2)
 Framework group  C1[X(C4H5)]
 Deg. of freedom    21
 Full point group                 C1      NOp   1
 Largest Abelian subgroup         C1      NOp   1
 Largest concise Abelian subgroup C1      NOp   1
                         Standard orientation:                         
 ---------------------------------------------------------------------
 Center     Atomic      Atomic             Coordinates (Angstroms)
 Number     Number       Type             X           Y           Z
 ---------------------------------------------------------------------
      1          6           0        1.899399   -0.235551   -0.014883
      2          1           0        2.906323   -0.573078   -0.029540
      3          6           0        0.766280    0.149022   -0.000077
      4          6           0       -0.624464    0.598142    0.020898
      5          1           0       -0.777599    1.208781    0.920573
      6          1           0       -0.789800    1.280197   -0.819187
      7          6           0       -1.605960   -0.524027   -0.023788
      8          1           0       -2.653780   -0.309385   -0.161713
      9          1           0       -1.296674   -1.532032    0.196973
 ---------------------------------------------------------------------
 Rotational constants (GHZ):          31.5035191           4.7677160           4.2531635
 Standard basis: CC-pVTZ (5D, 7F)
 There are   215 symmetry adapted cartesian basis functions of A   symmetry.
 There are   190 symmetry adapted basis functions of A   symmetry.
   190 basis functions,   293 primitive gaussians,   215 cartesian basis functions
    15 alpha electrons       14 beta electrons
       nuclear repulsion energy        96.0633044759 Hartrees.
 NAtoms=    9 NActive=    9 NUniq=    9 SFac= 1.00D+00 NAtFMM=   60 NAOKFM=F Big=F
 Integral buffers will be    131072 words long.
 Raffenetti 2 integral format.
 Two-electron integral symmetry is turned on.
 Nuclear repulsion after empirical dispersion term =       96.0591180233 Hartrees.
 One-electron integrals computed using PRISM.
 NBasis=   190 RedAO= T EigKep=  4.50D-05  NBF=   190
 NBsUse=   190 1.00D-06 EigRej= -1.00D+00 NBFU=   190
 ExpMin= 1.03D-01 ExpMax= 8.24D+03 ExpMxC= 2.81D+02 IAcc=3 IRadAn=         5 AccDes= 0.00D+00
 Harris functional with IExCor=  419 and IRadAn=       5 diagonalized for initial guess.
 HarFok:  IExCor=  419 AccDes= 0.00D+00 IRadAn=         5 IDoV= 1 UseB2=F ITyADJ=14
 ICtDFT=  3500011 ScaDFX=  1.000000  1.000000  1.000000  1.000000
 FoFCou: FMM=F IPFlag=           0 FMFlag=      100000 FMFlg1=           0
         NFxFlg=           0 DoJE=T BraDBF=F KetDBF=T FulRan=T
         wScrn=  0.000000 ICntrl=       500 IOpCl=  0 I1Cent=   200000004 NGrid=           0
         NMat0=    1 NMatS0=      1 NMatT0=    0 NMatD0=    1 NMtDS0=    0 NMtDT0=    0
 Petite list used in FoFCou.
 Initial guess <Sx>= 0.0000 <Sy>= 0.0000 <Sz>= 0.5000 <S**2>= 0.7500 S= 0.5000
 Keep R1 and R2 ints in memory in canonical form, NReq=370972421.
 Requested convergence on RMS density matrix=1.00D-08 within 128 cycles.
 Requested convergence on MAX density matrix=1.00D-06.
 Requested convergence on             energy=1.00D-06.
 No special actions if energy rises.
 Integral accuracy reduced to 1.0D-05 until final iterations.
 Initial convergence to 1.0D-05 achieved.  Increase integral accuracy.
 SCF Done:  E(UB2PLYPD3) =  -155.006199811     A.U. after   16 cycles
            NFock= 16  Conv=0.74D-08     -V/T= 2.0045
 <Sx>= 0.0000 <Sy>= 0.0000 <Sz>= 0.5000 <S**2>= 0.7568 S= 0.5034
 <L.S>=  0.00000000000    
 Annihilation of the first spin contaminant:
 S**2 before annihilation     0.7568,   after     0.7500
 DoSCS=T DFT=T ScalE2(SS,OS)=  0.270000  0.270000
 ExpMin= 1.03D-01 ExpMax= 8.24D+03 ExpMxC= 2.81D+02 IAcc=3 IRadAn=         5 AccDes= 0.00D+00
 HarFok:  IExCor=  205 AccDes= 0.00D+00 IRadAn=         5 IDoV=-2 UseB2=F ITyADJ=14
 ICtDFT= 12500011 ScaDFX=  1.000000  1.000000  1.000000  1.000000
 Range of M.O.s used for correlation:     5   190
 NBasis=   190 NAE=    15 NBE=    14 NFC=     4 NFV=     0
 NROrb=    186 NOA=    11 NOB=    10 NVA=   175 NVB=   176

 **** Warning!!: The largest alpha MO coefficient is  0.43477082D+02


 **** Warning!!: The largest beta MO coefficient is  0.42861541D+02

 DoSCS=T DFT=T ScalE2(SS,OS)=  0.270000  0.270000
 Fully direct method using O(ONN) memory.
 JobTyp=2 Pass  1:  I=   5 to  15 NPSUse= 40 ParTrn=T ParDer=T DoDerP=T.
 JobTyp=3 Pass  1:  I=   5 to  14 NPSUse= 40 ParTrn=T ParDer=T DoDerP=T.
 Spin components of T(2) and E(2):
     alpha-alpha T2 =       0.4525922753D-01 E2=     -0.2631480516D-01
     alpha-beta  T2 =       0.2474826694D+00 E2=     -0.1552108624D+00
     beta-beta   T2 =       0.3860096881D-01 E2=     -0.2188411705D-01
 (S**2,0)=  0.75684D+00           (S**2,1)=  0.74747D+00
 Scaling Projection term by:   0.270000
 E(PUHF)=      -0.15500871620D+03        E(PMP2)=      -0.15520982470D+03
 E2(B2PLYPD3) =    -0.2034097846D+00 E(B2PLYPD3) =    -0.15520960959526D+03
          IDoAtm=111111111
          Differentiating once with respect to electric field.
                with respect to dipole field.
          Differentiating once with respect to nuclear coordinates.
 Keep R1 and R2 ints in memory in canonical form, NReq=370978893.
          There are     1 degrees of freedom in the 1st order CPHF.  IDoFFX=0 NUNeed=     1.
 LinEq1:  Iter=  0 NonCon=     1 RMS=7.44D-04 Max=1.73D-02 NDo=     1
 AX will form     1 AO Fock derivatives at one time.
 LinEq1:  Iter=  1 NonCon=     1 RMS=2.69D-04 Max=3.79D-03 NDo=     1
 LinEq1:  Iter=  2 NonCon=     1 RMS=1.29D-04 Max=3.33D-03 NDo=     1
 LinEq1:  Iter=  3 NonCon=     1 RMS=1.03D-04 Max=2.32D-03 NDo=     1
 LinEq1:  Iter=  4 NonCon=     1 RMS=4.14D-05 Max=8.16D-04 NDo=     1
 LinEq1:  Iter=  5 NonCon=     1 RMS=1.44D-05 Max=2.10D-04 NDo=     1
 LinEq1:  Iter=  6 NonCon=     1 RMS=4.33D-06 Max=4.29D-05 NDo=     1
 LinEq1:  Iter=  7 NonCon=     1 RMS=1.47D-06 Max=3.20D-05 NDo=     1
 LinEq1:  Iter=  8 NonCon=     1 RMS=5.12D-07 Max=8.86D-06 NDo=     1
 LinEq1:  Iter=  9 NonCon=     1 RMS=2.05D-07 Max=2.72D-06 NDo=     1
 LinEq1:  Iter= 10 NonCon=     1 RMS=6.19D-08 Max=9.48D-07 NDo=     1
 LinEq1:  Iter= 11 NonCon=     1 RMS=2.25D-08 Max=4.41D-07 NDo=     1
 LinEq1:  Iter= 12 NonCon=     1 RMS=1.05D-08 Max=1.66D-07 NDo=     1
 LinEq1:  Iter= 13 NonCon=     1 RMS=3.94D-09 Max=5.33D-08 NDo=     1
 LinEq1:  Iter= 14 NonCon=     1 RMS=1.13D-09 Max=2.42D-08 NDo=     1
 LinEq1:  Iter= 15 NonCon=     1 RMS=2.97D-10 Max=3.78D-09 NDo=     1
 LinEq1:  Iter= 16 NonCon=     0 RMS=7.66D-11 Max=8.22D-10 NDo=     1
 Linear equations converged to 1.000D-10 1.000D-09 after    16 iterations.
 End of Minotr F.D. properties file   721 does not exist.
 End of Minotr F.D. properties file   722 does not exist.
 End of Minotr F.D. properties file   788 does not exist.

 **********************************************************************

            Population analysis using the SCF Density.

 **********************************************************************

 Orbital symmetries:
 Alpha Orbitals:
       Occupied  (A) (A) (A) (A) (A) (A) (A) (A) (A) (A) (A) (A)
                 (A) (A) (A)
       Virtual   (A) (A) (A) (A) (A) (A) (A) (A) (A) (A) (A) (A)
                 (A) (A) (A) (A) (A) (A) (A) (A) (A) (A) (A) (A)
                 (A) (A) (A) (A) (A) (A) (A) (A) (A) (A) (A) (A)
                 (A) (A) (A) (A) (A) (A) (A) (A) (A) (A) (A) (A)
                 (A) (A) (A) (A) (A) (A) (A) (A) (A) (A) (A) (A)
                 (A) (A) (A) (A) (A) (A) (A) (A) (A) (A) (A) (A)
                 (A) (A) (A) (A) (A) (A) (A) (A) (A) (A) (A) (A)
                 (A) (A) (A) (A) (A) (A) (A) (A) (A) (A) (A) (A)
                 (A) (A) (A) (A) (A) (A) (A) (A) (A) (A) (A) (A)
                 (A) (A) (A) (A) (A) (A) (A) (A) (A) (A) (A) (A)
                 (A) (A) (A) (A) (A) (A) (A) (A) (A) (A) (A) (A)
                 (A) (A) (A) (A) (A) (A) (A) (A) (A) (A) (A) (A)
                 (A) (A) (A) (A) (A) (A) (A) (A) (A) (A) (A) (A)
                 (A) (A) (A) (A) (A) (A) (A) (A) (A) (A) (A) (A)
                 (A) (A) (A) (A) (A) (A) (A)
 Beta  Orbitals:
       Occupied  (A) (A) (A) (A) (A) (A) (A) (A) (A) (A) (A) (A)
                 (A) (A)
       Virtual   (A) (A) (A) (A) (A) (A) (A) (A) (A) (A) (A) (A)
                 (A) (A) (A) (A) (A) (A) (A) (A) (A) (A) (A) (A)
                 (A) (A) (A) (A) (A) (A) (A) (A) (A) (A) (A) (A)
                 (A) (A) (A) (A) (A) (A) (A) (A) (A) (A) (A) (A)
                 (A) (A) (A) (A) (A) (A) (A) (A) (A) (A) (A) (A)
                 (A) (A) (A) (A) (A) (A) (A) (A) (A) (A) (A) (A)
                 (A) (A) (A) (A) (A) (A) (A) (A) (A) (A) (A) (A)
                 (A) (A) (A) (A) (A) (A) (A) (A) (A) (A) (A) (A)
                 (A) (A) (A) (A) (A) (A) (A) (A) (A) (A) (A) (A)
                 (A) (A) (A) (A) (A) (A) (A) (A) (A) (A) (A) (A)
                 (A) (A) (A) (A) (A) (A) (A) (A) (A) (A) (A) (A)
                 (A) (A) (A) (A) (A) (A) (A) (A) (A) (A) (A) (A)
                 (A) (A) (A) (A) (A) (A) (A) (A) (A) (A) (A) (A)
                 (A) (A) (A) (A) (A) (A) (A) (A) (A) (A) (A) (A)
                 (A) (A) (A) (A) (A) (A) (A) (A)
 The electronic state is 2-A.
 Alpha  occ. eigenvalues --  -10.64752 -10.62948 -10.61796 -10.60378  -0.92670
 Alpha  occ. eigenvalues --   -0.84254  -0.73636  -0.61109  -0.55538  -0.52290
 Alpha  occ. eigenvalues --   -0.49040  -0.45922  -0.32698  -0.32514  -0.27641
 Alpha virt. eigenvalues --    0.07930   0.10096   0.10743   0.11380   0.12675
 Alpha virt. eigenvalues --    0.15204   0.15996   0.22235   0.24473   0.30266
 Alpha virt. eigenvalues --    0.31802   0.34826   0.35531   0.36849   0.38184
 Alpha virt. eigenvalues --    0.40173   0.44158   0.46177   0.48412   0.50068
 Alpha virt. eigenvalues --    0.50999   0.52017   0.53396   0.55492   0.56059
 Alpha virt. eigenvalues --    0.59650   0.62194   0.63320   0.65006   0.70654
 Alpha virt. eigenvalues --    0.72616   0.74374   0.84430   0.86727   0.91510
 Alpha virt. eigenvalues --    0.92571   0.93814   0.95638   0.97196   0.97885
 Alpha virt. eigenvalues --    1.00673   1.02856   1.05862   1.10633   1.13612
 Alpha virt. eigenvalues --    1.16252   1.19301   1.20720   1.23766   1.29531
 Alpha virt. eigenvalues --    1.31236   1.33018   1.34625   1.37977   1.40300
 Alpha virt. eigenvalues --    1.42622   1.44088   1.47335   1.48658   1.54014
 Alpha virt. eigenvalues --    1.59784   1.61856   1.64635   1.72999   1.81795
 Alpha virt. eigenvalues --    2.13496   2.15744   2.20443   2.25967   2.28915
 Alpha virt. eigenvalues --    2.33624   2.40387   2.45175   2.51545   2.56695
 Alpha virt. eigenvalues --    2.56864   2.57904   2.62073   2.63205   2.64512
 Alpha virt. eigenvalues --    2.66045   2.68930   2.73204   2.76169   2.77246
 Alpha virt. eigenvalues --    2.79523   2.82167   2.88388   2.89038   2.90379
 Alpha virt. eigenvalues --    2.93291   2.97529   2.98236   3.00498   3.02194
 Alpha virt. eigenvalues --    3.04237   3.06248   3.06794   3.07254   3.08658
 Alpha virt. eigenvalues --    3.13608   3.14035   3.15133   3.16098   3.20907
 Alpha virt. eigenvalues --    3.22467   3.23139   3.25347   3.27207   3.29561
 Alpha virt. eigenvalues --    3.35261   3.41862   3.45929   3.48283   3.49653
 Alpha virt. eigenvalues --    3.51879   3.55039   3.59294   3.60469   3.65836
 Alpha virt. eigenvalues --    3.73420   3.76347   3.76833   3.78399   3.80665
 Alpha virt. eigenvalues --    3.88366   3.92213   3.96815   3.97816   4.00516
 Alpha virt. eigenvalues --    4.03126   4.07840   4.10243   4.11794   4.13556
 Alpha virt. eigenvalues --    4.18979   4.20841   4.23462   4.24508   4.28444
 Alpha virt. eigenvalues --    4.36082   4.41473   4.42146   4.48064   4.51260
 Alpha virt. eigenvalues --    4.60185   4.63349   4.71442   4.85415   4.87252
 Alpha virt. eigenvalues --    4.93246   5.01224   5.04644   5.06795   5.17828
 Alpha virt. eigenvalues --    5.24960   5.30707   5.33781   5.34554   5.41920
 Alpha virt. eigenvalues --    5.46231   5.58836   5.64341   5.77452   5.81615
 Alpha virt. eigenvalues --    5.95675   6.01048   6.04940   6.10681   6.13113
 Alpha virt. eigenvalues --    6.36842   8.39326  12.11191  13.41111  17.17346
  Beta  occ. eigenvalues --  -10.64898 -10.61757 -10.61205 -10.60407  -0.91581
  Beta  occ. eigenvalues --   -0.83235  -0.70032  -0.60931  -0.55092  -0.50475
  Beta  occ. eigenvalues --   -0.48223  -0.45130  -0.32414  -0.32212
  Beta virt. eigenvalues --    0.01283   0.08156   0.10304   0.10900   0.11719
  Beta virt. eigenvalues --    0.13003   0.15397   0.16166   0.22307   0.24531
  Beta virt. eigenvalues --    0.30398   0.31979   0.35128   0.35769   0.37641
  Beta virt. eigenvalues --    0.42797   0.43920   0.44655   0.47212   0.48765
  Beta virt. eigenvalues --    0.50733   0.51431   0.52231   0.54866   0.56179
  Beta virt. eigenvalues --    0.56743   0.60157   0.62461   0.64806   0.65751
  Beta virt. eigenvalues --    0.70912   0.73260   0.74641   0.84870   0.86900
  Beta virt. eigenvalues --    0.91777   0.92763   0.94485   0.95998   0.97665
  Beta virt. eigenvalues --    0.98731   1.00955   1.03268   1.06186   1.11893
  Beta virt. eigenvalues --    1.13994   1.17651   1.19865   1.21054   1.25072
  Beta virt. eigenvalues --    1.30315   1.31734   1.34052   1.35377   1.38489
  Beta virt. eigenvalues --    1.40874   1.43217   1.44451   1.47757   1.49102
  Beta virt. eigenvalues --    1.54344   1.60048   1.62012   1.65427   1.73364
  Beta virt. eigenvalues --    1.82440   2.13676   2.16779   2.20652   2.29192
  Beta virt. eigenvalues --    2.32236   2.34020   2.40817   2.45769   2.52095
  Beta virt. eigenvalues --    2.56913   2.57221   2.58380   2.63448   2.63810
  Beta virt. eigenvalues --    2.65114   2.66741   2.69818   2.73524   2.76818
  Beta virt. eigenvalues --    2.78253   2.80672   2.83507   2.89250   2.90235
  Beta virt. eigenvalues --    2.90909   2.93947   2.98479   3.00147   3.01381
  Beta virt. eigenvalues --    3.03156   3.04787   3.06516   3.07051   3.07828
  Beta virt. eigenvalues --    3.09060   3.14152   3.14604   3.16613   3.17177
  Beta virt. eigenvalues --    3.21525   3.23633   3.24206   3.27124   3.27800
  Beta virt. eigenvalues --    3.30571   3.35503   3.43063   3.46552   3.48537
  Beta virt. eigenvalues --    3.49904   3.53114   3.55687   3.59794   3.60731
  Beta virt. eigenvalues --    3.66221   3.73790   3.76683   3.77149   3.78740
  Beta virt. eigenvalues --    3.80923   3.88727   3.92615   3.97328   3.98080
  Beta virt. eigenvalues --    4.00765   4.03598   4.08071   4.10452   4.12052
  Beta virt. eigenvalues --    4.13751   4.19280   4.21381   4.23749   4.25023
  Beta virt. eigenvalues --    4.28705   4.36518   4.41996   4.42314   4.48390
  Beta virt. eigenvalues --    4.51492   4.60341   4.64499   4.71611   4.86618
  Beta virt. eigenvalues --    4.87801   4.93896   5.01971   5.05199   5.07798
  Beta virt. eigenvalues --    5.18233   5.25381   5.31259   5.34019   5.35047
  Beta virt. eigenvalues --    5.42374   5.46745   5.59191   5.64749   5.77566
  Beta virt. eigenvalues --    5.81741   5.95740   6.01282   6.05189   6.10762
  Beta virt. eigenvalues --    6.13239   6.36865   8.39352  12.12639  13.41409
  Beta virt. eigenvalues --   17.17343
          Condensed to atoms (all electrons):
               1          2          3          4          5          6
     1  C    4.999582   0.409493   0.859327  -0.074162  -0.002251  -0.001642
     2  H    0.409493   0.484941  -0.061679   0.001124  -0.000057  -0.000055
     3  C    0.859327  -0.061679   5.019405   0.374561  -0.043169  -0.036101
     4  C   -0.074162   0.001124   0.374561   4.736180   0.416717   0.411906
     5  H   -0.002251  -0.000057  -0.043169   0.416717   0.594597  -0.038690
     6  H   -0.001642  -0.000055  -0.036101   0.411906  -0.038690   0.586031
     7  C   -0.000996  -0.000085  -0.059370   0.333919  -0.045130  -0.039952
     8  H    0.000129   0.000005   0.006942  -0.041282  -0.001047  -0.002823
     9  H    0.003526   0.000009  -0.001089  -0.035979   0.001963   0.004556
               7          8          9
     1  C   -0.000996   0.000129   0.003526
     2  H   -0.000085   0.000005   0.000009
     3  C   -0.059370   0.006942  -0.001089
     4  C    0.333919  -0.041282  -0.035979
     5  H   -0.045130  -0.001047   0.001963
     6  H   -0.039952  -0.002823   0.004556
     7  C    5.282058   0.411735   0.410850
     8  H    0.411735   0.527722  -0.031546
     9  H    0.410850  -0.031546   0.510167
          Atomic-Atomic Spin Densities.
               1          2          3          4          5          6
     1  C   -0.013049   0.000035  -0.004715  -0.001225  -0.000757   0.001362
     2  H    0.000035   0.000648  -0.000064  -0.000037  -0.000022   0.000020
     3  C   -0.004715  -0.000064   0.026882   0.002753  -0.006040   0.008340
     4  C   -0.001225  -0.000037   0.002753  -0.057329   0.019700   0.002719
     5  H   -0.000757  -0.000022  -0.006040   0.019700   0.076607  -0.013099
     6  H    0.001362   0.000020   0.008340   0.002719  -0.013099   0.045254
     7  C    0.001758   0.000024  -0.004972  -0.054059  -0.026090  -0.016346
     8  H   -0.000114  -0.000002  -0.000323  -0.000150  -0.000397   0.001043
     9  H    0.001136   0.000019   0.001994  -0.001031  -0.000387   0.000005
               7          8          9
     1  C    0.001758  -0.000114   0.001136
     2  H    0.000024  -0.000002   0.000019
     3  C   -0.004972  -0.000323   0.001994
     4  C   -0.054059  -0.000150  -0.001031
     5  H   -0.026090  -0.000397  -0.000387
     6  H   -0.016346   0.001043   0.000005
     7  C    1.172082   0.010056   0.005713
     8  H    0.010056  -0.058769   0.006290
     9  H    0.005713   0.006290  -0.058599
 Mulliken charges and spin densities:
               1          2
     1  C   -0.193006  -0.015570
     2  H    0.166302   0.000621
     3  C   -0.058829   0.023856
     4  C   -0.122983  -0.088660
     5  H    0.117067   0.049515
     6  H    0.116770   0.029297
     7  C   -0.293030   1.088166
     8  H    0.130164  -0.042366
     9  H    0.137544  -0.044860
 Sum of Mulliken charges =  -0.00000   1.00000
 Mulliken charges and spin densities with hydrogens summed into heavy atoms:
               1          2
     1  C   -0.026704  -0.014949
     3  C   -0.058829   0.023856
     4  C    0.110854  -0.009848
     7  C   -0.025321   1.000941
 Electronic spatial extent (au):  <R**2>=            314.6051
 Charge=             -0.0000 electrons
 Dipole moment (field-independent basis, Debye):
    X=             -0.6104    Y=              0.3161    Z=              0.0961  Tot=              0.6941
 Quadrupole moment (field-independent basis, Debye-Ang):
   XX=            -20.9826   YY=            -24.5541   ZZ=            -26.4736
   XY=             -2.1295   XZ=             -0.0219   YZ=             -0.2567
 Traceless Quadrupole moment (field-independent basis, Debye-Ang):
   XX=              3.0208   YY=             -0.5507   ZZ=             -2.4701
   XY=             -2.1295   XZ=             -0.0219   YZ=             -0.2567
 Octapole moment (field-independent basis, Debye-Ang**2):
  XXX=             11.1187  YYY=              0.4052  ZZZ=              0.3553  XYY=             -2.2419
  XXY=             -4.4498  XXZ=             -0.8201  XZZ=             -1.6952  YZZ=              2.0158
  YYZ=              0.4407  XYZ=              0.3623
 Hexadecapole moment (field-independent basis, Debye-Ang**3):
 XXXX=           -268.2294 YYYY=            -74.2796 ZZZZ=            -37.2765 XXXY=            -19.6414
 XXXZ=              1.3324 YYYX=             -1.1599 YYYZ=             -1.2121 ZZZX=             -0.2617
 ZZZY=             -0.1368 XXYY=            -69.5186 XXZZ=            -68.7006 YYZZ=            -18.4169
 XXYZ=             -0.1490 YYXZ=             -0.5228 ZZXY=             -2.2050
 N-N= 9.605911802334D+01 E-N=-5.515953868405D+02  KE= 1.543100452648D+02
                          Isotropic Fermi Contact Couplings
        Atom                 a.u.       MegaHertz       Gauss      10(-4) cm-1
     1  C(13)              0.00046       0.51213       0.18274       0.17083
     2  H(1)               0.00004       0.17587       0.06276       0.05866
     3  C(13)              0.00486       5.46290       1.94930       1.82223
     4  C(13)             -0.03089     -34.73158     -12.39309     -11.58521
     5  H(1)               0.02798     125.08088      44.63197      41.72249
     6  H(1)               0.01649      73.70398      26.29941      24.58500
     7  C(13)              0.05193      58.38292      20.83248      19.47445
     8  H(1)              -0.01409     -62.98902     -22.47605     -21.01087
     9  H(1)              -0.01458     -65.18871     -23.26095     -21.74461
 --------------------------------------------------------
       Center         ----  Spin Dipole Couplings  ----
                      3XX-RR        3YY-RR        3ZZ-RR
 --------------------------------------------------------
     1   Atom        0.007998     -0.005451     -0.002547
     2   Atom        0.002737     -0.001497     -0.001240
     3   Atom        0.013351     -0.006100     -0.007251
     4   Atom       -0.003392     -0.002146      0.005539
     5   Atom       -0.003490      0.008290     -0.004799
     6   Atom       -0.004532      0.011774     -0.007242
     7   Atom       -0.540280     -0.545249      1.085530
     8   Atom        0.064416     -0.068545      0.004129
     9   Atom       -0.062437      0.054856      0.007581
 --------------------------------------------------------
                        XY            XZ            YZ
 --------------------------------------------------------
     1   Atom       -0.001435     -0.000010     -0.001817
     2   Atom       -0.000077      0.000030     -0.000066
     3   Atom        0.005283      0.002791      0.000675
     4   Atom        0.015766      0.000816      0.005111
     5   Atom        0.008505      0.001756      0.009687
     6   Atom        0.008349     -0.002736     -0.008077
     7   Atom       -0.034082     -0.236259      0.225071
     8   Atom       -0.031247      0.009072      0.006415
     9   Atom       -0.042706     -0.002704     -0.016054
 --------------------------------------------------------


 ---------------------------------------------------------------------------------
              Anisotropic Spin Dipole Couplings in Principal Axis System
 ---------------------------------------------------------------------------------

       Atom             a.u.   MegaHertz   Gauss  10(-4) cm-1        Axes

              Baa    -0.0064    -0.864    -0.308    -0.288  0.0900  0.9025  0.4211
     1 C(13)  Bbb    -0.0017    -0.230    -0.082    -0.077 -0.0607 -0.4171  0.9068
              Bcc     0.0082     1.094     0.390     0.365  0.9941 -0.1072  0.0172
 
              Baa    -0.0015    -0.808    -0.288    -0.270  0.0159  0.9726  0.2318
     2 H(1)   Bbb    -0.0012    -0.653    -0.233    -0.218 -0.0119 -0.2316  0.9727
              Bcc     0.0027     1.461     0.521     0.487  0.9998 -0.0182  0.0078
 
              Baa    -0.0076    -1.023    -0.365    -0.341 -0.1648  0.1387  0.9765
     3 C(13)  Bbb    -0.0074    -0.998    -0.356    -0.333 -0.2206  0.9598 -0.1735
              Bcc     0.0151     2.021     0.721     0.674  0.9613  0.2440  0.1276
 
              Baa    -0.0189    -2.538    -0.906    -0.847  0.7041 -0.6995  0.1227
     4 C(13)  Bbb     0.0039     0.528     0.188     0.176 -0.3771 -0.2218  0.8992
              Bcc     0.0150     2.010     0.717     0.670  0.6017  0.6794  0.4200
 
              Baa    -0.0112    -5.960    -2.127    -1.988  0.4437 -0.5472  0.7097
     5 H(1)   Bbb    -0.0057    -3.048    -1.088    -1.017  0.8107 -0.0925 -0.5781
              Bcc     0.0169     9.008     3.214     3.005  0.3820  0.8319  0.4026
 
              Baa    -0.0102    -5.467    -1.951    -1.824 -0.1173  0.3809  0.9172
     6 H(1)   Bbb    -0.0079    -4.213    -1.503    -1.405  0.9251 -0.2940  0.2404
              Bcc     0.0181     9.680     3.454     3.229  0.3612  0.8767 -0.3179
 
              Baa    -0.5771   -77.439   -27.632   -25.831  0.5446  0.8379 -0.0360
     7 C(13)  Bbb    -0.5727   -76.845   -27.420   -25.633  0.8269 -0.5293  0.1897
              Bcc     1.1497   154.284    55.052    51.463 -0.1399  0.1331  0.9812
 
              Baa    -0.0764   -40.747   -14.540   -13.592  0.2218  0.9697 -0.1023
     8 H(1)   Bbb     0.0042     2.216     0.791     0.739 -0.0847  0.1237  0.9887
              Bcc     0.0722    38.531    13.749    12.852  0.9714 -0.2106  0.1096
 
              Baa    -0.0770   -41.095   -14.664   -13.708  0.9442  0.3168  0.0903
     9 H(1)   Bbb     0.0050     2.675     0.955     0.892 -0.1537  0.1812  0.9714
              Bcc     0.0720    38.420    13.709    12.816 -0.2913  0.9310 -0.2198
 

 ---------------------------------------------------------------------------------

 Calling FoFJK, ICntrl=  10002127 FMM=F ISym2X=0 I1Cent= 0 IOpClX= 1 NMat=1 NMatS=1 NMatT=0.
 ***** Axes restored to original set *****
 -------------------------------------------------------------------
 Center     Atomic                   Forces (Hartrees/Bohr)
 Number     Number              X              Y              Z
 -------------------------------------------------------------------
      1        6           0.016748606   -0.006638533    0.000193116
      2        1          -0.001813484    0.000731415   -0.000020788
      3        6          -0.015027066    0.006253723   -0.000166409
      4        6           0.001879791   -0.000657165   -0.000454538
      5        1          -0.000531348    0.000016957   -0.000204466
      6        1          -0.000421995    0.000117686    0.000409482
      7        6          -0.000626320    0.000044789    0.000613202
      8        1           0.000183155   -0.000240565   -0.000037203
      9        1          -0.000391338    0.000371694   -0.000332396
 -------------------------------------------------------------------
 Cartesian Forces:  Max     0.016748606 RMS     0.004712151

 GradGradGradGradGradGradGradGradGradGradGradGradGradGradGradGradGradGrad
 Berny optimization.
 FormGI is forming the generalized inverse of G from B-inverse, IUseBI=4.
 Internal  Forces:  Max     0.016061634 RMS     0.003133951
 Search for a local minimum.
 Step number   1 out of a maximum of  100
 All quantities printed in internal units (Hartrees-Bohrs-Radians)
 Mixed Optimization -- RFO/linear search
 Second derivative matrix not updated -- first step.
 ITU=  0
     Eigenvalues ---    0.00878   0.00919   0.01274   0.01274   0.04778
     Eigenvalues ---    0.04778   0.06953   0.07789   0.16000   0.16000
     Eigenvalues ---    0.16000   0.16000   0.22276   0.33285   0.33897
     Eigenvalues ---    0.34280   0.36184   0.36329   0.36763   0.38248
     Eigenvalues ---    1.06503
 RFO step:  Lambda=-2.81281059D-04 EMin= 8.78291459D-03
 Linear search not attempted -- first point.
 Iteration  1 RMS(Cart)=  0.01282220 RMS(Int)=  0.00006484
 Iteration  2 RMS(Cart)=  0.00007953 RMS(Int)=  0.00001578
 Iteration  3 RMS(Cart)=  0.00000000 RMS(Int)=  0.00001578
 Variable       Old X    -DE/DX   Delta X   Delta X   Delta X     New X
                                 (Linear)    (Quad)   (Total)
    R1        2.00706  -0.00196   0.00000  -0.00511  -0.00511   2.00195
    R2        2.26142   0.01606   0.00000   0.01508   0.01508   2.27650
    R3        2.76205  -0.00021   0.00000  -0.00057  -0.00057   2.76148
    R4        2.07504  -0.00009   0.00000  -0.00028  -0.00028   2.07476
    R5        2.06860  -0.00023   0.00000  -0.00067  -0.00067   2.06793
    R6        2.81854   0.00049   0.00000   0.00146   0.00146   2.82000
    R7        2.03795  -0.00023   0.00000  -0.00063  -0.00063   2.03732
    R8        2.03571  -0.00055   0.00000  -0.00152  -0.00152   2.03419
    A1        1.89160   0.00006   0.00000   0.00222   0.00222   1.89383
    A2        1.90092   0.00006   0.00000   0.00311   0.00310   1.90402
    A3        1.97635   0.00105   0.00000   0.00579   0.00579   1.98214
    A4        1.83509  -0.00012   0.00000  -0.00409  -0.00412   1.83097
    A5        1.92962  -0.00069   0.00000  -0.00484  -0.00485   1.92477
    A6        1.92453  -0.00043   0.00000  -0.00275  -0.00276   1.92177
    A7        2.08686   0.00005   0.00000   0.00088   0.00083   2.08770
    A8        2.10475   0.00028   0.00000   0.00233   0.00228   2.10703
    A9        2.08450  -0.00031   0.00000  -0.00133  -0.00137   2.08313
   A10        3.14545   0.00002   0.00000   0.00047   0.00047   3.14592
   A11        3.12665   0.00019   0.00000   0.01446   0.01446   3.14111
   A12        3.14332   0.00000   0.00000   0.00001   0.00001   3.14333
   A13        3.14064  -0.00003   0.00000  -0.00221  -0.00221   3.13843
    D1       -2.98262   0.00001   0.00000   0.00697   0.00697  -2.97565
    D2        0.28727  -0.00015   0.00000  -0.00984  -0.00985   0.27743
    D3        1.17405  -0.00030   0.00000   0.00356   0.00358   1.17763
    D4       -1.83924  -0.00046   0.00000  -0.01325  -0.01324  -1.85247
    D5       -0.84778   0.00051   0.00000   0.01307   0.01306  -0.83473
    D6        2.42211   0.00035   0.00000  -0.00375  -0.00376   2.41835
         Item               Value     Threshold  Converged?
 Maximum Force            0.016062     0.000450     NO 
 RMS     Force            0.003134     0.000300     NO 
 Maximum Displacement     0.032383     0.001800     NO 
 RMS     Displacement     0.012821     0.001200     NO 
 Predicted change in Energy=-1.407782D-04
 GradGradGradGradGradGradGradGradGradGradGradGradGradGradGradGradGradGrad

                          Input orientation:                          
 ---------------------------------------------------------------------
 Center     Atomic      Atomic             Coordinates (Angstroms)
 Number     Number       Type             X           Y           Z
 ---------------------------------------------------------------------
      1          6           0        1.932449   -0.276558    0.038093
      2          1           0        2.921775   -0.655340    0.045570
      3          6           0        0.809151    0.158541    0.026943
      4          6           0       -0.553364    0.686647    0.017338
      5          1           0       -0.633955    1.457271    0.795199
      6          1           0       -0.724756    1.217782   -0.923949
      7          6           0       -1.599883   -0.358742    0.214477
      8          1           0       -2.638338   -0.106608    0.071831
      9          1           0       -1.340578   -1.331542    0.595477
 ---------------------------------------------------------------------
                    Distance matrix (angstroms):
                    1          2          3          4          5
     1  C    0.000000
     2  H    1.059386   0.000000
     3  C    1.204671   2.264052   0.000000
     4  C    2.665982   3.725362   1.461313   0.000000
     5  H    3.188385   4.203366   2.087935   1.097918   0.000000
     6  H    3.196766   4.212570   2.092620   1.094304   1.738122
     7  C    3.537688   4.534523   2.471073   1.492282   2.137325
     8  H    4.574069   5.587187   3.457962   2.231443   2.643204
     9  H    3.483730   4.350552   2.676736   2.242106   2.883865
                    6          7          8          9
     6  H    0.000000
     7  C    2.132437   0.000000
     8  H    2.531281   1.078103   0.000000
     9  H    3.030997   1.076448   1.859798   0.000000
 Stoichiometry    C4H5(2)
 Framework group  C1[X(C4H5)]
 Deg. of freedom    21
 Full point group                 C1      NOp   1
 Largest Abelian subgroup         C1      NOp   1
 Largest concise Abelian subgroup C1      NOp   1
                         Standard orientation:                         
 ---------------------------------------------------------------------
 Center     Atomic      Atomic             Coordinates (Angstroms)
 Number     Number       Type             X           Y           Z
 ---------------------------------------------------------------------
      1          6           0        1.910511   -0.233624   -0.014747
      2          1           0        2.918685   -0.558717   -0.028813
      3          6           0        0.765628    0.140908   -0.000492
      4          6           0       -0.623234    0.594831    0.020714
      5          1           0       -0.776217    1.206781    0.919344
      6          1           0       -0.789093    1.278812   -0.817237
      7          6           0       -1.615657   -0.518807   -0.021847
      8          1           0       -2.660645   -0.296003   -0.165597
      9          1           0       -1.316217   -1.530721    0.190537
 ---------------------------------------------------------------------
 Rotational constants (GHZ):          31.8935642           4.7231388           4.2240222
 Standard basis: CC-pVTZ (5D, 7F)
 There are   215 symmetry adapted cartesian basis functions of A   symmetry.
 There are   190 symmetry adapted basis functions of A   symmetry.
   190 basis functions,   293 primitive gaussians,   215 cartesian basis functions
    15 alpha electrons       14 beta electrons
       nuclear repulsion energy        95.8706622096 Hartrees.
 NAtoms=    9 NActive=    9 NUniq=    9 SFac= 1.00D+00 NAtFMM=   60 NAOKFM=F Big=F
 Integral buffers will be    131072 words long.
 Raffenetti 2 integral format.
 Two-electron integral symmetry is turned on.
 Nuclear repulsion after empirical dispersion term =       95.8664855983 Hartrees.
 One-electron integrals computed using PRISM.
 NBasis=   190 RedAO= T EigKep=  4.61D-05  NBF=   190
 NBsUse=   190 1.00D-06 EigRej= -1.00D+00 NBFU=   190
 Initial guess from the checkpoint file:  "/localscratch/339542/Gau-53904.chk"
 B after Tr=    -0.000000   -0.000000    0.000000
         Rot=    1.000000   -0.000373    0.000029    0.000643 Ang=  -0.09 deg.
 Initial guess <Sx>= 0.0000 <Sy>= 0.0000 <Sz>= 0.5000 <S**2>= 0.7568 S= 0.5034
 ExpMin= 1.03D-01 ExpMax= 8.24D+03 ExpMxC= 2.81D+02 IAcc=3 IRadAn=         5 AccDes= 0.00D+00
 Harris functional with IExCor=  419 and IRadAn=       5 diagonalized for initial guess.
 HarFok:  IExCor=  419 AccDes= 0.00D+00 IRadAn=         5 IDoV= 1 UseB2=F ITyADJ=14
 ICtDFT=  3500011 ScaDFX=  1.000000  1.000000  1.000000  1.000000
 FoFCou: FMM=F IPFlag=           0 FMFlag=      100000 FMFlg1=           0
         NFxFlg=           0 DoJE=T BraDBF=F KetDBF=T FulRan=T
         wScrn=  0.000000 ICntrl=       500 IOpCl=  0 I1Cent=   200000004 NGrid=           0
         NMat0=    1 NMatS0=      1 NMatT0=    0 NMatD0=    1 NMtDS0=    0 NMtDT0=    0
 Petite list used in FoFCou.
 Keep R1 and R2 ints in memory in canonical form, NReq=370972421.
 Requested convergence on RMS density matrix=1.00D-08 within 128 cycles.
 Requested convergence on MAX density matrix=1.00D-06.
 Requested convergence on             energy=1.00D-06.
 No special actions if energy rises.
 Integral accuracy reduced to 1.0D-05 until final iterations.
 Initial convergence to 1.0D-05 achieved.  Increase integral accuracy.
 SCF Done:  E(UB2PLYPD3) =  -155.005871237     A.U. after   13 cycles
            NFock= 13  Conv=0.31D-08     -V/T= 2.0047
 <Sx>= 0.0000 <Sy>= 0.0000 <Sz>= 0.5000 <S**2>= 0.7569 S= 0.5034
 <L.S>=  0.00000000000    
 Annihilation of the first spin contaminant:
 S**2 before annihilation     0.7569,   after     0.7500
 DoSCS=T DFT=T ScalE2(SS,OS)=  0.270000  0.270000
 ExpMin= 1.03D-01 ExpMax= 8.24D+03 ExpMxC= 2.81D+02 IAcc=3 IRadAn=         5 AccDes= 0.00D+00
 HarFok:  IExCor=  205 AccDes= 0.00D+00 IRadAn=         5 IDoV=-2 UseB2=F ITyADJ=14
 ICtDFT= 12500011 ScaDFX=  1.000000  1.000000  1.000000  1.000000
 Range of M.O.s used for correlation:     5   190
 NBasis=   190 NAE=    15 NBE=    14 NFC=     4 NFV=     0
 NROrb=    186 NOA=    11 NOB=    10 NVA=   175 NVB=   176

 **** Warning!!: The largest alpha MO coefficient is  0.40959072D+02


 **** Warning!!: The largest beta MO coefficient is  0.40507185D+02

 DoSCS=T DFT=T ScalE2(SS,OS)=  0.270000  0.270000
 Fully direct method using O(ONN) memory.
 JobTyp=2 Pass  1:  I=   5 to  15 NPSUse= 40 ParTrn=T ParDer=T DoDerP=T.
 JobTyp=3 Pass  1:  I=   5 to  14 NPSUse= 40 ParTrn=T ParDer=T DoDerP=T.
 Spin components of T(2) and E(2):
     alpha-alpha T2 =       0.4561080958D-01 E2=     -0.2638229258D-01
     alpha-beta  T2 =       0.2493225448D+00 E2=     -0.1555377085D+00
     beta-beta   T2 =       0.3895189147D-01 E2=     -0.2195105410D-01
 (S**2,0)=  0.75686D+00           (S**2,1)=  0.74747D+00
 Scaling Projection term by:   0.270000
 E(PUHF)=      -0.15500839286D+03        E(PMP2)=      -0.15520995837D+03
 E2(B2PLYPD3) =    -0.2038710552D+00 E(B2PLYPD3) =    -0.15520974229209D+03
          IDoAtm=111111111
          Differentiating once with respect to electric field.
                with respect to dipole field.
          Differentiating once with respect to nuclear coordinates.
 Keep R1 and R2 ints in memory in canonical form, NReq=370978893.
          There are     1 degrees of freedom in the 1st order CPHF.  IDoFFX=0 NUNeed=     1.
 LinEq1:  Iter=  0 NonCon=     1 RMS=7.53D-04 Max=1.73D-02 NDo=     1
 AX will form     1 AO Fock derivatives at one time.
 LinEq1:  Iter=  1 NonCon=     1 RMS=2.73D-04 Max=3.85D-03 NDo=     1
 LinEq1:  Iter=  2 NonCon=     1 RMS=1.34D-04 Max=3.57D-03 NDo=     1
 LinEq1:  Iter=  3 NonCon=     1 RMS=1.07D-04 Max=2.43D-03 NDo=     1
 LinEq1:  Iter=  4 NonCon=     1 RMS=4.37D-05 Max=8.90D-04 NDo=     1
 LinEq1:  Iter=  5 NonCon=     1 RMS=1.52D-05 Max=2.22D-04 NDo=     1
 LinEq1:  Iter=  6 NonCon=     1 RMS=4.42D-06 Max=4.39D-05 NDo=     1
 LinEq1:  Iter=  7 NonCon=     1 RMS=1.44D-06 Max=3.10D-05 NDo=     1
 LinEq1:  Iter=  8 NonCon=     1 RMS=4.74D-07 Max=8.11D-06 NDo=     1
 LinEq1:  Iter=  9 NonCon=     1 RMS=1.95D-07 Max=2.51D-06 NDo=     1
 LinEq1:  Iter= 10 NonCon=     1 RMS=6.51D-08 Max=1.13D-06 NDo=     1
 LinEq1:  Iter= 11 NonCon=     1 RMS=2.26D-08 Max=4.63D-07 NDo=     1
 LinEq1:  Iter= 12 NonCon=     1 RMS=9.48D-09 Max=1.24D-07 NDo=     1
 LinEq1:  Iter= 13 NonCon=     1 RMS=3.81D-09 Max=5.23D-08 NDo=     1
 LinEq1:  Iter= 14 NonCon=     1 RMS=1.17D-09 Max=2.55D-08 NDo=     1
 LinEq1:  Iter= 15 NonCon=     1 RMS=3.10D-10 Max=4.07D-09 NDo=     1
 LinEq1:  Iter= 16 NonCon=     0 RMS=8.00D-11 Max=8.60D-10 NDo=     1
 Linear equations converged to 1.000D-10 1.000D-09 after    16 iterations.
 End of Minotr F.D. properties file   721 does not exist.
 End of Minotr F.D. properties file   722 does not exist.
 End of Minotr F.D. properties file   788 does not exist.
 Calling FoFJK, ICntrl=  10002127 FMM=F ISym2X=0 I1Cent= 0 IOpClX= 1 NMat=1 NMatS=1 NMatT=0.
 ***** Axes restored to original set *****
 -------------------------------------------------------------------
 Center     Atomic                   Forces (Hartrees/Bohr)
 Number     Number              X              Y              Z
 -------------------------------------------------------------------
      1        6          -0.000548003    0.000099925    0.000016278
      2        1           0.000197905   -0.000250801    0.000024559
      3        6           0.000054721    0.000851984   -0.000107672
      4        6           0.000429415   -0.000841203   -0.000012453
      5        1          -0.000031144    0.000053419    0.000056087
      6        1           0.000001705    0.000015102   -0.000047295
      7        6          -0.000056247    0.000125494    0.000151730
      8        1           0.000047720    0.000012884   -0.000012303
      9        1          -0.000096072   -0.000066805   -0.000068932
 -------------------------------------------------------------------
 Cartesian Forces:  Max     0.000851984 RMS     0.000280098

 GradGradGradGradGradGradGradGradGradGradGradGradGradGradGradGradGradGrad
 Berny optimization.
 Using GEDIIS/GDIIS optimizer.
 FormGI is forming the generalized inverse of G from B-inverse, IUseBI=4.
 Internal  Forces:  Max     0.000940873 RMS     0.000254126
 Search for a local minimum.
 Step number   2 out of a maximum of  100
 All quantities printed in internal units (Hartrees-Bohrs-Radians)
 Mixed Optimization -- En-DIIS/RFO-DIIS
 Update second derivatives using D2CorX and points    1    2
 DE= -1.33D-04 DEPred=-1.41D-04 R= 9.43D-01
 TightC=F SS=  1.41D+00  RLast= 3.31D-02 DXNew= 5.0454D-01 9.9295D-02
 Trust test= 9.43D-01 RLast= 3.31D-02 DXMaxT set to 3.00D-01
 ITU=  1  0
 Use linear search instead of GDIIS.
     Eigenvalues ---    0.00877   0.00894   0.01274   0.01404   0.04778
     Eigenvalues ---    0.04780   0.06911   0.07773   0.15906   0.16000
     Eigenvalues ---    0.16000   0.16026   0.21884   0.33269   0.33901
     Eigenvalues ---    0.34286   0.36170   0.36305   0.36639   0.38629
     Eigenvalues ---    1.05724
 RFO step:  Lambda=-6.79794984D-05 EMin= 8.77323469D-03
 Quartic linear search produced a step of -0.04778.
 Iteration  1 RMS(Cart)=  0.03589741 RMS(Int)=  0.00069740
 Iteration  2 RMS(Cart)=  0.00116029 RMS(Int)=  0.00000346
 Iteration  3 RMS(Cart)=  0.00000019 RMS(Int)=  0.00000346
 Variable       Old X    -DE/DX   Delta X   Delta X   Delta X     New X
                                 (Linear)    (Quad)   (Total)
    R1        2.00195   0.00027   0.00024  -0.00079  -0.00055   2.00140
    R2        2.27650  -0.00027  -0.00072   0.00412   0.00340   2.27990
    R3        2.76148  -0.00053   0.00003  -0.00154  -0.00151   2.75997
    R4        2.07476   0.00008   0.00001   0.00014   0.00016   2.07492
    R5        2.06793   0.00005   0.00003  -0.00006  -0.00003   2.06791
    R6        2.82000   0.00003  -0.00007   0.00052   0.00045   2.82045
    R7        2.03732  -0.00004   0.00003  -0.00029  -0.00026   2.03706
    R8        2.03419   0.00001   0.00007  -0.00040  -0.00033   2.03386
    A1        1.89383  -0.00013  -0.00011   0.00019   0.00008   1.89391
    A2        1.90402  -0.00014  -0.00015   0.00054   0.00039   1.90441
    A3        1.98214   0.00043  -0.00028   0.00357   0.00329   1.98543
    A4        1.83097   0.00000   0.00020  -0.00149  -0.00130   1.82967
    A5        1.92477  -0.00012   0.00023  -0.00206  -0.00183   1.92294
    A6        1.92177  -0.00007   0.00013  -0.00112  -0.00099   1.92077
    A7        2.08770  -0.00011  -0.00004  -0.00029  -0.00034   2.08735
    A8        2.10703   0.00018  -0.00011   0.00185   0.00173   2.10876
    A9        2.08313  -0.00006   0.00007  -0.00060  -0.00054   2.08259
   A10        3.14592  -0.00033  -0.00002  -0.00639  -0.00641   3.13951
   A11        3.14111  -0.00094  -0.00069  -0.06608  -0.06677   3.07434
   A12        3.14333   0.00003  -0.00000   0.00052   0.00052   3.14385
   A13        3.13843   0.00009   0.00011   0.00582   0.00593   3.14436
    D1       -2.97565  -0.00000  -0.00033   0.00255   0.00222  -2.97344
    D2        0.27743  -0.00005   0.00047  -0.00737  -0.00691   0.27052
    D3        1.17763  -0.00004  -0.00017   0.00130   0.00113   1.17877
    D4       -1.85247  -0.00009   0.00063  -0.00862  -0.00799  -1.86046
    D5       -0.83473   0.00007  -0.00062   0.00496   0.00433  -0.83039
    D6        2.41835   0.00001   0.00018  -0.00497  -0.00479   2.41356
         Item               Value     Threshold  Converged?
 Maximum Force            0.000941     0.000450     NO 
 RMS     Force            0.000254     0.000300     YES
 Maximum Displacement     0.099977     0.001800     NO 
 RMS     Displacement     0.036174     0.001200     NO 
 Predicted change in Energy=-3.432831D-05
 GradGradGradGradGradGradGradGradGradGradGradGradGradGradGradGradGradGrad

                          Input orientation:                          
 ---------------------------------------------------------------------
 Center     Atomic      Atomic             Coordinates (Angstroms)
 Number     Number       Type             X           Y           Z
 ---------------------------------------------------------------------
      1          6           0        1.922196   -0.280478    0.039712
      2          1           0        2.890905   -0.708246    0.057062
      3          6           0        0.817538    0.204151    0.018790
      4          6           0       -0.555527    0.701930    0.015188
      5          1           0       -0.649838    1.470351    0.793801
      6          1           0       -0.742502    1.230759   -0.924411
      7          6           0       -1.581718   -0.363068    0.215988
      8          1           0       -2.624864   -0.130580    0.075259
      9          1           0       -1.303688   -1.333368    0.589590
 ---------------------------------------------------------------------
                    Distance matrix (angstroms):
                    1          2          3          4          5
     1  C    0.000000
     2  H    1.059096   0.000000
     3  C    1.206472   2.265565   0.000000
     4  C    2.665490   3.724009   1.460515   0.000000
     5  H    3.201471   4.222077   2.087366   1.098001   0.000000
     6  H    3.211540   4.233755   2.092195   1.094288   1.737310
     7  C    3.509318   4.488738   2.473268   1.492518   2.136281
     8  H    4.549670   5.545967   3.459099   2.231331   2.641971
     9  H    3.437626   4.274222   2.681301   2.243239   2.886185
                    6          7          8          9
     6  H    0.000000
     7  C    2.131919   0.000000
     8  H    2.529006   1.077966   0.000000
     9  H    3.030161   1.076272   1.859232   0.000000
 Stoichiometry    C4H5(2)
 Framework group  C1[X(C4H5)]
 Deg. of freedom    21
 Full point group                 C1      NOp   1
 Largest Abelian subgroup         C1      NOp   1
 Largest concise Abelian subgroup C1      NOp   1
                         Standard orientation:                         
 ---------------------------------------------------------------------
 Center     Atomic      Atomic             Coordinates (Angstroms)
 Number     Number       Type             X           Y           Z
 ---------------------------------------------------------------------
      1          6           0        1.899039   -0.243206   -0.014451
      2          1           0        2.889900   -0.616966   -0.027918
      3          6           0        0.769348    0.180096   -0.000774
      4          6           0       -0.629514    0.599463    0.019692
      5          1           0       -0.797482    1.209588    0.916987
      6          1           0       -0.812412    1.278269   -0.818900
      7          6           0       -1.598089   -0.535397   -0.019897
      8          1           0       -2.647182   -0.335113   -0.165842
      9          1           0       -1.277527   -1.541515    0.188255
 ---------------------------------------------------------------------
 Rotational constants (GHZ):          30.7151087           4.7817778           4.2487617
 Standard basis: CC-pVTZ (5D, 7F)
 There are   215 symmetry adapted cartesian basis functions of A   symmetry.
 There are   190 symmetry adapted basis functions of A   symmetry.
   190 basis functions,   293 primitive gaussians,   215 cartesian basis functions
    15 alpha electrons       14 beta electrons
       nuclear repulsion energy        95.9064491107 Hartrees.
 NAtoms=    9 NActive=    9 NUniq=    9 SFac= 1.00D+00 NAtFMM=   60 NAOKFM=F Big=F
 Integral buffers will be    131072 words long.
 Raffenetti 2 integral format.
 Two-electron integral symmetry is turned on.
 Nuclear repulsion after empirical dispersion term =       95.9022644711 Hartrees.
 One-electron integrals computed using PRISM.
 NBasis=   190 RedAO= T EigKep=  4.85D-05  NBF=   190
 NBsUse=   190 1.00D-06 EigRej= -1.00D+00 NBFU=   190
 Initial guess from the checkpoint file:  "/localscratch/339542/Gau-53904.chk"
 B after Tr=     0.000000    0.000000   -0.000000
         Rot=    0.999997    0.001056   -0.000055   -0.002234 Ang=   0.28 deg.
 Initial guess <Sx>= 0.0000 <Sy>= 0.0000 <Sz>= 0.5000 <S**2>= 0.7569 S= 0.5034
 ExpMin= 1.03D-01 ExpMax= 8.24D+03 ExpMxC= 2.81D+02 IAcc=3 IRadAn=         5 AccDes= 0.00D+00
 Harris functional with IExCor=  419 and IRadAn=       5 diagonalized for initial guess.
 HarFok:  IExCor=  419 AccDes= 0.00D+00 IRadAn=         5 IDoV= 1 UseB2=F ITyADJ=14
 ICtDFT=  3500011 ScaDFX=  1.000000  1.000000  1.000000  1.000000
 FoFCou: FMM=F IPFlag=           0 FMFlag=      100000 FMFlg1=           0
         NFxFlg=           0 DoJE=T BraDBF=F KetDBF=T FulRan=T
         wScrn=  0.000000 ICntrl=       500 IOpCl=  0 I1Cent=   200000004 NGrid=           0
         NMat0=    1 NMatS0=      1 NMatT0=    0 NMatD0=    1 NMtDS0=    0 NMtDT0=    0
 Petite list used in FoFCou.
 Keep R1 and R2 ints in memory in canonical form, NReq=370972421.
 Requested convergence on RMS density matrix=1.00D-08 within 128 cycles.
 Requested convergence on MAX density matrix=1.00D-06.
 Requested convergence on             energy=1.00D-06.
 No special actions if energy rises.
 Integral accuracy reduced to 1.0D-05 until final iterations.
 Initial convergence to 1.0D-05 achieved.  Increase integral accuracy.
 SCF Done:  E(UB2PLYPD3) =  -155.005598864     A.U. after   13 cycles
            NFock= 13  Conv=0.63D-08     -V/T= 2.0048
 <Sx>= 0.0000 <Sy>= 0.0000 <Sz>= 0.5000 <S**2>= 0.7569 S= 0.5034
 <L.S>=  0.00000000000    
 Annihilation of the first spin contaminant:
 S**2 before annihilation     0.7569,   after     0.7500
 DoSCS=T DFT=T ScalE2(SS,OS)=  0.270000  0.270000
 ExpMin= 1.03D-01 ExpMax= 8.24D+03 ExpMxC= 2.81D+02 IAcc=3 IRadAn=         5 AccDes= 0.00D+00
 HarFok:  IExCor=  205 AccDes= 0.00D+00 IRadAn=         5 IDoV=-2 UseB2=F ITyADJ=14
 ICtDFT= 12500011 ScaDFX=  1.000000  1.000000  1.000000  1.000000
 Range of M.O.s used for correlation:     5   190
 NBasis=   190 NAE=    15 NBE=    14 NFC=     4 NFV=     0
 NROrb=    186 NOA=    11 NOB=    10 NVA=   175 NVB=   176

 **** Warning!!: The largest alpha MO coefficient is  0.44658089D+02


 **** Warning!!: The largest beta MO coefficient is  0.44339618D+02

 DoSCS=T DFT=T ScalE2(SS,OS)=  0.270000  0.270000
 Fully direct method using O(ONN) memory.
 JobTyp=2 Pass  1:  I=   5 to  15 NPSUse= 40 ParTrn=T ParDer=T DoDerP=T.
 JobTyp=3 Pass  1:  I=   5 to  14 NPSUse= 40 ParTrn=T ParDer=T DoDerP=T.
 Spin components of T(2) and E(2):
     alpha-alpha T2 =       0.4571630957D-01 E2=     -0.2640628349D-01
     alpha-beta  T2 =       0.2498560300D+00 E2=     -0.1556322281D+00
     beta-beta   T2 =       0.3905156796D-01 E2=     -0.2197216814D-01
 (S**2,0)=  0.75687D+00           (S**2,1)=  0.74747D+00
 Scaling Projection term by:   0.270000
 E(PUHF)=      -0.15500812263D+03        E(PMP2)=      -0.15520982607D+03
 E2(B2PLYPD3) =    -0.2040106797D+00 E(B2PLYPD3) =    -0.15520960954355D+03
          IDoAtm=111111111
          Differentiating once with respect to electric field.
                with respect to dipole field.
          Differentiating once with respect to nuclear coordinates.
 Keep R1 and R2 ints in memory in canonical form, NReq=370978893.
          There are     1 degrees of freedom in the 1st order CPHF.  IDoFFX=0 NUNeed=     1.
 LinEq1:  Iter=  0 NonCon=     1 RMS=7.55D-04 Max=1.72D-02 NDo=     1
 AX will form     1 AO Fock derivatives at one time.
 LinEq1:  Iter=  1 NonCon=     1 RMS=2.74D-04 Max=3.89D-03 NDo=     1
 LinEq1:  Iter=  2 NonCon=     1 RMS=1.34D-04 Max=3.54D-03 NDo=     1
 LinEq1:  Iter=  3 NonCon=     1 RMS=1.08D-04 Max=2.49D-03 NDo=     1
 LinEq1:  Iter=  4 NonCon=     1 RMS=4.47D-05 Max=8.93D-04 NDo=     1
 LinEq1:  Iter=  5 NonCon=     1 RMS=1.57D-05 Max=2.30D-04 NDo=     1
 LinEq1:  Iter=  6 NonCon=     1 RMS=4.71D-06 Max=4.76D-05 NDo=     1
 LinEq1:  Iter=  7 NonCon=     1 RMS=1.58D-06 Max=3.28D-05 NDo=     1
 LinEq1:  Iter=  8 NonCon=     1 RMS=5.41D-07 Max=9.52D-06 NDo=     1
 LinEq1:  Iter=  9 NonCon=     1 RMS=2.27D-07 Max=2.95D-06 NDo=     1
 LinEq1:  Iter= 10 NonCon=     1 RMS=7.14D-08 Max=1.24D-06 NDo=     1
 LinEq1:  Iter= 11 NonCon=     1 RMS=2.58D-08 Max=5.08D-07 NDo=     1
 LinEq1:  Iter= 12 NonCon=     1 RMS=1.15D-08 Max=1.60D-07 NDo=     1
 LinEq1:  Iter= 13 NonCon=     1 RMS=4.29D-09 Max=5.86D-08 NDo=     1
 LinEq1:  Iter= 14 NonCon=     1 RMS=1.24D-09 Max=2.64D-08 NDo=     1
 LinEq1:  Iter= 15 NonCon=     1 RMS=3.22D-10 Max=4.03D-09 NDo=     1
 LinEq1:  Iter= 16 NonCon=     0 RMS=8.08D-11 Max=9.77D-10 NDo=     1
 Linear equations converged to 1.000D-10 1.000D-09 after    16 iterations.
 End of Minotr F.D. properties file   721 does not exist.
 End of Minotr F.D. properties file   722 does not exist.
 End of Minotr F.D. properties file   788 does not exist.
 Calling FoFJK, ICntrl=  10002127 FMM=F ISym2X=0 I1Cent= 0 IOpClX= 1 NMat=1 NMatS=1 NMatT=0.
 ***** Axes restored to original set *****
 -------------------------------------------------------------------
 Center     Atomic                   Forces (Hartrees/Bohr)
 Number     Number              X              Y              Z
 -------------------------------------------------------------------
      1        6          -0.003624119    0.002042697   -0.000127719
      2        1           0.000830656    0.000540584   -0.000155621
      3        6           0.001941044   -0.004660285    0.000702884
      4        6           0.000507691    0.001841336   -0.000313965
      5        1          -0.000176688    0.000179699   -0.000029506
      6        1          -0.000194321    0.000162386   -0.000061861
      7        6           0.000606234   -0.000211424    0.000020753
      8        1           0.000010739    0.000218366   -0.000033626
      9        1           0.000098764   -0.000113359   -0.000001340
 -------------------------------------------------------------------
 Cartesian Forces:  Max     0.004660285 RMS     0.001342647

 GradGradGradGradGradGradGradGradGradGradGradGradGradGradGradGradGradGrad
 Berny optimization.
 Using GEDIIS/GDIIS optimizer.
 FormGI is forming the generalized inverse of G from B-inverse, IUseBI=4.
 Internal  Forces:  Max     0.004560468 RMS     0.001206223
 Search for a local minimum.
 Step number   3 out of a maximum of  100
 All quantities printed in internal units (Hartrees-Bohrs-Radians)
 Mixed Optimization -- RFO/linear search
 Update second derivatives using D2CorX and points    1    3    2
 DE=  1.33D-04 DEPred=-3.43D-05 R=-3.87D+00
 Trust test=-3.87D+00 RLast= 6.88D-02 DXMaxT set to 1.50D-01
 ITU= -1  1  0
 Use linear search instead of GDIIS.
     Eigenvalues ---    0.00872   0.00894   0.01273   0.04102   0.04778
     Eigenvalues ---    0.06887   0.07677   0.09313   0.15853   0.16000
     Eigenvalues ---    0.16011   0.16043   0.22755   0.33327   0.33894
     Eigenvalues ---    0.34287   0.36151   0.36284   0.36424   0.38464
     Eigenvalues ---    1.07938
 RFO step:  Lambda=-2.55389904D-06 EMin= 8.72167169D-03
 Quartic linear search produced a step of -0.83015.
 Iteration  1 RMS(Cart)=  0.03057837 RMS(Int)=  0.00048986
 Iteration  2 RMS(Cart)=  0.00078195 RMS(Int)=  0.00000310
 Iteration  3 RMS(Cart)=  0.00000004 RMS(Int)=  0.00000310
 Variable       Old X    -DE/DX   Delta X   Delta X   Delta X     New X
                                 (Linear)    (Quad)   (Total)
    R1        2.00140   0.00054   0.00046   0.00080   0.00125   2.00266
    R2        2.27990  -0.00360  -0.00282  -0.00068  -0.00350   2.27640
    R3        2.75997  -0.00009   0.00125  -0.00124   0.00001   2.75999
    R4        2.07492   0.00012  -0.00013   0.00025   0.00012   2.07504
    R5        2.06791   0.00016   0.00002   0.00019   0.00022   2.06812
    R6        2.82045  -0.00042  -0.00037  -0.00012  -0.00049   2.81996
    R7        2.03706   0.00004   0.00022  -0.00008   0.00014   2.03720
    R8        2.03386   0.00013   0.00028   0.00008   0.00035   2.03421
    A1        1.89391   0.00050  -0.00007   0.00005  -0.00002   1.89389
    A2        1.90441   0.00053  -0.00032   0.00017  -0.00015   1.90426
    A3        1.98543  -0.00116  -0.00274   0.00083  -0.00190   1.98353
    A4        1.82967  -0.00009   0.00108  -0.00041   0.00067   1.83034
    A5        1.92294   0.00018   0.00152  -0.00049   0.00103   1.92397
    A6        1.92077   0.00012   0.00082  -0.00024   0.00058   1.92135
    A7        2.08735  -0.00025   0.00028  -0.00071  -0.00042   2.08693
    A8        2.10876   0.00006  -0.00143   0.00113  -0.00030   2.10846
    A9        2.08259   0.00019   0.00045   0.00003   0.00049   2.08307
   A10        3.13951   0.00169   0.00532   0.00033   0.00566   3.14517
   A11        3.07434   0.00456   0.05543  -0.00004   0.05539   3.12973
   A12        3.14385  -0.00007  -0.00043   0.00021  -0.00023   3.14362
   A13        3.14436  -0.00029  -0.00492   0.00167  -0.00325   3.14111
    D1       -2.97344  -0.00002  -0.00184   0.00035  -0.00149  -2.97493
    D2        0.27052  -0.00002   0.00573  -0.00468   0.00105   0.27157
    D3        1.17877   0.00002  -0.00094   0.00007  -0.00088   1.17789
    D4       -1.86046   0.00001   0.00663  -0.00497   0.00166  -1.85880
    D5       -0.83039  -0.00005  -0.00360   0.00098  -0.00261  -0.83301
    D6        2.41356  -0.00006   0.00397  -0.00405  -0.00007   2.41349
         Item               Value     Threshold  Converged?
 Maximum Force            0.004560     0.000450     NO 
 RMS     Force            0.001206     0.000300     NO 
 Maximum Displacement     0.083868     0.001800     NO 
 RMS     Displacement     0.030490     0.001200     NO 
 Predicted change in Energy=-6.859984D-06
 GradGradGradGradGradGradGradGradGradGradGradGradGradGradGradGradGradGrad

                          Input orientation:                          
 ---------------------------------------------------------------------
 Center     Atomic      Atomic             Coordinates (Angstroms)
 Number     Number       Type             X           Y           Z
 ---------------------------------------------------------------------
      1          6           0        1.930573   -0.276838    0.038608
      2          1           0        2.917099   -0.663865    0.046787
      3          6           0        0.810599    0.166577    0.026672
      4          6           0       -0.553355    0.688749    0.017225
      5          1           0       -0.636781    1.460032    0.794342
      6          1           0       -0.727521    1.218714   -0.924327
      7          6           0       -1.596897   -0.359261    0.216038
      8          1           0       -2.635773   -0.109587    0.072630
      9          1           0       -1.335441   -1.333069    0.593004
 ---------------------------------------------------------------------
                    Distance matrix (angstroms):
                    1          2          3          4          5
     1  C    0.000000
     2  H    1.059760   0.000000
     3  C    1.204617   2.264373   0.000000
     4  C    2.665092   3.724848   1.460521   0.000000
     5  H    3.190480   4.207118   2.087403   1.098066   0.000000
     6  H    3.198341   4.215498   2.092177   1.094403   1.737899
     7  C    3.532892   4.527427   2.471518   1.492257   2.136840
     8  H    4.569534   5.580526   3.457724   2.230890   2.642071
     9  H    3.477044   4.339388   2.678649   2.242973   2.886188
                    6          7          8          9
     6  H    0.000000
     7  C    2.132194   0.000000
     8  H    2.529769   1.078038   0.000000
     9  H    3.030422   1.076459   1.859720   0.000000
 Stoichiometry    C4H5(2)
 Framework group  C1[X(C4H5)]
 Deg. of freedom    21
 Full point group                 C1      NOp   1
 Largest Abelian subgroup         C1      NOp   1
 Largest concise Abelian subgroup C1      NOp   1
                         Standard orientation:                         
 ---------------------------------------------------------------------
 Center     Atomic      Atomic             Coordinates (Angstroms)
 Number     Number       Type             X           Y           Z
 ---------------------------------------------------------------------
      1          6           0        1.908340   -0.235293   -0.014750
      2          1           0        2.914222   -0.568570   -0.029558
      3          6           0        0.766262    0.147509    0.000178
      4          6           0       -0.623790    0.595259    0.020169
      5          1           0       -0.779796    1.208071    0.917872
      6          1           0       -0.792392    1.277743   -0.818584
      7          6           0       -1.612950   -0.521303   -0.020855
      8          1           0       -2.658218   -0.301025   -0.165963
      9          1           0       -1.310991   -1.533258    0.187786
 ---------------------------------------------------------------------
 Rotational constants (GHZ):          31.7146848           4.7332470           4.2287960
 Standard basis: CC-pVTZ (5D, 7F)
 There are   215 symmetry adapted cartesian basis functions of A   symmetry.
 There are   190 symmetry adapted basis functions of A   symmetry.
   190 basis functions,   293 primitive gaussians,   215 cartesian basis functions
    15 alpha electrons       14 beta electrons
       nuclear repulsion energy        95.8883137532 Hartrees.
 NAtoms=    9 NActive=    9 NUniq=    9 SFac= 1.00D+00 NAtFMM=   60 NAOKFM=F Big=F
 Integral buffers will be    131072 words long.
 Raffenetti 2 integral format.
 Two-electron integral symmetry is turned on.
 Nuclear repulsion after empirical dispersion term =       95.8841357576 Hartrees.
 One-electron integrals computed using PRISM.
 NBasis=   190 RedAO= T EigKep=  4.62D-05  NBF=   190
 NBsUse=   190 1.00D-06 EigRej= -1.00D+00 NBFU=   190
 Lowest energy guess from the checkpoint file:  "/localscratch/339542/Gau-53904.chk"
 B after Tr=     0.000000    0.000000    0.000000
         Rot=    1.000000    0.000276    0.000002   -0.000300 Ang=   0.05 deg.
 B after Tr=     0.000000    0.000000    0.000000
         Rot=    0.999998   -0.000789    0.000058    0.001934 Ang=  -0.24 deg.
 Initial guess <Sx>= 0.0000 <Sy>= 0.0000 <Sz>= 0.5000 <S**2>= 0.7569 S= 0.5034
 Keep R1 and R2 ints in memory in canonical form, NReq=370972421.
 Requested convergence on RMS density matrix=1.00D-08 within 128 cycles.
 Requested convergence on MAX density matrix=1.00D-06.
 Requested convergence on             energy=1.00D-06.
 No special actions if energy rises.
 Integral accuracy reduced to 1.0D-05 until final iterations.
 Initial convergence to 1.0D-05 achieved.  Increase integral accuracy.
 SCF Done:  E(UB2PLYPD3) =  -155.005876196     A.U. after    9 cycles
            NFock=  9  Conv=0.31D-08     -V/T= 2.0047
 <Sx>= 0.0000 <Sy>= 0.0000 <Sz>= 0.5000 <S**2>= 0.7569 S= 0.5034
 <L.S>=  0.00000000000    
 Annihilation of the first spin contaminant:
 S**2 before annihilation     0.7569,   after     0.7500
 DoSCS=T DFT=T ScalE2(SS,OS)=  0.270000  0.270000
 ExpMin= 1.03D-01 ExpMax= 8.24D+03 ExpMxC= 2.81D+02 IAcc=3 IRadAn=         5 AccDes= 0.00D+00
 HarFok:  IExCor=  205 AccDes= 0.00D+00 IRadAn=         5 IDoV=-2 UseB2=F ITyADJ=14
 ICtDFT= 12500011 ScaDFX=  1.000000  1.000000  1.000000  1.000000
 Range of M.O.s used for correlation:     5   190
 NBasis=   190 NAE=    15 NBE=    14 NFC=     4 NFV=     0
 NROrb=    186 NOA=    11 NOB=    10 NVA=   175 NVB=   176

 **** Warning!!: The largest alpha MO coefficient is  0.42220354D+02


 **** Warning!!: The largest beta MO coefficient is  0.41473960D+02

 DoSCS=T DFT=T ScalE2(SS,OS)=  0.270000  0.270000
 Fully direct method using O(ONN) memory.
 JobTyp=2 Pass  1:  I=   5 to  15 NPSUse= 40 ParTrn=T ParDer=T DoDerP=T.
 JobTyp=3 Pass  1:  I=   5 to  14 NPSUse= 40 ParTrn=T ParDer=T DoDerP=T.
 Spin components of T(2) and E(2):
     alpha-alpha T2 =       0.4561200479D-01 E2=     -0.2638415248D-01
     alpha-beta  T2 =       0.2493113134D+00 E2=     -0.1555368311D+00
     beta-beta   T2 =       0.3895268282D-01 E2=     -0.2195256698D-01
 (S**2,0)=  0.75687D+00           (S**2,1)=  0.74747D+00
 Scaling Projection term by:   0.270000
 E(PUHF)=      -0.15500839974D+03        E(PMP2)=      -0.15520996605D+03
 E2(B2PLYPD3) =    -0.2038735505D+00 E(B2PLYPD3) =    -0.15520974974678D+03
          IDoAtm=111111111
          Differentiating once with respect to electric field.
                with respect to dipole field.
          Differentiating once with respect to nuclear coordinates.
 Keep R1 and R2 ints in memory in canonical form, NReq=370978893.
          There are     1 degrees of freedom in the 1st order CPHF.  IDoFFX=0 NUNeed=     1.
 LinEq1:  Iter=  0 NonCon=     1 RMS=7.53D-04 Max=1.73D-02 NDo=     1
 AX will form     1 AO Fock derivatives at one time.
 LinEq1:  Iter=  1 NonCon=     1 RMS=2.73D-04 Max=3.86D-03 NDo=     1
 LinEq1:  Iter=  2 NonCon=     1 RMS=1.33D-04 Max=3.56D-03 NDo=     1
 LinEq1:  Iter=  3 NonCon=     1 RMS=1.07D-04 Max=2.43D-03 NDo=     1
 LinEq1:  Iter=  4 NonCon=     1 RMS=4.38D-05 Max=8.91D-04 NDo=     1
 LinEq1:  Iter=  5 NonCon=     1 RMS=1.52D-05 Max=2.23D-04 NDo=     1
 LinEq1:  Iter=  6 NonCon=     1 RMS=4.46D-06 Max=4.41D-05 NDo=     1
 LinEq1:  Iter=  7 NonCon=     1 RMS=1.46D-06 Max=3.12D-05 NDo=     1
 LinEq1:  Iter=  8 NonCon=     1 RMS=4.82D-07 Max=8.34D-06 NDo=     1
 LinEq1:  Iter=  9 NonCon=     1 RMS=2.00D-07 Max=2.58D-06 NDo=     1
 LinEq1:  Iter= 10 NonCon=     1 RMS=6.62D-08 Max=1.15D-06 NDo=     1
 LinEq1:  Iter= 11 NonCon=     1 RMS=2.32D-08 Max=4.69D-07 NDo=     1
 LinEq1:  Iter= 12 NonCon=     1 RMS=9.94D-09 Max=1.33D-07 NDo=     1
 LinEq1:  Iter= 13 NonCon=     1 RMS=3.92D-09 Max=5.45D-08 NDo=     1
 LinEq1:  Iter= 14 NonCon=     1 RMS=1.18D-09 Max=2.58D-08 NDo=     1
 LinEq1:  Iter= 15 NonCon=     1 RMS=3.12D-10 Max=4.03D-09 NDo=     1
 LinEq1:  Iter= 16 NonCon=     0 RMS=8.05D-11 Max=8.85D-10 NDo=     1
 Linear equations converged to 1.000D-10 1.000D-09 after    16 iterations.
 End of Minotr F.D. properties file   721 does not exist.
 End of Minotr F.D. properties file   722 does not exist.
 End of Minotr F.D. properties file   788 does not exist.
 Calling FoFJK, ICntrl=  10002127 FMM=F ISym2X=0 I1Cent= 0 IOpClX= 1 NMat=1 NMatS=1 NMatT=0.
 ***** Axes restored to original set *****
 -------------------------------------------------------------------
 Center     Atomic                   Forces (Hartrees/Bohr)
 Number     Number              X              Y              Z
 -------------------------------------------------------------------
      1        6          -0.000115644    0.000050487    0.000012403
      2        1          -0.000018492    0.000010741    0.000012911
      3        6           0.000057229   -0.000018005   -0.000058712
      4        6           0.000134619   -0.000114314    0.000052417
      5        1          -0.000054310    0.000038072   -0.000009399
      6        1          -0.000007785    0.000008116   -0.000026391
      7        6           0.000024546    0.000010594    0.000056965
      8        1           0.000000876    0.000026473    0.000014238
      9        1          -0.000021040   -0.000012165   -0.000054433
 -------------------------------------------------------------------
 Cartesian Forces:  Max     0.000134619 RMS     0.000051429

 GradGradGradGradGradGradGradGradGradGradGradGradGradGradGradGradGradGrad
 Berny optimization.
 Using GEDIIS/GDIIS optimizer.
 FormGI is forming the generalized inverse of G from B-inverse, IUseBI=4.
 Internal  Forces:  Max     0.000146991 RMS     0.000044775
 Search for a local minimum.
 Step number   4 out of a maximum of  100
 All quantities printed in internal units (Hartrees-Bohrs-Radians)
 Mixed Optimization -- En-DIIS/RFO-DIIS
 Update second derivatives using D2CorX and points    1    3    2    4
 DE= -7.45D-06 DEPred=-6.86D-06 R= 1.09D+00
 TightC=F SS=  1.41D+00  RLast= 1.57D-02 DXNew= 2.5227D-01 4.7194D-02
 Trust test= 1.09D+00 RLast= 1.57D-02 DXMaxT set to 1.50D-01
 ITU=  1 -1  1  0
 Use linear search instead of GDIIS.
     Eigenvalues ---    0.00784   0.00899   0.01311   0.04132   0.04782
     Eigenvalues ---    0.06909   0.07441   0.09791   0.15561   0.16000
     Eigenvalues ---    0.16009   0.16061   0.22368   0.33351   0.33855
     Eigenvalues ---    0.34269   0.35758   0.36193   0.36362   0.38638
     Eigenvalues ---    1.09405
 RFO step:  Lambda=-1.06982205D-06 EMin= 7.83926614D-03
 Quartic linear search produced a step of  0.05267.
 Iteration  1 RMS(Cart)=  0.00304865 RMS(Int)=  0.00000638
 Iteration  2 RMS(Cart)=  0.00000809 RMS(Int)=  0.00000053
 Iteration  3 RMS(Cart)=  0.00000000 RMS(Int)=  0.00000053
 Variable       Old X    -DE/DX   Delta X   Delta X   Delta X     New X
                                 (Linear)    (Quad)   (Total)
    R1        2.00266  -0.00002   0.00004  -0.00005  -0.00001   2.00264
    R2        2.27640  -0.00015  -0.00001  -0.00007  -0.00008   2.27632
    R3        2.75999  -0.00009  -0.00008  -0.00033  -0.00041   2.75957
    R4        2.07504   0.00002   0.00001   0.00009   0.00010   2.07515
    R5        2.06812   0.00003   0.00001   0.00009   0.00010   2.06822
    R6        2.81996  -0.00002  -0.00000  -0.00005  -0.00006   2.81990
    R7        2.03720   0.00000  -0.00001   0.00000  -0.00001   2.03719
    R8        2.03421  -0.00001   0.00000  -0.00005  -0.00004   2.03417
    A1        1.89389   0.00001   0.00000   0.00031   0.00032   1.89421
    A2        1.90426  -0.00001   0.00001   0.00003   0.00004   1.90430
    A3        1.98353   0.00006   0.00007   0.00046   0.00053   1.98407
    A4        1.83034  -0.00001  -0.00003  -0.00032  -0.00035   1.82999
    A5        1.92397  -0.00004  -0.00004  -0.00029  -0.00034   1.92363
    A6        1.92135  -0.00002  -0.00002  -0.00025  -0.00027   1.92109
    A7        2.08693  -0.00005  -0.00004  -0.00029  -0.00033   2.08660
    A8        2.10846   0.00005   0.00008   0.00049   0.00056   2.10902
    A9        2.08307  -0.00000  -0.00000   0.00003   0.00003   2.08310
   A10        3.14517  -0.00000  -0.00004  -0.00006  -0.00010   3.14507
   A11        3.12973   0.00000  -0.00060  -0.00057  -0.00117   3.12857
   A12        3.14362  -0.00002   0.00002  -0.00038  -0.00036   3.14326
   A13        3.14111  -0.00008   0.00014  -0.00629  -0.00614   3.13496
    D1       -2.97493  -0.00000   0.00004  -0.00128  -0.00125  -2.97617
[...]
                             3155.13  4307.84  4334.29  4580.97  4750.06
                             5023.20
 
 Zero-point correction=                           0.069211 (Hartree/Particle)
 Thermal correction to Energy=                    0.074851
 Thermal correction to Enthalpy=                  0.075795
 Thermal correction to Gibbs Free Energy=         0.039882
 Sum of electronic and zero-point Energies=           -155.140547
 Sum of electronic and thermal Energies=              -155.134906
 Sum of electronic and thermal Enthalpies=            -155.133962
 Sum of electronic and thermal Free Energies=         -155.169876
 
                     E (Thermal)             CV                S
                      KCal/Mol        Cal/Mol-Kelvin    Cal/Mol-Kelvin
 Total                   46.970             18.032             75.586
 Electronic               0.000              0.000              1.377
 Translational            0.889              2.981             37.828
 Rotational               0.889              2.981             23.739
 Vibrational             45.192             12.070             12.642
 Vibration     1          0.593              1.985              6.526
 Vibration     2          0.641              1.831              2.078
 Vibration     3          0.703              1.643              1.329
 Vibration     4          0.796              1.393              0.842
 Vibration     5          0.882              1.190              0.594
                       Q            Log10(Q)             Ln(Q)
 Total Bot       0.452526D-18        -18.344357        -42.239443
 Total V=0       0.309315D+14         13.490402         31.062798
 Vib (Bot)       0.433127D-30        -30.363384        -69.914276
 Vib (Bot)    1  0.980616D+01          0.991499          2.283011
 Vib (Bot)    2  0.965387D+00         -0.015299         -0.035226
 Vib (Bot)    3  0.595664D+00         -0.224999         -0.518079
 Vib (Bot)    4  0.398670D+00         -0.399386         -0.919621
 Vib (Bot)    5  0.304247D+00         -0.516774         -1.189916
 Vib (V=0)       0.296056D+02          1.471374          3.387964
 Vib (V=0)    1  0.103189D+02          1.013633          2.333977
 Vib (V=0)    2  0.158719D+01          0.200628          0.461962
 Vib (V=0)    3  0.127770D+01          0.106428          0.245061
 Vib (V=0)    4  0.113948D+01          0.056708          0.130574
 Vib (V=0)    5  0.108529D+01          0.035546          0.081849
 Electronic      0.200000D+01          0.301030          0.693147
 Translational   0.151827D+08          7.181348         16.535666
 Rotational      0.344072D+05          4.536649         10.446021
 ***** Axes restored to original set *****
 -------------------------------------------------------------------
 Center     Atomic                   Forces (Hartrees/Bohr)
 Number     Number              X              Y              Z
 -------------------------------------------------------------------
      1        6          -0.000003138    0.000001516    0.000000609
      2        1          -0.000000269    0.000000161   -0.000000582
      3        6           0.000002828   -0.000001098   -0.000000065
      4        6           0.000000745   -0.000002080   -0.000000163
      5        1          -0.000000237    0.000000218    0.000000278
      6        1          -0.000000606    0.000000228   -0.000000418
      7        6           0.000001351    0.000001292    0.000000933
      8        1          -0.000000209    0.000000227   -0.000000417
      9        1          -0.000000464   -0.000000463   -0.000000175
 -------------------------------------------------------------------
 Cartesian Forces:  Max     0.000003138 RMS     0.000001105
 FormGI is forming the generalized inverse of G from B-inverse, IUseBI=4.

 GradGradGradGradGradGradGradGradGradGradGradGradGradGradGradGradGradGrad
 Berny optimization.
 Internal  Forces:  Max     0.000003774 RMS     0.000000924
 Search for a local minimum.
 Step number   1 out of a maximum of    2
 All quantities printed in internal units (Hartrees-Bohrs-Radians)
 Second derivative matrix not updated -- analytic derivatives used.
 ITU=  0
     Eigenvalues ---    0.00002   0.00598   0.01793   0.04001   0.05528
     Eigenvalues ---    0.06226   0.07212   0.09031   0.10046   0.10937
     Eigenvalues ---    0.13220   0.14190   0.19270   0.31335   0.31717
     Eigenvalues ---    0.32754   0.36328   0.37044   0.37413   0.41676
     Eigenvalues ---    1.05464
 Angle between quadratic step and forces=  88.75 degrees.
 Linear search not attempted -- first point.
 Iteration  1 RMS(Cart)=  0.00074559 RMS(Int)=  0.00000055
 Iteration  2 RMS(Cart)=  0.00000060 RMS(Int)=  0.00000004
 Variable       Old X    -DE/DX   Delta X   Delta X   Delta X     New X
                                 (Linear)    (Quad)   (Total)
    R1        2.00260  -0.00000   0.00000  -0.00000  -0.00000   2.00260
    R2        2.27623  -0.00000   0.00000  -0.00000  -0.00000   2.27622
    R3        2.75900  -0.00000   0.00000  -0.00001  -0.00001   2.75899
    R4        2.07300   0.00000   0.00000  -0.00002  -0.00002   2.07298
    R5        2.07100   0.00000   0.00000   0.00003   0.00003   2.07103
    R6        2.81983  -0.00000   0.00000  -0.00000  -0.00000   2.81982
    R7        2.03722   0.00000   0.00000   0.00000   0.00000   2.03722
    R8        2.03365   0.00000   0.00000  -0.00000  -0.00000   2.03365
    A1        1.89805  -0.00000   0.00000   0.00004   0.00004   1.89809
    A2        1.90097  -0.00000   0.00000  -0.00004  -0.00004   1.90094
    A3        1.98550   0.00000   0.00000   0.00002   0.00002   1.98552
    A4        1.82810   0.00000   0.00000  -0.00001  -0.00001   1.82809
    A5        1.92266  -0.00000   0.00000  -0.00002  -0.00002   1.92264
    A6        1.92173  -0.00000   0.00000   0.00001   0.00001   1.92173
    A7        2.08564  -0.00000   0.00000  -0.00001  -0.00001   2.08563
    A8        2.11251   0.00000   0.00000   0.00003   0.00003   2.11254
    A9        2.08460  -0.00000   0.00000   0.00001   0.00001   2.08461
   A10        3.14511   0.00000   0.00000   0.00000   0.00000   3.14511
   A11        3.13021   0.00000   0.00000   0.00001   0.00001   3.13022
   A12        3.14215   0.00000   0.00000   0.00001   0.00001   3.14216
   A13        3.14104   0.00000   0.00000   0.00001   0.00001   3.14105
    D1       -3.09646   0.00000   0.00000  -0.00121  -0.00121  -3.09766
    D2        0.07685  -0.00000   0.00000  -0.00214  -0.00214   0.07471
    D3        1.05051   0.00000   0.00000  -0.00126  -0.00126   1.04925
    D4       -2.05936  -0.00000   0.00000  -0.00220  -0.00220  -2.06156
    D5       -0.95713   0.00000   0.00000  -0.00124  -0.00124  -0.95837
    D6        2.21618   0.00000   0.00000  -0.00218  -0.00218   2.21401
         Item               Value     Threshold  Converged?
 Maximum Force            0.000004     0.000450     YES
 RMS     Force            0.000001     0.000300     YES
 Maximum Displacement     0.002540     0.001800     NO 
 RMS     Displacement     0.000746     0.001200     YES
 Predicted change in Energy=-2.258496D-10
 Optimization completed on the basis of negligible forces.
    -- Stationary point found.
                           ----------------------------
                           !   Optimized Parameters   !
                           ! (Angstroms and Degrees)  !
 --------------------------                            --------------------------
 ! Name  Definition              Value          Derivative Info.                !
 --------------------------------------------------------------------------------
 ! R1    R(1,2)                  1.0597         -DE/DX =    0.0                 !
 ! R2    R(1,3)                  1.2045         -DE/DX =    0.0                 !
 ! R3    R(3,4)                  1.46           -DE/DX =    0.0                 !
 ! R4    R(4,5)                  1.097          -DE/DX =    0.0                 !
 ! R5    R(4,6)                  1.0959         -DE/DX =    0.0                 !
 ! R6    R(4,7)                  1.4922         -DE/DX =    0.0                 !
 ! R7    R(7,8)                  1.0781         -DE/DX =    0.0                 !
 ! R8    R(7,9)                  1.0762         -DE/DX =    0.0                 !
 ! A1    A(3,4,5)              108.7505         -DE/DX =    0.0                 !
 ! A2    A(3,4,6)              108.9178         -DE/DX =    0.0                 !
 ! A3    A(3,4,7)              113.761          -DE/DX =    0.0                 !
 ! A4    A(5,4,6)              104.7426         -DE/DX =    0.0                 !
 ! A5    A(5,4,7)              110.1601         -DE/DX =    0.0                 !
 ! A6    A(6,4,7)              110.1069         -DE/DX =    0.0                 !
 ! A7    A(4,7,8)              119.4986         -DE/DX =    0.0                 !
 ! A8    A(4,7,9)              121.0378         -DE/DX =    0.0                 !
 ! A9    A(8,7,9)              119.439          -DE/DX =    0.0                 !
 ! A10   L(2,1,3,9,-1)         180.2017         -DE/DX =    0.0                 !
 ! A11   L(1,3,4,9,-1)         179.3477         -DE/DX =    0.0                 !
 ! A12   L(2,1,3,9,-2)         180.0317         -DE/DX =    0.0                 !
 ! A13   L(1,3,4,9,-2)         179.9685         -DE/DX =    0.0                 !
 ! D1    D(3,4,7,8)           -177.4139         -DE/DX =    0.0                 !
 ! D2    D(3,4,7,9)              4.4033         -DE/DX =    0.0                 !
 ! D3    D(5,4,7,8)             60.19           -DE/DX =    0.0                 !
 ! D4    D(5,4,7,9)           -117.9928         -DE/DX =    0.0                 !
 ! D5    D(6,4,7,8)            -54.8394         -DE/DX =    0.0                 !
 ! D6    D(6,4,7,9)            126.9778         -DE/DX =    0.0                 !
 --------------------------------------------------------------------------------
 GradGradGradGradGradGradGradGradGradGradGradGradGradGradGradGradGradGrad


 ----------------------------------------------------------------------

 Electric dipole moment (input orientation):
 (Debye = 10**-18 statcoulomb cm , SI units = C m)
                  (au)            (Debye)         (10**-30 SI)
   Tot        0.255160D+00      0.648552D+00      0.216334D+01
   x         -0.211001D+00     -0.536310D+00     -0.178894D+01
   y          0.143345D+00      0.364348D+00      0.121533D+01
   z         -0.611081D-02     -0.155321D-01     -0.518096D-01

 Dipole polarizability, Alpha (input orientation).
 (esu units = cm**3 , SI units = C**2 m**2 J**-1)
 Alpha(0;0):
               (au)            (10**-24 esu)      (10**-40 SI)
   iso        0.421612D+02      0.624765D+01      0.695144D+01
   aniso      0.273917D+02      0.405903D+01      0.451628D+01
   xx         0.587236D+02      0.870193D+01      0.968221D+01
   yx        -0.524474D+01     -0.777190D+00     -0.864741D+00
   yy         0.377702D+02      0.559696D+01      0.622746D+01
   zx        -0.326657D+00     -0.484055D-01     -0.538584D-01
   zy        -0.127310D+01     -0.188654D+00     -0.209906D+00
   zz         0.299899D+02      0.444404D+01      0.494466D+01

 ----------------------------------------------------------------------

 Dipole orientation:
     6          0.93605013          1.32509621         -3.31088640
     1          1.18025530          1.69900967         -5.26305841
     6          0.66069703          0.90764632         -1.09027376
     6          0.31648122          0.37282802          1.59441547
     1          2.15445908          0.51313993          2.54282613
     1         -0.82804083          1.87880466          2.43770365
     6         -0.85457016         -2.13970542          2.11136768
     1         -1.26145922         -2.68052869          4.03288369
     1         -1.24929283         -3.44325310          0.60117225

 Electric dipole moment (dipole orientation):
 (Debye = 10**-18 statcoulomb cm , SI units = C m)
                  (au)            (Debye)         (10**-30 SI)
   Tot        0.255160D+00      0.648552D+00      0.216334D+01
   x          0.000000D+00      0.000000D+00      0.000000D+00
   y          0.000000D+00      0.000000D+00      0.000000D+00
   z          0.255160D+00      0.648552D+00      0.216334D+01

 Dipole polarizability, Alpha (dipole orientation).
 (esu units = cm**3 , SI units = C**2 m**2 J**-1)
 Alpha(0;0):
               (au)            (10**-24 esu)      (10**-40 SI)
   iso        0.421612D+02      0.624765D+01      0.695144D+01
   aniso      0.273917D+02      0.405903D+01      0.451628D+01
   xx         0.316694D+02      0.469292D+01      0.522158D+01
   yx         0.390411D+01      0.578529D+00      0.643700D+00
   yy         0.378258D+02      0.560520D+01      0.623663D+01
   zx        -0.420273D+01     -0.622781D+00     -0.692937D+00
   zy        -0.654499D+01     -0.969867D+00     -0.107912D+01
   zz         0.569884D+02      0.844481D+01      0.939612D+01

 ----------------------------------------------------------------------
 1\1\GINC-N68\Freq\UB2PLYPD3-FC\CC-pVTZ\C4H5(2)\ROOT\31-May-2019\0\\#N 
 Geom=AllCheck Guess=TCheck SCRF=Check GenChk UB2PLYPD3(FC)/CC-pVTZ Fre
 q\\Title Card Required\\0,2\C,1.9308801027,-0.2740405025,0.0576397933\
 H,2.9180086855,-0.6589976385,0.0780843637\C,0.8103828261,0.1672857837,
 0.0331057369\C,-0.5536637359,0.6872047871,0.0074481813\H,-0.6421431422
 ,1.4823206115,0.7580066208\H,-0.7247092192,1.1888769217,-0.9517804713\
 C,-1.5982404263,-0.3537220688,0.2353881962\H,-2.6397680853,-0.07861840
 72,0.1937621762\H,-1.3282450054,-1.368857487,0.469323403\\Version=ES64
 L-G16RevB.01\State=2-A\HF=-155.0058795\MP2=-155.2097575\PUHF=-155.0084
 177\PMP2-0=-155.2099755\S2=0.756924\S2-1=0.747456\S2A=0.750031\RMSD=1.
 529e-09\RMSF=1.105e-06\ZeroPoint=0.0692109\Thermal=0.0748512\Dipole=-0
 .2110007,0.1433455,-0.0061108\DipoleDeriv=-0.4621978,0.0519604,0.00107
 05,0.0898277,-0.2610665,-0.001634,-0.0063849,0.0003309,-0.2455578,0.20
 99067,0.0043001,-0.000584,0.0002776,0.2099264,0.0006437,0.0001461,0.00
 02648,0.2123825,0.1459551,-0.1311788,0.0099342,-0.1454209,-0.1053389,0
 .0025249,0.0150682,0.0026493,-0.1308239,0.195886,0.0272,-0.0068053,-0.
 0593298,0.1055464,0.029592,0.0050158,0.0229922,0.2289326,-0.0398186,0.
 0017057,0.0108387,0.0131322,-0.0313807,-0.065117,0.0182173,-0.0972794,
 0.0201569,-0.0416166,0.0098728,-0.0104108,0.0160297,0.0270808,0.061566
 2,-0.0208764,0.0941929,-0.0329922,0.0968035,-0.0065565,-0.0011403,0.09
 61779,0.0584883,-0.0953526,-0.021236,-0.0900199,-0.322602,-0.1198075,0
 .0117755,0.0035492,0.0090828,0.026458,0.026102,0.0048063,0.0257359,0.1
 341488,0.0148892,0.0309208,-0.0064521,-0.0197772,-0.0297136,0.0416746,
 0.0052436,0.0411333,0.1363551\Polar=58.7235651,-5.2447387,37.7701826,-
 0.3266568,-1.2730986,29.9898633\PG=C01 [X(C4H5)]\NImag=0\\1.29360569,-
 0.48992214,0.23599075,0.02659792,-0.01079307,0.04279991,-0.37089633,0.
 13674926,-0.00723224,0.36347261,0.13640023,-0.07379951,0.00303592,-0.1
 3640728,0.06701832,-0.00713998,0.00300248,-0.01976320,0.00722598,-0.00
 292493,0.01350544,-0.92040876,0.35002306,-0.01920773,0.00611718,-0.001
 70496,-0.00001458,1.22150015,0.34907706,-0.16568332,0.00758988,-0.0022
 2106,0.00141926,-0.00008397,-0.43785927,0.26495514,-0.01894300,0.00753
 198,-0.02847326,0.00011153,-0.00013363,0.00031038,0.02288695,-0.010468
 20,0.08736529,-0.00043839,0.00272279,-0.00021754,0.00109591,0.00153578
 ,-0.00003892,-0.24923444,0.07493160,-0.00412381,0.50567736,0.00326327,
 0.00338746,0.00013429,0.00191950,0.00516819,0.00003926,0.07195245,-0.0
 9298122,0.00203704,-0.03219696,0.49119557,-0.00046317,0.00022595,0.004
 82179,-0.00010967,0.00006053,0.00604908,-0.00324113,0.00191056,-0.0647
 8142,0.00612862,-0.00387199,0.48992878,-0.00155007,-0.00005971,-0.0010
 7145,-0.00020878,-0.00075647,-0.00094853,-0.00904426,0.02546151,0.0234
 4135,-0.04614139,0.01344680,0.01002719,0.05515507,-0.00050452,0.000617
 07,0.00013456,0.00013042,0.00029024,0.00028433,0.00704166,-0.01025250,
 -0.00765861,0.01826900,-0.16460373,-0.12732040,-0.01634127,0.18781147,
 -0.00127225,0.00021529,0.00016089,-0.00005762,-0.00015359,-0.00003101,
 0.00314113,0.00209647,0.00210419,0.01457481,-0.12145788,-0.15931791,-0
 .01621982,0.13510309,0.17588027,-0.00131821,0.00029211,0.00116723,-0.0
 0010225,-0.00037925,0.00115511,-0.01177896,0.01612347,-0.02934272,-0.0
 5133811,0.01819573,-0.03062329,0.00140087,-0.00075810,0.00230947,0.060
 58675,-0.00004871,0.00046310,-0.00023218,0.00011402,0.00022406,-0.0003
 8868,0.00638009,-0.00756169,0.01060317,0.02076699,-0.08720174,0.101078
 45,-0.00331407,0.00945157,-0.02065013,-0.01948427,0.10320275,0.0015560
 6,-0.00040002,0.00007909,0.00002895,0.00010552,-0.00007115,-0.00428116
 ,-0.00035172,0.00244018,-0.03533302,0.09687772,-0.23583703,-0.00415099
 ,0.00888886,-0.02423562,0.03823751,-0.10908142,0.25864768,0.00160508,-
 0.00047959,0.00007501,0.00042658,0.00123628,-0.00021751,-0.03798290,-0
 .02131188,0.00513548,-0.15277917,-0.06524052,0.01483224,0.00152956,-0.
 00569384,-0.00239827,0.00383963,-0.00201887,0.00299834,0.59122402,0.00
 328877,-0.00236200,0.00033308,-0.00031796,-0.00043776,0.00008813,0.005
 26032,0.01239376,-0.00242350,-0.07181849,-0.15276815,0.02528246,-0.018
 11202,-0.02273121,0.00471695,-0.01349870,-0.01791947,0.00448570,-0.057
 58775,0.58355893,-0.00071716,0.00059912,0.00046114,0.00004231,0.000039
 94,0.00001676,0.00049615,-0.00156126,0.00001277,0.01584239,0.02468783,
 -0.04508317,-0.01096511,-0.00947932,0.00653254,0.01661555,0.01857573,-
 0.00020595,0.00732362,-0.11912041,0.07255367,-0.00022487,0.00002349,0.
 00001631,0.00013743,0.00011395,-0.00002764,-0.00242736,-0.00309842,0.0
 0065375,-0.01221823,0.00882840,-0.00144933,0.00027207,-0.00003873,-0.0
 0036099,0.00041432,0.00010195,0.00036177,-0.33154229,0.07504289,-0.011
 32946,0.34706462,-0.00111607,0.00097284,-0.00011216,0.00007039,0.00017
 511,-0.00003845,-0.00221832,-0.00345361,0.00084547,-0.02155195,0.00835
 676,-0.00120516,0.00076911,0.00073692,-0.00053834,0.00080661,0.0007893
 1,0.00038553,0.07763608,-0.07726299,0.01383472,-0.07893523,0.07053901,
 0.00029770,-0.00024392,0.00005388,-0.00002072,-0.00004974,-0.00004495,
 0.00055699,0.00098424,0.00102257,0.00441783,-0.00137897,0.00053912,0.0
 0017893,0.00070219,0.00047972,-0.00024076,-0.00094531,0.00063807,-0.01
 095095,0.01339737,-0.01213846,0.01150320,-0.01337859,0.00700719,-0.000
 37414,0.00065073,-0.00012750,-0.00004236,-0.00003827,0.00000607,0.0032
 5933,-0.00110302,0.00018046,0.00537645,-0.02016868,0.00489854,-0.00141
 307,-0.00210462,0.00028355,-0.00170403,-0.00249713,0.00058254,-0.07632
 051,0.07774294,-0.01730829,-0.00147569,0.02453938,-0.00574221,0.072694
 02,-0.00043789,0.00041361,-0.00009032,-0.00003730,-0.00005791,0.000021
 83,0.00112497,0.00116417,-0.00033372,0.00734125,-0.01055312,0.00383960
 ,-0.00109387,-0.00131982,0.00066813,-0.00129761,-0.00144788,-0.0009101
 7,0.07346009,-0.32247110,0.07242366,-0.00203830,-0.00085335,0.00091272
 ,-0.07702134,0.33512541,0.00008388,-0.00013781,-0.00014023,0.00001147,
 0.00001997,0.00002866,-0.00033660,-0.00011600,-0.00000070,-0.00125035,
 0.00293271,0.00368077,-0.00029158,-0.00065471,-0.00157305,0.00072191,0
 .00104036,-0.00145526,-0.01679795,0.07324023,-0.02214930,0.00063239,0.
 00020698,0.00244287,0.01722684,-0.07653175,0.01916624\\0.00000314,-0.0
 0000152,-0.00000061,0.00000027,-0.00000016,0.00000058,-0.00000283,0.00
 000110,0.00000007,-0.00000074,0.00000208,0.00000016,0.00000024,-0.0000
 0022,-0.00000028,0.00000061,-0.00000023,0.00000042,-0.00000135,-0.0000
 0129,-0.00000093,0.00000021,-0.00000023,0.00000042,0.00000046,0.000000
 46,0.00000017\\\@


 Once you get people laughing, they're
 listening and you can tell them almost anything.
                                 -- Herb Gardner
 Job cpu time:       0 days  4 hours 39 minutes 28.2 seconds.
 Elapsed time:       0 days  0 hours  7 minutes 12.0 seconds.
 File lengths (MBytes):  RWF=   9023 Int=      0 D2E=      0 Chk=      7 Scr=      1
 Normal termination of Gaussian 16 at Fri May 31 18:06:42 2019.
