 Entering Gaussian System, Link 0=g16
 Initial command:
 /ichec/packages/gaussian/16b01/l1.exe "/localscratch/339543/Gau-22469.inp" -scrdir="/localscratch/339543/"
 Entering Link 1 = /ichec/packages/gaussian/16b01/l1.exe PID=     22539.
  
 Copyright (c) 1988-2017, Gaussian, Inc.  All Rights Reserved.
  
 This is part of the Gaussian(R) 16 program.  It is based on
 the Gaussian(R) 09 system (copyright 2009, Gaussian, Inc.),
 the Gaussian(R) 03 system (copyright 2003, Gaussian, Inc.),
 the Gaussian(R) 98 system (copyright 1998, Gaussian, Inc.),
 the Gaussian(R) 94 system (copyright 1995, Gaussian, Inc.),
 the Gaussian 92(TM) system (copyright 1992, Gaussian, Inc.),
 the Gaussian 90(TM) system (copyright 1990, Gaussian, Inc.),
 the Gaussian 88(TM) system (copyright 1988, Gaussian, Inc.),
 the Gaussian 86(TM) system (copyright 1986, Carnegie Mellon
 University), and the Gaussian 82(TM) system (copyright 1983,
 Carnegie Mellon University). Gaussian is a federally registered
 trademark of Gaussian, Inc.
  
 This software contains proprietary and confidential information,
 including trade secrets, belonging to Gaussian, Inc.
  
 This software is provided under written license and may be
 used, copied, transmitted, or stored only in accord with that
 written license.
  
 The following legend is applicable only to US Government
 contracts under FAR:
  
                    RESTRICTED RIGHTS LEGEND
  
 Use, reproduction and disclosure by the US Government is
 subject to restrictions as set forth in subparagraphs (a)
 and (c) of the Commercial Computer Software - Restricted
 Rights clause in FAR 52.227-19.
  
 Gaussian, Inc.
 340 Quinnipiac St., Bldg. 40, Wallingford CT 06492
  
  
 ---------------------------------------------------------------
 Warning -- This program may not be used in any manner that
 competes with the business of Gaussian, Inc. or will provide
 assistance to any competitor of Gaussian, Inc.  The licensee
 of this program is prohibited from giving any competitor of
 Gaussian, Inc. access to this program.  By using this program,
 the user acknowledges that Gaussian, Inc. is engaged in the
 business of creating and licensing software in the field of
 computational chemistry and represents and warrants to the
 licensee that it is not a competitor of Gaussian, Inc. and that
 it will not use this program in any manner prohibited above.
 ---------------------------------------------------------------
  

 Cite this work as:
 Gaussian 16, Revision B.01,
 M. J. Frisch, G. W. Trucks, H. B. Schlegel, G. E. Scuseria, 
 M. A. Robb, J. R. Cheeseman, G. Scalmani, V. Barone, 
 G. A. Petersson, H. Nakatsuji, X. Li, M. Caricato, A. V. Marenich, 
 J. Bloino, B. G. Janesko, R. Gomperts, B. Mennucci, H. P. Hratchian, 
 J. V. Ortiz, A. F. Izmaylov, J. L. Sonnenberg, D. Williams-Young, 
 F. Ding, F. Lipparini, F. Egidi, J. Goings, B. Peng, A. Petrone, 
 T. Henderson, D. Ranasinghe, V. G. Zakrzewski, J. Gao, N. Rega, 
 G. Zheng, W. Liang, M. Hada, M. Ehara, K. Toyota, R. Fukuda, 
 J. Hasegawa, M. Ishida, T. Nakajima, Y. Honda, O. Kitao, H. Nakai, 
 T. Vreven, K. Throssell, J. A. Montgomery, Jr., J. E. Peralta, 
 F. Ogliaro, M. J. Bearpark, J. J. Heyd, E. N. Brothers, K. N. Kudin, 
 V. N. Staroverov, T. A. Keith, R. Kobayashi, J. Normand, 
 K. Raghavachari, A. P. Rendell, J. C. Burant, S. S. Iyengar, 
 J. Tomasi, M. Cossi, J. M. Millam, M. Klene, C. Adamo, R. Cammi, 
 J. W. Ochterski, R. L. Martin, K. Morokuma, O. Farkas, 
 J. B. Foresman, and D. J. Fox, Gaussian, Inc., Wallingford CT, 2016.
 
 ******************************************
 Gaussian 16:  ES64L-G16RevB.01 20-Dec-2017
                31-May-2019 
 ******************************************
 %mem=80GB
 %nproc=40
 Will use up to   40 processors via shared memory.
 ----------------------------------------------------------------------
 # opt=(maxcyc=500,modredundant) uB2PLYPD3/cc-pvtz scf=maxcyc=500 nosym
 m
 ----------------------------------------------------------------------
 1/6=500,18=120,19=15,38=1/1,3;
 2/9=110,12=2,15=1,17=6,18=5,40=1/2;
 3/5=16,6=1,11=2,25=1,30=1,71=1,74=-60,116=2/1,2,3;
 4//1;
 5/5=2,7=500,38=5/2;
 8/6=4,10=1/1;
 9/15=2,16=-3/6;
 10/5=1,31=1/2;
 6/7=2,8=2,9=2,10=2/1;
 7/12=2,30=1/1,2,3,16;
 1/6=500,18=20,19=15/3(2);
 2/9=110,15=1/2;
 99//99;
 2/9=110,15=1/2;
 3/5=16,6=1,11=2,25=1,30=1,71=1,74=-60,116=2/1,2,3;
 4/5=5,16=3,69=1/1;
 5/5=2,7=500,38=5/2;
 8/6=4,10=1/1;
 9/15=2,16=-3/6;
 10/5=1,31=1/2;
 7/12=2,30=1/1,2,3,16;
 1/6=500,18=20,19=15/3(-8);
 2/9=110,15=1/2;
 6/7=2,8=2,9=2,10=2/1;
 99/9=10/99;
 -------------------
 Title Card Required
 -------------------
 Symbolic Z-matrix:
 Charge =  0 Multiplicity = 1
 C                     1.94504  -0.26274   0. 
 H                     2.93928  -0.63608   0. 
 C                     0.82671   0.16534   0. 
 C                    -0.55049   0.65262   0. 
 H                    -0.69921   1.28713   0.87519 
 H                    -0.69921   1.28713  -0.87519 
 C                    -1.56799  -0.49026   0. 
 H                    -2.58276  -0.09542   0. 
 H                    -1.43888  -1.11629  -0.88098 
 H                    -1.43888  -1.11629   0.88098 
 
 The following ModRedundant input section has been read:
 D    *          4       7    *    R                                           
 D       6       4       7       9 S  36 10.000                                
 

 GradGradGradGradGradGradGradGradGradGradGradGradGradGradGradGradGradGrad
 Berny optimization.
 Initialization pass.
                           ----------------------------
                           !    Initial Parameters    !
                           ! (Angstroms and Degrees)  !
 --------------------------                            --------------------------
 ! Name  Definition              Value          Derivative Info.                !
 --------------------------------------------------------------------------------
 ! R1    R(1,2)                  1.062          estimate D2E/DX2                !
 ! R2    R(1,3)                  1.1975         estimate D2E/DX2                !
 ! R3    R(3,4)                  1.4609         estimate D2E/DX2                !
 ! R4    R(4,5)                  1.0912         estimate D2E/DX2                !
 ! R5    R(4,6)                  1.0912         estimate D2E/DX2                !
 ! R6    R(4,7)                  1.5302         estimate D2E/DX2                !
 ! R7    R(7,8)                  1.0889         estimate D2E/DX2                !
 ! R8    R(7,9)                  1.0884         estimate D2E/DX2                !
 ! R9    R(7,10)                 1.0884         estimate D2E/DX2                !
 ! A1    A(3,4,5)              108.8111         estimate D2E/DX2                !
 ! A2    A(3,4,6)              108.8111         estimate D2E/DX2                !
 ! A3    A(3,4,7)              112.194          estimate D2E/DX2                !
 ! A4    A(5,4,6)              106.6536         estimate D2E/DX2                !
 ! A5    A(5,4,7)              110.1011         estimate D2E/DX2                !
 ! A6    A(6,4,7)              110.1011         estimate D2E/DX2                !
 ! A7    A(4,7,8)              110.4176         estimate D2E/DX2                !
 ! A8    A(4,7,9)              110.5303         estimate D2E/DX2                !
 ! A9    A(4,7,10)             110.5303         estimate D2E/DX2                !
 ! A10   A(8,7,9)              108.6091         estimate D2E/DX2                !
 ! A11   A(8,7,10)             108.6091         estimate D2E/DX2                !
 ! A12   A(9,7,10)             108.0737         estimate D2E/DX2                !
 ! A13   L(2,1,3,9,-1)         180.3336         estimate D2E/DX2                !
 ! A14   L(1,3,4,9,-1)         178.6642         estimate D2E/DX2                !
 ! A15   L(2,1,3,9,-2)         180.2425         estimate D2E/DX2                !
 ! A16   L(1,3,4,9,-2)         179.2501         estimate D2E/DX2                !
 ! D1    D(6,4,7,9)             61.5403         Scan                            !
 --------------------------------------------------------------------------------
 Trust Radius=3.00D-01 FncErr=1.00D-07 GrdErr=1.00D-07 EigMax=2.50D+02 EigMin=1.00D-04
 Number of optimizations in scan=  37
 Number of steps in this run=    100 maximum allowed number of steps=    100.
 GradGradGradGradGradGradGradGradGradGradGradGradGradGradGradGradGradGrad

                          Input orientation:                          
 ---------------------------------------------------------------------
 Center     Atomic      Atomic             Coordinates (Angstroms)
 Number     Number       Type             X           Y           Z
 ---------------------------------------------------------------------
      1          6           0        1.945042   -0.262736    0.000000
      2          1           0        2.939282   -0.636080    0.000000
      3          6           0        0.826714    0.165343    0.000000
      4          6           0       -0.550487    0.652620    0.000000
      5          1           0       -0.699211    1.287133    0.875189
      6          1           0       -0.699210    1.287133   -0.875189
      7          6           0       -1.567992   -0.490260    0.000000
      8          1           0       -2.582755   -0.095415    0.000000
      9          1           0       -1.438881   -1.116286   -0.880976
     10          1           0       -1.438881   -1.116286    0.880977
 ---------------------------------------------------------------------
                    Distance matrix (angstroms):
                    1          2          3          4          5
     1  C    0.000000
     2  H    1.062026   0.000000
     3  C    1.197459   2.259474   0.000000
     4  C    2.658109   3.720112   1.460863   0.000000
     5  H    3.187495   4.207533   2.086340   1.091183   0.000000
     6  H    3.187494   4.207532   2.086340   1.091183   1.750378
     7  C    3.520394   4.509632   2.482827   1.530193   2.163299
     8  H    4.530888   5.548442   3.419426   2.165564   2.495022
     9  H    3.599389   4.491662   2.748020   2.166654   3.067189
    10  H    3.599389   4.491662   2.748020   2.166655   2.514671
                    6          7          8          9         10
     6  H    0.000000
     7  C    2.163299   0.000000
     8  H    2.495022   1.088874   0.000000
     9  H    2.514671   1.088438   1.768260   0.000000
    10  H    3.067190   1.088439   1.768261   1.761953   0.000000
 Symmetry turned off by external request.
 Stoichiometry    C4H6
 Framework group  CS[SG(C4H2),X(H4)]
 Deg. of freedom    15
 Full point group                 CS      NOp   2
 Rotational constants (GHZ):          27.2812527           4.5878248           4.1267299
 Standard basis: CC-pVTZ (5D, 7F)
   204 basis functions,   310 primitive gaussians,   230 cartesian basis functions
    15 alpha electrons       15 beta electrons
       nuclear repulsion energy       103.2187180877 Hartrees.
 NAtoms=   10 NActive=   10 NUniq=   10 SFac= 1.00D+00 NAtFMM=   60 NAOKFM=F Big=F
 Integral buffers will be    131072 words long.
 Raffenetti 2 integral format.
 Two-electron integral symmetry is turned off.
 Nuclear repulsion after empirical dispersion term =      103.2141528656 Hartrees.
 One-electron integrals computed using PRISM.
 NBasis=   204 RedAO= T EigKep=  4.40D-05  NBF=   204
 NBsUse=   204 1.00D-06 EigRej= -1.00D+00 NBFU=   204
 ExpMin= 1.03D-01 ExpMax= 8.24D+03 ExpMxC= 2.81D+02 IAcc=3 IRadAn=         5 AccDes= 0.00D+00
 Harris functional with IExCor=  419 and IRadAn=       5 diagonalized for initial guess.
 HarFok:  IExCor=  419 AccDes= 0.00D+00 IRadAn=         5 IDoV= 1 UseB2=F ITyADJ=14
 ICtDFT=  3500011 ScaDFX=  1.000000  1.000000  1.000000  1.000000
 FoFCou: FMM=F IPFlag=           0 FMFlag=      100000 FMFlg1=           0
         NFxFlg=           0 DoJE=T BraDBF=F KetDBF=T FulRan=T
         wScrn=  0.000000 ICntrl=       500 IOpCl=  0 I1Cent=   200000004 NGrid=           0
         NMat0=    1 NMatS0=      1 NMatT0=    0 NMatD0=    1 NMtDS0=    0 NMtDT0=    0
 Symmetry not used in FoFCou.
 Initial guess <Sx>= 0.0000 <Sy>= 0.0000 <Sz>= 0.0000 <S**2>=-0.0000 S=-0.0000
 Keep R1 and R2 ints in memory in canonical form, NReq=479623802.
 Requested convergence on RMS density matrix=1.00D-08 within 500 cycles.
 Requested convergence on MAX density matrix=1.00D-06.
 Requested convergence on             energy=1.00D-06.
 No special actions if energy rises.
 Integral accuracy reduced to 1.0D-05 until final iterations.
 Initial convergence to 1.0D-05 achieved.  Increase integral accuracy.
 SCF Done:  E(UB2PLYPD3) =  -155.665681287     A.U. after   12 cycles
            NFock= 12  Conv=0.38D-08     -V/T= 2.0046
 <Sx>= 0.0000 <Sy>= 0.0000 <Sz>= 0.0000 <S**2>=-0.0000 S=-0.0000
 <L.S>=  0.00000000000    
 Annihilation of the first spin contaminant:
 S**2 before annihilation    -0.0000,   after     0.0000
 DoSCS=T DFT=T ScalE2(SS,OS)=  0.270000  0.270000
 ExpMin= 1.03D-01 ExpMax= 8.24D+03 ExpMxC= 2.81D+02 IAcc=3 IRadAn=         5 AccDes= 0.00D+00
 HarFok:  IExCor=  205 AccDes= 0.00D+00 IRadAn=         5 IDoV=-2 UseB2=F ITyADJ=14
 ICtDFT= 12500011 ScaDFX=  1.000000  1.000000  1.000000  1.000000
 Range of M.O.s used for correlation:     5   204
 NBasis=   204 NAE=    15 NBE=    15 NFC=     4 NFV=     0
 NROrb=    200 NOA=    11 NOB=    11 NVA=   189 NVB=   189

 **** Warning!!: The largest alpha MO coefficient is  0.47798027D+02


 **** Warning!!: The largest beta MO coefficient is  0.47798027D+02

 DoSCS=T DFT=T ScalE2(SS,OS)=  0.270000  0.270000
 Fully direct method using O(ONN) memory.
 JobTyp=2 Pass  1:  I=   5 to  15 NPSUse= 40 ParTrn=T ParDer=T DoDerP=T.
 JobTyp=3 Pass  1:  I=   5 to  15 NPSUse= 40 ParTrn=T ParDer=T DoDerP=T.
 Spin components of T(2) and E(2):
     alpha-alpha T2 =       0.4344620488D-01 E2=     -0.2510313038D-01
     alpha-beta  T2 =       0.2618536140D+00 E2=     -0.1656493251D+00
     beta-beta   T2 =       0.4344620488D-01 E2=     -0.2510313038D-01
 (S**2,0)=  0.00000D+00           (S**2,1)=  0.00000D+00
 E(PUHF)=      -0.15566568129D+03        E(PMP2)=      -0.15588153687D+03
 E2(B2PLYPD3) =    -0.2158555858D+00 E(B2PLYPD3) =    -0.15588153687250D+03
          IDoAtm=1111111111
          Differentiating once with respect to electric field.
                with respect to dipole field.
          Differentiating once with respect to nuclear coordinates.
 Keep R1 and R2 ints in memory in canonical form, NReq=479631092.
          There are     1 degrees of freedom in the 1st order CPHF.  IDoFFX=0 NUNeed=     1.
 LinEq1:  Iter=  0 NonCon=     1 RMS=6.57D-04 Max=9.70D-03 NDo=     1
 AX will form     1 AO Fock derivatives at one time.
 LinEq1:  Iter=  1 NonCon=     1 RMS=2.53D-04 Max=2.79D-03 NDo=     1
 LinEq1:  Iter=  2 NonCon=     1 RMS=1.11D-04 Max=2.73D-03 NDo=     1
 LinEq1:  Iter=  3 NonCon=     1 RMS=6.40D-05 Max=9.60D-04 NDo=     1
 LinEq1:  Iter=  4 NonCon=     1 RMS=1.55D-05 Max=1.45D-04 NDo=     1
 LinEq1:  Iter=  5 NonCon=     1 RMS=5.53D-06 Max=6.20D-05 NDo=     1
 LinEq1:  Iter=  6 NonCon=     1 RMS=1.73D-06 Max=2.63D-05 NDo=     1
 LinEq1:  Iter=  7 NonCon=     1 RMS=4.99D-07 Max=9.48D-06 NDo=     1
 LinEq1:  Iter=  8 NonCon=     1 RMS=1.72D-07 Max=2.75D-06 NDo=     1
 LinEq1:  Iter=  9 NonCon=     1 RMS=5.64D-08 Max=7.00D-07 NDo=     1
 LinEq1:  Iter= 10 NonCon=     1 RMS=1.99D-08 Max=2.27D-07 NDo=     1
 LinEq1:  Iter= 11 NonCon=     1 RMS=4.42D-09 Max=4.95D-08 NDo=     1
 LinEq1:  Iter= 12 NonCon=     1 RMS=6.55D-10 Max=7.12D-09 NDo=     1
 LinEq1:  Iter= 13 NonCon=     1 RMS=1.38D-10 Max=1.39D-09 NDo=     1
 LinEq1:  Iter= 14 NonCon=     0 RMS=2.04D-11 Max=2.26D-10 NDo=     1
 Linear equations converged to 1.000D-10 1.000D-09 after    14 iterations.
 End of Minotr F.D. properties file   721 does not exist.
 End of Minotr F.D. properties file   722 does not exist.
 End of Minotr F.D. properties file   788 does not exist.

 **********************************************************************

            Population analysis using the SCF Density.

 **********************************************************************

 Alpha  occ. eigenvalues --  -10.63967 -10.61423 -10.61208 -10.60076  -0.91954
 Alpha  occ. eigenvalues --   -0.83976  -0.74159  -0.60672  -0.54371  -0.53404
 Alpha  occ. eigenvalues --   -0.46643  -0.43915  -0.43037  -0.31946  -0.31871
 Alpha virt. eigenvalues --    0.07430   0.10420   0.10940   0.11730   0.12455
 Alpha virt. eigenvalues --    0.14112   0.15651   0.18392   0.22649   0.25064
 Alpha virt. eigenvalues --    0.28131   0.30964   0.31449   0.34616   0.35246
 Alpha virt. eigenvalues --    0.36243   0.42811   0.45311   0.46545   0.49361
 Alpha virt. eigenvalues --    0.49379   0.49745   0.52961   0.53439   0.55137
 Alpha virt. eigenvalues --    0.55596   0.56474   0.61846   0.64426   0.64629
 Alpha virt. eigenvalues --    0.67816   0.71564   0.73993   0.77968   0.84099
 Alpha virt. eigenvalues --    0.85223   0.89259   0.91268   0.93444   0.96671
 Alpha virt. eigenvalues --    0.97346   0.99190   1.02112   1.05483   1.07790
 Alpha virt. eigenvalues --    1.11041   1.14779   1.16837   1.18356   1.19143
 Alpha virt. eigenvalues --    1.21307   1.24058   1.26696   1.28406   1.30026
 Alpha virt. eigenvalues --    1.34610   1.35651   1.36299   1.41747   1.42343
 Alpha virt. eigenvalues --    1.45702   1.48377   1.50419   1.55136   1.60547
 Alpha virt. eigenvalues --    1.61925   1.63917   1.65518   1.73952   1.75093
 Alpha virt. eigenvalues --    2.14756   2.18816   2.19675   2.34139   2.39150
 Alpha virt. eigenvalues --    2.39438   2.41910   2.44635   2.54547   2.55551
 Alpha virt. eigenvalues --    2.58278   2.59449   2.60526   2.64126   2.65903
 Alpha virt. eigenvalues --    2.67272   2.68662   2.73432   2.76634   2.77273
 Alpha virt. eigenvalues --    2.81858   2.87842   2.88368   2.90784   2.91558
 Alpha virt. eigenvalues --    2.93945   2.95315   3.01701   3.03140   3.03863
 Alpha virt. eigenvalues --    3.05900   3.06259   3.08006   3.08889   3.11096
 Alpha virt. eigenvalues --    3.13339   3.14946   3.15601   3.18318   3.20269
 Alpha virt. eigenvalues --    3.21538   3.25718   3.25751   3.26745   3.28976
 Alpha virt. eigenvalues --    3.34215   3.36276   3.41656   3.42343   3.46543
 Alpha virt. eigenvalues --    3.48837   3.51695   3.57063   3.58555   3.61812
 Alpha virt. eigenvalues --    3.66381   3.68428   3.72885   3.78456   3.79432
 Alpha virt. eigenvalues --    3.81279   3.87945   3.90877   3.93196   3.93815
 Alpha virt. eigenvalues --    3.98194   3.98922   4.01990   4.03069   4.07917
 Alpha virt. eigenvalues --    4.13729   4.13888   4.17208   4.19346   4.20146
 Alpha virt. eigenvalues --    4.24657   4.24811   4.27319   4.31223   4.32911
 Alpha virt. eigenvalues --    4.42439   4.42693   4.44658   4.45480   4.54442
 Alpha virt. eigenvalues --    4.60895   4.61337   4.65867   4.77068   4.94170
 Alpha virt. eigenvalues --    4.99029   4.99894   5.02745   5.05797   5.08402
 Alpha virt. eigenvalues --    5.13254   5.21252   5.31770   5.35312   5.43133
 Alpha virt. eigenvalues --    5.47974   5.48174   5.50668   5.51105   5.57167
 Alpha virt. eigenvalues --    5.59966   5.62638   5.79503   5.98945   6.01992
 Alpha virt. eigenvalues --    6.02764   6.04327   6.13907   6.14034   6.35486
 Alpha virt. eigenvalues --    8.33772  13.28580  13.64868  17.16801
  Beta  occ. eigenvalues --  -10.63967 -10.61423 -10.61208 -10.60076  -0.91954
  Beta  occ. eigenvalues --   -0.83976  -0.74159  -0.60672  -0.54371  -0.53404
  Beta  occ. eigenvalues --   -0.46643  -0.43915  -0.43037  -0.31946  -0.31871
  Beta virt. eigenvalues --    0.07430   0.10420   0.10940   0.11730   0.12455
  Beta virt. eigenvalues --    0.14112   0.15651   0.18392   0.22649   0.25064
  Beta virt. eigenvalues --    0.28131   0.30964   0.31449   0.34616   0.35246
  Beta virt. eigenvalues --    0.36243   0.42811   0.45311   0.46545   0.49361
  Beta virt. eigenvalues --    0.49379   0.49745   0.52961   0.53439   0.55137
  Beta virt. eigenvalues --    0.55596   0.56474   0.61846   0.64426   0.64629
  Beta virt. eigenvalues --    0.67816   0.71564   0.73993   0.77968   0.84099
  Beta virt. eigenvalues --    0.85223   0.89259   0.91268   0.93444   0.96671
  Beta virt. eigenvalues --    0.97346   0.99190   1.02112   1.05483   1.07790
  Beta virt. eigenvalues --    1.11041   1.14779   1.16837   1.18356   1.19143
  Beta virt. eigenvalues --    1.21307   1.24058   1.26696   1.28406   1.30026
  Beta virt. eigenvalues --    1.34610   1.35651   1.36299   1.41747   1.42343
  Beta virt. eigenvalues --    1.45702   1.48377   1.50419   1.55136   1.60547
  Beta virt. eigenvalues --    1.61925   1.63917   1.65518   1.73952   1.75093
  Beta virt. eigenvalues --    2.14756   2.18816   2.19675   2.34139   2.39150
  Beta virt. eigenvalues --    2.39438   2.41910   2.44635   2.54547   2.55551
  Beta virt. eigenvalues --    2.58278   2.59449   2.60526   2.64126   2.65903
  Beta virt. eigenvalues --    2.67272   2.68662   2.73432   2.76634   2.77273
  Beta virt. eigenvalues --    2.81858   2.87842   2.88368   2.90784   2.91558
  Beta virt. eigenvalues --    2.93945   2.95315   3.01701   3.03140   3.03863
  Beta virt. eigenvalues --    3.05900   3.06259   3.08006   3.08889   3.11096
  Beta virt. eigenvalues --    3.13339   3.14946   3.15601   3.18318   3.20269
  Beta virt. eigenvalues --    3.21538   3.25718   3.25751   3.26745   3.28976
  Beta virt. eigenvalues --    3.34215   3.36276   3.41656   3.42343   3.46543
  Beta virt. eigenvalues --    3.48837   3.51695   3.57063   3.58555   3.61812
  Beta virt. eigenvalues --    3.66381   3.68428   3.72885   3.78456   3.79432
  Beta virt. eigenvalues --    3.81279   3.87945   3.90877   3.93196   3.93815
  Beta virt. eigenvalues --    3.98194   3.98922   4.01990   4.03069   4.07917
  Beta virt. eigenvalues --    4.13729   4.13888   4.17208   4.19346   4.20146
  Beta virt. eigenvalues --    4.24657   4.24811   4.27319   4.31223   4.32911
  Beta virt. eigenvalues --    4.42439   4.42693   4.44658   4.45480   4.54442
  Beta virt. eigenvalues --    4.60895   4.61337   4.65867   4.77068   4.94170
  Beta virt. eigenvalues --    4.99029   4.99894   5.02745   5.05797   5.08402
  Beta virt. eigenvalues --    5.13254   5.21252   5.31770   5.35312   5.43133
  Beta virt. eigenvalues --    5.47974   5.48174   5.50668   5.51105   5.57167
  Beta virt. eigenvalues --    5.59966   5.62638   5.79503   5.98945   6.01992
  Beta virt. eigenvalues --    6.02764   6.04327   6.13907   6.14034   6.35486
  Beta virt. eigenvalues --    8.33772  13.28580  13.64868  17.16801
          Condensed to atoms (all electrons):
               1          2          3          4          5          6
     1  C    5.014398   0.408773   0.862032  -0.070287  -0.002665  -0.002665
     2  H    0.408773   0.485429  -0.060856   0.001128  -0.000065  -0.000065
     3  C    0.862032  -0.060856   5.003450   0.374935  -0.044972  -0.044972
     4  C   -0.070287   0.001128   0.374935   4.778996   0.420691   0.420691
     5  H   -0.002665  -0.000065  -0.044972   0.420691   0.585015  -0.035693
     6  H   -0.002665  -0.000065  -0.044972   0.420691  -0.035693   0.585015
     7  C   -0.001775  -0.000084  -0.057654   0.342181  -0.032804  -0.032804
     8  H    0.000088   0.000004   0.009756  -0.037744  -0.004009  -0.004009
     9  H    0.002426   0.000013  -0.001766  -0.032949   0.007325  -0.006050
    10  H    0.002426   0.000013  -0.001766  -0.032949  -0.006050   0.007325
               7          8          9         10
     1  C   -0.001775   0.000088   0.002426   0.002426
     2  H   -0.000084   0.000004   0.000013   0.000013
     3  C   -0.057654   0.009756  -0.001766  -0.001766
     4  C    0.342181  -0.037744  -0.032949  -0.032949
     5  H   -0.032804  -0.004009   0.007325  -0.006050
     6  H   -0.032804  -0.004009  -0.006050   0.007325
     7  C    4.846960   0.406130   0.406022   0.406022
     8  H    0.406130   0.591459  -0.029537  -0.029537
     9  H    0.406022  -0.029537   0.579895  -0.029510
    10  H    0.406022  -0.029537  -0.029510   0.579896
          Atomic-Atomic Spin Densities.
               1          2          3          4          5          6
     1  C    0.000000   0.000000  -0.000000  -0.000000  -0.000000   0.000000
     2  H    0.000000   0.000000  -0.000000  -0.000000  -0.000000   0.000000
     3  C   -0.000000  -0.000000   0.000000   0.000000  -0.000000   0.000000
     4  C   -0.000000  -0.000000   0.000000   0.000000   0.000000  -0.000000
     5  H   -0.000000  -0.000000  -0.000000   0.000000  -0.000000  -0.000000
     6  H    0.000000   0.000000   0.000000  -0.000000  -0.000000   0.000000
     7  C    0.000000   0.000000   0.000000  -0.000000  -0.000000   0.000000
     8  H    0.000000  -0.000000   0.000000   0.000000   0.000000   0.000000
     9  H    0.000000  -0.000000   0.000000  -0.000000   0.000000  -0.000000
    10  H    0.000000   0.000000   0.000000  -0.000000  -0.000000   0.000000
               7          8          9         10
     1  C    0.000000   0.000000   0.000000   0.000000
     2  H    0.000000  -0.000000  -0.000000   0.000000
     3  C    0.000000   0.000000   0.000000   0.000000
     4  C   -0.000000   0.000000  -0.000000  -0.000000
     5  H   -0.000000   0.000000   0.000000  -0.000000
     6  H    0.000000   0.000000  -0.000000   0.000000
     7  C    0.000000  -0.000000  -0.000000   0.000000
     8  H   -0.000000   0.000000   0.000000  -0.000000
     9  H   -0.000000   0.000000  -0.000000   0.000000
    10  H    0.000000  -0.000000   0.000000  -0.000000
 Mulliken charges and spin densities:
               1          2
     1  C   -0.212751   0.000000
     2  H    0.165711   0.000000
     3  C   -0.038187  -0.000000
     4  C   -0.164692   0.000000
     5  H    0.113226  -0.000000
     6  H    0.113226  -0.000000
     7  C   -0.282192   0.000000
     8  H    0.097399   0.000000
     9  H    0.104131  -0.000000
    10  H    0.104131  -0.000000
 Sum of Mulliken charges =  -0.00000   0.00000
 Mulliken charges and spin densities with hydrogens summed into heavy atoms:
               1          2
     1  C   -0.047041   0.000000
     3  C   -0.038187  -0.000000
     4  C    0.061759   0.000000
     7  C    0.023469  -0.000000
 Electronic spatial extent (au):  <R**2>=            332.5495
 Charge=             -0.0000 electrons
 Dipole moment (field-independent basis, Debye):
    X=             -0.7723    Y=              0.1697    Z=             -0.0000  Tot=              0.7908
 Quadrupole moment (field-independent basis, Debye-Ang):
   XX=            -22.3239   YY=            -25.6761   ZZ=            -26.1894
   XY=             -2.0270   XZ=             -0.0000   YZ=              0.0000
 Traceless Quadrupole moment (field-independent basis, Debye-Ang):
   XX=              2.4059   YY=             -0.9463   ZZ=             -1.4596
   XY=             -2.0270   XZ=             -0.0000   YZ=              0.0000
 Octapole moment (field-independent basis, Debye-Ang**2):
  XXX=             11.7821  YYY=              1.2561  ZZZ=             -0.0000  XYY=             -1.9970
  XXY=             -5.2460  XXZ=             -0.0000  XZZ=             -3.5714  YZZ=              0.6456
  YYZ=             -0.0000  XYZ=             -0.0000
 Hexadecapole moment (field-independent basis, Debye-Ang**3):
 XXXX=           -288.9626 YYYY=            -81.9216 ZZZZ=            -42.8516 XXXY=            -22.4671
 XXXZ=              0.0000 YYYX=             -1.7931 YYYZ=              0.0000 ZZZX=              0.0000
 ZZZY=              0.0000 XXYY=            -71.7673 XXZZ=            -69.9607 YYZZ=            -18.6924
 XXYZ=              0.0000 YYXZ=              0.0000 ZZXY=             -0.0655
 N-N= 1.032141528656D+02 E-N=-5.672157327155D+02  KE= 1.549458892331D+02
                          Isotropic Fermi Contact Couplings
        Atom                 a.u.       MegaHertz       Gauss      10(-4) cm-1
     1  C(13)              0.00000       0.00000       0.00000       0.00000
     2  H(1)              -0.00000      -0.00000      -0.00000      -0.00000
     3  C(13)              0.00000       0.00000       0.00000       0.00000
     4  C(13)              0.00000       0.00000       0.00000       0.00000
     5  H(1)               0.00000       0.00000       0.00000       0.00000
     6  H(1)              -0.00000      -0.00000      -0.00000      -0.00000
     7  C(13)              0.00000       0.00000       0.00000       0.00000
     8  H(1)              -0.00000      -0.00000      -0.00000      -0.00000
     9  H(1)               0.00000       0.00000       0.00000       0.00000
    10  H(1)               0.00000       0.00000       0.00000       0.00000
 --------------------------------------------------------
       Center         ----  Spin Dipole Couplings  ----
                      3XX-RR        3YY-RR        3ZZ-RR
 --------------------------------------------------------
     1   Atom        0.000000      0.000000      0.000000
     2   Atom        0.000000      0.000000      0.000000
     3   Atom        0.000000      0.000000      0.000000
     4   Atom        0.000000      0.000000      0.000000
     5   Atom        0.000000      0.000000      0.000000
     6   Atom        0.000000      0.000000      0.000000
     7   Atom        0.000000      0.000000      0.000000
     8   Atom        0.000000      0.000000      0.000000
     9   Atom        0.000000      0.000000      0.000000
    10   Atom        0.000000      0.000000      0.000000
 --------------------------------------------------------
                        XY            XZ            YZ
 --------------------------------------------------------
     1   Atom        0.000000      0.000000      0.000000
     2   Atom        0.000000      0.000000      0.000000
     3   Atom        0.000000      0.000000      0.000000
     4   Atom        0.000000      0.000000      0.000000
     5   Atom        0.000000      0.000000      0.000000
     6   Atom        0.000000      0.000000      0.000000
     7   Atom        0.000000      0.000000      0.000000
     8   Atom        0.000000      0.000000      0.000000
     9   Atom        0.000000      0.000000      0.000000
    10   Atom        0.000000      0.000000      0.000000
 --------------------------------------------------------


 ---------------------------------------------------------------------------------
              Anisotropic Spin Dipole Couplings in Principal Axis System
 ---------------------------------------------------------------------------------

       Atom             a.u.   MegaHertz   Gauss  10(-4) cm-1        Axes

              Baa     0.0000     0.000     0.000     0.000  1.0000  0.0000  0.0000
     1 C(13)  Bbb     0.0000     0.000     0.000     0.000 -0.0000  1.0000  0.0000
              Bcc     0.0000     0.000     0.000     0.000  0.0000  0.0000  1.0000
 
              Baa     0.0000     0.000     0.000     0.000  1.0000  0.0000  0.0000
     2 H(1)   Bbb     0.0000     0.000     0.000     0.000 -0.0000  1.0000  0.0000
              Bcc     0.0000     0.000     0.000     0.000  0.0000  0.0000  1.0000
 
              Baa     0.0000     0.000     0.000     0.000  1.0000  0.0000  0.0000
     3 C(13)  Bbb     0.0000     0.000     0.000     0.000 -0.0000  1.0000  0.0000
              Bcc     0.0000     0.000     0.000     0.000  0.0000  0.0000  1.0000
 
              Baa     0.0000     0.000     0.000     0.000  1.0000  0.0000  0.0000
     4 C(13)  Bbb     0.0000     0.000     0.000     0.000 -0.0000  1.0000  0.0000
              Bcc     0.0000     0.000     0.000     0.000  0.0000  0.0000  1.0000
 
              Baa     0.0000     0.000     0.000     0.000  1.0000  0.0000  0.0000
     5 H(1)   Bbb     0.0000     0.000     0.000     0.000 -0.0000  1.0000  0.0000
              Bcc     0.0000     0.000     0.000     0.000  0.0000  0.0000  1.0000
 
              Baa     0.0000     0.000     0.000     0.000  1.0000  0.0000  0.0000
     6 H(1)   Bbb     0.0000     0.000     0.000     0.000 -0.0000  1.0000  0.0000
              Bcc     0.0000     0.000     0.000     0.000  0.0000  0.0000  1.0000
 
              Baa     0.0000     0.000     0.000     0.000  1.0000  0.0000  0.0000
     7 C(13)  Bbb     0.0000     0.000     0.000     0.000 -0.0000  1.0000  0.0000
              Bcc     0.0000     0.000     0.000     0.000  0.0000  0.0000  1.0000
 
              Baa     0.0000     0.000     0.000     0.000  1.0000  0.0000  0.0000
     8 H(1)   Bbb     0.0000     0.000     0.000     0.000 -0.0000  1.0000  0.0000
              Bcc     0.0000     0.000     0.000     0.000  0.0000  0.0000  1.0000
 
              Baa     0.0000     0.000     0.000     0.000  1.0000  0.0000  0.0000
     9 H(1)   Bbb     0.0000     0.000     0.000     0.000 -0.0000  1.0000  0.0000
              Bcc     0.0000     0.000     0.000     0.000  0.0000  0.0000  1.0000
 
              Baa     0.0000     0.000     0.000     0.000  1.0000  0.0000  0.0000
    10 H(1)   Bbb     0.0000     0.000     0.000     0.000 -0.0000  1.0000  0.0000
              Bcc     0.0000     0.000     0.000     0.000  0.0000  0.0000  1.0000
 

 ---------------------------------------------------------------------------------

 Calling FoFJK, ICntrl=  10002127 FMM=F ISym2X=0 I1Cent= 0 IOpClX= 1 NMat=1 NMatS=1 NMatT=0.
 -------------------------------------------------------------------
 Center     Atomic                   Forces (Hartrees/Bohr)
 Number     Number              X              Y              Z
 -------------------------------------------------------------------
      1        6           0.016751357   -0.006390767   -0.000000003
      2        1          -0.001807449    0.000706071   -0.000000002
      3        6          -0.015065152    0.006062654    0.000000053
      4        6           0.002096731    0.000059701    0.000000052
      5        1          -0.000369536    0.000033238   -0.000265817
      6        1          -0.000369650    0.000033275    0.000265746
      7        6          -0.000625105   -0.000377244    0.000000392
      8        1           0.000046730   -0.000316158   -0.000000003
      9        1          -0.000328934    0.000094468    0.000351633
     10        1          -0.000328992    0.000094764   -0.000352051
 -------------------------------------------------------------------
 Cartesian Forces:  Max     0.016751357 RMS     0.004452952

 GradGradGradGradGradGradGradGradGradGradGradGradGradGradGradGradGradGrad
 Berny optimization.
 FormGI is forming the generalized inverse of G from B-inverse, IUseBI=4.
 Internal  Forces:  Max     0.015988677 RMS     0.003190725
 Search for a local minimum.
 Step number   1 out of a maximum of  100 on scan point     1 out of    37
 All quantities printed in internal units (Hartrees-Bohrs-Radians)
 Mixed Optimization -- RFO/linear search
 Second derivative matrix not updated -- first step.
 ITU=  0
     Eigenvalues ---    0.01284   0.01284   0.04768   0.04768   0.16000
     Eigenvalues ---    0.16000   0.16000   0.16000   0.16000   0.16000
     Eigenvalues ---    0.16000   0.16000   0.16000   0.23344   0.29406
     Eigenvalues ---    0.34676   0.34676   0.34943   0.34994   0.34994
     Eigenvalues ---    0.36856   0.38256   1.061101000.000001000.00000
     Eigenvalues --- 1000.00000
 RFO step:  Lambda=-2.75496606D-04 EMin= 1.28365154D-02
 Linear search not attempted -- first point.
 Iteration  1 RMS(Cart)=  0.01157275 RMS(Int)=  0.00003705
 Iteration  2 RMS(Cart)=  0.00004460 RMS(Int)=  0.00000297
 Iteration  3 RMS(Cart)=  0.00000000 RMS(Int)=  0.00000297
 Iteration  1 RMS(Cart)=  0.00000000 RMS(Int)=  0.00000000
 Variable       Old X    -DE/DX   Delta X   Delta X   Delta X     New X
                                 (Linear)    (Quad)   (Total)
    R1        2.00694  -0.00194   0.00000  -0.00507  -0.00507   2.00187
    R2        2.26287   0.01599   0.00000   0.01506   0.01506   2.27793
    R3        2.76063  -0.00024   0.00000  -0.00065  -0.00065   2.75998
    R4        2.06204  -0.00014   0.00000  -0.00041  -0.00041   2.06162
    R5        2.06204  -0.00014   0.00000  -0.00041  -0.00041   2.06162
    R6        2.89165   0.00120   0.00000   0.00407   0.00407   2.89572
    R7        2.05767  -0.00016   0.00000  -0.00045  -0.00045   2.05722
    R8        2.05685  -0.00038   0.00000  -0.00108  -0.00108   2.05577
    R9        2.05685  -0.00038   0.00000  -0.00108  -0.00108   2.05577
    A1        1.89911   0.00025   0.00000   0.00209   0.00208   1.90119
    A2        1.89911   0.00025   0.00000   0.00209   0.00208   1.90119
    A3        1.95815   0.00126   0.00000   0.00540   0.00539   1.96355
    A4        1.86146  -0.00069   0.00000  -0.00380  -0.00381   1.85765
    A5        1.92163  -0.00058   0.00000  -0.00307  -0.00308   1.91855
    A6        1.92163  -0.00058   0.00000  -0.00307  -0.00308   1.91855
    A7        1.92715   0.00018   0.00000   0.00115   0.00114   1.92829
    A8        1.92912   0.00034   0.00000   0.00214   0.00214   1.93125
    A9        1.92912   0.00034   0.00000   0.00214   0.00214   1.93125
   A10        1.89559  -0.00037   0.00000  -0.00232  -0.00233   1.89326
   A11        1.89559  -0.00037   0.00000  -0.00232  -0.00233   1.89326
   A12        1.88624  -0.00016   0.00000  -0.00097  -0.00097   1.88527
   A13        3.14741   0.00005   0.00000   0.00097   0.00097   3.14839
   A14        3.11828   0.00011   0.00000   0.00874   0.00874   3.12702
   A15        3.14583   0.00001   0.00000   0.00026   0.00026   3.14609
   A16        3.12850   0.00004   0.00000   0.00306   0.00306   3.13157
    D1        1.07408  -0.00000   0.00000   0.00000   0.00000   1.07408
         Item               Value     Threshold  Converged?
 Maximum Force            0.015989     0.000450     NO 
 RMS     Force            0.003254     0.000300     NO 
 Maximum Displacement     0.027469     0.001800     NO 
 RMS     Displacement     0.011573     0.001200     NO 
 Predicted change in Energy=-1.378137D-04
 GradGradGradGradGradGradGradGradGradGradGradGradGradGradGradGradGradGrad

                          Input orientation:                          
 ---------------------------------------------------------------------
 Center     Atomic      Atomic             Coordinates (Angstroms)
 Number     Number       Type             X           Y           Z
 ---------------------------------------------------------------------
      1          6           0        1.957874   -0.261799    0.000694
      2          1           0        2.952943   -0.625178    0.002318
      3          6           0        0.828629    0.159945   -0.000800
      4          6           0       -0.547835    0.648269   -0.000751
      5          1           0       -0.697640    1.284480    0.872747
      6          1           0       -0.698001    1.283641   -0.874797
      7          6           0       -1.573893   -0.489841    0.000008
      8          1           0       -2.586404   -0.089921    0.003470
      9          1           0       -1.453417   -1.115647   -0.881642
     10          1           0       -1.448636   -1.118783    0.878754
 ---------------------------------------------------------------------
                    Distance matrix (angstroms):
                    1          2          3          4          5
     1  C    0.000000
     2  H    1.059344   0.000000
     3  C    1.205431   2.264760   0.000000
     4  C    2.665859   3.725201   1.460519   0.000000
     5  H    3.194246   4.210843   2.087381   1.090965   0.000000
     6  H    3.195081   4.212163   2.087382   1.090965   1.747544
     7  C    3.539121   4.528859   2.488842   1.532348   2.162801
     8  H    4.547528   5.565147   3.424164   2.168111   2.492398
     9  H    3.625531   4.520835   2.758759   2.169665   3.067521
    10  H    3.620735   4.515051   2.755848   2.169665   2.517877
                    6          7          8          9         10
     6  H    0.000000
     7  C    2.162801   0.000000
     8  H    2.494813   1.088635   0.000000
     9  H    2.515409   1.087867   1.766124   0.000000
    10  H    3.067579   1.087867   1.766124   1.760405   0.000000
 Symmetry turned off by external request.
 Stoichiometry    C4H6
 Framework group  C1[X(C4H6)]
 Deg. of freedom    24
 Full point group                 C1      NOp   1
 Rotational constants (GHZ):          27.4789362           4.5478771           4.0982914
 Standard basis: CC-pVTZ (5D, 7F)
   204 basis functions,   310 primitive gaussians,   230 cartesian basis functions
    15 alpha electrons       15 beta electrons
       nuclear repulsion energy       103.0012385237 Hartrees.
 NAtoms=   10 NActive=   10 NUniq=   10 SFac= 1.00D+00 NAtFMM=   60 NAOKFM=F Big=F
 Integral buffers will be    131072 words long.
 Raffenetti 2 integral format.
 Two-electron integral symmetry is turned off.
 Nuclear repulsion after empirical dispersion term =      102.9966845302 Hartrees.
 One-electron integrals computed using PRISM.
 NBasis=   204 RedAO= T EigKep=  4.51D-05  NBF=   204
 NBsUse=   204 1.00D-06 EigRej= -1.00D+00 NBFU=   204
 Initial guess from the checkpoint file:  "/localscratch/339543/Gau-22539.chk"
 B after Tr=     0.003621   -0.002643   -0.000268
         Rot=    1.000000    0.000146    0.000041    0.000083 Ang=   0.02 deg.
 Initial guess <Sx>= 0.0000 <Sy>= 0.0000 <Sz>= 0.0000 <S**2>=-0.0000 S=-0.0000
 ExpMin= 1.03D-01 ExpMax= 8.24D+03 ExpMxC= 2.81D+02 IAcc=3 IRadAn=         5 AccDes= 0.00D+00
 Harris functional with IExCor=  419 and IRadAn=       5 diagonalized for initial guess.
 HarFok:  IExCor=  419 AccDes= 0.00D+00 IRadAn=         5 IDoV= 1 UseB2=F ITyADJ=14
 ICtDFT=  3500011 ScaDFX=  1.000000  1.000000  1.000000  1.000000
 FoFCou: FMM=F IPFlag=           0 FMFlag=      100000 FMFlg1=           0
         NFxFlg=           0 DoJE=T BraDBF=F KetDBF=T FulRan=T
         wScrn=  0.000000 ICntrl=       500 IOpCl=  0 I1Cent=   200000004 NGrid=           0
         NMat0=    1 NMatS0=      1 NMatT0=    0 NMatD0=    1 NMtDS0=    0 NMtDT0=    0
 Symmetry not used in FoFCou.
 Keep R1 and R2 ints in memory in canonical form, NReq=479623802.
 Requested convergence on RMS density matrix=1.00D-08 within 500 cycles.
 Requested convergence on MAX density matrix=1.00D-06.
 Requested convergence on             energy=1.00D-06.
 No special actions if energy rises.
 Integral accuracy reduced to 1.0D-05 until final iterations.
 Initial convergence to 1.0D-05 achieved.  Increase integral accuracy.
 SCF Done:  E(UB2PLYPD3) =  -155.665355287     A.U. after    9 cycles
            NFock=  9  Conv=0.56D-08     -V/T= 2.0049
 <Sx>= 0.0000 <Sy>= 0.0000 <Sz>= 0.0000 <S**2>=-0.0000 S=-0.0000
 <L.S>=  0.00000000000    
 Annihilation of the first spin contaminant:
 S**2 before annihilation    -0.0000,   after     0.0000
 DoSCS=T DFT=T ScalE2(SS,OS)=  0.270000  0.270000
 ExpMin= 1.03D-01 ExpMax= 8.24D+03 ExpMxC= 2.81D+02 IAcc=3 IRadAn=         5 AccDes= 0.00D+00
 HarFok:  IExCor=  205 AccDes= 0.00D+00 IRadAn=         5 IDoV=-2 UseB2=F ITyADJ=14
 ICtDFT= 12500011 ScaDFX=  1.000000  1.000000  1.000000  1.000000
 Range of M.O.s used for correlation:     5   204
 NBasis=   204 NAE=    15 NBE=    15 NFC=     4 NFV=     0
 NROrb=    200 NOA=    11 NOB=    11 NVA=   189 NVB=   189

 **** Warning!!: The largest alpha MO coefficient is  0.45287108D+02


 **** Warning!!: The largest beta MO coefficient is  0.45287108D+02

 DoSCS=T DFT=T ScalE2(SS,OS)=  0.270000  0.270000
 Fully direct method using O(ONN) memory.
 JobTyp=2 Pass  1:  I=   5 to  15 NPSUse= 40 ParTrn=T ParDer=T DoDerP=T.
 JobTyp=3 Pass  1:  I=   5 to  15 NPSUse= 40 ParTrn=T ParDer=T DoDerP=T.
 Spin components of T(2) and E(2):
     alpha-alpha T2 =       0.4380086591D-01 E2=     -0.2516900397D-01
     alpha-beta  T2 =       0.2637177320D+00 E2=     -0.1659756881D+00
     beta-beta   T2 =       0.4380086591D-01 E2=     -0.2516900397D-01
 (S**2,0)=  0.00000D+00           (S**2,1)=  0.00000D+00
 E(PUHF)=      -0.15566535529D+03        E(PMP2)=      -0.15588166898D+03
 E2(B2PLYPD3) =    -0.2163136961D+00 E(B2PLYPD3) =    -0.15588166898345D+03
          IDoAtm=1111111111
          Differentiating once with respect to electric field.
                with respect to dipole field.
          Differentiating once with respect to nuclear coordinates.
 Keep R1 and R2 ints in memory in canonical form, NReq=479631092.
          There are     1 degrees of freedom in the 1st order CPHF.  IDoFFX=0 NUNeed=     1.
 LinEq1:  Iter=  0 NonCon=     1 RMS=6.66D-04 Max=9.98D-03 NDo=     1
 AX will form     1 AO Fock derivatives at one time.
 LinEq1:  Iter=  1 NonCon=     1 RMS=2.56D-04 Max=2.82D-03 NDo=     1
 LinEq1:  Iter=  2 NonCon=     1 RMS=1.15D-04 Max=2.89D-03 NDo=     1
 LinEq1:  Iter=  3 NonCon=     1 RMS=6.60D-05 Max=9.84D-04 NDo=     1
 LinEq1:  Iter=  4 NonCon=     1 RMS=1.59D-05 Max=1.48D-04 NDo=     1
 LinEq1:  Iter=  5 NonCon=     1 RMS=5.70D-06 Max=6.35D-05 NDo=     1
 LinEq1:  Iter=  6 NonCon=     1 RMS=1.83D-06 Max=3.10D-05 NDo=     1
 LinEq1:  Iter=  7 NonCon=     1 RMS=5.47D-07 Max=1.08D-05 NDo=     1
 LinEq1:  Iter=  8 NonCon=     1 RMS=1.86D-07 Max=2.70D-06 NDo=     1
 LinEq1:  Iter=  9 NonCon=     1 RMS=5.79D-08 Max=7.45D-07 NDo=     1
 LinEq1:  Iter= 10 NonCon=     1 RMS=2.05D-08 Max=2.30D-07 NDo=     1
 LinEq1:  Iter= 11 NonCon=     1 RMS=4.54D-09 Max=5.07D-08 NDo=     1
 LinEq1:  Iter= 12 NonCon=     1 RMS=6.73D-10 Max=7.53D-09 NDo=     1
 LinEq1:  Iter= 13 NonCon=     1 RMS=1.43D-10 Max=1.44D-09 NDo=     1
 LinEq1:  Iter= 14 NonCon=     0 RMS=2.16D-11 Max=2.44D-10 NDo=     1
 Linear equations converged to 1.000D-10 1.000D-09 after    14 iterations.
 End of Minotr F.D. properties file   721 does not exist.
 End of Minotr F.D. properties file   722 does not exist.
 End of Minotr F.D. properties file   788 does not exist.
 Calling FoFJK, ICntrl=  10002127 FMM=F ISym2X=0 I1Cent= 0 IOpClX= 1 NMat=1 NMatS=1 NMatT=0.
 -------------------------------------------------------------------
 Center     Atomic                   Forces (Hartrees/Bohr)
 Number     Number              X              Y              Z
 -------------------------------------------------------------------
      1        6          -0.000540800    0.000109881   -0.000004998
      2        1           0.000224799   -0.000177020   -0.000022682
      3        6          -0.000055683    0.000547690    0.000065292
      4        6           0.000440112   -0.000526505   -0.000042949
      5        1          -0.000018578   -0.000030129    0.000080052
      6        1          -0.000053062   -0.000013776   -0.000068412
      7        6          -0.000000154    0.000000658   -0.000003640
      8        1           0.000034064    0.000101316   -0.000014425
      9        1          -0.000008877   -0.000015808   -0.000019729
     10        1          -0.000021821    0.000003692    0.000031490
 -------------------------------------------------------------------
 Cartesian Forces:  Max     0.000547690 RMS     0.000199685

 GradGradGradGradGradGradGradGradGradGradGradGradGradGradGradGradGradGrad
 Berny optimization.
 Using GEDIIS/GDIIS optimizer.
 FormGI is forming the generalized inverse of G from B-inverse, IUseBI=4.
 Internal  Forces:  Max     0.000570167 RMS     0.000193983
 Search for a local minimum.
 Step number   2 out of a maximum of  100 on scan point     1 out of    37
 All quantities printed in internal units (Hartrees-Bohrs-Radians)
 Mixed Optimization -- En-DIIS/RFO-DIIS
 Update second derivatives using D2CorX and points    1    2
 DE= -1.32D-04 DEPred=-1.38D-04 R= 9.59D-01
 TightC=F SS=  1.41D+00  RLast= 2.13D-02 DXNew= 5.0454D-01 6.3825D-02
 Trust test= 9.59D-01 RLast= 2.13D-02 DXMaxT set to 3.00D-01
 ITU=  1  0
 Use linear search instead of GDIIS.
     Eigenvalues ---    0.01283   0.01331   0.04768   0.04773   0.15862
     Eigenvalues ---    0.16000   0.16000   0.16000   0.16000   0.16000
     Eigenvalues ---    0.16000   0.16000   0.16126   0.23003   0.29446
     Eigenvalues ---    0.34676   0.34684   0.34943   0.34994   0.34998
     Eigenvalues ---    0.36702   0.38648   1.065141000.000001000.00000
     Eigenvalues --- 1000.00000
 RFO step:  Lambda=-2.69386281D-05 EMin= 1.28334638D-02
 Quartic linear search produced a step of -0.03334.
 Iteration  1 RMS(Cart)=  0.02359759 RMS(Int)=  0.00029065
 Iteration  2 RMS(Cart)=  0.00049413 RMS(Int)=  0.00000008
 Iteration  3 RMS(Cart)=  0.00000004 RMS(Int)=  0.00000008
 Iteration  1 RMS(Cart)=  0.00000000 RMS(Int)=  0.00000000
 Variable       Old X    -DE/DX   Delta X   Delta X   Delta X     New X
                                 (Linear)    (Quad)   (Total)
    R1        2.00187   0.00027   0.00017   0.00003   0.00020   2.00207
    R2        2.27793  -0.00027  -0.00050   0.00172   0.00122   2.27915
    R3        2.75998  -0.00051   0.00002  -0.00142  -0.00140   2.75858
    R4        2.06162   0.00005   0.00001   0.00008   0.00010   2.06172
    R5        2.06162   0.00005   0.00001   0.00010   0.00011   2.06174
    R6        2.89572  -0.00007  -0.00014   0.00030   0.00016   2.89588
    R7        2.05722   0.00001   0.00002  -0.00004  -0.00003   2.05719
    R8        2.05577   0.00002   0.00004  -0.00007  -0.00004   2.05573
    R9        2.05577   0.00002   0.00004  -0.00008  -0.00005   2.05572
    A1        1.90119  -0.00005  -0.00007   0.00008   0.00001   1.90121
    A2        1.90119  -0.00005  -0.00007   0.00005  -0.00002   1.90117
    A3        1.96355   0.00027  -0.00018   0.00183   0.00165   1.96520
    A4        1.85765   0.00007   0.00013   0.00001   0.00014   1.85779
    A5        1.91855  -0.00011   0.00010  -0.00094  -0.00083   1.91772
    A6        1.91855  -0.00014   0.00010  -0.00112  -0.00102   1.91753
    A7        1.92829  -0.00022  -0.00004  -0.00118  -0.00122   1.92708
    A8        1.93125   0.00006  -0.00007   0.00064   0.00056   1.93182
    A9        1.93125   0.00007  -0.00007   0.00069   0.00062   1.93187
   A10        1.89326  -0.00002   0.00008  -0.00040  -0.00033   1.89294
   A11        1.89326   0.00002   0.00008  -0.00019  -0.00011   1.89315
   A12        1.88527   0.00010   0.00003   0.00045   0.00048   1.88575
   A13        3.14839  -0.00018  -0.00003  -0.00358  -0.00361   3.14478
   A14        3.12702  -0.00057  -0.00029  -0.04199  -0.04228   3.08474
   A15        3.14609  -0.00002  -0.00001  -0.00034  -0.00035   3.14574
   A16        3.13157  -0.00011  -0.00010  -0.00759  -0.00769   3.12387
    D1        1.07408   0.00008   0.00000   0.00000   0.00000   1.07408
         Item               Value     Threshold  Converged?
 Maximum Force            0.000570     0.000450     NO 
 RMS     Force            0.000197     0.000300     YES
 Maximum Displacement     0.063970     0.001800     NO 
 RMS     Displacement     0.023719     0.001200     NO 
 Predicted change in Energy=-1.350067D-05
 GradGradGradGradGradGradGradGradGradGradGradGradGradGradGradGradGradGrad

                          Input orientation:                          
 ---------------------------------------------------------------------
 Center     Atomic      Atomic             Coordinates (Angstroms)
 Number     Number       Type             X           Y           Z
 ---------------------------------------------------------------------
      1          6           0        1.949255   -0.264798    0.000605
      2          1           0        2.932596   -0.659030   -0.006648
      3          6           0        0.831596    0.188419    0.007540
      4          6           0       -0.550567    0.658029    0.001292
      5          1           0       -0.712355    1.293737    0.873080
      6          1           0       -0.705789    1.289700   -0.874625
      7          6           0       -1.563258   -0.492107   -0.000022
      8          1           0       -2.579907   -0.102859   -0.001738
      9          1           0       -1.432653   -1.118088   -0.880079
     10          1           0       -1.435298   -1.117838    0.880596
 ---------------------------------------------------------------------
                    Distance matrix (angstroms):
                    1          2          3          4          5
     1  C    0.000000
     2  H    1.059449   0.000000
     3  C    1.206075   2.265519   0.000000
     4  C    2.664718   3.723860   1.459776   0.000000
     5  H    3.205372   4.227634   2.086785   1.091016   0.000000
     6  H    3.198711   4.217675   2.086765   1.091023   1.747722
     7  C    3.519861   4.498957   2.489678   1.532435   2.162309
     8  H    4.532057   5.540492   3.423928   2.167298   2.490690
     9  H    3.597362   4.475379   2.760734   2.170133   3.067458
    10  H    3.599620   4.480648   2.758140   2.170167   2.517617
                    6          7          8          9         10
     6  H    0.000000
     7  C    2.162179   0.000000
     8  H    2.492683   1.088620   0.000000
     9  H    2.515114   1.087847   1.765890   0.000000
    10  H    3.067445   1.087842   1.766020   1.760677   0.000000
 Symmetry turned off by external request.
 Stoichiometry    C4H6
 Framework group  C1[X(C4H6)]
 Deg. of freedom    24
 Full point group                 C1      NOp   1
 Rotational constants (GHZ):          26.8910183           4.5864099           4.1161142
 Standard basis: CC-pVTZ (5D, 7F)
   204 basis functions,   310 primitive gaussians,   230 cartesian basis functions
    15 alpha electrons       15 beta electrons
       nuclear repulsion energy       103.0445815913 Hartrees.
 NAtoms=   10 NActive=   10 NUniq=   10 SFac= 1.00D+00 NAtFMM=   60 NAOKFM=F Big=F
 Integral buffers will be    131072 words long.
 Raffenetti 2 integral format.
 Two-electron integral symmetry is turned off.
 Nuclear repulsion after empirical dispersion term =      103.0400212050 Hartrees.
 One-electron integrals computed using PRISM.
 NBasis=   204 RedAO= T EigKep=  4.71D-05  NBF=   204
 NBsUse=   204 1.00D-06 EigRej= -1.00D+00 NBFU=   204
 Initial guess from the checkpoint file:  "/localscratch/339543/Gau-22539.chk"
 B after Tr=     0.000705    0.010378    0.003234
         Rot=    1.000000   -0.000493    0.000210   -0.000672 Ang=  -0.10 deg.
 Initial guess <Sx>= 0.0000 <Sy>= 0.0000 <Sz>= 0.0000 <S**2>=-0.0000 S=-0.0000
 ExpMin= 1.03D-01 ExpMax= 8.24D+03 ExpMxC= 2.81D+02 IAcc=3 IRadAn=         5 AccDes= 0.00D+00
 Harris functional with IExCor=  419 and IRadAn=       5 diagonalized for initial guess.
 HarFok:  IExCor=  419 AccDes= 0.00D+00 IRadAn=         5 IDoV= 1 UseB2=F ITyADJ=14
 ICtDFT=  3500011 ScaDFX=  1.000000  1.000000  1.000000  1.000000
 FoFCou: FMM=F IPFlag=           0 FMFlag=      100000 FMFlg1=           0
         NFxFlg=           0 DoJE=T BraDBF=F KetDBF=T FulRan=T
         wScrn=  0.000000 ICntrl=       500 IOpCl=  0 I1Cent=   200000004 NGrid=           0
         NMat0=    1 NMatS0=      1 NMatT0=    0 NMatD0=    1 NMtDS0=    0 NMtDT0=    0
 Symmetry not used in FoFCou.
 Keep R1 and R2 ints in memory in canonical form, NReq=479623802.
 Requested convergence on RMS density matrix=1.00D-08 within 500 cycles.
 Requested convergence on MAX density matrix=1.00D-06.
 Requested convergence on             energy=1.00D-06.
 No special actions if energy rises.
 Integral accuracy reduced to 1.0D-05 until final iterations.
 Initial convergence to 1.0D-05 achieved.  Increase integral accuracy.
 SCF Done:  E(UB2PLYPD3) =  -155.665242341     A.U. after    9 cycles
            NFock=  9  Conv=0.82D-08     -V/T= 2.0049
 <Sx>= 0.0000 <Sy>= 0.0000 <Sz>= 0.0000 <S**2>=-0.0000 S=-0.0000
 <L.S>=  0.00000000000    
 Annihilation of the first spin contaminant:
 S**2 before annihilation    -0.0000,   after    -0.0000
 DoSCS=T DFT=T ScalE2(SS,OS)=  0.270000  0.270000
 ExpMin= 1.03D-01 ExpMax= 8.24D+03 ExpMxC= 2.81D+02 IAcc=3 IRadAn=         5 AccDes= 0.00D+00
 HarFok:  IExCor=  205 AccDes= 0.00D+00 IRadAn=         5 IDoV=-2 UseB2=F ITyADJ=14
 ICtDFT= 12500011 ScaDFX=  1.000000  1.000000  1.000000  1.000000
 Range of M.O.s used for correlation:     5   204
 NBasis=   204 NAE=    15 NBE=    15 NFC=     4 NFV=     0
 NROrb=    200 NOA=    11 NOB=    11 NVA=   189 NVB=   189

 **** Warning!!: The largest alpha MO coefficient is  0.45392562D+02


 **** Warning!!: The largest beta MO coefficient is  0.45392562D+02

 DoSCS=T DFT=T ScalE2(SS,OS)=  0.270000  0.270000
 Fully direct method using O(ONN) memory.
 JobTyp=2 Pass  1:  I=   5 to  15 NPSUse= 40 ParTrn=T ParDer=T DoDerP=T.
 JobTyp=3 Pass  1:  I=   5 to  15 NPSUse= 40 ParTrn=T ParDer=T DoDerP=T.
 Spin components of T(2) and E(2):
     alpha-alpha T2 =       0.4384490641D-01 E2=     -0.2517963687D-01
     alpha-beta  T2 =       0.2639325876D+00 E2=     -0.1660139991D+00
     beta-beta   T2 =       0.4384490641D-01 E2=     -0.2517963687D-01
 (S**2,0)=  0.00000D+00           (S**2,1)=  0.00000D+00
 E(PUHF)=      -0.15566524234D+03        E(PMP2)=      -0.15588161561D+03
 E2(B2PLYPD3) =    -0.2163732728D+00 E(B2PLYPD3) =    -0.15588161561334D+03
          IDoAtm=1111111111
          Differentiating once with respect to electric field.
                with respect to dipole field.
          Differentiating once with respect to nuclear coordinates.
 Keep R1 and R2 ints in memory in canonical form, NReq=479631092.
          There are     1 degrees of freedom in the 1st order CPHF.  IDoFFX=0 NUNeed=     1.
 LinEq1:  Iter=  0 NonCon=     1 RMS=6.66D-04 Max=9.99D-03 NDo=     1
 AX will form     1 AO Fock derivatives at one time.
 LinEq1:  Iter=  1 NonCon=     1 RMS=2.56D-04 Max=2.80D-03 NDo=     1
 LinEq1:  Iter=  2 NonCon=     1 RMS=1.15D-04 Max=2.90D-03 NDo=     1
 LinEq1:  Iter=  3 NonCon=     1 RMS=6.61D-05 Max=9.80D-04 NDo=     1
 LinEq1:  Iter=  4 NonCon=     1 RMS=1.61D-05 Max=1.61D-04 NDo=     1
 LinEq1:  Iter=  5 NonCon=     1 RMS=5.79D-06 Max=6.51D-05 NDo=     1
 LinEq1:  Iter=  6 NonCon=     1 RMS=1.95D-06 Max=3.59D-05 NDo=     1
 LinEq1:  Iter=  7 NonCon=     1 RMS=6.02D-07 Max=1.17D-05 NDo=     1
 LinEq1:  Iter=  8 NonCon=     1 RMS=1.98D-07 Max=2.51D-06 NDo=     1
 LinEq1:  Iter=  9 NonCon=     1 RMS=5.92D-08 Max=7.70D-07 NDo=     1
 LinEq1:  Iter= 10 NonCon=     1 RMS=2.08D-08 Max=2.31D-07 NDo=     1
 LinEq1:  Iter= 11 NonCon=     1 RMS=4.65D-09 Max=4.98D-08 NDo=     1
 LinEq1:  Iter= 12 NonCon=     1 RMS=6.91D-10 Max=7.64D-09 NDo=     1
 LinEq1:  Iter= 13 NonCon=     1 RMS=1.45D-10 Max=1.60D-09 NDo=     1
 LinEq1:  Iter= 14 NonCon=     0 RMS=2.18D-11 Max=2.83D-10 NDo=     1
 Linear equations converged to 1.000D-10 1.000D-09 after    14 iterations.
 End of Minotr F.D. properties file   721 does not exist.
 End of Minotr F.D. properties file   722 does not exist.
 End of Minotr F.D. properties file   788 does not exist.
 Calling FoFJK, ICntrl=  10002127 FMM=F ISym2X=0 I1Cent= 0 IOpClX= 1 NMat=1 NMatS=1 NMatT=0.
 -------------------------------------------------------------------
 Center     Atomic                   Forces (Hartrees/Bohr)
 Number     Number              X              Y              Z
 -------------------------------------------------------------------
      1        6          -0.001350998    0.000860095    0.000093506
      2        1           0.000381129    0.000399952    0.000153301
      3        6           0.000461895   -0.002594169   -0.000663074
      4        6           0.000440773    0.001124871    0.000383615
      5        1          -0.000247975    0.000114657   -0.000008178
      6        1          -0.000094380    0.000103483    0.000021658
      7        6           0.000260957   -0.000134751    0.000005424
      8        1           0.000026994    0.000150539    0.000000552
      9        1           0.000081128   -0.000019529   -0.000003752
     10        1           0.000040475   -0.000005148    0.000016949
 -------------------------------------------------------------------
 Cartesian Forces:  Max     0.002594169 RMS     0.000635225

 GradGradGradGradGradGradGradGradGradGradGradGradGradGradGradGradGradGrad
 Berny optimization.
 Using GEDIIS/GDIIS optimizer.
 FormGI is forming the generalized inverse of G from B-inverse, IUseBI=4.
 Internal  Forces:  Max     0.002960142 RMS     0.000703921
 Search for a local minimum.
 Step number   3 out of a maximum of  100 on scan point     1 out of    37
 All quantities printed in internal units (Hartrees-Bohrs-Radians)
 Mixed Optimization -- En-DIIS/RFO-DIIS
 Swapping is turned off.
 Update second derivatives using D2CorX and points    1    2    3
 DE=  5.34D-05 DEPred=-1.35D-05 R=-3.95D+00
 Trust test=-3.95D+00 RLast= 4.32D-02 DXMaxT set to 1.50D-01
 ITU= -1  1  0
     Eigenvalues ---    0.01280   0.04120   0.04768   0.08964   0.14266
     Eigenvalues ---    0.16000   0.16000   0.16000   0.16000   0.16000
     Eigenvalues ---    0.16000   0.16119   0.16196   0.22625   0.29133
     Eigenvalues ---    0.34511   0.34677   0.34709   0.34948   0.34994
     Eigenvalues ---    0.35428   0.38524   0.637541000.000001000.00000
     Eigenvalues --- 1000.00000
 En-DIIS/RFO-DIIS/Sim-DIIS IScMMF=       -3 using points:     3    2
 RFO step:  Lambda=-1.12792310D-04.
 DidBck=T Rises=T En-DIIS coefs:    0.33425    0.66575
 Iteration  1 RMS(Cart)=  0.02009323 RMS(Int)=  0.00020511
 Iteration  2 RMS(Cart)=  0.00033605 RMS(Int)=  0.00000005
 Iteration  3 RMS(Cart)=  0.00000001 RMS(Int)=  0.00000005
 Iteration  1 RMS(Cart)=  0.00000000 RMS(Int)=  0.00000000
 Variable       Old X    -DE/DX   Delta X   Delta X   Delta X     New X
                                 (Linear)    (Quad)   (Total)
    R1        2.00207   0.00020  -0.00013   0.00063   0.00050   2.00257
    R2        2.27915  -0.00137  -0.00081  -0.00070  -0.00151   2.27764
    R3        2.75858  -0.00005   0.00093  -0.00086   0.00008   2.75865
    R4        2.06172   0.00010  -0.00006   0.00014   0.00007   2.06180
    R5        2.06174   0.00006  -0.00007   0.00013   0.00006   2.06179
    R6        2.89588  -0.00026  -0.00011  -0.00037  -0.00048   2.89540
    R7        2.05719   0.00003   0.00002   0.00003   0.00005   2.05724
    R8        2.05573   0.00002   0.00002   0.00008   0.00010   2.05583
    R9        2.05572   0.00002   0.00003   0.00007   0.00010   2.05582
    A1        1.90121   0.00052  -0.00001   0.00028   0.00027   1.90148
    A2        1.90117   0.00018   0.00001  -0.00007  -0.00005   1.90112
    A3        1.96520  -0.00071  -0.00110   0.00014  -0.00096   1.96424
    A4        1.85779  -0.00004  -0.00009   0.00032   0.00023   1.85802
    A5        1.91772   0.00003   0.00056  -0.00029   0.00026   1.91798
    A6        1.91753   0.00007   0.00068  -0.00037   0.00031   1.91784
    A7        1.92708  -0.00021   0.00081  -0.00107  -0.00025   1.92682
    A8        1.93182  -0.00002  -0.00038   0.00016  -0.00022   1.93160
    A9        1.93187   0.00001  -0.00041   0.00022  -0.00019   1.93168
   A10        1.89294   0.00010   0.00022   0.00008   0.00029   1.89323
   A11        1.89315   0.00010   0.00008   0.00021   0.00029   1.89343
   A12        1.88575   0.00005  -0.00032   0.00043   0.00011   1.88586
   A13        3.14478   0.00106   0.00240   0.00100   0.00340   3.14818
   A14        3.08474   0.00296   0.02815   0.00732   0.03546   3.12020
   A15        3.14574   0.00008   0.00023   0.00001   0.00024   3.14598
   A16        3.12387   0.00029   0.00512  -0.00163   0.00349   3.12736
    D1        1.07408   0.00008   0.00000   0.00000  -0.00000   1.07408
         Item               Value     Threshold  Converged?
 Maximum Force            0.002960     0.000450     NO 
 RMS     Force            0.000718     0.000300     NO 
 Maximum Displacement     0.053509     0.001800     NO 
 RMS     Displacement     0.020037     0.001200     NO 
 Predicted change in Energy=-5.646863D-05
 GradGradGradGradGradGradGradGradGradGradGradGradGradGradGradGradGradGrad

                          Input orientation:                          
 ---------------------------------------------------------------------
 Center     Atomic      Atomic             Coordinates (Angstroms)
 Number     Number       Type             X           Y           Z
 ---------------------------------------------------------------------
      1          6           0        1.956038   -0.262107    0.000546
      2          1           0        2.949577   -0.630714    0.002150
      3          6           0        0.829029    0.165133   -0.000998
      4          6           0       -0.548064    0.649570   -0.000569
      5          1           0       -0.699729    1.285186    0.873153
      6          1           0       -0.700152    1.284416   -0.874776
      7          6           0       -1.571777   -0.490423    0.000054
      8          1           0       -2.584495   -0.090991    0.002890
      9          1           0       -1.450431   -1.116059   -0.881639
     10          1           0       -1.446375   -1.118845    0.879189
 ---------------------------------------------------------------------
                    Distance matrix (angstroms):
                    1          2          3          4          5
     1  C    0.000000
     2  H    1.059714   0.000000
     3  C    1.205274   2.264974   0.000000
     4  C    2.664898   3.724598   1.459817   0.000000
     5  H    3.195099   4.212690   2.087046   1.091055   0.000000
     6  H    3.195820   4.213934   2.086785   1.091053   1.747929
     7  C    3.535195   4.523531   2.488700   1.532179   2.162304
     8  H    4.543757   5.560329   3.423122   2.166909   2.490696
     9  H    3.620982   4.514057   2.759151   2.169792   3.067381
    10  H    3.616963   4.509087   2.756953   2.169845   2.517317
                    6          7          8          9         10
     6  H    0.000000
     7  C    2.162201   0.000000
     8  H    2.492547   1.088647   0.000000
     9  H    2.515004   1.087901   1.766142   0.000000
    10  H    3.067393   1.087896   1.766268   1.760834   0.000000
 Symmetry turned off by external request.
 Stoichiometry    C4H6
 Framework group  C1[X(C4H6)]
 Deg. of freedom    24
 Full point group                 C1      NOp   1
 Rotational constants (GHZ):          27.3865756           4.5558190           4.1027688
 Standard basis: CC-pVTZ (5D, 7F)
   204 basis functions,   310 primitive gaussians,   230 cartesian basis functions
    15 alpha electrons       15 beta electrons
       nuclear repulsion energy       103.0233948260 Hartrees.
 NAtoms=   10 NActive=   10 NUniq=   10 SFac= 1.00D+00 NAtFMM=   60 NAOKFM=F Big=F
 Integral buffers will be    131072 words long.
 Raffenetti 2 integral format.
 Two-electron integral symmetry is turned off.
 Nuclear repulsion after empirical dispersion term =      103.0188393199 Hartrees.
 One-electron integrals computed using PRISM.
 NBasis=   204 RedAO= T EigKep=  4.53D-05  NBF=   204
 NBsUse=   204 1.00D-06 EigRej= -1.00D+00 NBFU=   204
 Initial guess from the checkpoint file:  "/localscratch/339543/Gau-22539.chk"
 B after Tr=    -0.000577   -0.008619   -0.003260
         Rot=    1.000000    0.000479   -0.000234    0.000521 Ang=   0.09 deg.
 Initial guess <Sx>= 0.0000 <Sy>= 0.0000 <Sz>= 0.0000 <S**2>=-0.0000 S=-0.0000
 ExpMin= 1.03D-01 ExpMax= 8.24D+03 ExpMxC= 2.81D+02 IAcc=3 IRadAn=         5 AccDes= 0.00D+00
 Harris functional with IExCor=  419 and IRadAn=       5 diagonalized for initial guess.
 HarFok:  IExCor=  419 AccDes= 0.00D+00 IRadAn=         5 IDoV= 1 UseB2=F ITyADJ=14
 ICtDFT=  3500011 ScaDFX=  1.000000  1.000000  1.000000  1.000000
 FoFCou: FMM=F IPFlag=           0 FMFlag=      100000 FMFlg1=           0
         NFxFlg=           0 DoJE=T BraDBF=F KetDBF=T FulRan=T
         wScrn=  0.000000 ICntrl=       500 IOpCl=  0 I1Cent=   200000004 NGrid=           0
         NMat0=    1 NMatS0=      1 NMatT0=    0 NMatD0=    1 NMtDS0=    0 NMtDT0=    0
 Symmetry not used in FoFCou.
 Keep R1 and R2 ints in memory in canonical form, NReq=479623802.
 Requested convergence on RMS density matrix=1.00D-08 within 500 cycles.
 Requested convergence on MAX density matrix=1.00D-06.
 Requested convergence on             energy=1.00D-06.
 No special actions if energy rises.
 Integral accuracy reduced to 1.0D-05 until final iterations.
 Initial convergence to 1.0D-05 achieved.  Increase integral accuracy.
 SCF Done:  E(UB2PLYPD3) =  -155.665363584     A.U. after    9 cycles
            NFock=  9  Conv=0.74D-08     -V/T= 2.0049
 <Sx>= 0.0000 <Sy>= 0.0000 <Sz>= 0.0000 <S**2>=-0.0000 S=-0.0000
 <L.S>=  0.00000000000    
 Annihilation of the first spin contaminant:
 S**2 before annihilation    -0.0000,   after    -0.0000
 DoSCS=T DFT=T ScalE2(SS,OS)=  0.270000  0.270000
 ExpMin= 1.03D-01 ExpMax= 8.24D+03 ExpMxC= 2.81D+02 IAcc=3 IRadAn=         5 AccDes= 0.00D+00
 HarFok:  IExCor=  205 AccDes= 0.00D+00 IRadAn=         5 IDoV=-2 UseB2=F ITyADJ=14
 ICtDFT= 12500011 ScaDFX=  1.000000  1.000000  1.000000  1.000000
 Range of M.O.s used for correlation:     5   204
 NBasis=   204 NAE=    15 NBE=    15 NFC=     4 NFV=     0
 NROrb=    200 NOA=    11 NOB=    11 NVA=   189 NVB=   189

 **** Warning!!: The largest alpha MO coefficient is  0.45448876D+02


 **** Warning!!: The largest beta MO coefficient is  0.45448876D+02

 DoSCS=T DFT=T ScalE2(SS,OS)=  0.270000  0.270000
 Fully direct method using O(ONN) memory.
 JobTyp=2 Pass  1:  I=   5 to  15 NPSUse= 40 ParTrn=T ParDer=T DoDerP=T.
 JobTyp=3 Pass  1:  I=   5 to  15 NPSUse= 40 ParTrn=T ParDer=T DoDerP=T.
 Spin components of T(2) and E(2):
     alpha-alpha T2 =       0.4379596545D-01 E2=     -0.2516943470D-01
     alpha-beta  T2 =       0.2636772336D+00 E2=     -0.1659695072D+00
     beta-beta   T2 =       0.4379596545D-01 E2=     -0.2516943470D-01
 (S**2,0)=  0.00000D+00           (S**2,1)=  0.00000D+00
 E(PUHF)=      -0.15566536358D+03        E(PMP2)=      -0.15588167196D+03
 E2(B2PLYPD3) =    -0.2163083766D+00 E(B2PLYPD3) =    -0.15588167196107D+03
          IDoAtm=1111111111
          Differentiating once with respect to electric field.
                with respect to dipole field.
          Differentiating once with respect to nuclear coordinates.
 Keep R1 and R2 ints in memory in canonical form, NReq=479631092.
          There are     1 degrees of freedom in the 1st order CPHF.  IDoFFX=0 NUNeed=     1.
 LinEq1:  Iter=  0 NonCon=     1 RMS=6.66D-04 Max=9.97D-03 NDo=     1
 AX will form     1 AO Fock derivatives at one time.
 LinEq1:  Iter=  1 NonCon=     1 RMS=2.56D-04 Max=2.81D-03 NDo=     1
 LinEq1:  Iter=  2 NonCon=     1 RMS=1.15D-04 Max=2.89D-03 NDo=     1
 LinEq1:  Iter=  3 NonCon=     1 RMS=6.59D-05 Max=9.83D-04 NDo=     1
 LinEq1:  Iter=  4 NonCon=     1 RMS=1.59D-05 Max=1.50D-04 NDo=     1
 LinEq1:  Iter=  5 NonCon=     1 RMS=5.70D-06 Max=6.37D-05 NDo=     1
 LinEq1:  Iter=  6 NonCon=     1 RMS=1.84D-06 Max=3.14D-05 NDo=     1
 LinEq1:  Iter=  7 NonCon=     1 RMS=5.52D-07 Max=1.09D-05 NDo=     1
 LinEq1:  Iter=  8 NonCon=     1 RMS=1.87D-07 Max=2.68D-06 NDo=     1
 LinEq1:  Iter=  9 NonCon=     1 RMS=5.80D-08 Max=7.46D-07 NDo=     1
 LinEq1:  Iter= 10 NonCon=     1 RMS=2.05D-08 Max=2.30D-07 NDo=     1
 LinEq1:  Iter= 11 NonCon=     1 RMS=4.55D-09 Max=5.05D-08 NDo=     1
 LinEq1:  Iter= 12 NonCon=     1 RMS=6.76D-10 Max=7.53D-09 NDo=     1
 LinEq1:  Iter= 13 NonCon=     1 RMS=1.43D-10 Max=1.44D-09 NDo=     1
 LinEq1:  Iter= 14 NonCon=     0 RMS=2.16D-11 Max=2.50D-10 NDo=     1
 Linear equations converged to 1.000D-10 1.000D-09 after    14 iterations.
 End of Minotr F.D. properties file   721 does not exist.
 End of Minotr F.D. properties file   722 does not exist.
 End of Minotr F.D. properties file   788 does not exist.
 Calling FoFJK, ICntrl=  10002127 FMM=F ISym2X=0 I1Cent= 0 IOpClX= 1 NMat=1 NMatS=1 NMatT=0.
 -------------------------------------------------------------------
 Center     Atomic                   Forces (Hartrees/Bohr)
 Number     Number              X              Y              Z
 -------------------------------------------------------------------
      1        6           0.000086629   -0.000030170   -0.000011162
      2        1          -0.000017800    0.000017593   -0.000026195
      3        6          -0.000140375    0.000042659    0.000110019
      4        6           0.000226164   -0.000061088   -0.000084985
      5        1          -0.000016167    0.000000173    0.000002741
      6        1          -0.000073390    0.000031863    0.000010786
      7        6          -0.000068954   -0.000003174   -0.000015578
      8        1          -0.000006263    0.000015926   -0.000000147
      9        1           0.000014803   -0.000017607    0.000025432
     10        1          -0.000004647    0.000003823   -0.000010911
 -------------------------------------------------------------------
 Cartesian Forces:  Max     0.000226164 RMS     0.000062982

 GradGradGradGradGradGradGradGradGradGradGradGradGradGradGradGradGradGrad
 Berny optimization.
 Using GEDIIS/GDIIS optimizer.
 FormGI is forming the generalized inverse of G from B-inverse, IUseBI=4.
 Internal  Forces:  Max     0.000115091 RMS     0.000044130
 Search for a local minimum.
 Step number   4 out of a maximum of  100 on scan point     1 out of    37
 All quantities printed in internal units (Hartrees-Bohrs-Radians)
 Mixed Optimization -- En-DIIS/RFO-DIIS
 Swapping is turned off.
 Update second derivatives using D2CorX and points    1    2    3    4
 DE= -5.63D-05 DEPred=-5.65D-05 R= 9.98D-01
 TightC=F SS=  1.41D+00  RLast= 3.59D-02 DXNew= 2.5227D-01 1.0758D-01
 Trust test= 9.98D-01 RLast= 3.59D-02 DXMaxT set to 1.50D-01
 ITU=  1 -1  1  0
     Eigenvalues ---    0.01463   0.04122   0.04771   0.09163   0.15042
     Eigenvalues ---    0.15993   0.16000   0.16000   0.16000   0.16000
     Eigenvalues ---    0.16000   0.16283   0.16332   0.23467   0.29615
     Eigenvalues ---    0.34567   0.34685   0.34934   0.34992   0.34997
     Eigenvalues ---    0.35638   0.38637   1.061881000.000001000.00000
     Eigenvalues --- 1000.00000
 En-DIIS/RFO-DIIS/Sim-DIIS IScMMF=       -3 using points:     4    3    2
 RFO step:  Lambda=-1.11410737D-06.
 DidBck=T Rises=F RFO-DIIS coefs:    0.12300    0.14279    0.73421
 Iteration  1 RMS(Cart)=  0.00126355 RMS(Int)=  0.00000096
 Iteration  2 RMS(Cart)=  0.00000170 RMS(Int)=  0.00000007
 Iteration  3 RMS(Cart)=  0.00000000 RMS(Int)=  0.00000007
 Iteration  1 RMS(Cart)=  0.00000000 RMS(Int)=  0.00000000
 Variable       Old X    -DE/DX   Delta X   Delta X   Delta X     New X
                                 (Linear)    (Quad)   (Total)
    R1        2.00257  -0.00002  -0.00059   0.00059   0.00001   2.00258
    R2        2.27764   0.00007   0.00043  -0.00032   0.00011   2.27775
    R3        2.75865  -0.00008   0.00096  -0.00118  -0.00021   2.75844
    R4        2.06180   0.00000  -0.00014   0.00016   0.00002   2.06181
    R5        2.06179   0.00002  -0.00013   0.00017   0.00004   2.06183
    R6        2.89540   0.00004   0.00030  -0.00025   0.00005   2.89545
    R7        2.05724   0.00001  -0.00002   0.00004   0.00001   2.05726
    R8        2.05583  -0.00001  -0.00006   0.00005  -0.00001   2.05582
    R9        2.05582  -0.00001  -0.00005   0.00004  -0.00002   2.05581
    A1        1.90148  -0.00001  -0.00025   0.00028   0.00004   1.90152
    A2        1.90112   0.00006   0.00006   0.00011   0.00017   1.90129
    A3        1.96424   0.00008  -0.00037   0.00061   0.00024   1.96448
    A4        1.85802  -0.00003  -0.00031   0.00024  -0.00006   1.85796
    A5        1.91798  -0.00005   0.00038  -0.00057  -0.00018   1.91779
    A6        1.91784  -0.00005   0.00048  -0.00068  -0.00020   1.91764
    A7        1.92682  -0.00003   0.00112  -0.00132  -0.00020   1.92662
    A8        1.93160   0.00001  -0.00022   0.00030   0.00008   1.93168
    A9        1.93168   0.00001  -0.00029   0.00037   0.00008   1.93176
   A10        1.89323   0.00000  -0.00002   0.00000  -0.00002   1.89321
   A11        1.89343   0.00000  -0.00017   0.00017   0.00000   1.89344
   A12        1.88586   0.00000  -0.00045   0.00050   0.00005   1.88591
   A13        3.14818  -0.00000  -0.00033   0.00037   0.00004   3.14822
   A14        3.12020  -0.00001  -0.00006  -0.00009  -0.00015   3.12005
   A15        3.14598   0.00003   0.00004   0.00022   0.00026   3.14624
   A16        3.12736   0.00012   0.00259   0.00044   0.00303   3.13039
    D1        1.07408   0.00006   0.00000   0.00000   0.00000   1.07408
         Item               Value     Threshold  Converged?
 Maximum Force            0.000115     0.000450     YES
 RMS     Force            0.000043     0.000300     YES
 Maximum Displacement     0.003084     0.001800     NO 
 RMS     Displacement     0.001264     0.001200     NO 
 Predicted change in Energy=-3.484778D-07
 GradGradGradGradGradGradGradGradGradGradGradGradGradGradGradGradGradGrad

                          Input orientation:                          
 ---------------------------------------------------------------------
 Center     Atomic      Atomic             Coordinates (Angstroms)
 Number     Number       Type             X           Y           Z
 ---------------------------------------------------------------------
      1          6           0        1.956393   -0.261947    0.000518
      2          1           0        2.950218   -0.629799    0.000541
      3          6           0        0.829046    0.164567    0.000634
      4          6           0       -0.547862    0.649192   -0.000227
      5          1           0       -0.700170    1.285152    0.873146
      6          1           0       -0.699320    1.283763   -0.874765
      7          6           0       -1.572050   -0.490413    0.000040
      8          1           0       -2.584536   -0.090373    0.002042
      9          1           0       -1.450470   -1.116364   -0.881390
     10          1           0       -1.447629   -1.118612    0.879462
 ---------------------------------------------------------------------
                    Distance matrix (angstroms):
                    1          2          3          4          5
     1  C    0.000000
     2  H    1.059718   0.000000
     3  C    1.205333   2.265036   0.000000
     4  C    2.664858   3.724565   1.459704   0.000000
     5  H    3.195673   4.213528   2.086981   1.091065   0.000000
     6  H    3.195020   4.212720   2.086822   1.091071   1.747912
     7  C    3.535832   4.524416   2.488827   1.532208   2.162203
     8  H    4.544170   5.560979   3.423089   2.166796   2.490327
     9  H    3.621396   4.514488   2.759518   2.169871   3.067349
    10  H    3.618534   4.511375   2.757197   2.169923   2.517304
                    6          7          8          9         10
     6  H    0.000000
     7  C    2.162092   0.000000
     8  H    2.492204   1.088653   0.000000
     9  H    2.514932   1.087895   1.766131   0.000000
    10  H    3.067359   1.087887   1.766268   1.760856   0.000000
 Symmetry turned off by external request.
 Stoichiometry    C4H6
 Framework group  C1[X(C4H6)]
 Deg. of freedom    24
 Full point group                 C1      NOp   1
 Rotational constants (GHZ):          27.4045214           4.5545277           4.1021238
 Standard basis: CC-pVTZ (5D, 7F)
   204 basis functions,   310 primitive gaussians,   230 cartesian basis functions
    15 alpha electrons       15 beta electrons
       nuclear repulsion energy       103.0213243181 Hartrees.
 NAtoms=   10 NActive=   10 NUniq=   10 SFac= 1.00D+00 NAtFMM=   60 NAOKFM=F Big=F
 Integral buffers will be    131072 words long.
 Raffenetti 2 integral format.
 Two-electron integral symmetry is turned off.
 Nuclear repulsion after empirical dispersion term =      103.0167690821 Hartrees.
 One-electron integrals computed using PRISM.
 NBasis=   204 RedAO= T EigKep=  4.53D-05  NBF=   204
 NBsUse=   204 1.00D-06 EigRej= -1.00D+00 NBFU=   204
 Initial guess from the checkpoint file:  "/localscratch/339543/Gau-22539.chk"
 B after Tr=     0.000095   -0.000244    0.000608
         Rot=    1.000000   -0.000091    0.000042    0.000005 Ang=  -0.01 deg.
 Initial guess <Sx>= 0.0000 <Sy>= 0.0000 <Sz>= 0.0000 <S**2>= 0.0000 S= 0.0000
 Keep R1 and R2 ints in memory in canonical form, NReq=479623802.
 Requested convergence on RMS density matrix=1.00D-08 within 500 cycles.
 Requested convergence on MAX density matrix=1.00D-06.
[...]
 Alpha virt. eigenvalues --    0.97219   0.99115   1.01875   1.05239   1.07780
 Alpha virt. eigenvalues --    1.10975   1.14837   1.16903   1.18160   1.19187
 Alpha virt. eigenvalues --    1.21168   1.24106   1.26726   1.28160   1.29981
 Alpha virt. eigenvalues --    1.34761   1.35512   1.36321   1.41645   1.42262
 Alpha virt. eigenvalues --    1.45679   1.48233   1.50321   1.55214   1.60665
 Alpha virt. eigenvalues --    1.61549   1.63963   1.65470   1.74259   1.75359
 Alpha virt. eigenvalues --    2.13884   2.18945   2.19842   2.33871   2.38991
 Alpha virt. eigenvalues --    2.39350   2.41746   2.44457   2.54264   2.55129
 Alpha virt. eigenvalues --    2.57558   2.59247   2.60064   2.64149   2.65944
 Alpha virt. eigenvalues --    2.67107   2.68676   2.73256   2.76461   2.77150
 Alpha virt. eigenvalues --    2.81830   2.87734   2.88514   2.90563   2.91567
 Alpha virt. eigenvalues --    2.93986   2.95154   3.01445   3.02875   3.03629
 Alpha virt. eigenvalues --    3.05969   3.06238   3.08036   3.08756   3.10736
 Alpha virt. eigenvalues --    3.13124   3.14659   3.15359   3.18024   3.20222
 Alpha virt. eigenvalues --    3.21470   3.25422   3.25622   3.26613   3.28867
 Alpha virt. eigenvalues --    3.34285   3.35990   3.41417   3.42311   3.46473
 Alpha virt. eigenvalues --    3.48433   3.51425   3.57098   3.58524   3.61702
 Alpha virt. eigenvalues --    3.66284   3.68119   3.72910   3.78479   3.79041
 Alpha virt. eigenvalues --    3.81238   3.87628   3.90420   3.93236   3.93651
 Alpha virt. eigenvalues --    3.98029   3.98814   4.01658   4.02877   4.07945
 Alpha virt. eigenvalues --    4.13422   4.13924   4.17201   4.19302   4.19940
 Alpha virt. eigenvalues --    4.24599   4.24882   4.27194   4.31256   4.32610
 Alpha virt. eigenvalues --    4.42410   4.42549   4.44612   4.45436   4.54150
 Alpha virt. eigenvalues --    4.60742   4.60935   4.65816   4.76676   4.93864
 Alpha virt. eigenvalues --    4.98943   4.99929   5.02383   5.05775   5.08293
 Alpha virt. eigenvalues --    5.12903   5.21487   5.31522   5.34695   5.42698
 Alpha virt. eigenvalues --    5.48104   5.48342   5.50701   5.50842   5.56905
 Alpha virt. eigenvalues --    5.59694   5.62741   5.78977   5.98321   6.01985
 Alpha virt. eigenvalues --    6.02552   6.04469   6.13613   6.13880   6.33061
 Alpha virt. eigenvalues --    8.36022  13.28936  13.63788  16.94946
  Beta  occ. eigenvalues --  -10.64015 -10.61667 -10.61230 -10.60291  -0.91923
  Beta  occ. eigenvalues --   -0.83853  -0.74218  -0.60799  -0.54405  -0.53390
  Beta  occ. eigenvalues --   -0.46664  -0.43945  -0.43066  -0.31813  -0.31735
  Beta virt. eigenvalues --    0.07366   0.10235   0.10875   0.11653   0.12417
  Beta virt. eigenvalues --    0.14090   0.15625   0.18368   0.22627   0.25050
  Beta virt. eigenvalues --    0.28173   0.30950   0.31487   0.34627   0.35259
  Beta virt. eigenvalues --    0.36065   0.42832   0.45245   0.46539   0.49273
  Beta virt. eigenvalues --    0.49363   0.49745   0.52961   0.53383   0.55109
  Beta virt. eigenvalues --    0.55618   0.56384   0.61838   0.64406   0.64552
  Beta virt. eigenvalues --    0.67798   0.71520   0.73871   0.77838   0.84065
  Beta virt. eigenvalues --    0.85171   0.89200   0.91151   0.92986   0.96531
  Beta virt. eigenvalues --    0.97219   0.99115   1.01875   1.05239   1.07780
  Beta virt. eigenvalues --    1.10975   1.14837   1.16903   1.18160   1.19187
  Beta virt. eigenvalues --    1.21168   1.24106   1.26726   1.28160   1.29981
  Beta virt. eigenvalues --    1.34761   1.35512   1.36321   1.41645   1.42262
  Beta virt. eigenvalues --    1.45679   1.48233   1.50321   1.55214   1.60665
  Beta virt. eigenvalues --    1.61549   1.63963   1.65470   1.74259   1.75359
  Beta virt. eigenvalues --    2.13884   2.18945   2.19842   2.33871   2.38991
  Beta virt. eigenvalues --    2.39350   2.41746   2.44457   2.54264   2.55129
  Beta virt. eigenvalues --    2.57558   2.59247   2.60064   2.64149   2.65944
  Beta virt. eigenvalues --    2.67107   2.68676   2.73256   2.76461   2.77150
  Beta virt. eigenvalues --    2.81830   2.87734   2.88514   2.90563   2.91567
  Beta virt. eigenvalues --    2.93986   2.95154   3.01445   3.02875   3.03629
  Beta virt. eigenvalues --    3.05969   3.06238   3.08036   3.08756   3.10736
  Beta virt. eigenvalues --    3.13124   3.14659   3.15359   3.18024   3.20222
  Beta virt. eigenvalues --    3.21470   3.25422   3.25622   3.26613   3.28867
  Beta virt. eigenvalues --    3.34285   3.35990   3.41417   3.42311   3.46473
  Beta virt. eigenvalues --    3.48433   3.51425   3.57098   3.58524   3.61702
  Beta virt. eigenvalues --    3.66284   3.68119   3.72910   3.78479   3.79041
  Beta virt. eigenvalues --    3.81238   3.87628   3.90420   3.93236   3.93651
  Beta virt. eigenvalues --    3.98029   3.98814   4.01658   4.02877   4.07945
  Beta virt. eigenvalues --    4.13422   4.13924   4.17201   4.19302   4.19940
  Beta virt. eigenvalues --    4.24599   4.24882   4.27194   4.31256   4.32610
  Beta virt. eigenvalues --    4.42410   4.42549   4.44612   4.45436   4.54150
  Beta virt. eigenvalues --    4.60742   4.60935   4.65816   4.76676   4.93864
  Beta virt. eigenvalues --    4.98943   4.99929   5.02383   5.05775   5.08293
  Beta virt. eigenvalues --    5.12903   5.21487   5.31522   5.34695   5.42698
  Beta virt. eigenvalues --    5.48104   5.48342   5.50701   5.50842   5.56905
  Beta virt. eigenvalues --    5.59694   5.62741   5.78977   5.98321   6.01985
  Beta virt. eigenvalues --    6.02552   6.04469   6.13613   6.13880   6.33061
  Beta virt. eigenvalues --    8.36022  13.28936  13.63788  16.94946
          Condensed to atoms (all electrons):
               1          2          3          4          5          6
     1  C    5.014524   0.409156   0.862125  -0.069535  -0.002612  -0.002650
     2  H    0.409156   0.482840  -0.059846   0.001099  -0.000063  -0.000064
     3  C    0.862125  -0.059846   5.001286   0.375221  -0.044831  -0.044942
     4  C   -0.069535   0.001099   0.375221   4.779062   0.420178   0.420304
     5  H   -0.002612  -0.000063  -0.044831   0.420178   0.585369  -0.035968
     6  H   -0.002650  -0.000064  -0.044942   0.420304  -0.035968   0.585427
     7  C   -0.001855  -0.000079  -0.057325   0.342270  -0.032901  -0.032915
     8  H    0.000082   0.000004   0.009693  -0.037552  -0.004039  -0.003991
     9  H    0.002384   0.000013  -0.001576  -0.032728   0.007318  -0.006078
    10  H    0.002397   0.000013  -0.001598  -0.032720  -0.006008   0.007323
               7          8          9         10
     1  C   -0.001855   0.000082   0.002384   0.002397
     2  H   -0.000079   0.000004   0.000013   0.000013
     3  C   -0.057325   0.009693  -0.001576  -0.001598
     4  C    0.342270  -0.037552  -0.032728  -0.032720
     5  H   -0.032901  -0.004039   0.007318  -0.006008
     6  H   -0.032915  -0.003991  -0.006078   0.007323
     7  C    4.847681   0.406049   0.405871   0.405839
     8  H    0.406049   0.591500  -0.029649  -0.029635
     9  H    0.405871  -0.029649   0.579569  -0.029547
    10  H    0.405839  -0.029635  -0.029547   0.579475
          Atomic-Atomic Spin Densities.
               1          2          3          4          5          6
     1  C   -0.000000  -0.000000   0.000000   0.000000  -0.000000  -0.000000
     2  H   -0.000000  -0.000000   0.000000   0.000000  -0.000000  -0.000000
     3  C    0.000000   0.000000  -0.000000  -0.000000  -0.000000  -0.000000
     4  C    0.000000   0.000000  -0.000000   0.000000   0.000000   0.000000
     5  H   -0.000000  -0.000000  -0.000000   0.000000   0.000000  -0.000000
     6  H   -0.000000  -0.000000  -0.000000   0.000000  -0.000000   0.000000
     7  C   -0.000000  -0.000000  -0.000000   0.000000  -0.000000  -0.000000
     8  H    0.000000   0.000000   0.000000  -0.000000  -0.000000  -0.000000
     9  H   -0.000000  -0.000000  -0.000000   0.000000   0.000000  -0.000000
    10  H   -0.000000  -0.000000  -0.000000   0.000000   0.000000   0.000000
               7          8          9         10
     1  C   -0.000000   0.000000  -0.000000  -0.000000
     2  H   -0.000000   0.000000  -0.000000  -0.000000
     3  C   -0.000000   0.000000  -0.000000  -0.000000
     4  C    0.000000  -0.000000   0.000000   0.000000
     5  H   -0.000000  -0.000000   0.000000   0.000000
     6  H   -0.000000  -0.000000  -0.000000   0.000000
     7  C    0.000000  -0.000000   0.000000  -0.000000
     8  H   -0.000000  -0.000000  -0.000000   0.000000
     9  H    0.000000  -0.000000   0.000000  -0.000000
    10  H   -0.000000   0.000000  -0.000000   0.000000
 Mulliken charges and spin densities:
               1          2
     1  C   -0.214017   0.000000
     2  H    0.166927  -0.000000
     3  C   -0.038208  -0.000000
     4  C   -0.165597   0.000000
     5  H    0.113558  -0.000000
     6  H    0.113553   0.000000
     7  C   -0.282635   0.000000
     8  H    0.097537  -0.000000
     9  H    0.104423  -0.000000
    10  H    0.104459  -0.000000
 Sum of Mulliken charges =  -0.00000   0.00000
 Mulliken charges and spin densities with hydrogens summed into heavy atoms:
               1          2
     1  C   -0.047090   0.000000
     3  C   -0.038208  -0.000000
     4  C    0.061514   0.000000
     7  C    0.023784  -0.000000
 Electronic spatial extent (au):  <R**2>=            335.3540
 Charge=             -0.0000 electrons
 Dipole moment (field-independent basis, Debye):
    X=             -0.6657    Y=             -0.1600    Z=              0.4272  Tot=              0.8070
 Quadrupole moment (field-independent basis, Debye-Ang):
   XX=            -23.9062   YY=            -26.2281   ZZ=            -24.1486
   XY=              0.2915   XZ=             -2.5343   YZ=             -0.4801
 Traceless Quadrupole moment (field-independent basis, Debye-Ang):
   XX=              0.8548   YY=             -1.4672   ZZ=              0.6124
   XY=              0.2915   XZ=             -2.5343   YZ=             -0.4801
 Octapole moment (field-independent basis, Debye-Ang**2):
  XXX=              5.4343  YYY=             -7.1510  ZZZ=              6.7725  XYY=             -1.8363
  XXY=              0.7434  XXZ=             -5.3051  XZZ=              4.0616  YZZ=             -0.8387
  YYZ=              3.3845  XYZ=             -2.2939
 Hexadecapole moment (field-independent basis, Debye-Ang**3):
 XXXX=           -277.7981 YYYY=            -69.6575 ZZZZ=           -106.0859 XXXY=            -31.5656
 XXXZ=             16.2446 YYYX=            -41.2394 YYYZ=             11.6616 ZZZX=             32.4966
 ZZZY=              6.2661 XXYY=            -62.6130 XXZZ=            -51.5527 YYZZ=            -28.6931
 XXYZ=             -4.5700 YYXZ=             13.6308 ZZXY=             -9.3405
 N-N= 1.030155984687D+02 E-N=-5.667777120985D+02  KE= 1.549110392853D+02
                          Isotropic Fermi Contact Couplings
        Atom                 a.u.       MegaHertz       Gauss      10(-4) cm-1
     1  C(13)             -0.00000      -0.00000      -0.00000      -0.00000
     2  H(1)              -0.00000      -0.00000      -0.00000      -0.00000
     3  C(13)             -0.00000      -0.00000      -0.00000      -0.00000
     4  C(13)              0.00000       0.00000       0.00000       0.00000
     5  H(1)               0.00000       0.00000       0.00000       0.00000
     6  H(1)              -0.00000      -0.00000      -0.00000      -0.00000
     7  C(13)              0.00000       0.00000       0.00000       0.00000
     8  H(1)               0.00000       0.00000       0.00000       0.00000
     9  H(1)               0.00000       0.00000       0.00000       0.00000
    10  H(1)               0.00000       0.00000       0.00000       0.00000
 --------------------------------------------------------
       Center         ----  Spin Dipole Couplings  ----
                      3XX-RR        3YY-RR        3ZZ-RR
 --------------------------------------------------------
     1   Atom        0.000000      0.000000     -0.000000
     2   Atom       -0.000000      0.000000     -0.000000
     3   Atom        0.000000     -0.000000     -0.000000
     4   Atom        0.000000     -0.000000     -0.000000
     5   Atom        0.000000     -0.000000      0.000000
     6   Atom       -0.000000      0.000000     -0.000000
     7   Atom       -0.000000     -0.000000      0.000000
     8   Atom        0.000000     -0.000000     -0.000000
     9   Atom       -0.000000     -0.000000      0.000000
    10   Atom       -0.000000      0.000000     -0.000000
 --------------------------------------------------------
                        XY            XZ            YZ
 --------------------------------------------------------
     1   Atom       -0.000000      0.000000      0.000000
     2   Atom        0.000000      0.000000     -0.000000
     3   Atom       -0.000000      0.000000      0.000000
     4   Atom        0.000000      0.000000      0.000000
     5   Atom       -0.000000      0.000000     -0.000000
     6   Atom        0.000000      0.000000      0.000000
     7   Atom        0.000000      0.000000      0.000000
     8   Atom        0.000000     -0.000000     -0.000000
     9   Atom       -0.000000      0.000000     -0.000000
    10   Atom        0.000000      0.000000      0.000000
 --------------------------------------------------------


 ---------------------------------------------------------------------------------
              Anisotropic Spin Dipole Couplings in Principal Axis System
 ---------------------------------------------------------------------------------

       Atom             a.u.   MegaHertz   Gauss  10(-4) cm-1        Axes

              Baa    -0.0000    -0.000    -0.000    -0.000 -0.2240 -0.3897  0.8933
     1 C(13)  Bbb     0.0000     0.000     0.000     0.000  0.2434  0.8651  0.4385
              Bcc     0.0000     0.000     0.000     0.000  0.9437 -0.3157  0.0989
 
              Baa    -0.0000    -0.000    -0.000    -0.000  0.8247 -0.0671 -0.5616
     2 H(1)   Bbb     0.0000     0.000     0.000     0.000  0.5593 -0.0514  0.8274
              Bcc     0.0000     0.000     0.000     0.000  0.0844  0.9964  0.0049
 
              Baa    -0.0000    -0.000    -0.000    -0.000 -0.0713 -0.3063  0.9493
     3 C(13)  Bbb     0.0000     0.000     0.000     0.000  0.0563  0.9489  0.3104
              Bcc     0.0000     0.000     0.000     0.000  0.9959 -0.0756  0.0504
 
              Baa    -0.0000    -0.000    -0.000    -0.000  0.0273 -0.6478  0.7613
     4 C(13)  Bbb    -0.0000    -0.000    -0.000    -0.000 -0.2883  0.7242  0.6265
              Bcc     0.0000     0.000     0.000     0.000  0.9572  0.2366  0.1669
 
              Baa    -0.0000    -0.000    -0.000    -0.000  0.0254  0.9264  0.3757
     5 H(1)   Bbb    -0.0000    -0.000    -0.000    -0.000  0.8397  0.1842 -0.5109
              Bcc     0.0000     0.000     0.000     0.000  0.5425 -0.3285  0.7732
 
              Baa    -0.0000    -0.000    -0.000    -0.000  0.2362 -0.4058  0.8829
     6 H(1)   Bbb    -0.0000    -0.000    -0.000    -0.000  0.9268 -0.1788 -0.3302
              Bcc     0.0000     0.000     0.000     0.000  0.2919  0.8963  0.3339
 
              Baa    -0.0000    -0.000    -0.000    -0.000  0.6981  0.3562 -0.6211
     7 C(13)  Bbb    -0.0000    -0.000    -0.000    -0.000 -0.4423  0.8967  0.0172
              Bcc     0.0000     0.000     0.000     0.000  0.5631  0.2627  0.7835
 
              Baa    -0.0000    -0.000    -0.000    -0.000 -0.3057  0.9225 -0.2356
     8 H(1)   Bbb    -0.0000    -0.000    -0.000    -0.000  0.2233  0.3100  0.9241
              Bcc     0.0000     0.000     0.000     0.000  0.9256  0.2299 -0.3008
 
              Baa    -0.0000    -0.000    -0.000    -0.000  0.7650 -0.1505 -0.6262
     9 H(1)   Bbb    -0.0000    -0.000    -0.000    -0.000  0.3774  0.8926  0.2465
              Bcc     0.0000     0.000     0.000     0.000  0.5219 -0.4249  0.7397
 
              Baa    -0.0000    -0.000    -0.000    -0.000 -0.3582 -0.4837  0.7986
    10 H(1)   Bbb    -0.0000    -0.000    -0.000    -0.000  0.9294 -0.2662  0.2557
              Bcc     0.0000     0.000     0.000     0.000  0.0889  0.8338  0.5449
 

 ---------------------------------------------------------------------------------

 1\1\GINC-N69\Scan\UB2PLYPD3-FC\CC-pVTZ\C4H6\ROOT\31-May-2019\0\\# opt=
 (maxcyc=500,modredundant) uB2PLYPD3/cc-pvtz scf=maxcyc=500 nosymm\\Tit
 le Card Required\\0,1\C,1.6766412226,0.5061179907,-0.9810890078\H,2.47
 79699047,0.6661296611,-1.6557730062\C,0.7701058163,0.3271692566,-0.207
 1683719\C,-0.3466367514,0.0974119741,0.7042739676\H,-0.0221194183,-0.5
 748725821,1.5000096495\H,-0.6111237181,1.0403858206,1.1852410449\C,-1.
 5732142609,-0.487363403,-0.0036658839\H,-2.3815324025,-0.6466274216,0.
 7080061645\H,-1.9260264973,0.1871186482,-0.7809051789\H,-1.3304428951,
 -1.4403039445,-0.4689283779\\Version=ES64L-G16RevB.01\HF=-155.6653605,
 -155.6650589,-155.6641978,-155.6629671,-155.6616626,-155.660652,-155.6
 602601,-155.6606302,-155.6616349,-155.6629464,-155.6641848,-155.665046
 4,-155.6653607,-155.6650533,-155.6641937,-155.6629663,-155.6616653,-15
 5.6606554,-155.6602621,-155.6606221,-155.6616218,-155.6629294,-155.664
 1737,-155.6650456,-155.6653599,-155.6650536,-155.6641902,-155.6629584,
 -155.6616574,-155.6606474,-155.6602606,-155.6606351,-155.6616379,-155.
 6629404,-155.6641775,-155.665047,-155.6653611\MP2=-155.8816721,-155.88
 13826,-155.8805482,-155.8793465,-155.8780654,-155.8770652,-155.8766741
 ,-155.8770368,-155.8780261,-155.8793141,-155.8805286,-155.8813731,-155
 .8816718,-155.8813697,-155.8805303,-155.8793311,-155.8780571,-155.8770
 63,-155.8766743,-155.8770342,-155.8780174,-155.8792998,-155.8805143,-1
 55.8813647,-155.8816705,-155.8813754,-155.8805383,-155.8793391,-155.87
 80633,-155.8770651,-155.8766742,-155.8770362,-155.8780189,-155.8792954
 ,-155.8805059,-155.8813587,-155.8816716\PUHF=-155.6653605,-155.6650589
 ,-155.6641978,-155.6629671,-155.6616626,-155.660652,-155.6602601,-155.
 6606302,-155.6616349,-155.6629464,-155.6641848,-155.6650464,-155.66536
 07,-155.6650533,-155.6641937,-155.6629663,-155.6616653,-155.6606554,-1
 55.6602621,-155.6606221,-155.6616218,-155.6629294,-155.6641737,-155.66
 50456,-155.6653599,-155.6650536,-155.6641902,-155.6629584,-155.6616574
 ,-155.6606474,-155.6602606,-155.6606351,-155.6616379,-155.6629404,-155
 .6641775,-155.665047,-155.6653611\PMP2-0=-155.8816721,-155.8813826,-15
 5.8805482,-155.8793465,-155.8780654,-155.8770652,-155.8766741,-155.877
 0368,-155.8780261,-155.8793141,-155.8805286,-155.8813731,-155.8816718,
 -155.8813697,-155.8805303,-155.8793311,-155.8780571,-155.877063,-155.8
 766743,-155.8770342,-155.8780174,-155.8792998,-155.8805143,-155.881364
 7,-155.8816705,-155.8813754,-155.8805383,-155.8793391,-155.8780633,-15
 5.8770651,-155.8766742,-155.8770362,-155.8780189,-155.8792954,-155.880
 5059,-155.8813587,-155.8816716\S2=0.,0.,0.,0.,0.,0.,0.,0.,0.,0.,0.,0.,
 0.,0.,0.,0.,0.,0.,0.,0.,0.,0.,0.,0.,0.,0.,0.,0.,0.,0.,0.,0.,0.,0.,0.,0
 .,0.\S2-1=0.,0.,0.,0.,0.,0.,0.,0.,0.,0.,0.,0.,0.,0.,0.,0.,0.,0.,0.,0.,
 0.,0.,0.,0.,0.,0.,0.,0.,0.,0.,0.,0.,0.,0.,0.,0.,0.\S2A=0.,0.,0.,0.,0.,
 0.,0.,0.,0.,0.,0.,0.,0.,0.,0.,0.,0.,0.,0.,0.,0.,0.,0.,0.,0.,0.,0.,0.,0
 .,0.,0.,0.,0.,0.,0.,0.,0.\RMSD=9.443e-09,4.298e-09,6.582e-09,5.540e-09
 ,7.475e-09,8.086e-09,8.817e-09,9.273e-09,7.508e-09,5.221e-09,8.771e-09
 ,9.454e-09,7.312e-09,8.400e-09,4.074e-09,5.273e-09,7.587e-09,7.163e-09
 ,7.915e-09,2.567e-09,5.735e-09,8.125e-09,6.016e-09,3.584e-09,3.090e-09
 ,3.033e-09,4.429e-09,4.680e-09,4.135e-09,6.092e-09,5.003e-09,6.641e-09
 ,6.379e-09,7.960e-09,8.393e-09,6.310e-09,3.939e-09\PG=C01 [X(C4H6)]\\@


 IF YOU GET CONFUSED, LOGIC OUT YOUR DILEMMA

           --  PICKER X-RAY CORP.    DIGITAL PRINTER MANUAL CA. 1964
 Job cpu time:       1 days 16 hours  2 minutes 13.0 seconds.
 Elapsed time:       0 days  1 hours 25 minutes 32.1 seconds.
 File lengths (MBytes):  RWF=     41 Int=      0 D2E=      0 Chk=     10 Scr=      1
 Normal termination of Gaussian 16 at Fri May 31 17:59:19 2019.
