 Entering Gaussian System, Link 0=g16
 Initial command:
 /ichec/packages/gaussian/16b01/l1.exe "/localscratch/339542/Gau-19760.inp" -scrdir="/localscratch/339542/"
 Entering Link 1 = /ichec/packages/gaussian/16b01/l1.exe PID=     19780.
  
 Copyright (c) 1988-2017, Gaussian, Inc.  All Rights Reserved.
  
 This is part of the Gaussian(R) 16 program.  It is based on
 the Gaussian(R) 09 system (copyright 2009, Gaussian, Inc.),
 the Gaussian(R) 03 system (copyright 2003, Gaussian, Inc.),
 the Gaussian(R) 98 system (copyright 1998, Gaussian, Inc.),
 the Gaussian(R) 94 system (copyright 1995, Gaussian, Inc.),
 the Gaussian 92(TM) system (copyright 1992, Gaussian, Inc.),
 the Gaussian 90(TM) system (copyright 1990, Gaussian, Inc.),
 the Gaussian 88(TM) system (copyright 1988, Gaussian, Inc.),
 the Gaussian 86(TM) system (copyright 1986, Carnegie Mellon
 University), and the Gaussian 82(TM) system (copyright 1983,
 Carnegie Mellon University). Gaussian is a federally registered
 trademark of Gaussian, Inc.
  
 This software contains proprietary and confidential information,
 including trade secrets, belonging to Gaussian, Inc.
  
 This software is provided under written license and may be
 used, copied, transmitted, or stored only in accord with that
 written license.
  
 The following legend is applicable only to US Government
 contracts under FAR:
  
                    RESTRICTED RIGHTS LEGEND
  
 Use, reproduction and disclosure by the US Government is
 subject to restrictions as set forth in subparagraphs (a)
 and (c) of the Commercial Computer Software - Restricted
 Rights clause in FAR 52.227-19.
  
 Gaussian, Inc.
 340 Quinnipiac St., Bldg. 40, Wallingford CT 06492
  
  
 ---------------------------------------------------------------
 Warning -- This program may not be used in any manner that
 competes with the business of Gaussian, Inc. or will provide
 assistance to any competitor of Gaussian, Inc.  The licensee
 of this program is prohibited from giving any competitor of
 Gaussian, Inc. access to this program.  By using this program,
 the user acknowledges that Gaussian, Inc. is engaged in the
 business of creating and licensing software in the field of
 computational chemistry and represents and warrants to the
 licensee that it is not a competitor of Gaussian, Inc. and that
 it will not use this program in any manner prohibited above.
 ---------------------------------------------------------------
  

 Cite this work as:
 Gaussian 16, Revision B.01,
 M. J. Frisch, G. W. Trucks, H. B. Schlegel, G. E. Scuseria, 
 M. A. Robb, J. R. Cheeseman, G. Scalmani, V. Barone, 
 G. A. Petersson, H. Nakatsuji, X. Li, M. Caricato, A. V. Marenich, 
 J. Bloino, B. G. Janesko, R. Gomperts, B. Mennucci, H. P. Hratchian, 
 J. V. Ortiz, A. F. Izmaylov, J. L. Sonnenberg, D. Williams-Young, 
 F. Ding, F. Lipparini, F. Egidi, J. Goings, B. Peng, A. Petrone, 
 T. Henderson, D. Ranasinghe, V. G. Zakrzewski, J. Gao, N. Rega, 
 G. Zheng, W. Liang, M. Hada, M. Ehara, K. Toyota, R. Fukuda, 
 J. Hasegawa, M. Ishida, T. Nakajima, Y. Honda, O. Kitao, H. Nakai, 
 T. Vreven, K. Throssell, J. A. Montgomery, Jr., J. E. Peralta, 
 F. Ogliaro, M. J. Bearpark, J. J. Heyd, E. N. Brothers, K. N. Kudin, 
 V. N. Staroverov, T. A. Keith, R. Kobayashi, J. Normand, 
 K. Raghavachari, A. P. Rendell, J. C. Burant, S. S. Iyengar, 
 J. Tomasi, M. Cossi, J. M. Millam, M. Klene, C. Adamo, R. Cammi, 
 J. W. Ochterski, R. L. Martin, K. Morokuma, O. Farkas, 
 J. B. Foresman, and D. J. Fox, Gaussian, Inc., Wallingford CT, 2016.
 
 ******************************************
 Gaussian 16:  ES64L-G16RevB.01 20-Dec-2017
                31-May-2019 
 ******************************************
 %mem=80GB
 %nproc=40
 Will use up to   40 processors via shared memory.
 -----------------------------------------------
 # opt=maxcyc=500 freq=noraman uB2PLYPD3/cc-pvtz
 -----------------------------------------------
 1/6=500,18=20,19=15,38=1/1,3;
 2/9=110,12=2,17=6,18=5,40=1/2;
 3/5=16,6=1,11=2,25=1,30=1,71=1,74=-60,116=2/1,2,3;
 4//1;
 5/5=2,38=5/2;
 8/6=4,10=1/1;
 9/15=2,16=-3/6;
 10/5=1/2;
 6/7=2,8=2,9=2,10=2/1;
 7/12=2/1,2,3,16;
 1/6=500,18=20,19=15/3(2);
 2/9=110/2;
 99//99;
 2/9=110/2;
 3/5=16,6=1,11=2,25=1,30=1,71=1,74=-60,116=2/1,2,3;
 4/5=5,16=3,69=1/1;
 5/5=2,38=5/2;
 8/6=4,10=1/1;
 9/15=2,16=-3/6;
 10/5=1/2;
 7/12=2/1,2,3,16;
 1/6=500,18=20,19=15/3(-8);
 2/9=110/2;
 6/7=2,8=2,9=2,10=2/1;
 99/9=10/99;
 -------------------
 Title Card Required
 -------------------
 Symbolic Z-matrix:
 Charge =  0 Multiplicity = 1
 C                     1.94504  -0.26274   0. 
 H                     2.93928  -0.63608   0. 
 C                     0.82671   0.16534   0. 
 C                    -0.55049   0.65262   0. 
 H                    -0.69921   1.28713   0.87519 
 H                    -0.69921   1.28713  -0.87519 
 C                    -1.56799  -0.49026   0. 
 H                    -2.58276  -0.09542   0. 
 H                    -1.43888  -1.11629  -0.88098 
 H                    -1.43888  -1.11629   0.88098 
 

 GradGradGradGradGradGradGradGradGradGradGradGradGradGradGradGradGradGrad
 Berny optimization.
 Initialization pass.
                           ----------------------------
                           !    Initial Parameters    !
                           ! (Angstroms and Degrees)  !
 --------------------------                            --------------------------
 ! Name  Definition              Value          Derivative Info.                !
 --------------------------------------------------------------------------------
 ! R1    R(1,2)                  1.062          estimate D2E/DX2                !
 ! R2    R(1,3)                  1.1975         estimate D2E/DX2                !
 ! R3    R(3,4)                  1.4609         estimate D2E/DX2                !
 ! R4    R(4,5)                  1.0912         estimate D2E/DX2                !
 ! R5    R(4,6)                  1.0912         estimate D2E/DX2                !
 ! R6    R(4,7)                  1.5302         estimate D2E/DX2                !
 ! R7    R(7,8)                  1.0889         estimate D2E/DX2                !
 ! R8    R(7,9)                  1.0884         estimate D2E/DX2                !
 ! R9    R(7,10)                 1.0884         estimate D2E/DX2                !
 ! A1    A(3,4,5)              108.8111         estimate D2E/DX2                !
 ! A2    A(3,4,6)              108.8111         estimate D2E/DX2                !
 ! A3    A(3,4,7)              112.194          estimate D2E/DX2                !
 ! A4    A(5,4,6)              106.6536         estimate D2E/DX2                !
 ! A5    A(5,4,7)              110.1011         estimate D2E/DX2                !
 ! A6    A(6,4,7)              110.1011         estimate D2E/DX2                !
 ! A7    A(4,7,8)              110.4176         estimate D2E/DX2                !
 ! A8    A(4,7,9)              110.5303         estimate D2E/DX2                !
 ! A9    A(4,7,10)             110.5303         estimate D2E/DX2                !
 ! A10   A(8,7,9)              108.6091         estimate D2E/DX2                !
 ! A11   A(8,7,10)             108.6091         estimate D2E/DX2                !
 ! A12   A(9,7,10)             108.0737         estimate D2E/DX2                !
 ! A13   L(2,1,3,9,-1)         180.3336         estimate D2E/DX2                !
 ! A14   L(1,3,4,9,-1)         178.6642         estimate D2E/DX2                !
 ! A15   L(2,1,3,9,-2)         180.2425         estimate D2E/DX2                !
 ! A16   L(1,3,4,9,-2)         179.2501         estimate D2E/DX2                !
 ! D1    D(3,4,7,8)            180.0            estimate D2E/DX2                !
 ! D2    D(3,4,7,9)            -59.8015         estimate D2E/DX2                !
 ! D3    D(3,4,7,10)            59.8016         estimate D2E/DX2                !
 ! D4    D(5,4,7,8)             58.6581         estimate D2E/DX2                !
 ! D5    D(5,4,7,9)            178.8565         estimate D2E/DX2                !
 ! D6    D(5,4,7,10)           -61.5403         estimate D2E/DX2                !
 ! D7    D(6,4,7,8)            -58.6581         estimate D2E/DX2                !
 ! D8    D(6,4,7,9)             61.5403         estimate D2E/DX2                !
 ! D9    D(6,4,7,10)          -178.8565         estimate D2E/DX2                !
 --------------------------------------------------------------------------------
 Trust Radius=3.00D-01 FncErr=1.00D-07 GrdErr=1.00D-07 EigMax=2.50D+02 EigMin=1.00D-04
 Number of steps in this run=    100 maximum allowed number of steps=    100.
 GradGradGradGradGradGradGradGradGradGradGradGradGradGradGradGradGradGrad

                          Input orientation:                          
 ---------------------------------------------------------------------
 Center     Atomic      Atomic             Coordinates (Angstroms)
 Number     Number       Type             X           Y           Z
 ---------------------------------------------------------------------
      1          6           0        1.945042   -0.262736    0.000000
      2          1           0        2.939282   -0.636080    0.000000
      3          6           0        0.826714    0.165343    0.000000
      4          6           0       -0.550487    0.652620    0.000000
      5          1           0       -0.699211    1.287133    0.875189
      6          1           0       -0.699210    1.287133   -0.875189
      7          6           0       -1.567992   -0.490260    0.000000
      8          1           0       -2.582755   -0.095415    0.000000
      9          1           0       -1.438881   -1.116286   -0.880976
     10          1           0       -1.438881   -1.116286    0.880977
 ---------------------------------------------------------------------
                    Distance matrix (angstroms):
                    1          2          3          4          5
     1  C    0.000000
     2  H    1.062026   0.000000
     3  C    1.197459   2.259474   0.000000
     4  C    2.658109   3.720112   1.460863   0.000000
     5  H    3.187495   4.207533   2.086340   1.091183   0.000000
     6  H    3.187494   4.207532   2.086340   1.091183   1.750378
     7  C    3.520394   4.509632   2.482827   1.530193   2.163299
     8  H    4.530888   5.548442   3.419426   2.165564   2.495022
     9  H    3.599389   4.491662   2.748020   2.166654   3.067189
    10  H    3.599389   4.491662   2.748020   2.166655   2.514671
                    6          7          8          9         10
     6  H    0.000000
     7  C    2.163299   0.000000
     8  H    2.495022   1.088874   0.000000
     9  H    2.514671   1.088438   1.768260   0.000000
    10  H    3.067190   1.088439   1.768261   1.761953   0.000000
 Stoichiometry    C4H6
 Framework group  CS[SG(C4H2),X(H4)]
 Deg. of freedom    15
 Full point group                 CS      NOp   2
 Largest Abelian subgroup         CS      NOp   2
 Largest concise Abelian subgroup CS      NOp   2
                         Standard orientation:                         
 ---------------------------------------------------------------------
 Center     Atomic      Atomic             Coordinates (Angstroms)
 Number     Number       Type             X           Y           Z
 ---------------------------------------------------------------------
      1          6           0        0.639088    1.855743    0.000000
      2          1           0        1.200169    2.757457    0.000000
      3          6           0       -0.000000    0.843086    0.000000
      4          6           0       -0.747906   -0.411808    0.000000
      5          1           0       -1.399264   -0.433205    0.875189
      6          1           0       -1.399264   -0.433205   -0.875189
      7          6           0        0.173231   -1.633691    0.000000
      8          1           0       -0.412958   -2.551312    0.000000
      9          1           0        0.812420   -1.629861   -0.880976
     10          1           0        0.812420   -1.629861    0.880976
 ---------------------------------------------------------------------
 Rotational constants (GHZ):          27.2812553           4.5878248           4.1267298
 Standard basis: CC-pVTZ (5D, 7F)
 There are   148 symmetry adapted cartesian basis functions of A'  symmetry.
 There are    82 symmetry adapted cartesian basis functions of A"  symmetry.
 There are   128 symmetry adapted basis functions of A'  symmetry.
 There are    76 symmetry adapted basis functions of A"  symmetry.
   204 basis functions,   310 primitive gaussians,   230 cartesian basis functions
    15 alpha electrons       15 beta electrons
       nuclear repulsion energy       103.2187202195 Hartrees.
 NAtoms=   10 NActive=   10 NUniq=    8 SFac= 1.56D+00 NAtFMM=   60 NAOKFM=F Big=F
 Integral buffers will be    131072 words long.
 Raffenetti 2 integral format.
 Two-electron integral symmetry is turned on.
 Nuclear repulsion after empirical dispersion term =      103.2141549973 Hartrees.
 One-electron integrals computed using PRISM.
 NBasis=   204 RedAO= T EigKep=  4.40D-05  NBF=   128    76
 NBsUse=   204 1.00D-06 EigRej= -1.00D+00 NBFU=   128    76
 ExpMin= 1.03D-01 ExpMax= 8.24D+03 ExpMxC= 2.81D+02 IAcc=3 IRadAn=         5 AccDes= 0.00D+00
 Harris functional with IExCor=  419 and IRadAn=       5 diagonalized for initial guess.
 HarFok:  IExCor=  419 AccDes= 0.00D+00 IRadAn=         5 IDoV= 1 UseB2=F ITyADJ=14
 ICtDFT=  3500011 ScaDFX=  1.000000  1.000000  1.000000  1.000000
 FoFCou: FMM=F IPFlag=           0 FMFlag=      100000 FMFlg1=           0
         NFxFlg=           0 DoJE=T BraDBF=F KetDBF=T FulRan=T
         wScrn=  0.000000 ICntrl=       500 IOpCl=  0 I1Cent=   200000004 NGrid=           0
         NMat0=    1 NMatS0=      1 NMatT0=    0 NMatD0=    1 NMtDS0=    0 NMtDT0=    0
 Petite list used in FoFCou.
 Initial guess orbital symmetries:
 Alpha Orbitals:
       Occupied  (A') (A') (A') (A') (A') (A') (A') (A') (A') (A")
                 (A') (A') (A") (A') (A")
       Virtual   (A') (A") (A') (A') (A') (A") (A') (A") (A') (A')
                 (A') (A') (A") (A') (A') (A") (A') (A") (A') (A')
                 (A') (A") (A') (A") (A") (A') (A') (A') (A') (A")
                 (A') (A") (A') (A') (A") (A') (A') (A') (A") (A")
                 (A') (A') (A") (A') (A") (A') (A') (A") (A') (A")
                 (A') (A") (A") (A') (A') (A') (A') (A") (A') (A')
                 (A") (A") (A') (A') (A') (A") (A') (A') (A') (A")
                 (A') (A") (A') (A') (A') (A") (A") (A') (A') (A')
                 (A") (A') (A') (A") (A") (A') (A') (A') (A') (A")
                 (A') (A') (A") (A") (A') (A") (A") (A') (A') (A")
                 (A') (A") (A') (A") (A') (A') (A') (A") (A") (A")
                 (A') (A') (A") (A") (A') (A') (A") (A') (A") (A")
                 (A") (A') (A") (A') (A') (A') (A") (A') (A") (A')
                 (A") (A') (A') (A") (A') (A') (A") (A') (A') (A")
                 (A") (A') (A') (A') (A") (A') (A') (A") (A') (A")
                 (A') (A') (A") (A") (A') (A') (A") (A') (A') (A")
                 (A') (A") (A') (A') (A") (A") (A') (A') (A") (A')
                 (A') (A") (A') (A") (A') (A') (A") (A') (A') (A')
                 (A") (A") (A') (A") (A') (A') (A') (A') (A')
 Beta  Orbitals:
       Occupied  (A') (A') (A') (A') (A') (A') (A') (A') (A') (A")
                 (A') (A') (A") (A') (A")
       Virtual   (A') (A") (A') (A') (A') (A") (A') (A") (A') (A')
                 (A') (A') (A") (A') (A') (A") (A') (A") (A') (A')
                 (A') (A") (A') (A") (A") (A') (A') (A') (A') (A")
                 (A') (A") (A') (A') (A") (A') (A') (A') (A") (A")
                 (A') (A') (A") (A') (A") (A') (A') (A") (A') (A")
                 (A') (A") (A") (A') (A') (A') (A') (A") (A') (A')
                 (A") (A") (A') (A') (A') (A") (A') (A') (A') (A")
                 (A') (A") (A') (A') (A') (A") (A") (A') (A') (A')
                 (A") (A') (A') (A") (A") (A') (A') (A') (A') (A")
                 (A') (A') (A") (A") (A') (A") (A") (A') (A') (A")
                 (A') (A") (A') (A") (A') (A') (A') (A") (A") (A")
                 (A') (A') (A") (A") (A') (A') (A") (A') (A") (A")
                 (A") (A') (A") (A') (A') (A') (A") (A') (A") (A')
                 (A") (A') (A') (A") (A') (A') (A") (A') (A') (A")
                 (A") (A') (A') (A') (A") (A') (A') (A") (A') (A")
                 (A') (A') (A") (A") (A') (A') (A") (A') (A') (A")
                 (A') (A") (A') (A') (A") (A") (A') (A') (A") (A')
                 (A') (A") (A') (A") (A') (A') (A") (A') (A') (A')
                 (A") (A") (A') (A") (A') (A') (A') (A') (A')
 The electronic state of the initial guess is 1-A'.
 Initial guess <Sx>= 0.0000 <Sy>= 0.0000 <Sz>= 0.0000 <S**2>=-0.0000 S=-0.0000
 Keep R1 and R2 ints in memory in symmetry-blocked form, NReq=329584006.
 Requested convergence on RMS density matrix=1.00D-08 within 128 cycles.
 Requested convergence on MAX density matrix=1.00D-06.
 Requested convergence on             energy=1.00D-06.
 No special actions if energy rises.
 Integral accuracy reduced to 1.0D-05 until final iterations.
 Initial convergence to 1.0D-05 achieved.  Increase integral accuracy.
 SCF Done:  E(UB2PLYPD3) =  -155.665681075     A.U. after   12 cycles
            NFock= 12  Conv=0.49D-08     -V/T= 2.0046
 <Sx>= 0.0000 <Sy>= 0.0000 <Sz>= 0.0000 <S**2>=-0.0000 S=-0.0000
 <L.S>=  0.00000000000    
 Annihilation of the first spin contaminant:
 S**2 before annihilation    -0.0000,   after    -0.0000
 DoSCS=T DFT=T ScalE2(SS,OS)=  0.270000  0.270000
 ExpMin= 1.03D-01 ExpMax= 8.24D+03 ExpMxC= 2.81D+02 IAcc=3 IRadAn=         5 AccDes= 0.00D+00
 HarFok:  IExCor=  205 AccDes= 0.00D+00 IRadAn=         5 IDoV=-2 UseB2=F ITyADJ=14
 ICtDFT= 12500011 ScaDFX=  1.000000  1.000000  1.000000  1.000000
 Range of M.O.s used for correlation:     5   204
 NBasis=   204 NAE=    15 NBE=    15 NFC=     4 NFV=     0
 NROrb=    200 NOA=    11 NOB=    11 NVA=   189 NVB=   189

 **** Warning!!: The largest alpha MO coefficient is  0.47797869D+02


 **** Warning!!: The largest beta MO coefficient is  0.47797869D+02

 DoSCS=T DFT=T ScalE2(SS,OS)=  0.270000  0.270000
 Fully direct method using O(ONN) memory.
 JobTyp=2 Pass  1:  I=   5 to  15 NPSUse= 40 ParTrn=T ParDer=T DoDerP=T.
 JobTyp=3 Pass  1:  I=   5 to  15 NPSUse= 40 ParTrn=T ParDer=T DoDerP=T.
 Spin components of T(2) and E(2):
     alpha-alpha T2 =       0.4344620549D-01 E2=     -0.2510313054D-01
     alpha-beta  T2 =       0.2618536048D+00 E2=     -0.1656493238D+00
     beta-beta   T2 =       0.4344620549D-01 E2=     -0.2510313054D-01
 (S**2,0)=  0.00000D+00           (S**2,1)=  0.00000D+00
 E(PUHF)=      -0.15566568108D+03        E(PMP2)=      -0.15588153666D+03
 E2(B2PLYPD3) =    -0.2158555848D+00 E(B2PLYPD3) =    -0.15588153666006D+03
          IDoAtm=1111111111
          Differentiating once with respect to electric field.
                with respect to dipole field.
          Differentiating once with respect to nuclear coordinates.
 Keep R1 and R2 ints in memory in symmetry-blocked form, NReq=329585868.
          There are     1 degrees of freedom in the 1st order CPHF.  IDoFFX=0 NUNeed=     1.
 LinEq1:  Iter=  0 NonCon=     1 RMS=6.57D-04 Max=9.70D-03 NDo=     1
 AX will form     1 AO Fock derivatives at one time.
 LinEq1:  Iter=  1 NonCon=     1 RMS=2.53D-04 Max=2.79D-03 NDo=     1
 LinEq1:  Iter=  2 NonCon=     1 RMS=1.11D-04 Max=2.73D-03 NDo=     1
 LinEq1:  Iter=  3 NonCon=     1 RMS=6.40D-05 Max=9.60D-04 NDo=     1
 LinEq1:  Iter=  4 NonCon=     1 RMS=1.55D-05 Max=1.45D-04 NDo=     1
 LinEq1:  Iter=  5 NonCon=     1 RMS=5.53D-06 Max=6.20D-05 NDo=     1
 LinEq1:  Iter=  6 NonCon=     1 RMS=1.73D-06 Max=2.62D-05 NDo=     1
 LinEq1:  Iter=  7 NonCon=     1 RMS=4.99D-07 Max=9.48D-06 NDo=     1
 LinEq1:  Iter=  8 NonCon=     1 RMS=1.72D-07 Max=2.75D-06 NDo=     1
 LinEq1:  Iter=  9 NonCon=     1 RMS=5.64D-08 Max=7.00D-07 NDo=     1
 LinEq1:  Iter= 10 NonCon=     1 RMS=1.99D-08 Max=2.27D-07 NDo=     1
 LinEq1:  Iter= 11 NonCon=     1 RMS=4.42D-09 Max=4.95D-08 NDo=     1
 LinEq1:  Iter= 12 NonCon=     1 RMS=6.55D-10 Max=7.12D-09 NDo=     1
 LinEq1:  Iter= 13 NonCon=     1 RMS=1.38D-10 Max=1.39D-09 NDo=     1
 LinEq1:  Iter= 14 NonCon=     0 RMS=2.04D-11 Max=2.28D-10 NDo=     1
 Linear equations converged to 1.000D-10 1.000D-09 after    14 iterations.
 End of Minotr F.D. properties file   721 does not exist.
 End of Minotr F.D. properties file   722 does not exist.
 End of Minotr F.D. properties file   788 does not exist.

 **********************************************************************

            Population analysis using the SCF Density.

 **********************************************************************

 Orbital symmetries:
 Alpha Orbitals:
       Occupied  (A') (A') (A') (A') (A') (A') (A') (A') (A') (A")
                 (A') (A') (A") (A') (A")
       Virtual   (A') (A") (A') (A') (A') (A") (A') (A") (A') (A')
                 (A') (A') (A") (A') (A") (A') (A') (A") (A') (A")
                 (A') (A') (A') (A") (A") (A') (A') (A') (A') (A")
                 (A') (A") (A') (A') (A") (A') (A') (A") (A') (A')
                 (A") (A") (A') (A') (A") (A') (A') (A") (A") (A')
                 (A') (A") (A') (A") (A') (A') (A') (A") (A') (A')
                 (A") (A") (A') (A') (A") (A') (A') (A') (A') (A")
                 (A') (A') (A") (A') (A") (A') (A") (A') (A') (A')
                 (A") (A') (A') (A") (A") (A') (A') (A') (A") (A')
                 (A') (A') (A") (A") (A') (A") (A") (A') (A") (A')
                 (A") (A') (A") (A') (A') (A') (A") (A') (A") (A")
                 (A') (A") (A') (A") (A') (A") (A') (A') (A") (A")
                 (A") (A') (A") (A') (A') (A') (A") (A') (A") (A')
                 (A") (A') (A') (A') (A") (A") (A') (A') (A') (A")
                 (A") (A') (A') (A") (A') (A') (A") (A') (A') (A")
                 (A") (A') (A') (A") (A') (A') (A") (A') (A') (A")
                 (A") (A') (A') (A') (A") (A") (A') (A') (A") (A')
                 (A") (A') (A') (A") (A') (A') (A") (A') (A') (A')
                 (A") (A") (A') (A") (A') (A') (A') (A') (A')
 Beta  Orbitals:
       Occupied  (A') (A') (A') (A') (A') (A') (A') (A') (A') (A")
                 (A') (A') (A") (A') (A")
       Virtual   (A') (A") (A') (A') (A') (A") (A') (A") (A') (A')
                 (A') (A') (A") (A') (A") (A') (A') (A") (A') (A")
                 (A') (A') (A') (A") (A") (A') (A') (A') (A') (A")
                 (A') (A") (A') (A') (A") (A') (A') (A") (A') (A')
                 (A") (A") (A') (A') (A") (A') (A') (A") (A") (A')
                 (A') (A") (A') (A") (A') (A') (A') (A") (A') (A')
                 (A") (A") (A') (A') (A") (A') (A') (A') (A') (A")
                 (A') (A') (A") (A') (A") (A') (A") (A') (A') (A')
                 (A") (A') (A') (A") (A") (A') (A') (A') (A") (A')
                 (A') (A') (A") (A") (A') (A") (A") (A') (A") (A')
                 (A") (A') (A") (A') (A') (A') (A") (A') (A") (A")
                 (A') (A") (A') (A") (A') (A") (A') (A') (A") (A")
                 (A") (A') (A") (A') (A') (A') (A") (A') (A") (A')
                 (A") (A') (A') (A') (A") (A") (A') (A') (A') (A")
                 (A") (A') (A') (A") (A') (A') (A") (A') (A') (A")
                 (A") (A') (A') (A") (A') (A') (A") (A') (A') (A")
                 (A") (A') (A') (A') (A") (A") (A') (A') (A") (A')
                 (A") (A') (A') (A") (A') (A') (A") (A') (A') (A')
                 (A") (A") (A') (A") (A') (A') (A') (A') (A')
 The electronic state is 1-A'.
 Alpha  occ. eigenvalues --  -10.63967 -10.61423 -10.61208 -10.60076  -0.91954
 Alpha  occ. eigenvalues --   -0.83976  -0.74159  -0.60672  -0.54371  -0.53404
 Alpha  occ. eigenvalues --   -0.46643  -0.43915  -0.43037  -0.31946  -0.31871
 Alpha virt. eigenvalues --    0.07430   0.10420   0.10940   0.11730   0.12455
 Alpha virt. eigenvalues --    0.14112   0.15651   0.18392   0.22649   0.25064
 Alpha virt. eigenvalues --    0.28131   0.30964   0.31449   0.34616   0.35246
 Alpha virt. eigenvalues --    0.36243   0.42811   0.45311   0.46545   0.49361
 Alpha virt. eigenvalues --    0.49379   0.49744   0.52961   0.53439   0.55137
 Alpha virt. eigenvalues --    0.55596   0.56474   0.61846   0.64426   0.64629
 Alpha virt. eigenvalues --    0.67816   0.71564   0.73993   0.77968   0.84099
 Alpha virt. eigenvalues --    0.85223   0.89259   0.91268   0.93444   0.96671
 Alpha virt. eigenvalues --    0.97346   0.99190   1.02112   1.05483   1.07790
 Alpha virt. eigenvalues --    1.11041   1.14779   1.16837   1.18356   1.19143
 Alpha virt. eigenvalues --    1.21307   1.24058   1.26696   1.28406   1.30026
 Alpha virt. eigenvalues --    1.34610   1.35651   1.36299   1.41747   1.42343
 Alpha virt. eigenvalues --    1.45702   1.48377   1.50418   1.55136   1.60547
 Alpha virt. eigenvalues --    1.61925   1.63917   1.65518   1.73952   1.75093
 Alpha virt. eigenvalues --    2.14756   2.18816   2.19675   2.34139   2.39150
 Alpha virt. eigenvalues --    2.39438   2.41910   2.44635   2.54547   2.55551
 Alpha virt. eigenvalues --    2.58278   2.59449   2.60526   2.64126   2.65903
 Alpha virt. eigenvalues --    2.67272   2.68662   2.73432   2.76634   2.77273
 Alpha virt. eigenvalues --    2.81858   2.87842   2.88368   2.90783   2.91558
 Alpha virt. eigenvalues --    2.93945   2.95315   3.01701   3.03140   3.03863
 Alpha virt. eigenvalues --    3.05900   3.06258   3.08006   3.08889   3.11096
 Alpha virt. eigenvalues --    3.13339   3.14946   3.15601   3.18318   3.20269
 Alpha virt. eigenvalues --    3.21538   3.25718   3.25751   3.26745   3.28976
 Alpha virt. eigenvalues --    3.34215   3.36276   3.41656   3.42343   3.46543
 Alpha virt. eigenvalues --    3.48837   3.51695   3.57063   3.58555   3.61812
 Alpha virt. eigenvalues --    3.66381   3.68428   3.72885   3.78456   3.79432
 Alpha virt. eigenvalues --    3.81279   3.87945   3.90877   3.93196   3.93815
 Alpha virt. eigenvalues --    3.98194   3.98922   4.01990   4.03069   4.07917
 Alpha virt. eigenvalues --    4.13729   4.13888   4.17208   4.19346   4.20146
 Alpha virt. eigenvalues --    4.24657   4.24811   4.27319   4.31223   4.32911
 Alpha virt. eigenvalues --    4.42439   4.42693   4.44658   4.45480   4.54442
 Alpha virt. eigenvalues --    4.60895   4.61337   4.65867   4.77068   4.94170
 Alpha virt. eigenvalues --    4.99029   4.99894   5.02745   5.05797   5.08402
 Alpha virt. eigenvalues --    5.13254   5.21252   5.31770   5.35312   5.43133
 Alpha virt. eigenvalues --    5.47974   5.48174   5.50668   5.51105   5.57167
 Alpha virt. eigenvalues --    5.59967   5.62638   5.79503   5.98945   6.01992
 Alpha virt. eigenvalues --    6.02764   6.04327   6.13907   6.14034   6.35486
 Alpha virt. eigenvalues --    8.33772  13.28580  13.64869  17.16801
  Beta  occ. eigenvalues --  -10.63967 -10.61423 -10.61208 -10.60076  -0.91954
  Beta  occ. eigenvalues --   -0.83976  -0.74159  -0.60672  -0.54371  -0.53404
  Beta  occ. eigenvalues --   -0.46643  -0.43915  -0.43037  -0.31946  -0.31871
  Beta virt. eigenvalues --    0.07430   0.10420   0.10940   0.11730   0.12455
  Beta virt. eigenvalues --    0.14112   0.15651   0.18392   0.22649   0.25064
  Beta virt. eigenvalues --    0.28131   0.30964   0.31449   0.34616   0.35246
  Beta virt. eigenvalues --    0.36243   0.42811   0.45311   0.46545   0.49361
  Beta virt. eigenvalues --    0.49379   0.49744   0.52961   0.53439   0.55137
  Beta virt. eigenvalues --    0.55596   0.56474   0.61846   0.64426   0.64629
  Beta virt. eigenvalues --    0.67816   0.71564   0.73993   0.77968   0.84099
  Beta virt. eigenvalues --    0.85223   0.89259   0.91268   0.93444   0.96671
  Beta virt. eigenvalues --    0.97346   0.99190   1.02112   1.05483   1.07790
  Beta virt. eigenvalues --    1.11041   1.14779   1.16837   1.18356   1.19143
  Beta virt. eigenvalues --    1.21307   1.24058   1.26696   1.28406   1.30026
  Beta virt. eigenvalues --    1.34610   1.35651   1.36299   1.41747   1.42343
  Beta virt. eigenvalues --    1.45702   1.48377   1.50418   1.55136   1.60547
  Beta virt. eigenvalues --    1.61925   1.63917   1.65518   1.73952   1.75093
  Beta virt. eigenvalues --    2.14756   2.18816   2.19675   2.34139   2.39150
  Beta virt. eigenvalues --    2.39438   2.41910   2.44635   2.54547   2.55551
  Beta virt. eigenvalues --    2.58278   2.59449   2.60526   2.64126   2.65903
  Beta virt. eigenvalues --    2.67272   2.68662   2.73432   2.76634   2.77273
  Beta virt. eigenvalues --    2.81858   2.87842   2.88368   2.90783   2.91558
  Beta virt. eigenvalues --    2.93945   2.95315   3.01701   3.03140   3.03863
  Beta virt. eigenvalues --    3.05900   3.06258   3.08006   3.08889   3.11096
  Beta virt. eigenvalues --    3.13339   3.14946   3.15601   3.18318   3.20269
  Beta virt. eigenvalues --    3.21538   3.25718   3.25751   3.26745   3.28976
  Beta virt. eigenvalues --    3.34215   3.36276   3.41656   3.42343   3.46543
  Beta virt. eigenvalues --    3.48837   3.51695   3.57063   3.58555   3.61812
  Beta virt. eigenvalues --    3.66381   3.68428   3.72885   3.78456   3.79432
  Beta virt. eigenvalues --    3.81279   3.87945   3.90877   3.93196   3.93815
  Beta virt. eigenvalues --    3.98194   3.98922   4.01990   4.03069   4.07917
  Beta virt. eigenvalues --    4.13729   4.13888   4.17208   4.19346   4.20146
  Beta virt. eigenvalues --    4.24657   4.24811   4.27319   4.31223   4.32911
  Beta virt. eigenvalues --    4.42439   4.42693   4.44658   4.45480   4.54442
  Beta virt. eigenvalues --    4.60895   4.61337   4.65867   4.77068   4.94170
  Beta virt. eigenvalues --    4.99029   4.99894   5.02745   5.05797   5.08402
  Beta virt. eigenvalues --    5.13254   5.21252   5.31770   5.35312   5.43133
  Beta virt. eigenvalues --    5.47974   5.48174   5.50668   5.51105   5.57167
  Beta virt. eigenvalues --    5.59967   5.62638   5.79503   5.98945   6.01992
  Beta virt. eigenvalues --    6.02764   6.04327   6.13907   6.14034   6.35486
  Beta virt. eigenvalues --    8.33772  13.28580  13.64869  17.16801
          Condensed to atoms (all electrons):
               1          2          3          4          5          6
     1  C    5.014401   0.408773   0.862033  -0.070287  -0.002665  -0.002665
     2  H    0.408773   0.485429  -0.060856   0.001128  -0.000065  -0.000065
     3  C    0.862033  -0.060856   5.003449   0.374934  -0.044972  -0.044972
     4  C   -0.070287   0.001128   0.374934   4.778996   0.420691   0.420691
     5  H   -0.002665  -0.000065  -0.044972   0.420691   0.585015  -0.035693
     6  H   -0.002665  -0.000065  -0.044972   0.420691  -0.035693   0.585015
     7  C   -0.001775  -0.000084  -0.057655   0.342180  -0.032804  -0.032804
     8  H    0.000088   0.000004   0.009756  -0.037744  -0.004009  -0.004009
     9  H    0.002426   0.000013  -0.001766  -0.032949   0.007325  -0.006050
    10  H    0.002426   0.000013  -0.001766  -0.032949  -0.006050   0.007325
               7          8          9         10
     1  C   -0.001775   0.000088   0.002426   0.002426
     2  H   -0.000084   0.000004   0.000013   0.000013
     3  C   -0.057655   0.009756  -0.001766  -0.001766
     4  C    0.342180  -0.037744  -0.032949  -0.032949
     5  H   -0.032804  -0.004009   0.007325  -0.006050
     6  H   -0.032804  -0.004009  -0.006050   0.007325
     7  C    4.846960   0.406129   0.406022   0.406022
     8  H    0.406129   0.591460  -0.029537  -0.029537
     9  H    0.406022  -0.029537   0.579895  -0.029510
    10  H    0.406022  -0.029537  -0.029510   0.579895
          Atomic-Atomic Spin Densities.
               1          2          3          4          5          6
     1  C    0.000000   0.000000   0.000000  -0.000000  -0.000000  -0.000000
     2  H    0.000000  -0.000000   0.000000  -0.000000  -0.000000  -0.000000
     3  C    0.000000   0.000000  -0.000000  -0.000000  -0.000000  -0.000000
     4  C   -0.000000  -0.000000  -0.000000   0.000000   0.000000   0.000000
     5  H   -0.000000  -0.000000  -0.000000   0.000000  -0.000000   0.000000
     6  H   -0.000000  -0.000000  -0.000000   0.000000   0.000000  -0.000000
     7  C   -0.000000  -0.000000  -0.000000   0.000000   0.000000   0.000000
     8  H    0.000000   0.000000   0.000000  -0.000000   0.000000   0.000000
     9  H    0.000000   0.000000   0.000000  -0.000000   0.000000   0.000000
    10  H    0.000000   0.000000   0.000000  -0.000000   0.000000   0.000000
               7          8          9         10
     1  C   -0.000000   0.000000   0.000000   0.000000
     2  H   -0.000000   0.000000   0.000000   0.000000
     3  C   -0.000000   0.000000   0.000000   0.000000
     4  C    0.000000  -0.000000  -0.000000  -0.000000
     5  H    0.000000   0.000000   0.000000   0.000000
     6  H    0.000000   0.000000   0.000000   0.000000
     7  C    0.000000  -0.000000   0.000000   0.000000
     8  H   -0.000000   0.000000  -0.000000  -0.000000
     9  H    0.000000  -0.000000  -0.000000   0.000000
    10  H    0.000000  -0.000000   0.000000  -0.000000
 Mulliken charges and spin densities:
               1          2
     1  C   -0.212754   0.000000
     2  H    0.165711   0.000000
     3  C   -0.038185  -0.000000
     4  C   -0.164692   0.000000
     5  H    0.113226  -0.000000
     6  H    0.113226  -0.000000
     7  C   -0.282192   0.000000
     8  H    0.097399   0.000000
     9  H    0.104131   0.000000
    10  H    0.104131   0.000000
 Sum of Mulliken charges =  -0.00000   0.00000
 Mulliken charges and spin densities with hydrogens summed into heavy atoms:
               1          2
     1  C   -0.047044   0.000000
     3  C   -0.038185  -0.000000
     4  C    0.061759   0.000000
     7  C    0.023469   0.000000
 Electronic spatial extent (au):  <R**2>=            332.5495
 Charge=             -0.0000 electrons
 Dipole moment (field-independent basis, Debye):
    X=             -0.3179    Y=             -0.7240    Z=             -0.0000  Tot=              0.7908
 Quadrupole moment (field-independent basis, Debye-Ang):
   XX=            -24.7676   YY=            -23.2324   ZZ=            -26.1894
   XY=              2.5157   XZ=              0.0000   YZ=              0.0000
 Traceless Quadrupole moment (field-independent basis, Debye-Ang):
   XX=             -0.0378   YY=              1.4974   ZZ=             -1.4596
   XY=              2.5157   XZ=              0.0000   YZ=              0.0000
 Octapole moment (field-independent basis, Debye-Ang**2):
  XXX=             -1.6316  YYY=              7.9248  ZZZ=             -0.0000  XYY=              7.4631
  XXY=              0.8879  XXZ=              0.0000  XZZ=             -1.3335  YZZ=             -3.3754
  YYZ=             -0.0000  XYZ=             -0.0000
 Hexadecapole moment (field-independent basis, Debye-Ang**3):
 XXXX=            -90.1024 YYYY=           -299.8787 ZZZZ=            -42.8516 XXXY=            -21.2901
 XXXZ=              0.0000 YYYX=              3.8685 YYYZ=              0.0000 ZZZX=              0.0000
 ZZZY=              0.0000 XXYY=            -62.2188 XXZZ=            -20.6390 YYZZ=            -68.0140
 XXYZ=              0.0000 YYXZ=              0.0000 ZZXY=             -9.7988
 N-N= 1.032141549973D+02 E-N=-5.672157374819D+02  KE= 1.549458905238D+02
 Symmetry A'   KE= 1.487590611717D+02
 Symmetry A"   KE= 6.186829352092D+00
 Symmetry A'   SP= 2.624502896186D-14
 Symmetry A"   SP= 4.134524731281D-15
                          Isotropic Fermi Contact Couplings
        Atom                 a.u.       MegaHertz       Gauss      10(-4) cm-1
     1  C(13)              0.00000       0.00000       0.00000       0.00000
     2  H(1)              -0.00000      -0.00000      -0.00000      -0.00000
     3  C(13)              0.00000       0.00000       0.00000       0.00000
     4  C(13)              0.00000       0.00000       0.00000       0.00000
     5  H(1)               0.00000       0.00000       0.00000       0.00000
     6  H(1)               0.00000       0.00000       0.00000       0.00000
     7  C(13)              0.00000       0.00000       0.00000       0.00000
     8  H(1)              -0.00000      -0.00000      -0.00000      -0.00000
     9  H(1)              -0.00000      -0.00000      -0.00000      -0.00000
    10  H(1)              -0.00000      -0.00000      -0.00000      -0.00000
 --------------------------------------------------------
       Center         ----  Spin Dipole Couplings  ----
                      3XX-RR        3YY-RR        3ZZ-RR
 --------------------------------------------------------
     1   Atom       -0.000000     -0.000000      0.000000
     2   Atom       -0.000000      0.000000     -0.000000
     3   Atom       -0.000000      0.000000      0.000000
     4   Atom       -0.000000      0.000000      0.000000
     5   Atom       -0.000000      0.000000     -0.000000
     6   Atom       -0.000000      0.000000     -0.000000
     7   Atom        0.000000     -0.000000      0.000000
     8   Atom        0.000000     -0.000000      0.000000
     9   Atom       -0.000000      0.000000     -0.000000
    10   Atom       -0.000000      0.000000     -0.000000
 --------------------------------------------------------
                        XY            XZ            YZ
 --------------------------------------------------------
     1   Atom       -0.000000      0.000000      0.000000
     2   Atom        0.000000      0.000000      0.000000
     3   Atom       -0.000000      0.000000      0.000000
     4   Atom        0.000000      0.000000     -0.000000
     5   Atom        0.000000      0.000000     -0.000000
     6   Atom        0.000000     -0.000000      0.000000
     7   Atom        0.000000      0.000000     -0.000000
     8   Atom       -0.000000      0.000000     -0.000000
     9   Atom        0.000000      0.000000     -0.000000
    10   Atom        0.000000     -0.000000      0.000000
 --------------------------------------------------------


 ---------------------------------------------------------------------------------
              Anisotropic Spin Dipole Couplings in Principal Axis System
 ---------------------------------------------------------------------------------

       Atom             a.u.   MegaHertz   Gauss  10(-4) cm-1        Axes

              Baa    -0.0000    -0.000    -0.000    -0.000  0.6537  0.7567 -0.0004
     1 C(13)  Bbb     0.0000     0.000     0.000     0.000  0.0002  0.0003  1.0000
              Bcc     0.0000     0.000     0.000     0.000  0.7567 -0.6537 -0.0000
 
              Baa    -0.0000    -0.000    -0.000    -0.000  0.8879 -0.4600 -0.0012
     2 H(1)   Bbb    -0.0000    -0.000    -0.000    -0.000  0.0009 -0.0009  1.0000
              Bcc     0.0000     0.000     0.000     0.000  0.4600  0.8879  0.0003
 
              Baa    -0.0000    -0.000    -0.000    -0.000  0.9648  0.2628 -0.0130
     3 C(13)  Bbb     0.0000     0.000     0.000     0.000  0.0211 -0.0283  0.9994
              Bcc     0.0000     0.000     0.000     0.000 -0.2623  0.9644  0.0328
 
              Baa    -0.0000    -0.000    -0.000    -0.000  0.9185 -0.3953 -0.0130
     4 C(13)  Bbb     0.0000     0.000     0.000     0.000  0.3940  0.9116  0.1168
              Bcc     0.0000     0.000     0.000     0.000 -0.0343 -0.1124  0.9931
 
              Baa    -0.0000    -0.000    -0.000    -0.000  0.7709 -0.3590 -0.5261
     5 H(1)   Bbb     0.0000     0.000     0.000     0.000  0.4278 -0.3201  0.8453
              Bcc     0.0000     0.000     0.000     0.000  0.4719  0.8767  0.0932
 
              Baa    -0.0000    -0.000    -0.000    -0.000  0.7483 -0.3492  0.5640
     6 H(1)   Bbb     0.0000     0.000     0.000     0.000 -0.4572  0.3445  0.8199
              Bcc     0.0000     0.000     0.000     0.000  0.4806  0.8714 -0.0982
 
              Baa    -0.0000    -0.000    -0.000    -0.000 -0.4865  0.8736  0.0148
     7 C(13)  Bbb     0.0000     0.000     0.000     0.000  0.0006 -0.0166  0.9999
              Bcc     0.0000     0.000     0.000     0.000  0.8737  0.4864  0.0075
 
              Baa    -0.0000    -0.000    -0.000    -0.000  0.2386  0.9711  0.0078
     8 H(1)   Bbb     0.0000     0.000     0.000     0.000  0.8372 -0.2016 -0.5083
              Bcc     0.0000     0.000     0.000     0.000  0.4921 -0.1278  0.8611
 
              Baa    -0.0000    -0.000    -0.000    -0.000  0.7366 -0.1894 -0.6492
     9 H(1)   Bbb     0.0000     0.000     0.000     0.000  0.5694  0.6917  0.4443
              Bcc     0.0000     0.000     0.000     0.000 -0.3649  0.6970 -0.6173
 
              Baa    -0.0000    -0.000    -0.000    -0.000  0.7437 -0.1960  0.6391
    10 H(1)   Bbb     0.0000     0.000     0.000     0.000  0.5722  0.6810 -0.4570
              Bcc     0.0000     0.000     0.000     0.000 -0.3456  0.7056  0.6186
 

 ---------------------------------------------------------------------------------

 Calling FoFJK, ICntrl=  10002127 FMM=F ISym2X=1 I1Cent= 0 IOpClX= 1 NMat=1 NMatS=1 NMatT=0.
 ***** Axes restored to original set *****
 -------------------------------------------------------------------
 Center     Atomic                   Forces (Hartrees/Bohr)
 Number     Number              X              Y              Z
 -------------------------------------------------------------------
      1        6           0.016751150   -0.006390796   -0.000000000
      2        1          -0.001806924    0.000706166   -0.000000000
      3        6          -0.015065778    0.006062403    0.000000000
      4        6           0.002096132    0.000056268   -0.000000000
      5        1          -0.000369097    0.000034313   -0.000265962
      6        1          -0.000369097    0.000034313    0.000265962
      7        6          -0.000623969   -0.000374333    0.000000000
      8        1           0.000046584   -0.000316265   -0.000000000
      9        1          -0.000329500    0.000093966    0.000351434
     10        1          -0.000329500    0.000093966   -0.000351434
 -------------------------------------------------------------------
 Cartesian Forces:  Max     0.016751150 RMS     0.004452954

 GradGradGradGradGradGradGradGradGradGradGradGradGradGradGradGradGradGrad
 Berny optimization.
 FormGI is forming the generalized inverse of G from B-inverse, IUseBI=4.
 Internal  Forces:  Max     0.015988837 RMS     0.002783668
 Search for a local minimum.
 Step number   1 out of a maximum of  100
 All quantities printed in internal units (Hartrees-Bohrs-Radians)
 Mixed Optimization -- RFO/linear search
 Second derivative matrix not updated -- first step.
 ITU=  0
     Eigenvalues ---    0.00367   0.01284   0.01284   0.04768   0.04768
     Eigenvalues ---    0.05385   0.05610   0.05623   0.05984   0.16000
     Eigenvalues ---    0.16000   0.16000   0.16000   0.16000   0.22286
     Eigenvalues ---    0.29406   0.34676   0.34676   0.34943   0.34994
     Eigenvalues ---    0.34994   0.36856   0.38256   1.06110
 RFO step:  Lambda=-2.75174507D-04 EMin= 3.66549849D-03
 Linear search not attempted -- first point.
 Iteration  1 RMS(Cart)=  0.00996270 RMS(Int)=  0.00003272
 Iteration  2 RMS(Cart)=  0.00003743 RMS(Int)=  0.00000462
 Iteration  3 RMS(Cart)=  0.00000000 RMS(Int)=  0.00000462
 ClnCor:  largest displacement from symmetrization is 2.08D-03 for atom     2.
 Variable       Old X    -DE/DX   Delta X   Delta X   Delta X     New X
                                 (Linear)    (Quad)   (Total)
    R1        2.00694  -0.00194   0.00000  -0.00507  -0.00507   2.00187
    R2        2.26287   0.01599   0.00000   0.01506   0.01506   2.27793
    R3        2.76063  -0.00024   0.00000  -0.00065  -0.00065   2.75998
    R4        2.06204  -0.00014   0.00000  -0.00041  -0.00076   2.06128
    R5        2.06204  -0.00014   0.00000  -0.00041  -0.00076   2.06128
    R6        2.89165   0.00120   0.00000   0.00407   0.00407   2.89571
    R7        2.05767  -0.00016   0.00000  -0.00045  -0.00045   2.05722
    R8        2.05685  -0.00038   0.00000  -0.00108  -0.00109   2.05576
    R9        2.05685  -0.00038   0.00000  -0.00108  -0.00109   2.05576
    A1        1.89911  -0.00006   0.00000   0.00196   0.00157   1.90069
    A2        1.89911  -0.00006   0.00000   0.00196   0.00157   1.90069
    A3        1.95815   0.00094   0.00000   0.00533   0.00533   1.96348
    A4        1.86146  -0.00002   0.00000  -0.00357  -0.00319   1.85827
    A5        1.92163  -0.00042   0.00000  -0.00301  -0.00283   1.91880
    A6        1.92163  -0.00042   0.00000  -0.00301  -0.00283   1.91880
    A7        1.92715   0.00024   0.00000   0.00117   0.00117   1.92832
    A8        1.92912   0.00032   0.00000   0.00213   0.00227   1.93139
    A9        1.92912   0.00032   0.00000   0.00213   0.00227   1.93139
   A10        1.89559  -0.00032   0.00000  -0.00230  -0.00276   1.89283
   A11        1.89559  -0.00032   0.00000  -0.00230  -0.00276   1.89283
   A12        1.88624  -0.00026   0.00000  -0.00102  -0.00041   1.88583
   A13        3.14741   0.00005   0.00000   0.00099   0.00087   3.14828
   A14        3.11828   0.00012   0.00000   0.00893   0.00840   3.12668
   A15        3.14583   0.00001   0.00000   0.00027   0.00073   3.14655
   A16        3.12850   0.00004   0.00000   0.00313   0.00465   3.13315
    D1        3.14159  -0.00000   0.00000  -0.00000   0.00000   3.14159
    D2       -1.04373  -0.00004   0.00000  -0.00074  -0.00121  -1.04494
    D3        1.04373   0.00004   0.00000   0.00073   0.00121   1.04494
    D4        1.02378  -0.00026   0.00000  -0.00400  -0.00363   1.02015
    D5        3.12164  -0.00031   0.00000  -0.00473  -0.00484   3.11679
    D6       -1.07408  -0.00022   0.00000  -0.00326  -0.00242  -1.07650
    D7       -1.02378   0.00026   0.00000   0.00399   0.00363  -1.02015
    D8        1.07408   0.00022   0.00000   0.00325   0.00242   1.07650
    D9       -3.12164   0.00031   0.00000   0.00473   0.00484  -3.11679
         Item               Value     Threshold  Converged?
 Maximum Force            0.015989     0.000450     NO 
 RMS     Force            0.002784     0.000300     NO 
 Maximum Displacement     0.025865     0.001800     NO 
 RMS     Displacement     0.010073     0.001200     NO 
 Predicted change in Energy=-1.374697D-04
 GradGradGradGradGradGradGradGradGradGradGradGradGradGradGradGradGradGrad

                          Input orientation:                          
 ---------------------------------------------------------------------
 Center     Atomic      Atomic             Coordinates (Angstroms)
 Number     Number       Type             X           Y           Z
 ---------------------------------------------------------------------
      1          6           0        1.957850   -0.261781    0.000000
      2          1           0        2.952969   -0.625027    0.000000
      3          6           0        0.828558    0.159837    0.000000
      4          6           0       -0.547866    0.648274    0.000000
      5          1           0       -0.697273    1.283812    0.873825
      6          1           0       -0.697273    1.283812   -0.873825
      7          6           0       -1.573941   -0.489818    0.000000
      8          1           0       -2.586460   -0.089905    0.000000
      9          1           0       -1.451477   -1.117016   -0.880377
     10          1           0       -1.451477   -1.117016    0.880377
 ---------------------------------------------------------------------
                    Distance matrix (angstroms):
                    1          2          3          4          5
     1  C    0.000000
     2  H    1.059344   0.000000
     3  C    1.205431   2.264760   0.000000
     4  C    2.665861   3.725204   1.460518   0.000000
     5  H    3.194074   4.210879   2.086876   1.090780   0.000000
     6  H    3.194074   4.210879   2.086876   1.090780   1.747651
     7  C    3.539146   4.528929   2.488786   1.532346   2.162841
     8  H    4.547560   5.565217   3.424138   2.168127   2.493932
     9  H    3.623535   4.518436   2.757531   2.169753   3.067577
    10  H    3.623535   4.518436   2.757531   2.169753   2.516515
                    6          7          8          9         10
     6  H    0.000000
     7  C    2.162841   0.000000
     8  H    2.493932   1.088635   0.000000
     9  H    2.516515   1.087860   1.765845   0.000000
    10  H    3.067577   1.087860   1.765845   1.760754   0.000000
 Stoichiometry    C4H6
 Framework group  CS[SG(C4H2),X(H4)]
 Deg. of freedom    15
 Full point group                 CS      NOp   2
 Largest Abelian subgroup         CS      NOp   2
 Largest concise Abelian subgroup CS      NOp   2
                         Standard orientation:                         
 ---------------------------------------------------------------------
 Center     Atomic      Atomic             Coordinates (Angstroms)
 Number     Number       Type             X           Y           Z
 ---------------------------------------------------------------------
      1          6           0        0.630019    1.869936    0.000000
      2          1           0        1.177059    2.777106    0.000000
      3          6           0       -0.000000    0.842250    0.000000
      4          6           0       -0.742914   -0.415204    0.000000
      5          1           0       -1.395300   -0.440176    0.873825
      6          1           0       -1.395300   -0.440176   -0.873825
      7          6           0        0.177688   -1.640185    0.000000
      8          1           0       -0.408672   -2.557413    0.000000
      9          1           0        0.816730   -1.640061   -0.880377
     10          1           0        0.816730   -1.640061    0.880377
 ---------------------------------------------------------------------
 Rotational constants (GHZ):          27.4823950           4.5477821           4.0983442
 Standard basis: CC-pVTZ (5D, 7F)
 There are   148 symmetry adapted cartesian basis functions of A'  symmetry.
 There are    82 symmetry adapted cartesian basis functions of A"  symmetry.
 There are   128 symmetry adapted basis functions of A'  symmetry.
 There are    76 symmetry adapted basis functions of A"  symmetry.
   204 basis functions,   310 primitive gaussians,   230 cartesian basis functions
    15 alpha electrons       15 beta electrons
       nuclear repulsion energy       103.0029304684 Hartrees.
 NAtoms=   10 NActive=   10 NUniq=    8 SFac= 1.56D+00 NAtFMM=   60 NAOKFM=F Big=F
 Integral buffers will be    131072 words long.
 Raffenetti 2 integral format.
 Two-electron integral symmetry is turned on.
 Nuclear repulsion after empirical dispersion term =      102.9983764613 Hartrees.
 One-electron integrals computed using PRISM.
 NBasis=   204 RedAO= T EigKep=  4.51D-05  NBF=   128    76
 NBsUse=   204 1.00D-06 EigRej= -1.00D+00 NBFU=   128    76
 Initial guess from the checkpoint file:  "/localscratch/339542/Gau-19780.chk"
 B after Tr=     0.000000    0.000000   -0.000000
         Rot=    0.999997   -0.000000   -0.000000   -0.002279 Ang=  -0.26 deg.
 Initial guess orbital symmetries:
 Alpha Orbitals:
       Occupied  (A') (A') (A') (A') (A') (A') (A') (A') (A') (A")
                 (A') (A') (A") (A') (A")
       Virtual   (A') (A") (A') (A') (A') (A") (A') (A") (A') (A')
                 (A') (A') (A") (A') (A") (A') (A') (A") (A') (A")
                 (A') (A') (A') (A") (A") (A') (A') (A') (A') (A")
                 (A') (A") (A') (A') (A") (A') (A') (A") (A') (A')
                 (A") (A") (A') (A') (A") (A') (A') (A") (A") (A')
                 (A') (A") (A') (A") (A') (A') (A') (A") (A') (A')
                 (A") (A") (A') (A') (A") (A') (A') (A') (A') (A")
                 (A') (A') (A") (A') (A") (A') (A") (A') (A') (A')
                 (A") (A') (A') (A") (A") (A') (A') (A') (A") (A')
                 (A') (A') (A") (A") (A') (A") (A") (A') (A") (A')
                 (A") (A') (A") (A') (A') (A') (A") (A') (A") (A")
                 (A') (A") (A') (A") (A') (A") (A') (A') (A") (A")
                 (A") (A') (A") (A') (A') (A') (A") (A') (A") (A')
                 (A") (A') (A') (A') (A") (A") (A') (A') (A') (A")
                 (A") (A') (A') (A") (A') (A') (A") (A') (A') (A")
                 (A") (A') (A') (A") (A') (A') (A") (A') (A') (A")
                 (A") (A') (A') (A') (A") (A") (A') (A') (A") (A')
                 (A") (A') (A') (A") (A') (A') (A") (A') (A') (A')
                 (A") (A") (A') (A") (A') (A') (A') (A') (A')
 Beta  Orbitals:
       Occupied  (A') (A') (A') (A') (A') (A') (A') (A') (A') (A")
                 (A') (A') (A") (A') (A")
       Virtual   (A') (A") (A') (A') (A') (A") (A') (A") (A') (A')
                 (A') (A') (A") (A') (A") (A') (A') (A") (A') (A")
                 (A') (A') (A') (A") (A") (A') (A') (A') (A') (A")
                 (A') (A") (A') (A') (A") (A') (A') (A") (A') (A')
                 (A") (A") (A') (A') (A") (A') (A') (A") (A") (A')
                 (A') (A") (A') (A") (A') (A') (A') (A") (A') (A')
                 (A") (A") (A') (A') (A") (A') (A') (A') (A') (A")
                 (A') (A') (A") (A') (A") (A') (A") (A') (A') (A')
                 (A") (A') (A') (A") (A") (A') (A') (A') (A") (A')
                 (A') (A') (A") (A") (A') (A") (A") (A') (A") (A')
                 (A") (A') (A") (A') (A') (A') (A") (A') (A") (A")
                 (A') (A") (A') (A") (A') (A") (A') (A') (A") (A")
                 (A") (A') (A") (A') (A') (A') (A") (A') (A") (A')
                 (A") (A') (A') (A') (A") (A") (A') (A') (A') (A")
                 (A") (A') (A') (A") (A') (A') (A") (A') (A') (A")
                 (A") (A') (A') (A") (A') (A') (A") (A') (A') (A")
                 (A") (A') (A') (A') (A") (A") (A') (A') (A") (A')
                 (A") (A') (A') (A") (A') (A') (A") (A') (A') (A')
                 (A") (A") (A') (A") (A') (A') (A') (A') (A')
 Initial guess <Sx>= 0.0000 <Sy>= 0.0000 <Sz>= 0.0000 <S**2>=-0.0000 S=-0.0000
 ExpMin= 1.03D-01 ExpMax= 8.24D+03 ExpMxC= 2.81D+02 IAcc=3 IRadAn=         5 AccDes= 0.00D+00
 Harris functional with IExCor=  419 and IRadAn=       5 diagonalized for initial guess.
 HarFok:  IExCor=  419 AccDes= 0.00D+00 IRadAn=         5 IDoV= 1 UseB2=F ITyADJ=14
 ICtDFT=  3500011 ScaDFX=  1.000000  1.000000  1.000000  1.000000
 FoFCou: FMM=F IPFlag=           0 FMFlag=      100000 FMFlg1=           0
         NFxFlg=           0 DoJE=T BraDBF=F KetDBF=T FulRan=T
         wScrn=  0.000000 ICntrl=       500 IOpCl=  0 I1Cent=   200000004 NGrid=           0
         NMat0=    1 NMatS0=      1 NMatT0=    0 NMatD0=    1 NMtDS0=    0 NMtDT0=    0
 Petite list used in FoFCou.
 Keep R1 and R2 ints in memory in symmetry-blocked form, NReq=329584006.
 Requested convergence on RMS density matrix=1.00D-08 within 128 cycles.
 Requested convergence on MAX density matrix=1.00D-06.
 Requested convergence on             energy=1.00D-06.
 No special actions if energy rises.
 Integral accuracy reduced to 1.0D-05 until final iterations.
 Initial convergence to 1.0D-05 achieved.  Increase integral accuracy.
 SCF Done:  E(UB2PLYPD3) =  -155.665357541     A.U. after    9 cycles
            NFock=  9  Conv=0.84D-08     -V/T= 2.0049
 <Sx>= 0.0000 <Sy>= 0.0000 <Sz>= 0.0000 <S**2>=-0.0000 S=-0.0000
 <L.S>=  0.00000000000    
 Annihilation of the first spin contaminant:
 S**2 before annihilation    -0.0000,   after     0.0000
 DoSCS=T DFT=T ScalE2(SS,OS)=  0.270000  0.270000
 ExpMin= 1.03D-01 ExpMax= 8.24D+03 ExpMxC= 2.81D+02 IAcc=3 IRadAn=         5 AccDes= 0.00D+00
 HarFok:  IExCor=  205 AccDes= 0.00D+00 IRadAn=         5 IDoV=-2 UseB2=F ITyADJ=14
 ICtDFT= 12500011 ScaDFX=  1.000000  1.000000  1.000000  1.000000
 Range of M.O.s used for correlation:     5   204
 NBasis=   204 NAE=    15 NBE=    15 NFC=     4 NFV=     0
 NROrb=    200 NOA=    11 NOB=    11 NVA=   189 NVB=   189

 **** Warning!!: The largest alpha MO coefficient is  0.45291038D+02


 **** Warning!!: The largest beta MO coefficient is  0.45291038D+02

 DoSCS=T DFT=T ScalE2(SS,OS)=  0.270000  0.270000
 Fully direct method using O(ONN) memory.
 JobTyp=2 Pass  1:  I=   5 to  15 NPSUse= 40 ParTrn=T ParDer=T DoDerP=T.
 JobTyp=3 Pass  1:  I=   5 to  15 NPSUse= 40 ParTrn=T ParDer=T DoDerP=T.
 Spin components of T(2) and E(2):
     alpha-alpha T2 =       0.4379909430D-01 E2=     -0.2516876429D-01
     alpha-beta  T2 =       0.2637046492D+00 E2=     -0.1659736392D+00
     beta-beta   T2 =       0.4379909430D-01 E2=     -0.2516876429D-01
 (S**2,0)=  0.00000D+00           (S**2,1)=  0.00000D+00
 E(PUHF)=      -0.15566535754D+03        E(PMP2)=      -0.15588166871D+03
 E2(B2PLYPD3) =    -0.2163111677D+00 E(B2PLYPD3) =    -0.15588166870912D+03
          IDoAtm=1111111111
          Differentiating once with respect to electric field.
                with respect to dipole field.
          Differentiating once with respect to nuclear coordinates.
 Keep R1 and R2 ints in memory in symmetry-blocked form, NReq=329585868.
          There are     1 degrees of freedom in the 1st order CPHF.  IDoFFX=0 NUNeed=     1.
 LinEq1:  Iter=  0 NonCon=     1 RMS=6.66D-04 Max=9.98D-03 NDo=     1
 AX will form     1 AO Fock derivatives at one time.
 LinEq1:  Iter=  1 NonCon=     1 RMS=2.56D-04 Max=2.82D-03 NDo=     1
 LinEq1:  Iter=  2 NonCon=     1 RMS=1.15D-04 Max=2.89D-03 NDo=     1
 LinEq1:  Iter=  3 NonCon=     1 RMS=6.60D-05 Max=9.85D-04 NDo=     1
 LinEq1:  Iter=  4 NonCon=     1 RMS=1.59D-05 Max=1.48D-04 NDo=     1
 LinEq1:  Iter=  5 NonCon=     1 RMS=5.70D-06 Max=6.35D-05 NDo=     1
 LinEq1:  Iter=  6 NonCon=     1 RMS=1.83D-06 Max=3.11D-05 NDo=     1
 LinEq1:  Iter=  7 NonCon=     1 RMS=5.48D-07 Max=1.08D-05 NDo=     1
 LinEq1:  Iter=  8 NonCon=     1 RMS=1.86D-07 Max=2.70D-06 NDo=     1
 LinEq1:  Iter=  9 NonCon=     1 RMS=5.81D-08 Max=7.47D-07 NDo=     1
 LinEq1:  Iter= 10 NonCon=     1 RMS=2.05D-08 Max=2.31D-07 NDo=     1
 LinEq1:  Iter= 11 NonCon=     1 RMS=4.54D-09 Max=5.07D-08 NDo=     1
 LinEq1:  Iter= 12 NonCon=     1 RMS=6.73D-10 Max=7.53D-09 NDo=     1
 LinEq1:  Iter= 13 NonCon=     1 RMS=1.43D-10 Max=1.44D-09 NDo=     1
 LinEq1:  Iter= 14 NonCon=     0 RMS=2.16D-11 Max=2.45D-10 NDo=     1
 Linear equations converged to 1.000D-10 1.000D-09 after    14 iterations.
 End of Minotr F.D. properties file   721 does not exist.
 End of Minotr F.D. properties file   722 does not exist.
 End of Minotr F.D. properties file   788 does not exist.
 Calling FoFJK, ICntrl=  10002127 FMM=F ISym2X=1 I1Cent= 0 IOpClX= 1 NMat=1 NMatS=1 NMatT=0.
 ***** Axes restored to original set *****
 -------------------------------------------------------------------
 Center     Atomic                   Forces (Hartrees/Bohr)
 Number     Number              X              Y              Z
 -------------------------------------------------------------------
      1        6          -0.000538457    0.000109334    0.000000000
      2        1           0.000224535   -0.000178522    0.000000000
      3        6          -0.000016706    0.000511174   -0.000000000
      4        6           0.000555208   -0.000703045   -0.000000000
      5        1          -0.000108967    0.000068202    0.000135803
      6        1          -0.000108967    0.000068202   -0.000135803
      7        6          -0.000083595    0.000059232    0.000000000
      8        1           0.000028347    0.000132863    0.000000000
      9        1           0.000024301   -0.000033720    0.000001331
     10        1           0.000024301   -0.000033720   -0.000001331
 -------------------------------------------------------------------
 Cartesian Forces:  Max     0.000703045 RMS     0.000227349

 GradGradGradGradGradGradGradGradGradGradGradGradGradGradGradGradGradGrad
 Berny optimization.
 Using GEDIIS/GDIIS optimizer.
 FormGI is forming the generalized inverse of G from B-inverse, IUseBI=4.
 Internal  Forces:  Max     0.000529404 RMS     0.000166275
 Search for a local minimum.
 Step number   2 out of a maximum of  100
 All quantities printed in internal units (Hartrees-Bohrs-Radians)
 Mixed Optimization -- En-DIIS/RFO-DIIS
 Update second derivatives using D2CorX and points    1    2
 DE= -1.32D-04 DEPred=-1.37D-04 R= 9.61D-01
 TightC=F SS=  1.41D+00  RLast= 2.33D-02 DXNew= 5.0454D-01 6.9791D-02
 Trust test= 9.61D-01 RLast= 2.33D-02 DXMaxT set to 3.00D-01
 ITU=  1  0
 Use linear search instead of GDIIS.
     Eigenvalues ---    0.00367   0.01283   0.01331   0.04767   0.04773
     Eigenvalues ---    0.05351   0.05581   0.05597   0.05993   0.15926
     Eigenvalues ---    0.16000   0.16000   0.16000   0.16064   0.22035
     Eigenvalues ---    0.29462   0.34676   0.34688   0.34945   0.34994
     Eigenvalues ---    0.34996   0.36721   0.38640   1.06632
 RFO step:  Lambda=-2.54644594D-05 EMin= 3.66549849D-03
 Quartic linear search produced a step of -0.03187.
 Iteration  1 RMS(Cart)=  0.01984590 RMS(Int)=  0.00023963
 Iteration  2 RMS(Cart)=  0.00041244 RMS(Int)=  0.00000035
 Iteration  3 RMS(Cart)=  0.00000005 RMS(Int)=  0.00000035
 ClnCor:  largest displacement from symmetrization is 8.68D-03 for atom     2.
 Variable       Old X    -DE/DX   Delta X   Delta X   Delta X     New X
                                 (Linear)    (Quad)   (Total)
    R1        2.00187   0.00027   0.00016   0.00007   0.00021   2.00208
    R2        2.27793  -0.00027  -0.00048   0.00161   0.00112   2.27905
    R3        2.75998  -0.00046   0.00002  -0.00129  -0.00127   2.75871
    R4        2.06128   0.00016   0.00002   0.00037   0.00190   2.06317
    R5        2.06128   0.00016   0.00002   0.00037   0.00190   2.06317
    R6        2.89571  -0.00009  -0.00013   0.00021   0.00008   2.89579
    R7        2.05722   0.00002   0.00001   0.00001   0.00002   2.05724
    R8        2.05576   0.00002   0.00003  -0.00007   0.00002   2.05578
    R9        2.05576   0.00002   0.00003  -0.00007   0.00002   2.05578
    A1        1.90069  -0.00001  -0.00005   0.00053   0.00213   1.90281
    A2        1.90069  -0.00002  -0.00005   0.00053   0.00213   1.90281
    A3        1.96348   0.00025  -0.00017   0.00190   0.00173   1.96521
    A4        1.85827   0.00007   0.00010  -0.00053  -0.00212   1.85615
    A5        1.91880  -0.00015   0.00009  -0.00127  -0.00201   1.91679
    A6        1.91880  -0.00015   0.00009  -0.00127  -0.00201   1.91679
    A7        1.92832  -0.00019  -0.00004  -0.00105  -0.00109   1.92723
    A8        1.93139   0.00003  -0.00007   0.00048  -0.00019   1.93120
    A9        1.93139   0.00003  -0.00007   0.00048  -0.00019   1.93120
   A10        1.89283   0.00008   0.00009   0.00013   0.00213   1.89496
   A11        1.89283   0.00008   0.00009   0.00013   0.00213   1.89496
   A12        1.88583  -0.00002   0.00001  -0.00016  -0.00274   1.88309
   A13        3.14828  -0.00017  -0.00003  -0.00326  -0.00288   3.14540
   A14        3.12668  -0.00053  -0.00027  -0.03901  -0.03704   3.08964
   A15        3.14655  -0.00004  -0.00002  -0.00082  -0.00234   3.14422
   A16        3.13315  -0.00018  -0.00015  -0.01351  -0.02005   3.11310
    D1        3.14159   0.00000   0.00000   0.00001   0.00000   3.14159
    D2       -1.04494  -0.00000   0.00004  -0.00020   0.00183  -1.04311
    D3        1.04494   0.00000  -0.00004   0.00022  -0.00183   1.04311
    D4        1.02015  -0.00005   0.00012  -0.00107  -0.00247   1.01768
    D5        3.11679  -0.00005   0.00015  -0.00128  -0.00064   3.11616
    D6       -1.07650  -0.00004   0.00008  -0.00085  -0.00430  -1.08080
    D7       -1.02015   0.00005  -0.00012   0.00108   0.00247  -1.01768
    D8        1.07650   0.00004  -0.00008   0.00087   0.00430   1.08080
    D9       -3.11679   0.00005  -0.00015   0.00129   0.00064  -3.11616
         Item               Value     Threshold  Converged?
 Maximum Force            0.000529     0.000450     NO 
 RMS     Force            0.000166     0.000300     YES
 Maximum Displacement     0.062984     0.001800     NO 
 RMS     Displacement     0.020430     0.001200     NO 
 Predicted change in Energy=-9.636185D-06
 GradGradGradGradGradGradGradGradGradGradGradGradGradGradGradGradGradGrad

                          Input orientation:                          
 ---------------------------------------------------------------------
 Center     Atomic      Atomic             Coordinates (Angstroms)
 Number     Number       Type             X           Y           Z
 ---------------------------------------------------------------------
      1          6           0        1.949488   -0.264914    0.000000
      2          1           0        2.933178   -0.658357    0.000000
      3          6           0        0.831579    0.187596    0.000000
      4          6           0       -0.550474    0.657780    0.000000
      5          1           0       -0.710502    1.292302    0.873936
      6          1           0       -0.710502    1.292302   -0.873936
      7          6           0       -1.563603   -0.491907    0.000000
      8          1           0       -2.580176   -0.102391    0.000000
      9          1           0       -1.432671   -1.118630   -0.879510
     10          1           0       -1.432671   -1.118630    0.879510
 ---------------------------------------------------------------------
                    Distance matrix (angstroms):
                    1          2          3          4          5
     1  C    0.000000
     2  H    1.059455   0.000000
     3  C    1.206021   2.265471   0.000000
     4  C    2.664804   3.723984   1.459844   0.000000
     5  H    3.203784   4.224363   2.088577   1.091783   0.000000
     6  H    3.203784   4.224363   2.088577   1.091783   1.747872
     7  C    3.520417   4.499861   2.489703   1.532387   2.162163
     8  H    4.532579   5.541315   3.424057   2.167383   2.490906
     9  H    3.597411   4.477279   2.758005   2.169664   3.067360
    10  H    3.597411   4.477279   2.758005   2.169664   2.516775
                    6          7          8          9         10
     6  H    0.000000
     7  C    2.162163   0.000000
     8  H    2.490906   1.088643   0.000000
     9  H    2.516775   1.087871   1.767215   0.000000
    10  H    3.067360   1.087871   1.767215   1.759020   0.000000
 Stoichiometry    C4H6
 Framework group  CS[SG(C4H2),X(H4)]
 Deg. of freedom    15
 Full point group                 CS      NOp   2
 Largest Abelian subgroup         CS      NOp   2
 Largest concise Abelian subgroup CS      NOp   2
                         Standard orientation:                         
 ---------------------------------------------------------------------
 Center     Atomic      Atomic             Coordinates (Angstroms)
 Number     Number       Type             X           Y           Z
 ---------------------------------------------------------------------
      1          6           0        0.683532    1.843002    0.000000
      2          1           0        1.280373    2.718344    0.000000
      3          6           0       -0.000000    0.849387    0.000000
      4          6           0       -0.757905   -0.398300    0.000000
      5          1           0       -1.412019   -0.417338    0.873936
      6          1           0       -1.412019   -0.417338   -0.873936
      7          6           0        0.145512   -1.636060    0.000000
      8          1           0       -0.454606   -2.544357    0.000000
      9          1           0        0.785719   -1.643743   -0.879510
     10          1           0        0.785719   -1.643743    0.879510
 ---------------------------------------------------------------------
 Rotational constants (GHZ):          26.9011019           4.5855564           4.1154547
 Standard basis: CC-pVTZ (5D, 7F)
 There are   148 symmetry adapted cartesian basis functions of A'  symmetry.
 There are    82 symmetry adapted cartesian basis functions of A"  symmetry.
 There are   128 symmetry adapted basis functions of A'  symmetry.
 There are    76 symmetry adapted basis functions of A"  symmetry.
   204 basis functions,   310 primitive gaussians,   230 cartesian basis functions
    15 alpha electrons       15 beta electrons
       nuclear repulsion energy       103.0379091449 Hartrees.
 NAtoms=   10 NActive=   10 NUniq=    8 SFac= 1.56D+00 NAtFMM=   60 NAOKFM=F Big=F
 Integral buffers will be    131072 words long.
 Raffenetti 2 integral format.
 Two-electron integral symmetry is turned on.
 Nuclear repulsion after empirical dispersion term =      103.0333488815 Hartrees.
 One-electron integrals computed using PRISM.
 NBasis=   204 RedAO= T EigKep=  4.70D-05  NBF=   128    76
 NBsUse=   204 1.00D-06 EigRej= -1.00D+00 NBFU=   128    76
 Initial guess from the checkpoint file:  "/localscratch/339542/Gau-19780.chk"
 B after Tr=     0.000000   -0.000000   -0.000000
         Rot=    0.999928   -0.000000   -0.000000    0.011960 Ang=   1.37 deg.
 Initial guess orbital symmetries:
 Alpha Orbitals:
       Occupied  (A') (A') (A') (A') (A') (A') (A') (A') (A') (A")
                 (A') (A') (A") (A') (A")
       Virtual   (A') (A") (A') (A') (A') (A") (A') (A") (A') (A')
                 (A') (A') (A") (A') (A") (A') (A') (A") (A') (A')
                 (A") (A') (A') (A") (A") (A') (A') (A') (A') (A")
                 (A') (A") (A') (A') (A") (A') (A') (A") (A') (A')
                 (A") (A") (A') (A') (A") (A') (A') (A") (A") (A')
                 (A') (A") (A') (A") (A') (A') (A') (A") (A') (A')
                 (A") (A") (A') (A') (A") (A') (A') (A') (A') (A")
                 (A') (A') (A") (A') (A") (A') (A") (A') (A') (A')
                 (A") (A') (A') (A") (A") (A') (A') (A') (A") (A')
                 (A') (A') (A") (A") (A') (A") (A") (A') (A") (A')
                 (A") (A') (A") (A') (A') (A') (A") (A') (A") (A")
                 (A') (A") (A') (A") (A') (A") (A') (A') (A") (A")
                 (A") (A') (A") (A') (A') (A') (A") (A') (A") (A')
                 (A") (A') (A') (A') (A") (A") (A') (A') (A') (A")
                 (A") (A') (A') (A") (A') (A') (A") (A') (A') (A")
                 (A") (A') (A') (A") (A') (A') (A") (A') (A') (A")
                 (A") (A') (A') (A') (A") (A") (A') (A') (A") (A')
                 (A") (A') (A') (A") (A') (A') (A") (A') (A') (A')
                 (A") (A") (A') (A") (A') (A') (A') (A') (A')
 Beta  Orbitals:
       Occupied  (A') (A') (A') (A') (A') (A') (A') (A') (A') (A")
                 (A') (A') (A") (A') (A")
       Virtual   (A') (A") (A') (A') (A') (A") (A') (A") (A') (A')
                 (A') (A') (A") (A') (A") (A') (A') (A") (A') (A')
                 (A") (A') (A') (A") (A") (A') (A') (A') (A') (A")
                 (A') (A") (A') (A') (A") (A') (A') (A") (A') (A')
                 (A") (A") (A') (A') (A") (A') (A') (A") (A") (A')
                 (A') (A") (A') (A") (A') (A') (A') (A") (A') (A')
                 (A") (A") (A') (A') (A") (A') (A') (A') (A') (A")
                 (A') (A') (A") (A') (A") (A') (A") (A') (A') (A')
                 (A") (A') (A') (A") (A") (A') (A') (A') (A") (A')
                 (A') (A') (A") (A") (A') (A") (A") (A') (A") (A')
                 (A") (A') (A") (A') (A') (A') (A") (A') (A") (A")
                 (A') (A") (A') (A") (A') (A") (A') (A') (A") (A")
                 (A") (A') (A") (A') (A') (A') (A") (A') (A") (A')
                 (A") (A') (A') (A') (A") (A") (A') (A') (A') (A")
                 (A") (A') (A') (A") (A') (A') (A") (A') (A') (A")
                 (A") (A') (A') (A") (A') (A') (A") (A') (A') (A")
                 (A") (A') (A') (A') (A") (A") (A') (A') (A") (A')
                 (A") (A') (A') (A") (A') (A') (A") (A') (A') (A')
                 (A") (A") (A') (A") (A') (A') (A') (A') (A')
 Initial guess <Sx>= 0.0000 <Sy>= 0.0000 <Sz>= 0.0000 <S**2>= 0.0000 S= 0.0000
 ExpMin= 1.03D-01 ExpMax= 8.24D+03 ExpMxC= 2.81D+02 IAcc=3 IRadAn=         5 AccDes= 0.00D+00
 Harris functional with IExCor=  419 and IRadAn=       5 diagonalized for initial guess.
 HarFok:  IExCor=  419 AccDes= 0.00D+00 IRadAn=         5 IDoV= 1 UseB2=F ITyADJ=14
 ICtDFT=  3500011 ScaDFX=  1.000000  1.000000  1.000000  1.000000
 FoFCou: FMM=F IPFlag=           0 FMFlag=      100000 FMFlg1=           0
         NFxFlg=           0 DoJE=T BraDBF=F KetDBF=T FulRan=T
         wScrn=  0.000000 ICntrl=       500 IOpCl=  0 I1Cent=   200000004 NGrid=           0
         NMat0=    1 NMatS0=      1 NMatT0=    0 NMatD0=    1 NMtDS0=    0 NMtDT0=    0
 Petite list used in FoFCou.
 Keep R1 and R2 ints in memory in symmetry-blocked form, NReq=329584006.
 Requested convergence on RMS density matrix=1.00D-08 within 128 cycles.
 Requested convergence on MAX density matrix=1.00D-06.
 Requested convergence on             energy=1.00D-06.
 No special actions if energy rises.
 Integral accuracy reduced to 1.0D-05 until final iterations.
 Initial convergence to 1.0D-05 achieved.  Increase integral accuracy.
 SCF Done:  E(UB2PLYPD3) =  -155.665243679     A.U. after    9 cycles
            NFock=  9  Conv=0.54D-08     -V/T= 2.0049
 <Sx>= 0.0000 <Sy>= 0.0000 <Sz>= 0.0000 <S**2>=-0.0000 S=-0.0000
 <L.S>=  0.00000000000    
 Annihilation of the first spin contaminant:
 S**2 before annihilation    -0.0000,   after    -0.0000
 DoSCS=T DFT=T ScalE2(SS,OS)=  0.270000  0.270000
 ExpMin= 1.03D-01 ExpMax= 8.24D+03 ExpMxC= 2.81D+02 IAcc=3 IRadAn=         5 AccDes= 0.00D+00
 HarFok:  IExCor=  205 AccDes= 0.00D+00 IRadAn=         5 IDoV=-2 UseB2=F ITyADJ=14
 ICtDFT= 12500011 ScaDFX=  1.000000  1.000000  1.000000  1.000000
 Range of M.O.s used for correlation:     5   204
 NBasis=   204 NAE=    15 NBE=    15 NFC=     4 NFV=     0
 NROrb=    200 NOA=    11 NOB=    11 NVA=   189 NVB=   189

 **** Warning!!: The largest alpha MO coefficient is  0.45420307D+02


 **** Warning!!: The largest beta MO coefficient is  0.45420307D+02

 DoSCS=T DFT=T ScalE2(SS,OS)=  0.270000  0.270000
 Fully direct method using O(ONN) memory.
 JobTyp=2 Pass  1:  I=   5 to  15 NPSUse= 40 ParTrn=T ParDer=T DoDerP=T.
 JobTyp=3 Pass  1:  I=   5 to  15 NPSUse= 40 ParTrn=T ParDer=T DoDerP=T.
 Spin components of T(2) and E(2):
     alpha-alpha T2 =       0.4384843447D-01 E2=     -0.2517987186D-01
     alpha-beta  T2 =       0.2639660927D+00 E2=     -0.1660190782D+00
     beta-beta   T2 =       0.4384843447D-01 E2=     -0.2517987186D-01
 (S**2,0)=  0.00000D+00           (S**2,1)=  0.00000D+00
 E(PUHF)=      -0.15566524368D+03        E(PMP2)=      -0.15588162250D+03
 E2(B2PLYPD3) =    -0.2163788219D+00 E(B2PLYPD3) =    -0.15588162250137D+03
          IDoAtm=1111111111
          Differentiating once with respect to electric field.
                with respect to dipole field.
          Differentiating once with respect to nuclear coordinates.
 Keep R1 and R2 ints in memory in symmetry-blocked form, NReq=329585868.
          There are     1 degrees of freedom in the 1st order CPHF.  IDoFFX=0 NUNeed=     1.
 LinEq1:  Iter=  0 NonCon=     1 RMS=6.66D-04 Max=9.98D-03 NDo=     1
 AX will form     1 AO Fock derivatives at one time.
 LinEq1:  Iter=  1 NonCon=     1 RMS=2.56D-04 Max=2.80D-03 NDo=     1
 LinEq1:  Iter=  2 NonCon=     1 RMS=1.15D-04 Max=2.90D-03 NDo=     1
 LinEq1:  Iter=  3 NonCon=     1 RMS=6.61D-05 Max=9.80D-04 NDo=     1
 LinEq1:  Iter=  4 NonCon=     1 RMS=1.61D-05 Max=1.60D-04 NDo=     1
 LinEq1:  Iter=  5 NonCon=     1 RMS=5.78D-06 Max=6.51D-05 NDo=     1
 LinEq1:  Iter=  6 NonCon=     1 RMS=1.94D-06 Max=3.55D-05 NDo=     1
 LinEq1:  Iter=  7 NonCon=     1 RMS=5.96D-07 Max=1.17D-05 NDo=     1
 LinEq1:  Iter=  8 NonCon=     1 RMS=1.96D-07 Max=2.54D-06 NDo=     1
 LinEq1:  Iter=  9 NonCon=     1 RMS=5.87D-08 Max=7.62D-07 NDo=     1
 LinEq1:  Iter= 10 NonCon=     1 RMS=2.08D-08 Max=2.30D-07 NDo=     1
 LinEq1:  Iter= 11 NonCon=     1 RMS=4.65D-09 Max=5.01D-08 NDo=     1
 LinEq1:  Iter= 12 NonCon=     1 RMS=6.92D-10 Max=7.65D-09 NDo=     1
 LinEq1:  Iter= 13 NonCon=     1 RMS=1.45D-10 Max=1.59D-09 NDo=     1
 LinEq1:  Iter= 14 NonCon=     0 RMS=2.15D-11 Max=2.81D-10 NDo=     1
 Linear equations converged to 1.000D-10 1.000D-09 after    14 iterations.
 End of Minotr F.D. properties file   721 does not exist.
 End of Minotr F.D. properties file   722 does not exist.
 End of Minotr F.D. properties file   788 does not exist.
 Calling FoFJK, ICntrl=  10002127 FMM=F ISym2X=1 I1Cent= 0 IOpClX= 1 NMat=1 NMatS=1 NMatT=0.
 ***** Axes restored to original set *****
 -------------------------------------------------------------------
 Center     Atomic                   Forces (Hartrees/Bohr)
 Number     Number              X              Y              Z
 -------------------------------------------------------------------
      1        6          -0.001268822    0.000812939    0.000000000
      2        1           0.000366811    0.000382076    0.000000000
      3        6           0.000238032   -0.002313081   -0.000000000
      4        6           0.000060361    0.001707359   -0.000000000
      5        1           0.000094728   -0.000218411   -0.000318715
      6        1           0.000094728   -0.000218411    0.000318715
      7        6           0.000596656   -0.000382958    0.000000000
      8        1           0.000070869    0.000012741   -0.000000000
      9        1          -0.000126681    0.000108873   -0.000141396
     10        1          -0.000126681    0.000108873    0.000141396
 -------------------------------------------------------------------
 Cartesian Forces:  Max     0.002313081 RMS     0.000627088

 GradGradGradGradGradGradGradGradGradGradGradGradGradGradGradGradGradGrad
 Berny optimization.
 Using GEDIIS/GDIIS optimizer.
 FormGI is forming the generalized inverse of G from B-inverse, IUseBI=4.
 Internal  Forces:  Max     0.002515898 RMS     0.000559019
 Search for a local minimum.
 Step number   3 out of a maximum of  100
 All quantities printed in internal units (Hartrees-Bohrs-Radians)
 Mixed Optimization -- En-DIIS/RFO-DIIS
 Swapping is turned off.
 Update second derivatives using D2CorX and points    1    2    3
 DE=  4.62D-05 DEPred=-9.64D-06 R=-4.80D+00
 Trust test=-4.80D+00 RLast= 4.36D-02 DXMaxT set to 1.50D-01
 ITU= -1  1  0
     Eigenvalues ---    0.00367   0.01248   0.04111   0.04502   0.04839
     Eigenvalues ---    0.05340   0.05598   0.05647   0.08451   0.14865
     Eigenvalues ---    0.16000   0.16000   0.16002   0.16078   0.22935
     Eigenvalues ---    0.29148   0.32380   0.34676   0.34949   0.34994
     Eigenvalues ---    0.34998   0.36196   0.38638   0.75609
 En-DIIS/RFO-DIIS/Sim-DIIS IScMMF=       -3 using points:     3    2
 RFO step:  Lambda=-9.89345589D-05.
 DidBck=T Rises=T En-DIIS coefs:    0.34232    0.65768
 Iteration  1 RMS(Cart)=  0.01721728 RMS(Int)=  0.00017442
 Iteration  2 RMS(Cart)=  0.00029211 RMS(Int)=  0.00000064
 Iteration  3 RMS(Cart)=  0.00000005 RMS(Int)=  0.00000064
 ClnCor:  largest displacement from symmetrization is 6.03D-05 for atom     1.
 Variable       Old X    -DE/DX   Delta X   Delta X   Delta X     New X
                                 (Linear)    (Quad)   (Total)
    R1        2.00208   0.00020  -0.00014   0.00060   0.00046   2.00254
    R2        2.27905  -0.00128  -0.00073  -0.00053  -0.00126   2.27779
    R3        2.75871  -0.00027   0.00084  -0.00091  -0.00007   2.75864
    R4        2.06317  -0.00040  -0.00125  -0.00014  -0.00138   2.06179
    R5        2.06317  -0.00040  -0.00125  -0.00014  -0.00138   2.06179
    R6        2.89579  -0.00016  -0.00005  -0.00033  -0.00038   2.89542
    R7        2.05724  -0.00006  -0.00001   0.00002   0.00001   2.05724
    R8        2.05578   0.00003  -0.00001   0.00006   0.00004   2.05582
    R9        2.05578   0.00004  -0.00001   0.00006   0.00004   2.05582
    A1        1.90281   0.00017  -0.00140  -0.00002  -0.00141   1.90141
    A2        1.90281   0.00017  -0.00140  -0.00002  -0.00141   1.90141
    A3        1.96521  -0.00058  -0.00114   0.00030  -0.00084   1.96437
    A4        1.85615  -0.00004   0.00139   0.00031   0.00168   1.85783
    A5        1.91679   0.00015   0.00132  -0.00028   0.00104   1.91783
    A6        1.91679   0.00015   0.00132  -0.00028   0.00104   1.91783
    A7        1.92723  -0.00011   0.00072  -0.00104  -0.00032   1.92691
    A8        1.93120   0.00003   0.00012   0.00030   0.00042   1.93162
[...]
                       Q            Log10(Q)             Ln(Q)
 Total Bot       0.202494D-26        -26.693588        -61.464258
 Total V=0       0.226029D+13         12.354164         28.446514
 Vib (Bot)       0.338010D-38        -38.471070        -88.582913
 Vib (Bot)    1  0.100030D+01          0.000132          0.000303
 Vib (Bot)    2  0.884289D+00         -0.053406         -0.122972
 Vib (Bot)    3  0.514037D+00         -0.289006         -0.665460
 Vib (Bot)    4  0.311163D+00         -0.507012         -1.167439
 Vib (V=0)       0.377296D+01          0.576682          1.327859
 Vib (V=0)    1  0.161831D+01          0.209060          0.481379
 Vib (V=0)    2  0.151586D+01          0.180658          0.415981
 Vib (V=0)    3  0.121710D+01          0.085327          0.196472
 Vib (V=0)    4  0.108892D+01          0.036994          0.085183
 Electronic      0.100000D+01          0.000000          0.000000
 Translational   0.156175D+08          7.193611         16.563901
 Rotational      0.383594D+05          4.583872         10.554754
 ***** Axes restored to original set *****
 -------------------------------------------------------------------
 Center     Atomic                   Forces (Hartrees/Bohr)
 Number     Number              X              Y              Z
 -------------------------------------------------------------------
      1        6          -0.000075755    0.000026824    0.000000000
      2        1          -0.000007235    0.000006122    0.000000000
      3        6           0.000006495    0.000014257   -0.000000000
      4        6           0.000181507   -0.000058893   -0.000000000
      5        1          -0.000028414    0.000010834    0.000008332
      6        1          -0.000028414    0.000010834   -0.000008332
      7        6          -0.000040637   -0.000023331   -0.000000000
      8        1          -0.000000732    0.000016972   -0.000000000
      9        1          -0.000003408   -0.000001810    0.000003830
     10        1          -0.000003408   -0.000001810   -0.000003830
 -------------------------------------------------------------------
 Cartesian Forces:  Max     0.000181507 RMS     0.000039891
 FormGI is forming the generalized inverse of G from B-inverse, IUseBI=4.

 GradGradGradGradGradGradGradGradGradGradGradGradGradGradGradGradGradGrad
 Berny optimization.
 Internal  Forces:  Max     0.000089294 RMS     0.000027985
 Search for a local minimum.
 Step number   1 out of a maximum of    2
 All quantities printed in internal units (Hartrees-Bohrs-Radians)
 Second derivative matrix not updated -- analytic derivatives used.
 ITU=  0
     Eigenvalues ---    0.00257   0.01547   0.03922   0.04590   0.04595
     Eigenvalues ---    0.04739   0.05037   0.06100   0.09122   0.12084
     Eigenvalues ---    0.12773   0.12794   0.14391   0.18017   0.20088
     Eigenvalues ---    0.30324   0.32994   0.33156   0.34149   0.34229
     Eigenvalues ---    0.34988   0.35909   0.41679   1.05015
 Angle between quadratic step and forces=  45.96 degrees.
 Linear search not attempted -- first point.
 Iteration  1 RMS(Cart)=  0.00047189 RMS(Int)=  0.00000012
 Iteration  2 RMS(Cart)=  0.00000013 RMS(Int)=  0.00000004
 ClnCor:  largest displacement from symmetrization is 5.41D-08 for atom     2.
 Variable       Old X    -DE/DX   Delta X   Delta X   Delta X     New X
                                 (Linear)    (Quad)   (Total)
    R1        2.00254  -0.00001   0.00000  -0.00002  -0.00002   2.00252
    R2        2.27779  -0.00009   0.00000  -0.00008  -0.00008   2.27770
    R3        2.75864  -0.00009   0.00000  -0.00036  -0.00036   2.75828
    R4        2.06179   0.00002   0.00000   0.00007   0.00007   2.06186
    R5        2.06179   0.00002   0.00000   0.00007   0.00007   2.06186
    R6        2.89542   0.00004   0.00000   0.00018   0.00018   2.89560
    R7        2.05724   0.00001   0.00000   0.00001   0.00001   2.05726
    R8        2.05582  -0.00000   0.00000  -0.00001  -0.00001   2.05581
    R9        2.05582  -0.00000   0.00000  -0.00001  -0.00001   2.05581
    A1        1.90141  -0.00000   0.00000   0.00019   0.00019   1.90159
    A2        1.90141  -0.00000   0.00000   0.00019   0.00019   1.90159
    A3        1.96437   0.00006   0.00000   0.00049   0.00049   1.96486
    A4        1.85783   0.00001   0.00000  -0.00021  -0.00021   1.85762
    A5        1.91783  -0.00003   0.00000  -0.00034  -0.00034   1.91749
    A6        1.91783  -0.00003   0.00000  -0.00034  -0.00034   1.91749
    A7        1.92691  -0.00003   0.00000  -0.00030  -0.00030   1.92661
    A8        1.93162   0.00001   0.00000   0.00010   0.00010   1.93172
    A9        1.93162   0.00001   0.00000   0.00010   0.00010   1.93172
   A10        1.89341   0.00001   0.00000   0.00004   0.00004   1.89345
   A11        1.89341   0.00001   0.00000   0.00004   0.00004   1.89345
   A12        1.88566  -0.00001   0.00000   0.00002   0.00002   1.88568
   A13        3.14814   0.00001   0.00000   0.00007   0.00007   3.14821
   A14        3.12001   0.00001   0.00000   0.00016   0.00016   3.12017
   A15        3.14638   0.00000   0.00000   0.00005   0.00005   3.14644
   A16        3.12944   0.00000   0.00000   0.00008   0.00008   3.12953
    D1        3.14159  -0.00000   0.00000   0.00000   0.00000   3.14159
    D2       -1.04499  -0.00000   0.00000  -0.00008  -0.00008  -1.04507
    D3        1.04499   0.00000   0.00000   0.00008   0.00008   1.04507
    D4        1.01931  -0.00002   0.00000  -0.00033  -0.00033   1.01898
    D5        3.11591  -0.00002   0.00000  -0.00040  -0.00040   3.11550
    D6       -1.07729  -0.00001   0.00000  -0.00025  -0.00025  -1.07755
    D7       -1.01931   0.00002   0.00000   0.00033   0.00033  -1.01898
    D8        1.07729   0.00001   0.00000   0.00025   0.00025   1.07755
    D9       -3.11591   0.00002   0.00000   0.00040   0.00040  -3.11550
         Item               Value     Threshold  Converged?
 Maximum Force            0.000089     0.000450     YES
 RMS     Force            0.000028     0.000300     YES
 Maximum Displacement     0.001191     0.001800     YES
 RMS     Displacement     0.000472     0.001200     YES
 Predicted change in Energy=-7.160894D-08
 Optimization completed.
    -- Stationary point found.
                           ----------------------------
                           !   Optimized Parameters   !
                           ! (Angstroms and Degrees)  !
 --------------------------                            --------------------------
 ! Name  Definition              Value          Derivative Info.                !
 --------------------------------------------------------------------------------
 ! R1    R(1,2)                  1.0597         -DE/DX =    0.0                 !
 ! R2    R(1,3)                  1.2054         -DE/DX =   -0.0001              !
 ! R3    R(3,4)                  1.4598         -DE/DX =   -0.0001              !
 ! R4    R(4,5)                  1.0911         -DE/DX =    0.0                 !
 ! R5    R(4,6)                  1.0911         -DE/DX =    0.0                 !
 ! R6    R(4,7)                  1.5322         -DE/DX =    0.0                 !
 ! R7    R(7,8)                  1.0886         -DE/DX =    0.0                 !
 ! R8    R(7,9)                  1.0879         -DE/DX =    0.0                 !
 ! R9    R(7,10)                 1.0879         -DE/DX =    0.0                 !
 ! A1    A(3,4,5)              108.9425         -DE/DX =    0.0                 !
 ! A2    A(3,4,6)              108.9425         -DE/DX =    0.0                 !
 ! A3    A(3,4,7)              112.5504         -DE/DX =    0.0001              !
 ! A4    A(5,4,6)              106.4457         -DE/DX =    0.0                 !
 ! A5    A(5,4,7)              109.8834         -DE/DX =    0.0                 !
 ! A6    A(6,4,7)              109.8834         -DE/DX =    0.0                 !
 ! A7    A(4,7,8)              110.4037         -DE/DX =    0.0                 !
 ! A8    A(4,7,9)              110.6739         -DE/DX =    0.0                 !
 ! A9    A(4,7,10)             110.6739         -DE/DX =    0.0                 !
 ! A10   A(8,7,9)              108.4841         -DE/DX =    0.0                 !
 ! A11   A(8,7,10)             108.4841         -DE/DX =    0.0                 !
 ! A12   A(9,7,10)             108.0404         -DE/DX =    0.0                 !
 ! A13   L(2,1,3,9,-1)         180.3749         -DE/DX =    0.0                 !
 ! A14   L(1,3,4,9,-1)         178.7636         -DE/DX =    0.0                 !
 ! A15   L(2,1,3,9,-2)         180.2745         -DE/DX =    0.0                 !
 ! A16   L(1,3,4,9,-2)         179.304          -DE/DX =    0.0                 !
 ! D1    D(3,4,7,8)            180.0            -DE/DX =    0.0                 !
 ! D2    D(3,4,7,9)            -59.8737         -DE/DX =    0.0                 !
 ! D3    D(3,4,7,10)            59.8737         -DE/DX =    0.0                 !
 ! D4    D(5,4,7,8)             58.402          -DE/DX =    0.0                 !
 ! D5    D(5,4,7,9)            178.5284         -DE/DX =    0.0                 !
 ! D6    D(5,4,7,10)           -61.7243         -DE/DX =    0.0                 !
 ! D7    D(6,4,7,8)            -58.402          -DE/DX =    0.0                 !
 ! D8    D(6,4,7,9)             61.7243         -DE/DX =    0.0                 !
 ! D9    D(6,4,7,10)          -178.5284         -DE/DX =    0.0                 !
 --------------------------------------------------------------------------------
 GradGradGradGradGradGradGradGradGradGradGradGradGradGradGradGradGradGrad


 ----------------------------------------------------------------------

 Electric dipole moment (input orientation):
 (Debye = 10**-18 statcoulomb cm , SI units = C m)
                  (au)            (Debye)         (10**-30 SI)
   Tot        0.303008D+00      0.770169D+00      0.256901D+01
   x         -0.295603D+00     -0.751349D+00     -0.250623D+01
   y          0.665758D-01      0.169219D+00      0.564453D+00
   z          0.000000D+00      0.000000D+00      0.000000D+00

 Dipole polarizability, Alpha (input orientation).
 (esu units = cm**3 , SI units = C**2 m**2 J**-1)
 Alpha(0;0):
               (au)            (10**-24 esu)      (10**-40 SI)
   iso        0.443661D+02      0.657438D+01      0.731498D+01
   aniso      0.262142D+02      0.388454D+01      0.432213D+01
   xx         0.606074D+02      0.898108D+01      0.999280D+01
   yx        -0.514549D+01     -0.762483D+00     -0.848376D+00
   yy         0.384250D+02      0.569400D+01      0.633543D+01
   zx         0.000000D+00      0.000000D+00      0.000000D+00
   zy         0.000000D+00      0.000000D+00      0.000000D+00
   zz         0.340659D+02      0.504805D+01      0.561671D+01

 ----------------------------------------------------------------------

 Dipole orientation:
     6          0.07252150          0.32200264         -3.71520543
     1          0.01413532          0.06276200         -5.70003590
     6          0.14247865          0.63261961         -1.45978196
     6          0.21301456          0.94580630          1.28011215
     1          2.06754687          1.66392654          1.82415816
     1         -1.15460700          2.38962002          1.82415816
     6         -0.34213265         -1.51910450          2.69413377
     1         -0.27275139         -1.21104459          4.72699821
     1         -2.20784640         -2.23140844          2.20615595
     1          1.03808419         -2.96245692          2.20615595

 Electric dipole moment (dipole orientation):
 (Debye = 10**-18 statcoulomb cm , SI units = C m)
                  (au)            (Debye)         (10**-30 SI)
   Tot        0.303008D+00      0.770169D+00      0.256901D+01
   x          0.000000D+00      0.000000D+00      0.000000D+00
   y          0.000000D+00      0.000000D+00      0.000000D+00
   z          0.303008D+00      0.770169D+00      0.256901D+01

 Dipole polarizability, Alpha (dipole orientation).
 (esu units = cm**3 , SI units = C**2 m**2 J**-1)
 Alpha(0;0):
               (au)            (10**-24 esu)      (10**-40 SI)
   iso        0.443661D+02      0.657438D+01      0.731498D+01
   aniso      0.262142D+02      0.388454D+01      0.432213D+01
   xx         0.342216D+02      0.507111D+01      0.564237D+01
   yx         0.691077D+00      0.102407D+00      0.113943D+00
   yy         0.371344D+02      0.550275D+01      0.612263D+01
   zx        -0.232997D-01     -0.345267D-02     -0.384161D-02
   zy        -0.103453D+00     -0.153302D-01     -0.170571D-01
   zz         0.617423D+02      0.914927D+01      0.101799D+02

 ----------------------------------------------------------------------
 1\1\GINC-N68\Freq\UB2PLYPD3-FC\CC-pVTZ\C4H6\ROOT\31-May-2019\0\\#N Geo
 m=AllCheck Guess=TCheck SCRF=Check GenChk UB2PLYPD3(FC)/CC-pVTZ Freq\\
 Title Card Required\\0,1\C,1.9563370643,-0.2615665633,0.0000000333\H,2
 .9501014525,-0.6295249538,0.0000000333\C,0.8290031885,0.1650405776,0.0
 000000333\C,-0.5481305113,0.6493364434,0.0000000333\H,-0.700161113,1.2
 84615189,0.8739000548\H,-0.700161113,1.284615189,-0.8738999881\C,-1.57
 18849256,-0.4906313773,0.0000000333\H,-2.5846283181,-0.0912540794,0.00
 00000333\H,-1.4484252253,-1.1177301546,-0.8803486168\H,-1.4484252253,-
 1.1177301546,0.8803486835\\Version=ES64L-G16RevB.01\State=1-A'\HF=-155
 .6653592\MP2=-155.881672\PUHF=-155.6653592\PMP2-0=-155.881672\S2=0.\S2
 -1=0.\S2A=0.\RMSD=6.990e-10\RMSF=3.989e-05\ZeroPoint=0.0848924\Thermal
 =0.0899082\Dipole=-0.2956033,0.0665758,0.\DipoleDeriv=-0.4827902,0.044
 6207,0.,0.0894058,-0.2675405,0.,0.,0.,-0.2552814,0.2074206,0.0066865,0
 .,0.0016232,0.210941,0.,0.,0.,0.2123386,0.1622297,-0.1348399,0.,-0.157
 232,-0.1166934,0.,0.,0.,-0.1310877,0.1779553,0.0038025,0.,-0.0290688,0
 .1512676,0.,0.,0.,0.1784888,-0.0351734,0.0195504,0.0096181,0.0141493,-
 0.0096635,-0.0721439,0.0256724,-0.0995068,-0.0280373,-0.0351734,0.0195
 504,-0.0096181,0.0141493,-0.0096635,0.0721439,-0.0256724,0.0995068,-0.
 0280373,0.0837729,-0.0137401,0.,0.0706605,0.058173,0.,0.,0.,0.1024975,
 -0.1761714,0.0406332,0.,0.0543812,0.0174925,0.,0.,0.,0.0724167,0.04896
 5,0.0068682,0.0399405,-0.0290342,-0.0171565,-0.0721916,0.0000713,-0.09
 41871,-0.0616489,0.048965,0.0068682,-0.0399405,-0.0290342,-0.0171565,0
 .0721916,-0.0000713,0.0941871,-0.0616489\Polar=60.6073585,-5.1454879,3
 8.4249962,0.,0.,34.0659131\PG=CS [SG(C4H2),X(H4)]\NImag=0\\1.30475471,
 -0.47261769,0.22015413,0.,0.,0.04245333,-0.37566561,0.13194262,0.,0.36
 818815,0.13119915,-0.06870364,0.,-0.13140550,0.06222020,0.,0.,-0.01960
 174,0.,0.,0.01334004,-0.92591935,0.33719084,0.,0.00618128,-0.00131710,
 0.,1.22651910,0.33631713,-0.15515840,0.,-0.00234450,0.00101593,0.,-0.4
 1884104,0.25072659,0.,0.,-0.02869216,0.,0.,0.00027385,0.,0.,0.08997992
 ,-0.00091727,0.00269600,0.,0.00112282,0.00132701,0.,-0.24840196,0.0699
 2571,0.,0.48452455,0.00395912,0.00326166,0.,0.00184786,0.00529408,0.,0
 .06784619,-0.08992093,0.,-0.04280081,0.50698824,0.,0.,0.00489275,0.,0.
 ,0.00615468,0.,0.,-0.06728521,0.,0.,0.56812763,-0.00145055,0.00003031,
 -0.00123702,-0.00015834,-0.00058040,-0.00111018,-0.01161550,0.02112641
 ,0.02791452,-0.05017353,0.02250977,0.02975378,0.06178037,-0.00030088,0
 .00066047,0.00006061,0.00012608,0.00025351,0.00031291,0.00663652,-0.00
 859200,-0.00850014,0.02066593,-0.13061478,-0.11942423,-0.02297664,0.14
 414648,-0.00146967,0.00029928,0.00014051,-0.00004261,-0.00012936,-0.00
 007263,0.00375751,0.00109285,0.00248015,0.02773597,-0.11998594,-0.2178
 5134,-0.03251396,0.13218737,0.23400882,-0.00145055,0.00003031,0.001237
 02,-0.00015834,-0.00058040,0.00111018,-0.01161550,0.02112641,-0.027914
 52,-0.05017353,0.02250977,-0.02975378,0.00049477,-0.00328269,0.0037692
 4,0.06178037,-0.00030088,0.00066047,-0.00006061,0.00012608,0.00025351,
 -0.00031291,0.00663652,-0.00859200,0.00850014,0.02066593,-0.13061478,0
 .11942423,-0.00328269,0.01138179,-0.01502715,-0.02297664,0.14414648,0.
 00146967,-0.00029928,0.00014051,0.00004261,0.00012936,-0.00007263,-0.0
 0375751,-0.00109285,0.00248015,-0.02773597,0.11998594,-0.21785134,-0.0
 0376924,0.01502715,-0.02216881,0.03251396,-0.13218737,0.23400882,0.001
 43276,-0.00031699,0.,0.00041414,0.00126842,0.,-0.03688941,-0.02216398,
 0.,-0.11876720,-0.05579366,0.,0.00259965,0.00165678,-0.00043261,0.0025
 9965,0.00165678,0.00043261,0.52925244,0.00403248,-0.00258558,0.,-0.000
 34722,-0.00047130,0.,0.00189591,0.01321646,0.,-0.05114150,-0.14159573,
 0.,-0.01462632,-0.01597178,0.00115131,-0.01462632,-0.01597178,-0.00115
 131,-0.06044771,0.51785895,0.,0.,0.00046857,0.,0.,0.00008253,0.,0.,-0.
 00073562,0.,0.,-0.07815111,-0.01950287,-0.02068538,0.00132712,0.019502
 87,0.02068538,0.00132712,0.,0.,0.58009404,-0.00035519,0.00007922,0.,0.
 00016725,0.00016620,0.,-0.00285140,-0.00417932,0.,-0.01894283,0.008825
 74,0.,0.00068727,0.00031305,-0.00055763,0.00068727,0.00031305,0.000557
 63,-0.27614994,0.09316448,0.,0.30176491,-0.00124175,0.00097789,0.,0.00
 008093,0.00022954,0.,-0.00321656,-0.00408187,0.,-0.02580067,0.00899455
 ,0.,0.00089853,0.00125797,-0.00018807,0.00089853,0.00125797,0.00018807
 ,0.09557156,-0.08703598,0.,-0.10046143,0.09274794,0.,0.,0.00017992,0.,
 0.,-0.00006049,0.,0.,0.00102091,0.,0.,-0.00105354,-0.00025218,0.000228
 59,-0.00004533,0.00025218,-0.00022859,-0.00004533,0.,0.,-0.04922496,0.
 ,0.,0.04703423,-0.00021448,0.00048269,0.00030551,-0.00004567,-0.000038
 69,0.00000684,0.00229637,-0.00048341,-0.00097037,0.00086448,-0.0144519
 8,-0.01981558,-0.00292752,-0.00389981,0.00000771,0.00076338,0.00106168
 ,0.00025393,-0.05224605,0.02104809,0.02823048,-0.00250366,0.01663543,0
 .02570975,0.05441627,-0.00052335,0.00036650,0.00018329,-0.00001317,-0.
 00004592,-0.00003097,0.00158436,0.00069311,0.00030363,0.00223120,-0.01
 589616,-0.02084089,-0.00401612,-0.00305788,0.00066138,0.00091716,0.000
 53621,0.00006168,0.01928441,-0.13372163,-0.12334680,0.00088951,-0.0071
 7401,-0.00929875,-0.01759575,0.14634733,-0.00019076,0.00024054,0.00000
 916,-0.00001393,-0.00002202,-0.00002181,-0.00014408,0.00010964,0.00023
 900,0.00001368,0.00146431,0.00150873,0.00030214,0.00059624,0.00145242,
 -0.00041503,-0.00019687,0.00072908,0.02648402,-0.12472006,-0.22759385,
 -0.00003064,0.00176986,0.00109730,-0.02986684,0.13653290,0.24345261,-0
 .00021448,0.00048269,-0.00030551,-0.00004567,-0.00003869,-0.00000684,0
 .00229637,-0.00048341,0.00097037,0.00086448,-0.01445198,0.01981558,0.0
 0076338,0.00106168,-0.00025393,-0.00292752,-0.00389981,-0.00000771,-0.
 05224605,0.02104809,-0.02823048,-0.00250366,0.01663543,-0.02570975,-0.
 00040312,-0.00275826,0.00386144,0.05441627,-0.00052335,0.00036650,-0.0
 0018329,-0.00001317,-0.00004592,0.00003097,0.00158436,0.00069311,-0.00
 030363,0.00223120,-0.01589616,0.02084089,0.00091716,0.00053621,-0.0000
 6168,-0.00401612,-0.00305788,-0.00066138,0.01928441,-0.13372163,0.1233
 4680,0.00088951,-0.00717401,0.00929875,-0.00275826,0.01195244,-0.01577
 454,-0.01759575,0.14634733,0.00019076,-0.00024054,0.00000916,0.0000139
 3,0.00002202,-0.00002181,0.00014408,-0.00010964,0.00023900,-0.00001368
 ,-0.00146431,0.00150873,0.00041503,0.00019687,0.00072908,-0.00030214,-
 0.00059624,0.00145242,-0.02648402,0.12472006,-0.22759385,0.00003064,-0
 .00176986,0.00109730,-0.00386144,0.01577454,-0.02087265,0.02986684,-0.
 13653290,0.24345261\\0.00007575,-0.00002682,0.,0.00000723,-0.00000612,
 0.,-0.00000649,-0.00001426,0.,-0.00018151,0.00005889,0.,0.00002841,-0.
 00001083,-0.00000833,0.00002841,-0.00001083,0.00000833,0.00004064,0.00
 002333,0.,0.00000073,-0.00001697,0.,0.00000341,0.00000181,-0.00000383,
 0.00000341,0.00000181,0.00000383\\\@


 EVERYTHING'S GOT A MORAL, IF ONLY YOU CAN FIND IT.

                                    -- LEWIS CARROL, ALICE IN WONDERLAND
 Job cpu time:       0 days  5 hours 22 minutes 31.7 seconds.
 Elapsed time:       0 days  0 hours  8 minutes 12.6 seconds.
 File lengths (MBytes):  RWF=  11253 Int=      0 D2E=      0 Chk=      8 Scr=      1
 Normal termination of Gaussian 16 at Fri May 31 17:32:13 2019.
