 Entering Gaussian System, Link 0=g16
 Initial command:
 /ichec/packages/gaussian/16b01/l1.exe "/localscratch/339542/Gau-60916.inp" -scrdir="/localscratch/339542/"
 Entering Link 1 = /ichec/packages/gaussian/16b01/l1.exe PID=     60928.
  
 Copyright (c) 1988-2017, Gaussian, Inc.  All Rights Reserved.
  
 This is part of the Gaussian(R) 16 program.  It is based on
 the Gaussian(R) 09 system (copyright 2009, Gaussian, Inc.),
 the Gaussian(R) 03 system (copyright 2003, Gaussian, Inc.),
 the Gaussian(R) 98 system (copyright 1998, Gaussian, Inc.),
 the Gaussian(R) 94 system (copyright 1995, Gaussian, Inc.),
 the Gaussian 92(TM) system (copyright 1992, Gaussian, Inc.),
 the Gaussian 90(TM) system (copyright 1990, Gaussian, Inc.),
 the Gaussian 88(TM) system (copyright 1988, Gaussian, Inc.),
 the Gaussian 86(TM) system (copyright 1986, Carnegie Mellon
 University), and the Gaussian 82(TM) system (copyright 1983,
 Carnegie Mellon University). Gaussian is a federally registered
 trademark of Gaussian, Inc.
  
 This software contains proprietary and confidential information,
 including trade secrets, belonging to Gaussian, Inc.
  
 This software is provided under written license and may be
 used, copied, transmitted, or stored only in accord with that
 written license.
  
 The following legend is applicable only to US Government
 contracts under FAR:
  
                    RESTRICTED RIGHTS LEGEND
  
 Use, reproduction and disclosure by the US Government is
 subject to restrictions as set forth in subparagraphs (a)
 and (c) of the Commercial Computer Software - Restricted
 Rights clause in FAR 52.227-19.
  
 Gaussian, Inc.
 340 Quinnipiac St., Bldg. 40, Wallingford CT 06492
  
  
 ---------------------------------------------------------------
 Warning -- This program may not be used in any manner that
 competes with the business of Gaussian, Inc. or will provide
 assistance to any competitor of Gaussian, Inc.  The licensee
 of this program is prohibited from giving any competitor of
 Gaussian, Inc. access to this program.  By using this program,
 the user acknowledges that Gaussian, Inc. is engaged in the
 business of creating and licensing software in the field of
 computational chemistry and represents and warrants to the
 licensee that it is not a competitor of Gaussian, Inc. and that
 it will not use this program in any manner prohibited above.
 ---------------------------------------------------------------
  

 Cite this work as:
 Gaussian 16, Revision B.01,
 M. J. Frisch, G. W. Trucks, H. B. Schlegel, G. E. Scuseria, 
 M. A. Robb, J. R. Cheeseman, G. Scalmani, V. Barone, 
 G. A. Petersson, H. Nakatsuji, X. Li, M. Caricato, A. V. Marenich, 
 J. Bloino, B. G. Janesko, R. Gomperts, B. Mennucci, H. P. Hratchian, 
 J. V. Ortiz, A. F. Izmaylov, J. L. Sonnenberg, D. Williams-Young, 
 F. Ding, F. Lipparini, F. Egidi, J. Goings, B. Peng, A. Petrone, 
 T. Henderson, D. Ranasinghe, V. G. Zakrzewski, J. Gao, N. Rega, 
 G. Zheng, W. Liang, M. Hada, M. Ehara, K. Toyota, R. Fukuda, 
 J. Hasegawa, M. Ishida, T. Nakajima, Y. Honda, O. Kitao, H. Nakai, 
 T. Vreven, K. Throssell, J. A. Montgomery, Jr., J. E. Peralta, 
 F. Ogliaro, M. J. Bearpark, J. J. Heyd, E. N. Brothers, K. N. Kudin, 
 V. N. Staroverov, T. A. Keith, R. Kobayashi, J. Normand, 
 K. Raghavachari, A. P. Rendell, J. C. Burant, S. S. Iyengar, 
 J. Tomasi, M. Cossi, J. M. Millam, M. Klene, C. Adamo, R. Cammi, 
 J. W. Ochterski, R. L. Martin, K. Morokuma, O. Farkas, 
 J. B. Foresman, and D. J. Fox, Gaussian, Inc., Wallingford CT, 2016.
 
 ******************************************
 Gaussian 16:  ES64L-G16RevB.01 20-Dec-2017
                31-May-2019 
 ******************************************
 %mem=80GB
 %nproc=40
 Will use up to   40 processors via shared memory.
 -----------------------------------------------
 # opt=maxcyc=500 freq=noraman uB2PLYPD3/cc-pvtz
 -----------------------------------------------
 1/6=500,18=20,19=15,38=1/1,3;
 2/9=110,12=2,17=6,18=5,40=1/2;
 3/5=16,6=1,11=2,25=1,30=1,71=1,74=-60,116=2/1,2,3;
 4//1;
 5/5=2,38=5/2;
 8/6=4,10=1/1;
 9/15=2,16=-3/6;
 10/5=1/2;
 6/7=2,8=2,9=2,10=2/1;
 7/12=2/1,2,3,16;
 1/6=500,18=20,19=15/3(2);
 2/9=110/2;
 99//99;
 2/9=110/2;
 3/5=16,6=1,11=2,25=1,30=1,71=1,74=-60,116=2/1,2,3;
 4/5=5,16=3,69=1/1;
 5/5=2,38=5/2;
 8/6=4,10=1/1;
 9/15=2,16=-3/6;
 10/5=1/2;
 7/12=2/1,2,3,16;
 1/6=500,18=20,19=15/3(-8);
 2/9=110/2;
 6/7=2,8=2,9=2,10=2/1;
 99/9=10/99;
 -------------------
 Title Card Required
 -------------------
 Symbolic Z-matrix:
 Charge =  0 Multiplicity = 2
 C                    -1.96017  -0.23054   0. 
 H                    -2.96928  -0.56137   0. 
 C                    -0.80835   0.15304   0. 
 C                     0.50366   0.57283   0. 
 H                     0.69814   1.6369    0. 
 C                     1.65911  -0.37013   0. 
 H                     2.29183  -0.2116   -0.87693 
 H                     2.29183  -0.2116    0.87693 
 H                     1.32196  -1.40358  0. 
 

 GradGradGradGradGradGradGradGradGradGradGradGradGradGradGradGradGradGrad
 Berny optimization.
 Initialization pass.
                           ----------------------------
                           !    Initial Parameters    !
                           ! (Angstroms and Degrees)  !
 --------------------------                            --------------------------
 ! Name  Definition              Value          Derivative Info.                !
 --------------------------------------------------------------------------------
 ! R1    R(1,2)                  1.062          estimate D2E/DX2                !
 ! R2    R(1,3)                  1.214          estimate D2E/DX2                !
 ! R3    R(3,4)                  1.3775         estimate D2E/DX2                !
 ! R4    R(4,5)                  1.0817         estimate D2E/DX2                !
 ! R5    R(4,6)                  1.4914         estimate D2E/DX2                !
 ! R6    R(6,7)                  1.0929         estimate D2E/DX2                !
 ! R7    R(6,8)                  1.0929         estimate D2E/DX2                !
 ! R8    R(6,9)                  1.0871         estimate D2E/DX2                !
 ! A1    A(3,4,5)              118.1            estimate D2E/DX2                !
 ! A2    A(3,4,6)              123.0397         estimate D2E/DX2                !
 ! A3    A(5,4,6)              118.8603         estimate D2E/DX2                !
 ! A4    A(4,6,7)              110.9043         estimate D2E/DX2                !
 ! A5    A(4,6,8)              110.9044         estimate D2E/DX2                !
 ! A6    A(4,6,9)              111.1495         estimate D2E/DX2                !
 ! A7    A(7,6,8)              106.7156         estimate D2E/DX2                !
 ! A8    A(7,6,9)              108.5087         estimate D2E/DX2                !
 ! A9    A(8,6,9)              108.5087         estimate D2E/DX2                !
 ! A10   L(2,1,3,9,-1)         180.2679         estimate D2E/DX2                !
 ! A11   L(1,3,4,9,-1)         179.3236         estimate D2E/DX2                !
 ! A12   L(2,1,3,9,-2)         180.0001         estimate D2E/DX2                !
 ! A13   L(1,3,4,9,-2)         180.0            estimate D2E/DX2                !
 ! D1    D(3,4,6,7)            120.8053         estimate D2E/DX2                !
 ! D2    D(3,4,6,8)           -120.805          estimate D2E/DX2                !
 ! D3    D(3,4,6,9)              0.0001         estimate D2E/DX2                !
 ! D4    D(5,4,6,7)            -59.1947         estimate D2E/DX2                !
 ! D5    D(5,4,6,8)             59.195          estimate D2E/DX2                !
 ! D6    D(5,4,6,9)           -179.9999         estimate D2E/DX2                !
 --------------------------------------------------------------------------------
 Trust Radius=3.00D-01 FncErr=1.00D-07 GrdErr=1.00D-07 EigMax=2.50D+02 EigMin=1.00D-04
 Number of steps in this run=    100 maximum allowed number of steps=    100.
 GradGradGradGradGradGradGradGradGradGradGradGradGradGradGradGradGradGrad

                          Input orientation:                          
 ---------------------------------------------------------------------
 Center     Atomic      Atomic             Coordinates (Angstroms)
 Number     Number       Type             X           Y           Z
 ---------------------------------------------------------------------
      1          6           0       -1.960173   -0.230542    0.000000
      2          1           0       -2.969282   -0.561366    0.000001
      3          6           0       -0.808348    0.153043    0.000000
      4          6           0        0.503663    0.572833    0.000000
      5          1           0        0.698139    1.636895    0.000000
      6          6           0        1.659112   -0.370126    0.000000
      7          1           0        2.291826   -0.211598   -0.876932
      8          1           0        2.291825   -0.211602    0.876934
      9          1           0        1.321960   -1.403580   -0.000002
 ---------------------------------------------------------------------
                    Distance matrix (angstroms):
                    1          2          3          4          5
     1  C    0.000000
     2  H    1.061954   0.000000
     3  C    1.214017   2.275965   0.000000
     4  C    2.591505   3.653458   1.377533   0.000000
     5  H    3.248683   4.275784   2.114550   1.081688   0.000000
     6  C    3.621976   4.632343   2.522313   1.491387   2.225220
     7  H    4.341528   5.345148   3.242384   2.140530   2.593410
     8  H    4.341527   5.345147   3.242384   2.140531   2.593413
     9  H    3.485458   4.373109   2.638425   2.139116   3.103811
                    6          7          8          9
     6  C    0.000000
     7  H    1.092917   0.000000
     8  H    1.092918   1.753866   0.000000
     9  H    1.087060   1.769313   1.769312   0.000000
 Stoichiometry    C4H5(2)
 Framework group  C1[X(C4H5)]
 Deg. of freedom    21
 Full point group                 C1      NOp   1
 Largest Abelian subgroup         C1      NOp   1
 Largest concise Abelian subgroup C1      NOp   1
                         Standard orientation:                         
 ---------------------------------------------------------------------
 Center     Atomic      Atomic             Coordinates (Angstroms)
 Number     Number       Type             X           Y           Z
 ---------------------------------------------------------------------
      1          6           0       -1.960173   -0.230542   -0.000000
      2          1           0       -2.969282   -0.561366    0.000001
      3          6           0       -0.808348    0.153043   -0.000000
      4          6           0        0.503663    0.572833   -0.000000
      5          1           0        0.698139    1.636895   -0.000000
      6          6           0        1.659112   -0.370126   -0.000000
      7          1           0        2.291826   -0.211598   -0.876932
      8          1           0        2.291825   -0.211602    0.876934
      9          1           0        1.321960   -1.403580   -0.000002
 ---------------------------------------------------------------------
 Rotational constants (GHZ):          38.4796686           4.4702223           4.1058314
 Standard basis: CC-pVTZ (5D, 7F)
 There are   215 symmetry adapted cartesian basis functions of A   symmetry.
 There are   190 symmetry adapted basis functions of A   symmetry.
   190 basis functions,   293 primitive gaussians,   215 cartesian basis functions
    15 alpha electrons       14 beta electrons
       nuclear repulsion energy        95.8774574599 Hartrees.
 NAtoms=    9 NActive=    9 NUniq=    9 SFac= 1.00D+00 NAtFMM=   60 NAOKFM=F Big=F
 Integral buffers will be    131072 words long.
 Raffenetti 2 integral format.
 Two-electron integral symmetry is turned on.
 Nuclear repulsion after empirical dispersion term =       95.8733510018 Hartrees.
 One-electron integrals computed using PRISM.
 NBasis=   190 RedAO= T EigKep=  4.50D-05  NBF=   190
 NBsUse=   190 1.00D-06 EigRej= -1.00D+00 NBFU=   190
 ExpMin= 1.03D-01 ExpMax= 8.24D+03 ExpMxC= 2.81D+02 IAcc=3 IRadAn=         5 AccDes= 0.00D+00
 Harris functional with IExCor=  419 and IRadAn=       5 diagonalized for initial guess.
 HarFok:  IExCor=  419 AccDes= 0.00D+00 IRadAn=         5 IDoV= 1 UseB2=F ITyADJ=14
 ICtDFT=  3500011 ScaDFX=  1.000000  1.000000  1.000000  1.000000
 FoFCou: FMM=F IPFlag=           0 FMFlag=      100000 FMFlg1=           0
         NFxFlg=           0 DoJE=T BraDBF=F KetDBF=T FulRan=T
         wScrn=  0.000000 ICntrl=       500 IOpCl=  0 I1Cent=   200000004 NGrid=           0
         NMat0=    1 NMatS0=      1 NMatT0=    0 NMatD0=    1 NMtDS0=    0 NMtDT0=    0
 Petite list used in FoFCou.
 Initial guess <Sx>= 0.0000 <Sy>= 0.0000 <Sz>= 0.5000 <S**2>= 0.7500 S= 0.5000
 Keep R1 and R2 ints in memory in canonical form, NReq=370972421.
 Requested convergence on RMS density matrix=1.00D-08 within 128 cycles.
 Requested convergence on MAX density matrix=1.00D-06.
 Requested convergence on             energy=1.00D-06.
 No special actions if energy rises.
 Integral accuracy reduced to 1.0D-05 until final iterations.
 Initial convergence to 1.0D-05 achieved.  Increase integral accuracy.
 SCF Done:  E(UB2PLYPD3) =  -155.029704410     A.U. after   20 cycles
            NFock= 20  Conv=0.44D-08     -V/T= 2.0045
 <Sx>= 0.0000 <Sy>= 0.0000 <Sz>= 0.5000 <S**2>= 0.8010 S= 0.5252
 <L.S>=  0.00000000000    
 Annihilation of the first spin contaminant:
 S**2 before annihilation     0.8010,   after     0.7511
 DoSCS=T DFT=T ScalE2(SS,OS)=  0.270000  0.270000
 ExpMin= 1.03D-01 ExpMax= 8.24D+03 ExpMxC= 2.81D+02 IAcc=3 IRadAn=         5 AccDes= 0.00D+00
 HarFok:  IExCor=  205 AccDes= 0.00D+00 IRadAn=         5 IDoV=-2 UseB2=F ITyADJ=14
 ICtDFT= 12500011 ScaDFX=  1.000000  1.000000  1.000000  1.000000
 Range of M.O.s used for correlation:     5   190
 NBasis=   190 NAE=    15 NBE=    14 NFC=     4 NFV=     0
 NROrb=    186 NOA=    11 NOB=    10 NVA=   175 NVB=   176

 **** Warning!!: The largest alpha MO coefficient is  0.51750957D+02


 **** Warning!!: The largest beta MO coefficient is  0.51461925D+02

 DoSCS=T DFT=T ScalE2(SS,OS)=  0.270000  0.270000
 Fully direct method using O(ONN) memory.
 JobTyp=2 Pass  1:  I=   5 to  15 NPSUse= 40 ParTrn=T ParDer=T DoDerP=T.
 JobTyp=3 Pass  1:  I=   5 to  14 NPSUse= 40 ParTrn=T ParDer=T DoDerP=T.
 Spin components of T(2) and E(2):
     alpha-alpha T2 =       0.4474532350D-01 E2=     -0.2638295855D-01
     alpha-beta  T2 =       0.2450778910D+00 E2=     -0.1546379570D+00
     beta-beta   T2 =       0.4022702770D-01 E2=     -0.2233088243D-01
 (S**2,0)=  0.80099D+00           (S**2,1)=  0.75246D+00
 Scaling Projection term by:   0.270000
 E(PUHF)=      -0.15503807633D+03        E(PMP2)=      -0.15523425463D+03
 E2(B2PLYPD3) =    -0.2033517980D+00 E(B2PLYPD3) =    -0.15523305620755D+03
          IDoAtm=111111111
          Differentiating once with respect to electric field.
                with respect to dipole field.
          Differentiating once with respect to nuclear coordinates.
 Keep R1 and R2 ints in memory in canonical form, NReq=370978893.
          There are     1 degrees of freedom in the 1st order CPHF.  IDoFFX=0 NUNeed=     1.
 LinEq1:  Iter=  0 NonCon=     1 RMS=1.08D-03 Max=3.39D-02 NDo=     1
 AX will form     1 AO Fock derivatives at one time.
 LinEq1:  Iter=  1 NonCon=     1 RMS=3.99D-04 Max=1.06D-02 NDo=     1
 LinEq1:  Iter=  2 NonCon=     1 RMS=2.42D-04 Max=6.06D-03 NDo=     1
 LinEq1:  Iter=  3 NonCon=     1 RMS=1.65D-04 Max=5.87D-03 NDo=     1
 LinEq1:  Iter=  4 NonCon=     1 RMS=9.42D-05 Max=2.21D-03 NDo=     1
 LinEq1:  Iter=  5 NonCon=     1 RMS=3.12D-05 Max=4.19D-04 NDo=     1
 LinEq1:  Iter=  6 NonCon=     1 RMS=1.32D-05 Max=3.11D-04 NDo=     1
 LinEq1:  Iter=  7 NonCon=     1 RMS=5.74D-06 Max=1.61D-04 NDo=     1
 LinEq1:  Iter=  8 NonCon=     1 RMS=1.95D-06 Max=5.44D-05 NDo=     1
 LinEq1:  Iter=  9 NonCon=     1 RMS=6.74D-07 Max=1.04D-05 NDo=     1
 LinEq1:  Iter= 10 NonCon=     1 RMS=2.98D-07 Max=5.68D-06 NDo=     1
 LinEq1:  Iter= 11 NonCon=     1 RMS=1.19D-07 Max=1.60D-06 NDo=     1
 LinEq1:  Iter= 12 NonCon=     1 RMS=3.10D-08 Max=5.26D-07 NDo=     1
 LinEq1:  Iter= 13 NonCon=     1 RMS=7.15D-09 Max=7.82D-08 NDo=     1
 LinEq1:  Iter= 14 NonCon=     1 RMS=1.84D-09 Max=2.93D-08 NDo=     1
 LinEq1:  Iter= 15 NonCon=     1 RMS=4.29D-10 Max=7.42D-09 NDo=     1
 LinEq1:  Iter= 16 NonCon=     1 RMS=1.10D-10 Max=1.72D-09 NDo=     1
 LinEq1:  Iter= 17 NonCon=     0 RMS=2.16D-11 Max=2.99D-10 NDo=     1
 Linear equations converged to 1.000D-10 1.000D-09 after    17 iterations.
 End of Minotr F.D. properties file   721 does not exist.
 End of Minotr F.D. properties file   722 does not exist.
 End of Minotr F.D. properties file   788 does not exist.

 **********************************************************************

            Population analysis using the SCF Density.

 **********************************************************************

 Orbital symmetries:
 Alpha Orbitals:
       Occupied  (A) (A) (A) (A) (A) (A) (A) (A) (A) (A) (A) (A)
                 (A) (A) (A)
       Virtual   (A) (A) (A) (A) (A) (A) (A) (A) (A) (A) (A) (A)
                 (A) (A) (A) (A) (A) (A) (A) (A) (A) (A) (A) (A)
                 (A) (A) (A) (A) (A) (A) (A) (A) (A) (A) (A) (A)
                 (A) (A) (A) (A) (A) (A) (A) (A) (A) (A) (A) (A)
                 (A) (A) (A) (A) (A) (A) (A) (A) (A) (A) (A) (A)
                 (A) (A) (A) (A) (A) (A) (A) (A) (A) (A) (A) (A)
                 (A) (A) (A) (A) (A) (A) (A) (A) (A) (A) (A) (A)
                 (A) (A) (A) (A) (A) (A) (A) (A) (A) (A) (A) (A)
                 (A) (A) (A) (A) (A) (A) (A) (A) (A) (A) (A) (A)
                 (A) (A) (A) (A) (A) (A) (A) (A) (A) (A) (A) (A)
                 (A) (A) (A) (A) (A) (A) (A) (A) (A) (A) (A) (A)
                 (A) (A) (A) (A) (A) (A) (A) (A) (A) (A) (A) (A)
                 (A) (A) (A) (A) (A) (A) (A) (A) (A) (A) (A) (A)
                 (A) (A) (A) (A) (A) (A) (A) (A) (A) (A) (A) (A)
                 (A) (A) (A) (A) (A) (A) (A)
 Beta  Orbitals:
       Occupied  (A) (A) (A) (A) (A) (A) (A) (A) (A) (A) (A) (A)
                 (A) (A)
       Virtual   (A) (A) (A) (A) (A) (A) (A) (A) (A) (A) (A) (A)
                 (A) (A) (A) (A) (A) (A) (A) (A) (A) (A) (A) (A)
                 (A) (A) (A) (A) (A) (A) (A) (A) (A) (A) (A) (A)
                 (A) (A) (A) (A) (A) (A) (A) (A) (A) (A) (A) (A)
                 (A) (A) (A) (A) (A) (A) (A) (A) (A) (A) (A) (A)
                 (A) (A) (A) (A) (A) (A) (A) (A) (A) (A) (A) (A)
                 (A) (A) (A) (A) (A) (A) (A) (A) (A) (A) (A) (A)
                 (A) (A) (A) (A) (A) (A) (A) (A) (A) (A) (A) (A)
                 (A) (A) (A) (A) (A) (A) (A) (A) (A) (A) (A) (A)
                 (A) (A) (A) (A) (A) (A) (A) (A) (A) (A) (A) (A)
                 (A) (A) (A) (A) (A) (A) (A) (A) (A) (A) (A) (A)
                 (A) (A) (A) (A) (A) (A) (A) (A) (A) (A) (A) (A)
                 (A) (A) (A) (A) (A) (A) (A) (A) (A) (A) (A) (A)
                 (A) (A) (A) (A) (A) (A) (A) (A) (A) (A) (A) (A)
                 (A) (A) (A) (A) (A) (A) (A) (A)
 The electronic state is 2-A.
 Alpha  occ. eigenvalues --  -10.64522 -10.62029 -10.61735 -10.61716  -0.92593
 Alpha  occ. eigenvalues --   -0.85200  -0.74934  -0.61343  -0.56045  -0.49825
 Alpha  occ. eigenvalues --   -0.49238  -0.44594  -0.38749  -0.32758  -0.25262
 Alpha virt. eigenvalues --    0.07538   0.10591   0.11503   0.12489   0.14584
 Alpha virt. eigenvalues --    0.15347   0.15493   0.22842   0.24530   0.29914
 Alpha virt. eigenvalues --    0.30191   0.34566   0.35400   0.35894   0.37778
 Alpha virt. eigenvalues --    0.40238   0.41211   0.45434   0.50013   0.51439
 Alpha virt. eigenvalues --    0.51858   0.53208   0.54173   0.54643   0.56399
 Alpha virt. eigenvalues --    0.61015   0.61763   0.64330   0.69754   0.70204
 Alpha virt. eigenvalues --    0.72994   0.74094   0.77864   0.86217   0.91265
 Alpha virt. eigenvalues --    0.91424   0.93306   0.93962   0.95982   1.00451
 Alpha virt. eigenvalues --    1.04028   1.06215   1.07035   1.11219   1.12556
 Alpha virt. eigenvalues --    1.16027   1.17269   1.19564   1.21548   1.28611
 Alpha virt. eigenvalues --    1.32783   1.34312   1.34642   1.39398   1.40090
 Alpha virt. eigenvalues --    1.45000   1.47107   1.51131   1.51493   1.55138
 Alpha virt. eigenvalues --    1.56708   1.61084   1.63147   1.80732   1.82270
 Alpha virt. eigenvalues --    2.09253   2.13703   2.23294   2.27371   2.30794
 Alpha virt. eigenvalues --    2.35758   2.40948   2.43900   2.48077   2.54080
 Alpha virt. eigenvalues --    2.54483   2.55913   2.58491   2.59971   2.63115
 Alpha virt. eigenvalues --    2.64033   2.66923   2.74167   2.77135   2.82414
 Alpha virt. eigenvalues --    2.85358   2.87804   2.89184   2.90779   2.92839
 Alpha virt. eigenvalues --    2.94452   2.96042   3.00656   3.01000   3.02204
 Alpha virt. eigenvalues --    3.04923   3.05483   3.05888   3.06278   3.08379
 Alpha virt. eigenvalues --    3.08973   3.14546   3.15401   3.16102   3.16888
 Alpha virt. eigenvalues --    3.21526   3.21624   3.26431   3.32401   3.36430
 Alpha virt. eigenvalues --    3.39586   3.42378   3.45479   3.47084   3.53143
 Alpha virt. eigenvalues --    3.54723   3.56513   3.56689   3.60140   3.60971
 Alpha virt. eigenvalues --    3.64870   3.71636   3.79068   3.84130   3.85158
 Alpha virt. eigenvalues --    3.88389   3.91239   3.95774   4.00056   4.03012
 Alpha virt. eigenvalues --    4.03803   4.04265   4.06665   4.12123   4.14863
 Alpha virt. eigenvalues --    4.21052   4.23302   4.24467   4.33128   4.35139
 Alpha virt. eigenvalues --    4.36858   4.38933   4.44468   4.44780   4.50826
 Alpha virt. eigenvalues --    4.62768   4.67206   4.74841   4.82544   4.93143
 Alpha virt. eigenvalues --    4.96326   4.99110   5.09292   5.18208   5.18915
 Alpha virt. eigenvalues --    5.24643   5.32364   5.36358   5.43664   5.46816
 Alpha virt. eigenvalues --    5.47808   5.52647   5.63393   5.76279   5.83244
 Alpha virt. eigenvalues --    5.91691   5.99400   6.02575   6.03555   6.22368
 Alpha virt. eigenvalues --    6.36943   8.59350  12.81747  13.74171  16.62355
  Beta  occ. eigenvalues --  -10.63096 -10.62480 -10.61861 -10.60924  -0.90778
  Beta  occ. eigenvalues --   -0.83851  -0.72701  -0.60373  -0.55477  -0.48553
  Beta  occ. eigenvalues --   -0.47781  -0.44423  -0.34648  -0.32304
  Beta virt. eigenvalues --   -0.01400   0.07750   0.10848   0.11426   0.12894
  Beta virt. eigenvalues --    0.15189   0.15604   0.17736   0.23058   0.24854
  Beta virt. eigenvalues --    0.30322   0.30409   0.35057   0.36276   0.38415
  Beta virt. eigenvalues --    0.38552   0.42322   0.44129   0.47010   0.50320
  Beta virt. eigenvalues --    0.51402   0.52523   0.53630   0.54752   0.55223
  Beta virt. eigenvalues --    0.56655   0.61928   0.62149   0.64331   0.70806
  Beta virt. eigenvalues --    0.70816   0.73554   0.76082   0.78334   0.86693
  Beta virt. eigenvalues --    0.91979   0.92344   0.93795   0.94053   0.96280
  Beta virt. eigenvalues --    1.01097   1.05119   1.06728   1.07215   1.11364
  Beta virt. eigenvalues --    1.14056   1.16502   1.17309   1.19792   1.21906
  Beta virt. eigenvalues --    1.28909   1.33737   1.35239   1.35558   1.39956
  Beta virt. eigenvalues --    1.40166   1.46469   1.47690   1.51474   1.52601
  Beta virt. eigenvalues --    1.55526   1.57485   1.62654   1.63375   1.81025
  Beta virt. eigenvalues --    1.82831   2.11359   2.14321   2.23748   2.27374
  Beta virt. eigenvalues --    2.33278   2.36077   2.43143   2.44371   2.48603
  Beta virt. eigenvalues --    2.54964   2.55225   2.56458   2.59455   2.60675
  Beta virt. eigenvalues --    2.63620   2.64535   2.67980   2.75659   2.77500
  Beta virt. eigenvalues --    2.83187   2.86583   2.88486   2.89689   2.91706
  Beta virt. eigenvalues --    2.94668   2.95491   2.96574   3.01174   3.01468
  Beta virt. eigenvalues --    3.02645   3.06036   3.06623   3.07560   3.08251
  Beta virt. eigenvalues --    3.09243   3.09944   3.15079   3.15517   3.16289
  Beta virt. eigenvalues --    3.18193   3.21795   3.22881   3.27723   3.32130
  Beta virt. eigenvalues --    3.37834   3.40418   3.43686   3.46075   3.47624
  Beta virt. eigenvalues --    3.53480   3.55255   3.56876   3.57626   3.61061
  Beta virt. eigenvalues --    3.61454   3.65530   3.72234   3.79400   3.84568
  Beta virt. eigenvalues --    3.85443   3.88620   3.91339   3.96045   4.01027
  Beta virt. eigenvalues --    4.03219   4.04244   4.04564   4.06806   4.12432
  Beta virt. eigenvalues --    4.15062   4.21667   4.23594   4.25236   4.33368
  Beta virt. eigenvalues --    4.35257   4.37269   4.39534   4.44967   4.45464
  Beta virt. eigenvalues --    4.51159   4.63838   4.67271   4.75081   4.82835
  Beta virt. eigenvalues --    4.94323   4.96844   4.99274   5.09467   5.19026
  Beta virt. eigenvalues --    5.19204   5.24833   5.32883   5.36543   5.44087
  Beta virt. eigenvalues --    5.47586   5.47974   5.52885   5.63662   5.76431
  Beta virt. eigenvalues --    5.83515   5.91891   5.99758   6.03472   6.03643
  Beta virt. eigenvalues --    6.22549   6.37146   8.59584  12.82875  13.74331
  Beta virt. eigenvalues --   16.62700
          Condensed to atoms (all electrons):
               1          2          3          4          5          6
     1  C    5.154266   0.422891   0.757803  -0.112289   0.001265  -0.000839
     2  H    0.422891   0.472278  -0.057755   0.000562  -0.000021  -0.000063
     3  C    0.757803  -0.057755   4.847894   0.493853  -0.039326  -0.068190
     4  C   -0.112289   0.000562   0.493853   5.170801   0.410091   0.350430
     5  H    0.001265  -0.000021  -0.039326   0.410091   0.524067  -0.039777
     6  C   -0.000839  -0.000063  -0.068190   0.350430  -0.039777   4.798986
     7  H    0.000186   0.000004   0.003261  -0.044394  -0.002090   0.407879
     8  H    0.000186   0.000004   0.003261  -0.044394  -0.002090   0.407879
     9  H    0.004743   0.000008   0.005975  -0.042547   0.005347   0.406118
               7          8          9
     1  C    0.000186   0.000186   0.004743
     2  H    0.000004   0.000004   0.000008
     3  C    0.003261   0.003261   0.005975
     4  C   -0.044394  -0.044394  -0.042547
     5  H   -0.002090  -0.002090   0.005347
     6  C    0.407879   0.407879   0.406118
     7  H    0.595927  -0.037775  -0.025614
     8  H   -0.037775   0.595927  -0.025614
     9  H   -0.025614  -0.025614   0.561915
          Atomic-Atomic Spin Densities.
               1          2          3          4          5          6
     1  C    0.603537   0.007766  -0.004026  -0.027211  -0.000676   0.001424
     2  H    0.007766  -0.023014  -0.004317  -0.000346   0.000006   0.000002
     3  C   -0.004026  -0.004317  -0.337581  -0.005614  -0.000384   0.005004
     4  C   -0.027211  -0.000346  -0.005614   0.917073   0.012155  -0.037591
     5  H   -0.000676   0.000006  -0.000384   0.012155  -0.052421   0.003791
     6  C    0.001424   0.000002   0.005004  -0.037591   0.003791  -0.056978
     7  H    0.000249  -0.000000   0.000415  -0.018053   0.000050   0.011735
     8  H    0.000249  -0.000000   0.000415  -0.018053   0.000050   0.011735
     9  H   -0.000008   0.000001  -0.000484  -0.001160  -0.000334   0.001364
               7          8          9
     1  C    0.000249   0.000249  -0.000008
     2  H   -0.000000  -0.000000   0.000001
     3  C    0.000415   0.000415  -0.000484
     4  C   -0.018053  -0.018053  -0.001160
     5  H    0.000050   0.000050  -0.000334
     6  C    0.011735   0.011735   0.001364
     7  H    0.047518  -0.011324  -0.000462
     8  H   -0.011324   0.047518  -0.000462
     9  H   -0.000462  -0.000462   0.002543
 Mulliken charges and spin densities:
               1          2
     1  C   -0.228211   0.581303
     2  H    0.162092  -0.019903
     3  C    0.053224  -0.346572
     4  C   -0.182114   0.821198
     5  H    0.142532  -0.037764
     6  C   -0.262424  -0.059513
     7  H    0.102615   0.030127
     8  H    0.102615   0.030127
     9  H    0.109671   0.000998
 Sum of Mulliken charges =  -0.00000   1.00000
 Mulliken charges and spin densities with hydrogens summed into heavy atoms:
               1          2
     1  C   -0.066120   0.561401
     3  C    0.053224  -0.346572
     4  C   -0.039581   0.783434
     6  C    0.052477   0.001738
 Electronic spatial extent (au):  <R**2>=            325.8007
 Charge=             -0.0000 electrons
 Dipole moment (field-independent basis, Debye):
    X=              0.5869    Y=             -0.0569    Z=              0.0000  Tot=              0.5896
 Quadrupole moment (field-independent basis, Debye-Ang):
   XX=            -20.1557   YY=            -24.5574   ZZ=            -26.4818
   XY=              1.7538   XZ=             -0.0000   YZ=             -0.0000
 Traceless Quadrupole moment (field-independent basis, Debye-Ang):
   XX=              3.5759   YY=             -0.8258   ZZ=             -2.7501
   XY=              1.7538   XZ=             -0.0000   YZ=             -0.0000
 Octapole moment (field-independent basis, Debye-Ang**2):
  XXX=            -12.6559  YYY=              1.5949  ZZZ=              0.0000  XYY=              2.4625
  XXY=             -5.0729  XXZ=              0.0000  XZZ=              3.4848  YZZ=             -0.2065
  YYZ=             -0.0000  XYZ=             -0.0000
 Hexadecapole moment (field-independent basis, Debye-Ang**3):
 XXXX=           -296.6823 YYYY=            -62.7368 ZZZZ=            -37.0285 XXXY=             18.9554
 XXXZ=             -0.0000 YYYX=              1.8744 YYYZ=              0.0000 ZZZX=              0.0000
 ZZZY=             -0.0000 XXYY=            -72.2842 XXZZ=            -67.2828 YYZZ=            -18.6507
 XXYZ=             -0.0000 YYXZ=             -0.0000 ZZXY=              0.0992
 N-N= 9.587335100177D+01 E-N=-5.512462789517D+02  KE= 1.543404819825D+02
                          Isotropic Fermi Contact Couplings
        Atom                 a.u.       MegaHertz       Gauss      10(-4) cm-1
     1  C(13)              0.01222      13.73735       4.90183       4.58229
     2  H(1)              -0.00713     -31.86100     -11.36880     -10.62768
     3  C(13)             -0.04577     -51.45660     -18.36100     -17.16408
     4  C(13)              0.03133      35.22571      12.56941      11.75003
     5  H(1)              -0.01110     -49.60333     -17.69970     -16.54589
     6  C(13)             -0.02378     -26.73108      -9.53831      -8.91653
     7  H(1)               0.01792      80.08482      28.57626      26.71342
     8  H(1)               0.01792      80.08522      28.57640      26.71355
     9  H(1)               0.00039       1.76410       0.62948       0.58844
 --------------------------------------------------------
       Center         ----  Spin Dipole Couplings  ----
                      3XX-RR        3YY-RR        3ZZ-RR
 --------------------------------------------------------
     1   Atom       -0.242724     -0.234753      0.477477
     2   Atom        0.025345     -0.026839      0.001494
     3   Atom        0.107116      0.023390     -0.130506
     4   Atom       -0.454882     -0.447360      0.902243
     5   Atom       -0.053334      0.051406      0.001928
     6   Atom       -0.001946     -0.006190      0.008136
     7   Atom        0.008274     -0.003616     -0.004658
     8   Atom        0.008274     -0.003616     -0.004658
     9   Atom       -0.002961      0.008545     -0.005584
 --------------------------------------------------------
                        XY            XZ            YZ
 --------------------------------------------------------
     1   Atom       -0.003120      0.000000      0.000000
     2   Atom        0.019154     -0.000000     -0.000000
     3   Atom        0.031533     -0.000000     -0.000000
     4   Atom       -0.000293     -0.000000      0.000000
     5   Atom        0.021627     -0.000000      0.000000
     6   Atom       -0.010306     -0.000000     -0.000000
     7   Atom       -0.005750     -0.007102      0.001529
     8   Atom       -0.005750      0.007102     -0.001529
     9   Atom       -0.007072     -0.000000      0.000000
 --------------------------------------------------------


 ---------------------------------------------------------------------------------
              Anisotropic Spin Dipole Couplings in Principal Axis System
 ---------------------------------------------------------------------------------

       Atom             a.u.   MegaHertz   Gauss  10(-4) cm-1        Axes

              Baa    -0.2438   -32.716   -11.674   -10.913  0.9454  0.3260 -0.0000
     1 C(13)  Bbb    -0.2337   -31.357   -11.189   -10.460 -0.3260  0.9454 -0.0000
              Bcc     0.4775    64.073    22.863    21.372  0.0000  0.0000  1.0000
 
              Baa    -0.0331   -17.668    -6.304    -5.893 -0.3114  0.9503 -0.0000
     2 H(1)   Bbb     0.0015     0.797     0.284     0.266  0.0000  0.0000  1.0000
              Bcc     0.0316    16.871     6.020     5.628  0.9503  0.3114 -0.0000
 
              Baa    -0.1305   -17.513    -6.249    -5.842  0.0000  0.0000  1.0000
     3 C(13)  Bbb     0.0128     1.723     0.615     0.575 -0.3172  0.9484 -0.0000
              Bcc     0.1177    15.789     5.634     5.267  0.9484  0.3172 -0.0000
 
              Baa    -0.4549   -61.042   -21.781   -20.362  0.9992  0.0389  0.0000
     4 C(13)  Bbb    -0.4473   -60.030   -21.420   -20.024 -0.0389  0.9992 -0.0000
              Bcc     0.9022   121.072    43.202    40.385 -0.0000  0.0000  1.0000
 
              Baa    -0.0576   -30.745   -10.971   -10.256  0.9809 -0.1946  0.0000
     5 H(1)   Bbb     0.0019     1.029     0.367     0.343 -0.0000 -0.0000  1.0000
              Bcc     0.0557    29.717    10.604     9.912  0.1946  0.9809  0.0000
 
              Baa    -0.0146    -1.958    -0.699    -0.653  0.6318  0.7751  0.0000
     6 C(13)  Bbb     0.0065     0.866     0.309     0.289  0.7751 -0.6318  0.0000
              Bcc     0.0081     1.092     0.390     0.364 -0.0000 -0.0000  1.0000
 
              Baa    -0.0081    -4.328    -1.544    -1.444  0.4691  0.3201  0.8231
     7 H(1)   Bbb    -0.0053    -2.845    -1.015    -0.949  0.1506  0.8894 -0.4316
              Bcc     0.0134     7.173     2.559     2.392  0.8702 -0.3264 -0.3690
 
              Baa    -0.0081    -4.328    -1.544    -1.444 -0.4691 -0.3201  0.8231
     8 H(1)   Bbb    -0.0053    -2.845    -1.015    -0.949  0.1506  0.8894  0.4316
              Bcc     0.0134     7.172     2.559     2.392  0.8702 -0.3264  0.3690
 
              Baa    -0.0063    -3.374    -1.204    -1.126  0.9031  0.4295  0.0000
     9 H(1)   Bbb    -0.0056    -2.979    -1.063    -0.994 -0.0000 -0.0000  1.0000
              Bcc     0.0119     6.354     2.267     2.119 -0.4295  0.9031  0.0000
 

 ---------------------------------------------------------------------------------

 Calling FoFJK, ICntrl=  10002127 FMM=F ISym2X=0 I1Cent= 0 IOpClX= 1 NMat=1 NMatS=1 NMatT=0.
 ***** Axes restored to original set *****
 -------------------------------------------------------------------
 Center     Atomic                   Forces (Hartrees/Bohr)
 Number     Number              X              Y              Z
 -------------------------------------------------------------------
      1        6          -0.011053790   -0.003657655    0.000000018
      2        1           0.001782550    0.000596555   -0.000000017
      3        6           0.010221075    0.003497413    0.000000012
      4        6          -0.002040950    0.000332267    0.000000057
      5        1           0.000159194   -0.000305978    0.000000001
      6        6           0.000387720   -0.000291330    0.000000158
      7        1           0.000042152   -0.000216644    0.000245777
      8        1           0.000041935   -0.000216554   -0.000245967
      9        1           0.000460114    0.000261926   -0.000000038
 -------------------------------------------------------------------
 Cartesian Forces:  Max     0.011053790 RMS     0.003108703

 GradGradGradGradGradGradGradGradGradGradGradGradGradGradGradGradGradGrad
 Berny optimization.
 FormGI is forming the generalized inverse of G from B-inverse, IUseBI=4.
 Internal  Forces:  Max     0.009763528 RMS     0.001945275
 Search for a local minimum.
 Step number   1 out of a maximum of  100
 All quantities printed in internal units (Hartrees-Bohrs-Radians)
 Mixed Optimization -- RFO/linear search
 Second derivative matrix not updated -- first step.
 ITU=  0
     Eigenvalues ---    0.00880   0.00880   0.02386   0.02386   0.04549
     Eigenvalues ---    0.04549   0.07241   0.07367   0.16000   0.16000
     Eigenvalues ---    0.16000   0.16000   0.22000   0.33298   0.34478
     Eigenvalues ---    0.34478   0.35155   0.35791   0.38266   0.49556
     Eigenvalues ---    0.98084
 RFO step:  Lambda=-1.17956248D-04 EMin= 8.79885955D-03
 Linear search not attempted -- first point.
 Iteration  1 RMS(Cart)=  0.00471146 RMS(Int)=  0.00000773
 Iteration  2 RMS(Cart)=  0.00000793 RMS(Int)=  0.00000080
 Iteration  3 RMS(Cart)=  0.00000000 RMS(Int)=  0.00000080
 Variable       Old X    -DE/DX   Delta X   Delta X   Delta X     New X
                                 (Linear)    (Quad)   (Total)
    R1        2.00680  -0.00188   0.00000  -0.00491  -0.00491   2.00189
    R2        2.29416   0.00976   0.00000   0.00995   0.00995   2.30411
    R3        2.60316  -0.00104   0.00000  -0.00209  -0.00209   2.60107
    R4        2.04409  -0.00027   0.00000  -0.00076  -0.00076   2.04333
    R5        2.81831   0.00101   0.00000   0.00305   0.00305   2.82136
    R6        2.06531  -0.00020   0.00000  -0.00059  -0.00059   2.06472
    R7        2.06531  -0.00020   0.00000  -0.00059  -0.00059   2.06472
    R8        2.05424  -0.00039   0.00000  -0.00111  -0.00111   2.05313
    A1        2.06123   0.00001   0.00000   0.00041   0.00041   2.06164
    A2        2.14745   0.00042   0.00000   0.00189   0.00189   2.14934
    A3        2.07450  -0.00042   0.00000  -0.00229  -0.00229   2.07221
    A4        1.93564   0.00023   0.00000   0.00138   0.00138   1.93702
    A5        1.93565   0.00023   0.00000   0.00138   0.00138   1.93702
    A6        1.93992   0.00039   0.00000   0.00257   0.00257   1.94249
    A7        1.86254  -0.00027   0.00000  -0.00188  -0.00188   1.86066
    A8        1.89383  -0.00032   0.00000  -0.00188  -0.00188   1.89195
    A9        1.89383  -0.00032   0.00000  -0.00188  -0.00188   1.89195
   A10        3.14627   0.00002   0.00000   0.00050   0.00050   3.14677
   A11        3.12979   0.00008   0.00000   0.00334   0.00334   3.13312
   A12        3.14159  -0.00000   0.00000  -0.00000  -0.00000   3.14159
   A13        3.14159  -0.00000   0.00000  -0.00000  -0.00000   3.14159
    D1        2.10845   0.00002   0.00000   0.00029   0.00029   2.10874
    D2       -2.10845  -0.00002   0.00000  -0.00029  -0.00029  -2.10873
    D3        0.00000  -0.00000   0.00000   0.00000   0.00000   0.00000
    D4       -1.03314   0.00002   0.00000   0.00029   0.00029  -1.03285
    D5        1.03315  -0.00002   0.00000  -0.00029  -0.00029   1.03286
    D6       -3.14159  -0.00000   0.00000  -0.00000  -0.00000  -3.14159
         Item               Value     Threshold  Converged?
 Maximum Force            0.009764     0.000450     NO 
 RMS     Force            0.001945     0.000300     NO 
 Maximum Displacement     0.013682     0.001800     NO 
 RMS     Displacement     0.004712     0.001200     NO 
 Predicted change in Energy=-5.898889D-05
 GradGradGradGradGradGradGradGradGradGradGradGradGradGradGradGradGradGrad

                          Input orientation:                          
 ---------------------------------------------------------------------
 Center     Atomic      Atomic             Coordinates (Angstroms)
 Number     Number       Type             X           Y           Z
 ---------------------------------------------------------------------
      1          6           0       -1.966468   -0.230517    0.000000
      2          1           0       -2.974230   -0.557090    0.000000
      3          6           0       -0.808528    0.151359    0.000001
      4          6           0        0.502250    0.571365    0.000000
      5          1           0        0.696636    1.635034    0.000000
      6          6           0        1.661127   -0.369937   -0.000000
      7          1           0        2.294368   -0.210895   -0.876068
      8          1           0        2.294366   -0.210898    0.876069
      9          1           0        1.329200   -1.404462   -0.000002
 ---------------------------------------------------------------------
                    Distance matrix (angstroms):
                    1          2          3          4          5
     1  C    0.000000
     2  H    1.059355   0.000000
     3  C    1.219284   2.278632   0.000000
     4  C    2.595686   3.655041   1.376425   0.000000
     5  H    3.251524   4.275590   2.113484   1.081285   0.000000
     6  C    3.630273   4.639133   2.524073   1.492998   2.224893
     7  H    4.350012   5.352147   3.244486   2.142688   2.593780
     8  H    4.350011   5.352145   3.244485   2.142688   2.593781
     9  H    3.498511   4.386063   2.643948   2.141900   3.104621
                    6          7          8          9
     6  C    0.000000
     7  H    1.092604   0.000000
     8  H    1.092604   1.752137   0.000000
     9  H    1.086470   1.767383   1.767383   0.000000
 Stoichiometry    C4H5(2)
 Framework group  C1[X(C4H5)]
 Deg. of freedom    21
 Full point group                 C1      NOp   1
 Largest Abelian subgroup         C1      NOp   1
 Largest concise Abelian subgroup C1      NOp   1
                         Standard orientation:                         
 ---------------------------------------------------------------------
 Center     Atomic      Atomic             Coordinates (Angstroms)
 Number     Number       Type             X           Y           Z
 ---------------------------------------------------------------------
      1          6           0       -1.965383   -0.230626    0.000000
      2          1           0       -2.973042   -0.557515    0.000000
      3          6           0       -0.807563    0.151613    0.000000
      4          6           0        0.503084    0.572029   -0.000000
      5          1           0        0.697137    1.635759    0.000000
      6          6           0        1.662255   -0.368910   -0.000000
      7          1           0        2.295447   -0.209669   -0.876068
      8          1           0        2.295445   -0.209672    0.876069
      9          1           0        1.330653   -1.403539   -0.000002
 ---------------------------------------------------------------------
 Rotational constants (GHZ):          38.5952624           4.4536062           4.0929106
 Standard basis: CC-pVTZ (5D, 7F)
 There are   215 symmetry adapted cartesian basis functions of A   symmetry.
 There are   190 symmetry adapted basis functions of A   symmetry.
   190 basis functions,   293 primitive gaussians,   215 cartesian basis functions
    15 alpha electrons       14 beta electrons
       nuclear repulsion energy        95.7719515949 Hartrees.
 NAtoms=    9 NActive=    9 NUniq=    9 SFac= 1.00D+00 NAtFMM=   60 NAOKFM=F Big=F
 Integral buffers will be    131072 words long.
 Raffenetti 2 integral format.
 Two-electron integral symmetry is turned on.
 Nuclear repulsion after empirical dispersion term =       95.7678496008 Hartrees.
 One-electron integrals computed using PRISM.
 NBasis=   190 RedAO= T EigKep=  4.57D-05  NBF=   190
 NBsUse=   190 1.00D-06 EigRej= -1.00D+00 NBFU=   190
 Initial guess from the checkpoint file:  "/localscratch/339542/Gau-60928.chk"
 B after Tr=     0.000000    0.000000    0.000000
         Rot=    1.000000   -0.000000   -0.000000   -0.000191 Ang=  -0.02 deg.
 Initial guess <Sx>= 0.0000 <Sy>= 0.0000 <Sz>= 0.5000 <S**2>= 0.8012 S= 0.5253
 Keep R1 and R2 ints in memory in canonical form, NReq=370972421.
 Requested convergence on RMS density matrix=1.00D-08 within 128 cycles.
 Requested convergence on MAX density matrix=1.00D-06.
 Requested convergence on             energy=1.00D-06.
 No special actions if energy rises.
 SCF Done:  E(UB2PLYPD3) =  -155.029620749     A.U. after   13 cycles
            NFock= 13  Conv=0.39D-08     -V/T= 2.0046
 <Sx>= 0.0000 <Sy>= 0.0000 <Sz>= 0.5000 <S**2>= 0.8029 S= 0.5261
 <L.S>=  0.00000000000    
 Annihilation of the first spin contaminant:
 S**2 before annihilation     0.8029,   after     0.7512
 DoSCS=T DFT=T ScalE2(SS,OS)=  0.270000  0.270000
 ExpMin= 1.03D-01 ExpMax= 8.24D+03 ExpMxC= 2.81D+02 IAcc=3 IRadAn=         5 AccDes= 0.00D+00
 HarFok:  IExCor=  205 AccDes= 0.00D+00 IRadAn=         5 IDoV=-2 UseB2=F ITyADJ=14
 ICtDFT= 12500011 ScaDFX=  1.000000  1.000000  1.000000  1.000000
 Range of M.O.s used for correlation:     5   190
 NBasis=   190 NAE=    15 NBE=    14 NFC=     4 NFV=     0
 NROrb=    186 NOA=    11 NOB=    10 NVA=   175 NVB=   176

 **** Warning!!: The largest alpha MO coefficient is  0.50450580D+02


 **** Warning!!: The largest beta MO coefficient is  0.50097100D+02

 DoSCS=T DFT=T ScalE2(SS,OS)=  0.270000  0.270000
 Fully direct method using O(ONN) memory.
 JobTyp=2 Pass  1:  I=   5 to  15 NPSUse= 40 ParTrn=T ParDer=T DoDerP=T.
 JobTyp=3 Pass  1:  I=   5 to  14 NPSUse= 40 ParTrn=T ParDer=T DoDerP=T.
 Spin components of T(2) and E(2):
     alpha-alpha T2 =       0.4488570150D-01 E2=     -0.2640814818D-01
     alpha-beta  T2 =       0.2457581673D+00 E2=     -0.1547313654D+00
     beta-beta   T2 =       0.4037314700D-01 E2=     -0.2235595005D-01
 (S**2,0)=  0.80286D+00           (S**2,1)=  0.75301D+00
 Scaling Projection term by:   0.270000
 E(PUHF)=      -0.15503818580D+03        E(PMP2)=      -0.15523435272D+03
 E2(B2PLYPD3) =    -0.2034954636D+00 E(B2PLYPD3) =    -0.15523311621211D+03
          IDoAtm=111111111
          Differentiating once with respect to electric field.
                with respect to dipole field.
          Differentiating once with respect to nuclear coordinates.
 Keep R1 and R2 ints in memory in canonical form, NReq=370978893.
          There are     1 degrees of freedom in the 1st order CPHF.  IDoFFX=0 NUNeed=     1.
 LinEq1:  Iter=  0 NonCon=     1 RMS=1.10D-03 Max=3.45D-02 NDo=     1
 AX will form     1 AO Fock derivatives at one time.
 LinEq1:  Iter=  1 NonCon=     1 RMS=4.05D-04 Max=1.06D-02 NDo=     1
 LinEq1:  Iter=  2 NonCon=     1 RMS=2.46D-04 Max=6.18D-03 NDo=     1
 LinEq1:  Iter=  3 NonCon=     1 RMS=1.68D-04 Max=5.86D-03 NDo=     1
 LinEq1:  Iter=  4 NonCon=     1 RMS=9.66D-05 Max=2.33D-03 NDo=     1
 LinEq1:  Iter=  5 NonCon=     1 RMS=3.20D-05 Max=4.31D-04 NDo=     1
 LinEq1:  Iter=  6 NonCon=     1 RMS=1.36D-05 Max=3.33D-04 NDo=     1
 LinEq1:  Iter=  7 NonCon=     1 RMS=5.91D-06 Max=1.74D-04 NDo=     1
 LinEq1:  Iter=  8 NonCon=     1 RMS=2.05D-06 Max=5.80D-05 NDo=     1
 LinEq1:  Iter=  9 NonCon=     1 RMS=7.47D-07 Max=1.21D-05 NDo=     1
 LinEq1:  Iter= 10 NonCon=     1 RMS=3.26D-07 Max=6.06D-06 NDo=     1
 LinEq1:  Iter= 11 NonCon=     1 RMS=1.23D-07 Max=1.56D-06 NDo=     1
 LinEq1:  Iter= 12 NonCon=     1 RMS=3.17D-08 Max=5.56D-07 NDo=     1
 LinEq1:  Iter= 13 NonCon=     1 RMS=7.28D-09 Max=7.93D-08 NDo=     1
 LinEq1:  Iter= 14 NonCon=     1 RMS=1.86D-09 Max=2.95D-08 NDo=     1
 LinEq1:  Iter= 15 NonCon=     1 RMS=4.35D-10 Max=7.42D-09 NDo=     1
 LinEq1:  Iter= 16 NonCon=     1 RMS=1.12D-10 Max=1.71D-09 NDo=     1
 LinEq1:  Iter= 17 NonCon=     0 RMS=2.20D-11 Max=3.06D-10 NDo=     1
 Linear equations converged to 1.000D-10 1.000D-09 after    17 iterations.
 End of Minotr F.D. properties file   721 does not exist.
 End of Minotr F.D. properties file   722 does not exist.
 End of Minotr F.D. properties file   788 does not exist.
 Calling FoFJK, ICntrl=  10002127 FMM=F ISym2X=0 I1Cent= 0 IOpClX= 1 NMat=1 NMatS=1 NMatT=0.
 ***** Axes restored to original set *****
 -------------------------------------------------------------------
 Center     Atomic                   Forces (Hartrees/Bohr)
 Number     Number              X              Y              Z
 -------------------------------------------------------------------
      1        6           0.000051821   -0.000004565    0.000000029
      2        1          -0.000202995   -0.000103634   -0.000000002
      3        6           0.001139224    0.000566056   -0.000000047
      4        6          -0.001110803   -0.000576055    0.000000016
      5        1           0.000103790    0.000014613    0.000000005
      6        6           0.000086858    0.000086925    0.000000018
      7        1          -0.000035514    0.000020047   -0.000015157
      8        1          -0.000035514    0.000020066    0.000015152
      9        1           0.000003131   -0.000023453   -0.000000013
 -------------------------------------------------------------------
 Cartesian Forces:  Max     0.001139224 RMS     0.000347960

 GradGradGradGradGradGradGradGradGradGradGradGradGradGradGradGradGradGrad
 Berny optimization.
 Using GEDIIS/GDIIS optimizer.
 FormGI is forming the generalized inverse of G from B-inverse, IUseBI=4.
 Internal  Forces:  Max     0.001080570 RMS     0.000225360
 Search for a local minimum.
 Step number   2 out of a maximum of  100
 All quantities printed in internal units (Hartrees-Bohrs-Radians)
 Mixed Optimization -- En-DIIS/RFO-DIIS
 Update second derivatives using D2CorX and points    1    2
 DE= -6.00D-05 DEPred=-5.90D-05 R= 1.02D+00
 TightC=F SS=  1.41D+00  RLast= 1.35D-02 DXNew= 5.0454D-01 4.0366D-02
 Trust test= 1.02D+00 RLast= 1.35D-02 DXMaxT set to 3.00D-01
 ITU=  1  0
 Use linear search instead of GDIIS.
     Eigenvalues ---    0.00880   0.00880   0.02386   0.02413   0.04549
     Eigenvalues ---    0.04552   0.07216   0.07351   0.15860   0.16000
     Eigenvalues ---    0.16000   0.16105   0.21806   0.33348   0.34470
     Eigenvalues ---    0.34478   0.35162   0.35802   0.38827   0.47379
     Eigenvalues ---    0.98699
 RFO step:  Lambda=-4.85776173D-06 EMin= 8.79885955D-03
 Quartic linear search produced a step of  0.02262.
 Iteration  1 RMS(Cart)=  0.00457947 RMS(Int)=  0.00001199
 Iteration  2 RMS(Cart)=  0.00001963 RMS(Int)=  0.00000002
 Iteration  3 RMS(Cart)=  0.00000000 RMS(Int)=  0.00000002
 Variable       Old X    -DE/DX   Delta X   Delta X   Delta X     New X
                                 (Linear)    (Quad)   (Total)
    R1        2.00189   0.00023  -0.00011   0.00051   0.00040   2.00229
    R2        2.30411   0.00018   0.00023   0.00037   0.00060   2.30471
    R3        2.60107  -0.00108  -0.00005  -0.00227  -0.00232   2.59875
    R4        2.04333   0.00003  -0.00002   0.00008   0.00006   2.04340
    R5        2.82136  -0.00005   0.00007  -0.00010  -0.00003   2.82133
    R6        2.06472  -0.00001  -0.00001  -0.00003  -0.00004   2.06468
    R7        2.06472  -0.00001  -0.00001  -0.00003  -0.00004   2.06468
    R8        2.05313   0.00002  -0.00003   0.00004   0.00002   2.05315
    A1        2.06164   0.00002   0.00001   0.00027   0.00028   2.06192
    A2        2.14934   0.00017   0.00004   0.00081   0.00085   2.15019
    A3        2.07221  -0.00018  -0.00005  -0.00108  -0.00113   2.07107
    A4        1.93702  -0.00005   0.00003  -0.00031  -0.00028   1.93674
    A5        1.93702  -0.00005   0.00003  -0.00031  -0.00028   1.93674
    A6        1.94249   0.00003   0.00006   0.00028   0.00034   1.94283
    A7        1.86066   0.00005  -0.00004   0.00026   0.00022   1.86088
    A8        1.89195   0.00001  -0.00004   0.00005   0.00001   1.89196
    A9        1.89195   0.00001  -0.00004   0.00005   0.00001   1.89196
   A10        3.14677  -0.00007   0.00001  -0.00161  -0.00160   3.14517
   A11        3.13312  -0.00020   0.00008  -0.00850  -0.00843   3.12469
   A12        3.14159  -0.00000  -0.00000  -0.00000  -0.00000   3.14159
   A13        3.14159   0.00000  -0.00000   0.00000   0.00000   3.14159
    D1        2.10874   0.00000   0.00001   0.00004   0.00005   2.10878
    D2       -2.10873  -0.00000  -0.00001  -0.00004  -0.00004  -2.10878
    D3        0.00000   0.00000   0.00000   0.00000   0.00000   0.00000
    D4       -1.03285   0.00000   0.00001   0.00004   0.00004  -1.03281
    D5        1.03286  -0.00000  -0.00001  -0.00004  -0.00005   1.03281
    D6       -3.14159   0.00000  -0.00000  -0.00000  -0.00000  -3.14159
         Item               Value     Threshold  Converged?
 Maximum Force            0.001081     0.000450     NO 
 RMS     Force            0.000225     0.000300     YES
 Maximum Displacement     0.013254     0.001800     NO 
 RMS     Displacement     0.004586     0.001200     NO 
 Predicted change in Energy=-2.461608D-06
 GradGradGradGradGradGradGradGradGradGradGradGradGradGradGradGradGradGrad

                          Input orientation:                          
 ---------------------------------------------------------------------
 Center     Atomic      Atomic             Coordinates (Angstroms)
 Number     Number       Type             X           Y           Z
 ---------------------------------------------------------------------
      1          6           0       -1.964685   -0.230411    0.000000
      2          1           0       -2.970333   -0.564104    0.000002
      3          6           0       -0.808526    0.157817   -0.000001
      4          6           0        0.502349    0.573485   -0.000000
      5          1           0        0.700255    1.636538    0.000000
      6          6           0        1.659168   -0.370321   -0.000000
      7          1           0        2.292578   -0.212400   -0.876121
      8          1           0        2.292575   -0.212404    0.876123
      9          1           0        1.325341   -1.404243   -0.000003
 ---------------------------------------------------------------------
                    Distance matrix (angstroms):
                    1          2          3          4          5
     1  C    0.000000
     2  H    1.059565   0.000000
     3  C    1.219601   2.279162   0.000000
     4  C    2.594707   3.654261   1.375199   0.000000
     5  H    3.253829   4.279724   2.112590   1.081319   0.000000
     6  C    3.626553   4.633555   2.523577   1.492983   2.224185
     7  H    4.346517   5.346917   3.243686   2.142457   2.592616
     8  H    4.346514   5.346914   3.243684   2.142457   2.592617
     9  H    3.493158   4.377060   2.644508   2.142131   3.104365
                    6          7          8          9
     6  C    0.000000
     7  H    1.092582   0.000000
     8  H    1.092582   1.752245   0.000000
     9  H    1.086478   1.767377   1.767376   0.000000
 Stoichiometry    C4H5(2)
 Framework group  C1[X(C4H5)]
 Deg. of freedom    21
 Full point group                 C1      NOp   1
 Largest Abelian subgroup         C1      NOp   1
 Largest concise Abelian subgroup C1      NOp   1
                         Standard orientation:                         
 ---------------------------------------------------------------------
 Center     Atomic      Atomic             Coordinates (Angstroms)
 Number     Number       Type             X           Y           Z
 ---------------------------------------------------------------------
      1          6           0       -1.963576   -0.232038    0.000000
      2          1           0       -2.969105   -0.566090    0.000002
      3          6           0       -0.807556    0.156604   -0.000000
      4          6           0        0.503170    0.572740   -0.000000
      5          1           0        0.700695    1.635865    0.000000
      6          6           0        1.660326   -0.370651   -0.000000
      7          1           0        2.293680   -0.212504   -0.876121
      8          1           0        2.293677   -0.212507    0.876124
      9          1           0        1.326870   -1.404692   -0.000002
 ---------------------------------------------------------------------
 Rotational constants (GHZ):          38.3986236           4.4617101           4.0975376
 Standard basis: CC-pVTZ (5D, 7F)
 There are   215 symmetry adapted cartesian basis functions of A   symmetry.
 There are   190 symmetry adapted basis functions of A   symmetry.
   190 basis functions,   293 primitive gaussians,   215 cartesian basis functions
    15 alpha electrons       14 beta electrons
       nuclear repulsion energy        95.7939553915 Hartrees.
 NAtoms=    9 NActive=    9 NUniq=    9 SFac= 1.00D+00 NAtFMM=   60 NAOKFM=F Big=F
 Integral buffers will be    131072 words long.
 Raffenetti 2 integral format.
 Two-electron integral symmetry is turned on.
 Nuclear repulsion after empirical dispersion term =       95.7898519637 Hartrees.
 One-electron integrals computed using PRISM.
 NBasis=   190 RedAO= T EigKep=  4.57D-05  NBF=   190
 NBsUse=   190 1.00D-06 EigRej= -1.00D+00 NBFU=   190
 Initial guess from the checkpoint file:  "/localscratch/339542/Gau-60928.chk"
 B after Tr=    -0.000000   -0.000000   -0.000000
         Rot=    1.000000    0.000000    0.000000    0.000156 Ang=   0.02 deg.
 Initial guess <Sx>= 0.0000 <Sy>= 0.0000 <Sz>= 0.5000 <S**2>= 0.8028 S= 0.5261
 Keep R1 and R2 ints in memory in canonical form, NReq=370972421.
 Requested convergence on RMS density matrix=1.00D-08 within 128 cycles.
 Requested convergence on MAX density matrix=1.00D-06.
 Requested convergence on             energy=1.00D-06.
 No special actions if energy rises.
 SCF Done:  E(UB2PLYPD3) =  -155.029617007     A.U. after   12 cycles
            NFock= 12  Conv=0.59D-08     -V/T= 2.0046
 <Sx>= 0.0000 <Sy>= 0.0000 <Sz>= 0.5000 <S**2>= 0.8030 S= 0.5262
 <L.S>=  0.00000000000    
 Annihilation of the first spin contaminant:
 S**2 before annihilation     0.8030,   after     0.7512
 DoSCS=T DFT=T ScalE2(SS,OS)=  0.270000  0.270000
 ExpMin= 1.03D-01 ExpMax= 8.24D+03 ExpMxC= 2.81D+02 IAcc=3 IRadAn=         5 AccDes= 0.00D+00
 HarFok:  IExCor=  205 AccDes= 0.00D+00 IRadAn=         5 IDoV=-2 UseB2=F ITyADJ=14
 ICtDFT= 12500011 ScaDFX=  1.000000  1.000000  1.000000  1.000000
 Range of M.O.s used for correlation:     5   190
 NBasis=   190 NAE=    15 NBE=    14 NFC=     4 NFV=     0
 NROrb=    186 NOA=    11 NOB=    10 NVA=   175 NVB=   176

 **** Warning!!: The largest alpha MO coefficient is  0.50512705D+02


 **** Warning!!: The largest beta MO coefficient is  0.50158714D+02

 DoSCS=T DFT=T ScalE2(SS,OS)=  0.270000  0.270000
 Fully direct method using O(ONN) memory.
 JobTyp=2 Pass  1:  I=   5 to  15 NPSUse= 40 ParTrn=T ParDer=T DoDerP=T.
 JobTyp=3 Pass  1:  I=   5 to  14 NPSUse= 40 ParTrn=T ParDer=T DoDerP=T.
 Spin components of T(2) and E(2):
     alpha-alpha T2 =       0.4488757534D-01 E2=     -0.2641046927D-01
     alpha-beta  T2 =       0.2457524909D+00 E2=     -0.1547303897D+00
     beta-beta   T2 =       0.4037703171D-01 E2=     -0.2235841343D-01
 (S**2,0)=  0.80300D+00           (S**2,1)=  0.75302D+00
 Scaling Projection term by:   0.270000
 E(PUHF)=      -0.15503820273D+03        E(PMP2)=      -0.15523435593D+03
 E2(B2PLYPD3) =    -0.2034992724D+00 E(B2PLYPD3) =    -0.15523311627888D+03
          IDoAtm=111111111
          Differentiating once with respect to electric field.
                with respect to dipole field.
          Differentiating once with respect to nuclear coordinates.
 Keep R1 and R2 ints in memory in canonical form, NReq=370978893.
          There are     1 degrees of freedom in the 1st order CPHF.  IDoFFX=0 NUNeed=     1.
 LinEq1:  Iter=  0 NonCon=     1 RMS=1.10D-03 Max=3.46D-02 NDo=     1
 AX will form     1 AO Fock derivatives at one time.
 LinEq1:  Iter=  1 NonCon=     1 RMS=4.05D-04 Max=1.06D-02 NDo=     1
 LinEq1:  Iter=  2 NonCon=     1 RMS=2.45D-04 Max=6.15D-03 NDo=     1
 LinEq1:  Iter=  3 NonCon=     1 RMS=1.68D-04 Max=5.84D-03 NDo=     1
 LinEq1:  Iter=  4 NonCon=     1 RMS=9.67D-05 Max=2.33D-03 NDo=     1
 LinEq1:  Iter=  5 NonCon=     1 RMS=3.20D-05 Max=4.32D-04 NDo=     1
 LinEq1:  Iter=  6 NonCon=     1 RMS=1.36D-05 Max=3.33D-04 NDo=     1
 LinEq1:  Iter=  7 NonCon=     1 RMS=5.90D-06 Max=1.73D-04 NDo=     1
 LinEq1:  Iter=  8 NonCon=     1 RMS=2.06D-06 Max=5.85D-05 NDo=     1
 LinEq1:  Iter=  9 NonCon=     1 RMS=7.50D-07 Max=1.20D-05 NDo=     1
 LinEq1:  Iter= 10 NonCon=     1 RMS=3.27D-07 Max=6.08D-06 NDo=     1
 LinEq1:  Iter= 11 NonCon=     1 RMS=1.24D-07 Max=1.56D-06 NDo=     1
 LinEq1:  Iter= 12 NonCon=     1 RMS=3.17D-08 Max=5.55D-07 NDo=     1
 LinEq1:  Iter= 13 NonCon=     1 RMS=7.31D-09 Max=7.95D-08 NDo=     1
 LinEq1:  Iter= 14 NonCon=     1 RMS=1.87D-09 Max=2.96D-08 NDo=     1
 LinEq1:  Iter= 15 NonCon=     1 RMS=4.36D-10 Max=7.46D-09 NDo=     1
 LinEq1:  Iter= 16 NonCon=     1 RMS=1.12D-10 Max=1.70D-09 NDo=     1
 LinEq1:  Iter= 17 NonCon=     0 RMS=2.21D-11 Max=3.06D-10 NDo=     1
 Linear equations converged to 1.000D-10 1.000D-09 after    17 iterations.
 End of Minotr F.D. properties file   721 does not exist.
 End of Minotr F.D. properties file   722 does not exist.
 End of Minotr F.D. properties file   788 does not exist.
 Calling FoFJK, ICntrl=  10002127 FMM=F ISym2X=0 I1Cent= 0 IOpClX= 1 NMat=1 NMatS=1 NMatT=0.
 ***** Axes restored to original set *****
 -------------------------------------------------------------------
 Center     Atomic                   Forces (Hartrees/Bohr)
 Number     Number              X              Y              Z
 -------------------------------------------------------------------
      1        6           0.000234141    0.000114971   -0.000000008
      2        1          -0.000094977    0.000092630   -0.000000019
      3        6           0.000141095   -0.000423237    0.000000057
      4        6          -0.000400448    0.000159880   -0.000000014
      5        1           0.000125876    0.000033181   -0.000000008
      6        6           0.000055743   -0.000000468   -0.000000011
      7        1          -0.000021220    0.000019358   -0.000011824
      8        1          -0.000021217    0.000019364    0.000011829
      9        1          -0.000018991   -0.000015679   -0.000000001
 -------------------------------------------------------------------
 Cartesian Forces:  Max     0.000423237 RMS     0.000135153

 GradGradGradGradGradGradGradGradGradGradGradGradGradGradGradGradGradGrad
 Berny optimization.
 Using GEDIIS/GDIIS optimizer.
 FormGI is forming the generalized inverse of G from B-inverse, IUseBI=4.
 Internal  Forces:  Max     0.000586628 RMS     0.000139061
 Search for a local minimum.
 Step number   3 out of a maximum of  100
 All quantities printed in internal units (Hartrees-Bohrs-Radians)
 Mixed Optimization -- En-DIIS/RFO-DIIS
 Swapping is turned off.
 Update second derivatives using D2CorX and points    1    2    3
 DE= -6.68D-08 DEPred=-2.46D-06 R= 2.71D-02
 Trust test= 2.71D-02 RLast= 9.05D-03 DXMaxT set to 1.50D-01
 ITU= -1  1  0
     Eigenvalues ---    0.00880   0.00880   0.02386   0.04127   0.04549
     Eigenvalues ---    0.07215   0.07343   0.08084   0.13680   0.16000
     Eigenvalues ---    0.16026   0.16123   0.21472   0.31944   0.33787
     Eigenvalues ---    0.34478   0.34642   0.35196   0.35909   0.38931
     Eigenvalues ---    0.98863
 En-DIIS/RFO-DIIS/Sim-DIIS IScMMF=       -3 using points:     3    2
 RFO step:  Lambda=-5.38269532D-06.
 DidBck=T Rises=F RFO-DIIS coefs:    0.25066    0.74934
 Iteration  1 RMS(Cart)=  0.00476876 RMS(Int)=  0.00001206
 Iteration  2 RMS(Cart)=  0.00001802 RMS(Int)=  0.00000000
 Iteration  3 RMS(Cart)=  0.00000000 RMS(Int)=  0.00000000
 Variable       Old X    -DE/DX   Delta X   Delta X   Delta X     New X
                                 (Linear)    (Quad)   (Total)
    R1        2.00229   0.00006  -0.00030   0.00050   0.00020   2.00249
    R2        2.30471  -0.00020  -0.00045   0.00095   0.00050   2.30521
    R3        2.59875  -0.00020   0.00174  -0.00339  -0.00165   2.59709
    R4        2.04340   0.00006  -0.00005   0.00015   0.00010   2.04350
    R5        2.82133  -0.00002   0.00002   0.00001   0.00003   2.82136
    R6        2.06468  -0.00000   0.00003  -0.00007  -0.00004   2.06464
    R7        2.06468  -0.00000   0.00003  -0.00007  -0.00004   2.06464
    R8        2.05315   0.00002  -0.00001   0.00002   0.00001   2.05316
    A1        2.06192   0.00014  -0.00021   0.00081   0.00060   2.06252
    A2        2.15019  -0.00003  -0.00064   0.00112   0.00048   2.15068
    A3        2.07107  -0.00010   0.00085  -0.00194  -0.00109   2.06999
    A4        1.93674  -0.00003   0.00021  -0.00046  -0.00025   1.93649
    A5        1.93674  -0.00003   0.00021  -0.00046  -0.00025   1.93649
    A6        1.94283  -0.00000  -0.00025   0.00050   0.00025   1.94308
    A7        1.86088   0.00003  -0.00016   0.00036   0.00019   1.86107
    A8        1.89196   0.00002  -0.00001   0.00004   0.00003   1.89199
    A9        1.89196   0.00002  -0.00001   0.00004   0.00003   1.89199
   A10        3.14517   0.00024   0.00120   0.00052   0.00172   3.14689
   A11        3.12469   0.00059   0.00632   0.00139   0.00770   3.13240
   A12        3.14159  -0.00000   0.00000  -0.00000  -0.00000   3.14159
   A13        3.14159  -0.00000  -0.00000   0.00000  -0.00000   3.14159
    D1        2.10878   0.00000  -0.00003   0.00007   0.00004   2.10882
    D2       -2.10878  -0.00000   0.00003  -0.00007  -0.00004  -2.10882
    D3        0.00000  -0.00000  -0.00000   0.00000  -0.00000   0.00000
    D4       -1.03281   0.00000  -0.00003   0.00007   0.00004  -1.03277
    D5        1.03281  -0.00000   0.00003  -0.00007  -0.00004   1.03277
    D6       -3.14159   0.00000   0.00000  -0.00000   0.00000  -3.14159
         Item               Value     Threshold  Converged?
 Maximum Force            0.000587     0.000450     NO 
 RMS     Force            0.000139     0.000300     YES
 Maximum Displacement     0.013725     0.001800     NO 
 RMS     Displacement     0.004767     0.001200     NO 
 Predicted change in Energy=-2.691468D-06
 GradGradGradGradGradGradGradGradGradGradGradGradGradGradGradGradGradGrad

                          Input orientation:                          
 ---------------------------------------------------------------------
 Center     Atomic      Atomic             Coordinates (Angstroms)
 Number     Number       Type             X           Y           Z
 ---------------------------------------------------------------------
      1          6           0       -1.966205   -0.230215    0.000000
      2          1           0       -2.974282   -0.556841    0.000001
      3          6           0       -0.807744    0.151931   -0.000000
      4          6           0        0.501305    0.570448   -0.000000
      5          1           0        0.697334    1.633902    0.000000
      6          6           0        1.660831   -0.370053   -0.000000
      7          1           0        2.293631   -0.210098   -0.876168
      8          1           0        2.293629   -0.210101    0.876170
      9          1           0        1.330224   -1.405016   -0.000002
 ---------------------------------------------------------------------
                    Distance matrix (angstroms):
                    1          2          3          4          5
     1  C    0.000000
     2  H    1.059671   0.000000
     3  C    1.219865   2.279528   0.000000
     4  C    2.594161   3.653832   1.374323   0.000000
     5  H    3.251058   4.275526   2.112226   1.081371   0.000000
     6  C    3.629732   4.638876   2.523159   1.492998   2.223548
     7  H    4.349055   5.351524   3.243033   2.142278   2.591558
     8  H    4.349053   5.351522   3.243031   2.142278   2.591559
     9  H    3.499514   4.387274   2.644804   2.142326   3.104122
                    6          7          8          9
     6  C    0.000000
     7  H    1.092561   0.000000
     8  H    1.092561   1.752337   0.000000
     9  H    1.086485   1.767384   1.767384   0.000000
 Stoichiometry    C4H5(2)
 Framework group  C1[X(C4H5)]
 Deg. of freedom    21
 Full point group                 C1      NOp   1
 Largest Abelian subgroup         C1      NOp   1
 Largest concise Abelian subgroup C1      NOp   1
                         Standard orientation:                         
 ---------------------------------------------------------------------
 Center     Atomic      Atomic             Coordinates (Angstroms)
 Number     Number       Type             X           Y           Z
 ---------------------------------------------------------------------
      1          6           0       -1.965044   -0.230668    0.000000
      2          1           0       -2.972956   -0.557800    0.000001
      3          6           0       -0.806774    0.152060   -0.000000
      4          6           0        0.502064    0.571234   -0.000000
      5          1           0        0.697559    1.634787    0.000000
      6          6           0        1.662063   -0.368684   -0.000000
      7          1           0        2.294782   -0.208411   -0.876168
      8          1           0        2.294780   -0.208414    0.876170
      9          1           0        1.331975   -1.403813   -0.000002
 ---------------------------------------------------------------------
 Rotational constants (GHZ):          38.6360389           4.4557080           4.0951677
 Standard basis: CC-pVTZ (5D, 7F)
 There are   215 symmetry adapted cartesian basis functions of A   symmetry.
 There are   190 symmetry adapted basis functions of A   symmetry.
   190 basis functions,   293 primitive gaussians,   215 cartesian basis functions
    15 alpha electrons       14 beta electrons
       nuclear repulsion energy        95.7954145974 Hartrees.
 NAtoms=    9 NActive=    9 NUniq=    9 SFac= 1.00D+00 NAtFMM=   60 NAOKFM=F Big=F
 Integral buffers will be    131072 words long.
 Raffenetti 2 integral format.
 Two-electron integral symmetry is turned on.
 Nuclear repulsion after empirical dispersion term =       95.7913119471 Hartrees.
 One-electron integrals computed using PRISM.
 NBasis=   190 RedAO= T EigKep=  4.57D-05  NBF=   190
 NBsUse=   190 1.00D-06 EigRej= -1.00D+00 NBFU=   190
 Initial guess from the checkpoint file:  "/localscratch/339542/Gau-60928.chk"
 B after Tr=    -0.000000    0.000000    0.000000
         Rot=    1.000000   -0.000000   -0.000000   -0.000206 Ang=  -0.02 deg.
 Initial guess <Sx>= 0.0000 <Sy>= 0.0000 <Sz>= 0.5000 <S**2>= 0.8030 S= 0.5262
 Keep R1 and R2 ints in memory in canonical form, NReq=370972421.
 Requested convergence on RMS density matrix=1.00D-08 within 128 cycles.
 Requested convergence on MAX density matrix=1.00D-06.
 Requested convergence on             energy=1.00D-06.
 No special actions if energy rises.
 SCF Done:  E(UB2PLYPD3) =  -155.029618053     A.U. after   12 cycles
            NFock= 12  Conv=0.39D-08     -V/T= 2.0046
 <Sx>= 0.0000 <Sy>= 0.0000 <Sz>= 0.5000 <S**2>= 0.8031 S= 0.5262
 <L.S>=  0.00000000000    
 Annihilation of the first spin contaminant:
 S**2 before annihilation     0.8031,   after     0.7512
 DoSCS=T DFT=T ScalE2(SS,OS)=  0.270000  0.270000
 ExpMin= 1.03D-01 ExpMax= 8.24D+03 ExpMxC= 2.81D+02 IAcc=3 IRadAn=         5 AccDes= 0.00D+00
 HarFok:  IExCor=  205 AccDes= 0.00D+00 IRadAn=         5 IDoV=-2 UseB2=F ITyADJ=14
 ICtDFT= 12500011 ScaDFX=  1.000000  1.000000  1.000000  1.000000
 Range of M.O.s used for correlation:     5   190
 NBasis=   190 NAE=    15 NBE=    14 NFC=     4 NFV=     0
 NROrb=    186 NOA=    11 NOB=    10 NVA=   175 NVB=   176

 **** Warning!!: The largest alpha MO coefficient is  0.50389204D+02


 **** Warning!!: The largest beta MO coefficient is  0.50024256D+02

 DoSCS=T DFT=T ScalE2(SS,OS)=  0.270000  0.270000
 Fully direct method using O(ONN) memory.
 JobTyp=2 Pass  1:  I=   5 to  15 NPSUse= 40 ParTrn=T ParDer=T DoDerP=T.
 JobTyp=3 Pass  1:  I=   5 to  14 NPSUse= 40 ParTrn=T ParDer=T DoDerP=T.
 Spin components of T(2) and E(2):
     alpha-alpha T2 =       0.4488711239D-01 E2=     -0.2641142756D-01
     alpha-beta  T2 =       0.2457451964D+00 E2=     -0.1547285880D+00
     beta-beta   T2 =       0.4037936974D-01 E2=     -0.2235985825D-01
 (S**2,0)=  0.80312D+00           (S**2,1)=  0.75304D+00
 Scaling Projection term by:   0.270000
 E(PUHF)=      -0.15503822038D+03        E(PMP2)=      -0.15523436017D+03
 E2(B2PLYPD3) =    -0.2034998738D+00 E(B2PLYPD3) =    -0.15523311792647D+03
          IDoAtm=111111111
          Differentiating once with respect to electric field.
                with respect to dipole field.
          Differentiating once with respect to nuclear coordinates.
 Keep R1 and R2 ints in memory in canonical form, NReq=370978893.
          There are     1 degrees of freedom in the 1st order CPHF.  IDoFFX=0 NUNeed=     1.
 LinEq1:  Iter=  0 NonCon=     1 RMS=1.10D-03 Max=3.46D-02 NDo=     1
 AX will form     1 AO Fock derivatives at one time.
 LinEq1:  Iter=  1 NonCon=     1 RMS=4.05D-04 Max=1.06D-02 NDo=     1
 LinEq1:  Iter=  2 NonCon=     1 RMS=2.46D-04 Max=6.18D-03 NDo=     1
 LinEq1:  Iter=  3 NonCon=     1 RMS=1.68D-04 Max=5.83D-03 NDo=     1
 LinEq1:  Iter=  4 NonCon=     1 RMS=9.67D-05 Max=2.34D-03 NDo=     1
 LinEq1:  Iter=  5 NonCon=     1 RMS=3.20D-05 Max=4.33D-04 NDo=     1
 LinEq1:  Iter=  6 NonCon=     1 RMS=1.36D-05 Max=3.35D-04 NDo=     1
 LinEq1:  Iter=  7 NonCon=     1 RMS=5.90D-06 Max=1.74D-04 NDo=     1
 LinEq1:  Iter=  8 NonCon=     1 RMS=2.06D-06 Max=5.88D-05 NDo=     1
 LinEq1:  Iter=  9 NonCon=     1 RMS=7.59D-07 Max=1.22D-05 NDo=     1
 LinEq1:  Iter= 10 NonCon=     1 RMS=3.29D-07 Max=6.09D-06 NDo=     1
 LinEq1:  Iter= 11 NonCon=     1 RMS=1.23D-07 Max=1.54D-06 NDo=     1
 LinEq1:  Iter= 12 NonCon=     1 RMS=3.16D-08 Max=5.53D-07 NDo=     1
 LinEq1:  Iter= 13 NonCon=     1 RMS=7.29D-09 Max=7.92D-08 NDo=     1
 LinEq1:  Iter= 14 NonCon=     1 RMS=1.86D-09 Max=2.95D-08 NDo=     1
 LinEq1:  Iter= 15 NonCon=     1 RMS=4.34D-10 Max=7.43D-09 NDo=     1
 LinEq1:  Iter= 16 NonCon=     1 RMS=1.12D-10 Max=1.69D-09 NDo=     1
 LinEq1:  Iter= 17 NonCon=     0 RMS=2.20D-11 Max=3.06D-10 NDo=     1
 Linear equations converged to 1.000D-10 1.000D-09 after    17 iterations.
 End of Minotr F.D. properties file   721 does not exist.
 End of Minotr F.D. properties file   722 does not exist.
 End of Minotr F.D. properties file   788 does not exist.
 Calling FoFJK, ICntrl=  10002127 FMM=F ISym2X=0 I1Cent= 0 IOpClX= 1 NMat=1 NMatS=1 NMatT=0.
 ***** Axes restored to original set *****
 -------------------------------------------------------------------
 Center     Atomic                   Forces (Hartrees/Bohr)
 Number     Number              X              Y              Z
 -------------------------------------------------------------------
      1        6           0.000511402    0.000161646   -0.000000001
      2        1           0.000029140   -0.000020063   -0.000000010
      3        6          -0.000955303   -0.000192469    0.000000025
      4        6           0.000355418    0.000023648   -0.000000016
      5        1           0.000004667    0.000029100   -0.000000002
      6        6           0.000061966    0.000001782   -0.000000014
      7        1           0.000007773    0.000004261   -0.000007501
      8        1           0.000007787    0.000004250    0.000007511
      9        1          -0.000022850   -0.000012155    0.000000007
 -------------------------------------------------------------------
 Cartesian Forces:  Max     0.000955303 RMS     0.000225347

 GradGradGradGradGradGradGradGradGradGradGradGradGradGradGradGradGradGrad
 Berny optimization.
 Using GEDIIS/GDIIS optimizer.
 FormGI is forming the generalized inverse of G from B-inverse, IUseBI=4.
 Internal  Forces:  Max     0.000557639 RMS     0.000137309
 Search for a local minimum.
 Step number   4 out of a maximum of  100
 All quantities printed in internal units (Hartrees-Bohrs-Radians)
 Mixed Optimization -- En-DIIS/RFO-DIIS
 Swapping is turned off.
 Update second derivatives using D2CorX and points    1    2    3    4
 DE= -1.65D-06 DEPred=-2.69D-06 R= 6.12D-01
 TightC=F SS=  1.41D+00  RLast= 8.21D-03 DXNew= 2.5227D-01 2.4627D-02
 Trust test= 6.12D-01 RLast= 8.21D-03 DXMaxT set to 1.50D-01
 ITU=  1 -1  1  0
     Eigenvalues ---    0.00880   0.00880   0.02386   0.04156   0.04549
     Eigenvalues ---    0.07215   0.07354   0.09821   0.13861   0.16000
     Eigenvalues ---    0.16011   0.16032   0.21144   0.32913   0.34471
     Eigenvalues ---    0.34478   0.35156   0.35694   0.38334   0.44764
     Eigenvalues ---    0.93991
 En-DIIS/RFO-DIIS/Sim-DIIS IScMMF=       -3 using points:     4    3    2
 RFO step:  Lambda=-1.04411257D-06.
 DidBck=F Rises=F RFO-DIIS coefs:    0.64873    0.19916    0.15211
 Iteration  1 RMS(Cart)=  0.00094286 RMS(Int)=  0.00000046
 Iteration  2 RMS(Cart)=  0.00000065 RMS(Int)=  0.00000001
 Variable       Old X    -DE/DX   Delta X   Delta X   Delta X     New X
                                 (Linear)    (Quad)   (Total)
    R1        2.00249  -0.00002  -0.00013   0.00010  -0.00003   2.00245
    R2        2.30521  -0.00056  -0.00027  -0.00040  -0.00066   2.30455
    R3        2.59709   0.00041   0.00093   0.00016   0.00109   2.59818
    R4        2.04350   0.00003  -0.00004   0.00009   0.00004   2.04354
    R5        2.82136   0.00004  -0.00001   0.00003   0.00002   2.82138
    R6        2.06464   0.00001   0.00002   0.00002   0.00004   2.06468
    R7        2.06464   0.00001   0.00002   0.00002   0.00004   2.06468
    R8        2.05316   0.00002  -0.00001   0.00005   0.00005   2.05321
    A1        2.06252  -0.00002  -0.00025   0.00011  -0.00014   2.06238
    A2        2.15068   0.00004  -0.00030   0.00016  -0.00014   2.15053
    A3        2.06999  -0.00002   0.00055  -0.00027   0.00029   2.07028
    A4        1.93649   0.00000   0.00013  -0.00007   0.00006   1.93655
    A5        1.93649   0.00000   0.00013  -0.00007   0.00006   1.93655
    A6        1.94308  -0.00003  -0.00014  -0.00009  -0.00023   1.94285
    A7        1.86107  -0.00000  -0.00010   0.00008  -0.00002   1.86105
    A8        1.89199   0.00001  -0.00001   0.00008   0.00007   1.89206
    A9        1.89199   0.00001  -0.00001   0.00008   0.00007   1.89206
   A10        3.14689  -0.00006  -0.00036   0.00001  -0.00036   3.14654
   A11        3.13240  -0.00014  -0.00142  -0.00001  -0.00143   3.13097
   A12        3.14159  -0.00000   0.00000  -0.00000  -0.00000   3.14159
   A13        3.14159  -0.00000  -0.00000  -0.00000  -0.00000   3.14159
    D1        2.10882  -0.00000  -0.00002  -0.00001  -0.00003   2.10879
    D2       -2.10882   0.00000   0.00002   0.00001   0.00003  -2.10879
    D3        0.00000  -0.00000   0.00000  -0.00000  -0.00000   0.00000
    D4       -1.03277  -0.00000  -0.00002  -0.00001  -0.00003  -1.03280
    D5        1.03277   0.00000   0.00002   0.00001   0.00003   1.03280
    D6       -3.14159  -0.00000  -0.00000   0.00000   0.00000  -3.14159
         Item               Value     Threshold  Converged?
 Maximum Force            0.000558     0.000450     NO 
 RMS     Force            0.000137     0.000300     YES
 Maximum Displacement     0.002661     0.001800     NO 
 RMS     Displacement     0.000943     0.001200     YES
 Predicted change in Energy=-5.218122D-07
 GradGradGradGradGradGradGradGradGradGradGradGradGradGradGradGradGradGrad

                          Input orientation:                          
 ---------------------------------------------------------------------
 Center     Atomic      Atomic             Coordinates (Angstroms)
 Number     Number       Type             X           Y           Z
 ---------------------------------------------------------------------
      1          6           0       -1.965919   -0.230258    0.000000
      2          1           0       -2.973533   -0.558249    0.000000
      3          6           0       -0.808174    0.152941    0.000001
      4          6           0        0.501602    0.571074    0.000000
      5          1           0        0.697936    1.634496    0.000000
      6          6           0        1.660600   -0.370095   -0.000000
      7          1           0        2.293527   -0.210566   -0.876180
[...]
 Rotational temperatures (Kelvin)      1.85200     0.21387     0.19654
 Rotational constants (GHZ):          38.58933     4.45643     4.09526
 Zero-point vibrational energy     184535.4 (Joules/Mol)
                                   44.10501 (Kcal/Mol)
 Warning -- explicit consideration of   6 degrees of freedom as
           vibrations may cause significant error
 Vibrational temperatures:    108.22   302.23   561.20   687.03   793.62
          (Kelvin)            847.84   927.79  1253.78  1458.44  1591.74
                             1660.80  2009.77  2035.21  2142.67  2166.86
                             2942.44  4356.65  4418.60  4522.50  4586.39
                             5015.21
 
 Zero-point correction=                           0.070286 (Hartree/Particle)
 Thermal correction to Energy=                    0.075663
 Thermal correction to Enthalpy=                  0.076607
 Thermal correction to Gibbs Free Energy=         0.042199
 Sum of electronic and zero-point Energies=           -155.162833
 Sum of electronic and thermal Energies=              -155.157455
 Sum of electronic and thermal Enthalpies=            -155.156511
 Sum of electronic and thermal Free Energies=         -155.190920
 
                     E (Thermal)             CV                S
                      KCal/Mol        Cal/Mol-Kelvin    Cal/Mol-Kelvin
 Total                   47.479             17.457             72.419
 Electronic               0.000              0.000              1.377
 Translational            0.889              2.981             37.828
 Rotational               0.889              2.981             23.638
 Vibrational             45.702             11.495              9.575
 Vibration     1          0.599              1.966              4.012
 Vibration     2          0.642              1.825              2.043
 Vibration     3          0.758              1.491              1.000
 Vibration     4          0.834              1.300              0.717
 Vibration     5          0.907              1.136              0.541
 Vibration     6          0.947              1.055              0.468
                       Q            Log10(Q)             Ln(Q)
 Total Bot       0.389010D-19        -19.410039        -44.693266
 Total V=0       0.830159D+13         12.919161         29.747468
 Vib (Bot)       0.391726D-31        -31.407017        -72.317330
 Vib (Bot)    1  0.273987D+01          0.437729          1.007909
 Vib (Bot)    2  0.945507D+00         -0.024335         -0.056034
 Vib (Bot)    3  0.460256D+00         -0.337000         -0.775971
 Vib (Bot)    4  0.350991D+00         -0.454704         -1.046996
 Vib (Bot)    5  0.284070D+00         -0.546574         -1.258533
 Vib (Bot)    6  0.256186D+00         -0.591444         -1.361851
 Vib (V=0)       0.835954D+01          0.922182          2.123403
 Vib (V=0)    1  0.328512D+01          0.516551          1.189402
 Vib (V=0)    2  0.156957D+01          0.195781          0.450803
 Vib (V=0)    3  0.117959D+01          0.071729          0.165163
 Vib (V=0)    4  0.111090D+01          0.045674          0.105167
 Vib (V=0)    5  0.107506D+01          0.031433          0.072378
 Vib (V=0)    6  0.106181D+01          0.026047          0.059976
 Electronic      0.200000D+01          0.301030          0.693147
 Translational   0.151827D+08          7.181348         16.535666
 Rotational      0.327040D+05          4.514600         10.395251
 ***** Axes restored to original set *****
 -------------------------------------------------------------------
 Center     Atomic                   Forces (Hartrees/Bohr)
 Number     Number              X              Y              Z
 -------------------------------------------------------------------
      1        6          -0.000003104   -0.000000805    0.000000022
      2        1           0.000009956    0.000002938    0.000000002
      3        6          -0.000023357    0.000000720   -0.000000044
      4        6          -0.000016591   -0.000005130    0.000000007
      5        1           0.000014945    0.000001429    0.000000006
      6        6           0.000025623   -0.000001129    0.000000007
      7        1          -0.000004581    0.000001962    0.000000421
      8        1          -0.000004577    0.000001960   -0.000000423
      9        1           0.000001688   -0.000001946    0.000000001
 -------------------------------------------------------------------
 Cartesian Forces:  Max     0.000025623 RMS     0.000008401
 FormGI is forming the generalized inverse of G from B-inverse, IUseBI=4.

 GradGradGradGradGradGradGradGradGradGradGradGradGradGradGradGradGradGrad
 Berny optimization.
 Internal  Forces:  Max     0.000025481 RMS     0.000008278
 Search for a local minimum.
 Step number   1 out of a maximum of    2
 All quantities printed in internal units (Hartrees-Bohrs-Radians)
 Second derivative matrix not updated -- analytic derivatives used.
 ITU=  0
     Eigenvalues ---    0.00038   0.00913   0.01609   0.03908   0.05631
     Eigenvalues ---    0.05773   0.06655   0.09212   0.11022   0.12151
     Eigenvalues ---    0.13774   0.14073   0.16999   0.31573   0.32870
     Eigenvalues ---    0.34133   0.35063   0.35885   0.41578   0.41744
     Eigenvalues ---    0.96977
 Angle between quadratic step and forces=  26.32 degrees.
 Linear search not attempted -- first point.
 Iteration  1 RMS(Cart)=  0.00014232 RMS(Int)=  0.00000001
 Iteration  2 RMS(Cart)=  0.00000001 RMS(Int)=  0.00000000
 Variable       Old X    -DE/DX   Delta X   Delta X   Delta X     New X
                                 (Linear)    (Quad)   (Total)
    R1        2.00245  -0.00001   0.00000  -0.00002  -0.00002   2.00243
    R2        2.30455  -0.00001   0.00000  -0.00001  -0.00001   2.30454
    R3        2.59818   0.00001   0.00000   0.00002   0.00002   2.59820
    R4        2.04354   0.00000   0.00000   0.00002   0.00002   2.04355
    R5        2.82138   0.00001   0.00000   0.00005   0.00005   2.82143
    R6        2.06468  -0.00000   0.00000  -0.00001  -0.00001   2.06467
    R7        2.06468  -0.00000   0.00000  -0.00001  -0.00001   2.06467
    R8        2.05321   0.00000   0.00000   0.00000   0.00000   2.05321
    A1        2.06238   0.00000   0.00000   0.00006   0.00006   2.06244
    A2        2.15053   0.00002   0.00000   0.00015   0.00015   2.15069
    A3        2.07028  -0.00003   0.00000  -0.00021  -0.00021   2.07006
    A4        1.93655  -0.00001   0.00000  -0.00007  -0.00007   1.93649
    A5        1.93655  -0.00001   0.00000  -0.00007  -0.00007   1.93649
    A6        1.94285   0.00001   0.00000   0.00006   0.00006   1.94291
    A7        1.86105   0.00000   0.00000   0.00004   0.00004   1.86110
    A8        1.89206   0.00000   0.00000   0.00001   0.00001   1.89207
    A9        1.89206   0.00000   0.00000   0.00001   0.00001   1.89207
   A10        3.14654  -0.00000   0.00000  -0.00001  -0.00001   3.14653
   A11        3.13097  -0.00000   0.00000  -0.00000  -0.00000   3.13096
   A12        3.14159   0.00000   0.00000  -0.00000  -0.00000   3.14159
   A13        3.14159   0.00000   0.00000   0.00000   0.00000   3.14159
    D1        2.10879   0.00000   0.00000   0.00001   0.00001   2.10881
    D2       -2.10879  -0.00000   0.00000  -0.00002  -0.00002  -2.10881
    D3        0.00000   0.00000   0.00000  -0.00000  -0.00000   0.00000
    D4       -1.03280   0.00000   0.00000   0.00001   0.00001  -1.03278
    D5        1.03280  -0.00000   0.00000  -0.00002  -0.00002   1.03278
    D6       -3.14159  -0.00000   0.00000  -0.00000  -0.00000  -3.14159
         Item               Value     Threshold  Converged?
 Maximum Force            0.000025     0.000450     YES
 RMS     Force            0.000008     0.000300     YES
 Maximum Displacement     0.000403     0.001800     YES
 RMS     Displacement     0.000142     0.001200     YES
 Predicted change in Energy=-5.858876D-09
 Optimization completed.
    -- Stationary point found.
                           ----------------------------
                           !   Optimized Parameters   !
                           ! (Angstroms and Degrees)  !
 --------------------------                            --------------------------
 ! Name  Definition              Value          Derivative Info.                !
 --------------------------------------------------------------------------------
 ! R1    R(1,2)                  1.0597         -DE/DX =    0.0                 !
 ! R2    R(1,3)                  1.2195         -DE/DX =    0.0                 !
 ! R3    R(3,4)                  1.3749         -DE/DX =    0.0                 !
 ! R4    R(4,5)                  1.0814         -DE/DX =    0.0                 !
 ! R5    R(4,6)                  1.493          -DE/DX =    0.0                 !
 ! R6    R(6,7)                  1.0926         -DE/DX =    0.0                 !
 ! R7    R(6,8)                  1.0926         -DE/DX =    0.0                 !
 ! R8    R(6,9)                  1.0865         -DE/DX =    0.0                 !
 ! A1    A(3,4,5)              118.1656         -DE/DX =    0.0                 !
 ! A2    A(3,4,6)              123.2163         -DE/DX =    0.0                 !
 ! A3    A(5,4,6)              118.6181         -DE/DX =    0.0                 !
 ! A4    A(4,6,7)              110.9562         -DE/DX =    0.0                 !
 ! A5    A(4,6,8)              110.9562         -DE/DX =    0.0                 !
 ! A6    A(4,6,9)              111.3171         -DE/DX =    0.0                 !
 ! A7    A(7,6,8)              106.6306         -DE/DX =    0.0                 !
 ! A8    A(7,6,9)              108.407          -DE/DX =    0.0                 !
 ! A9    A(8,6,9)              108.407          -DE/DX =    0.0                 !
 ! A10   L(2,1,3,9,-1)         180.2832         -DE/DX =    0.0                 !
 ! A11   L(1,3,4,9,-1)         179.3913         -DE/DX =    0.0                 !
 ! A12   L(2,1,3,9,-2)         180.0            -DE/DX =    0.0                 !
 ! A13   L(1,3,4,9,-2)         179.9999         -DE/DX =    0.0                 !
 ! D1    D(3,4,6,7)            120.825          -DE/DX =    0.0                 !
 ! D2    D(3,4,6,8)           -120.8248         -DE/DX =    0.0                 !
 ! D3    D(3,4,6,9)              0.0001         -DE/DX =    0.0                 !
 ! D4    D(5,4,6,7)            -59.175          -DE/DX =    0.0                 !
 ! D5    D(5,4,6,8)             59.1752         -DE/DX =    0.0                 !
 ! D6    D(5,4,6,9)           -179.9999         -DE/DX =    0.0                 !
 --------------------------------------------------------------------------------
 GradGradGradGradGradGradGradGradGradGradGradGradGradGradGradGradGradGrad


 ----------------------------------------------------------------------

 Electric dipole moment (input orientation):
 (Debye = 10**-18 statcoulomb cm , SI units = C m)
                  (au)            (Debye)         (10**-30 SI)
   Tot        0.239513D+00      0.608782D+00      0.203068D+01
   x          0.238022D+00      0.604992D+00      0.201804D+01
   y         -0.266865D-01     -0.678302D-01     -0.226257D+00
   z          0.000000D+00      0.000000D+00      0.000000D+00

 Dipole polarizability, Alpha (input orientation).
 (esu units = cm**3 , SI units = C**2 m**2 J**-1)
 Alpha(0;0):
               (au)            (10**-24 esu)      (10**-40 SI)
   iso        0.461392D+02      0.683712D+01      0.760733D+01
   aniso      0.408113D+02      0.604761D+01      0.672887D+01
   xx         0.719503D+02      0.106619D+02      0.118630D+02
   yx         0.670398D+01      0.993427D+00      0.110534D+01
   yy         0.364871D+02      0.540683D+01      0.601591D+01
   zx         0.000000D+00      0.000000D+00      0.000000D+00
   zy         0.000000D+00      0.000000D+00      0.000000D+00
   zz         0.299802D+02      0.444261D+01      0.494307D+01

 ----------------------------------------------------------------------

 Dipole orientation:
     6         -0.09429830         -0.84107415         -3.64343441
     1         -0.18656506         -1.66402706         -5.46663408
     6          0.01304130          0.11632523         -1.54991984
     6          0.13125887          1.17073243          0.82174807
     1          0.35837643          3.19644236          0.96654917
     6         -0.03848299         -0.34322962          3.19646348
     1          1.65517467         -0.09755421          4.35148675
     1         -1.63568888          0.27140408          4.35148314
     1         -0.26276150         -2.34364809          2.79189030

 Electric dipole moment (dipole orientation):
 (Debye = 10**-18 statcoulomb cm , SI units = C m)
                  (au)            (Debye)         (10**-30 SI)
   Tot        0.239513D+00      0.608782D+00      0.203068D+01
   x          0.000000D+00      0.000000D+00      0.000000D+00
   y          0.000000D+00      0.000000D+00      0.000000D+00
   z          0.239513D+00      0.608782D+00      0.203068D+01

 Dipole polarizability, Alpha (dipole orientation).
 (esu units = cm**3 , SI units = C**2 m**2 J**-1)
 Alpha(0;0):
               (au)            (10**-24 esu)      (10**-40 SI)
   iso        0.461392D+02      0.683712D+01      0.760733D+01
   aniso      0.408113D+02      0.604761D+01      0.672887D+01
   xx         0.300849D+02      0.445812D+01      0.496033D+01
   yx         0.933602D+00      0.138346D+00      0.153930D+00
   yy         0.383073D+02      0.567655D+01      0.631602D+01
   zx         0.116590D+01      0.172769D+00      0.192231D+00
   zy         0.103991D+02      0.154098D+01      0.171457D+01
   zz         0.700254D+02      0.103767D+02      0.115456D+02

 ----------------------------------------------------------------------
 1\1\GINC-N68\Freq\UB2PLYPD3-FC\CC-pVTZ\C4H5(2)\ROOT\31-May-2019\0\\#N 
 Geom=AllCheck Guess=TCheck SCRF=Check GenChk UB2PLYPD3(FC)/CC-pVTZ Fre
 q\\Title Card Required\\0,2\C,-1.9659185381,-0.2302579933,0.0000002789
 \H,-2.9735327635,-0.558248858,0.0000002734\C,-0.8081737876,0.152940879
 5,0.0000007368\C,0.5016023625,0.5710740846,0.0000002518\H,0.6979361862
 ,1.6344960425,0.0000002825\C,1.6605996355,-0.3700948792,-0.0000001669\
 H,2.293526797,-0.2105664918,-0.8761797598\H,2.2935252606,-0.2105691391
 ,0.8761810529\H,1.3291568475,-1.4048166452,-0.0000019496\\Version=ES64
 L-G16RevB.01\State=2-A\HF=-155.0296249\MP2=-155.2331185\PUHF=-155.0382
 106\PMP2-0=-155.2343578\S2=0.802983\S2-1=0.753009\S2A=0.751193\RMSD=1.
 272e-09\RMSF=8.401e-06\ZeroPoint=0.0702858\Thermal=0.0756631\Dipole=0.
 2380221,-0.0266865,0.\DipoleDeriv=-0.3971114,-0.0146437,0.,-0.0573472,
 -0.2491951,0.,-0.0000004,0.,-0.2584951,0.2346085,-0.0005578,0.,0.00591
 85,0.218413,0.,0.0000002,0.,0.21942,-0.0557176,0.0836514,0.,0.077676,-
 0.1532549,0.,0.0000001,0.,-0.0277118,0.3449779,-0.0286461,-0.0000002,-
 0.0539677,0.1936298,0.,0.0000002,0.,-0.190466,-0.020423,-0.0031291,0.,
 -0.0091361,-0.0626728,0.,0.,0.,0.1405197,-0.0376297,0.0209418,0.,-0.06
 99038,0.0236397,0.,-0.0000006,0.,0.135466,-0.048733,0.0052941,0.075572
 9,0.0513322,0.0574134,0.0365147,0.1165207,0.0184566,-0.0452105,-0.0487
 328,0.0052944,-0.0755728,0.0513328,0.0574135,-0.0365144,-0.1165205,-0.
 0184563,-0.045211,0.0287612,-0.068205,-0.0000001,0.0040955,-0.0853866,
 -0.0000003,0.,-0.0000003,0.0716887\Polar=71.9502982,6.7039771,36.48708
 4,0.0000016,0.000001,29.9802323\PG=C01 [X(C4H5)]\NImag=0\\1.25818000,0
 .39957017,0.17299406,0.00000026,0.00000009,0.02707667,-0.38554871,-0.1
 1944526,-0.00000002,0.37874290,-0.11902680,-0.05792991,0.,0.11903767,0
 .05202671,0.00000002,0.,-0.00935682,0.,0.,0.00751061,-0.80159783,-0.25
 441866,-0.00000023,0.00515884,0.00154474,-0.00000004,1.11408785,-0.253
 03538,-0.11228987,-0.00000007,0.00208202,-0.00039602,-0.00000001,0.325
 60612,0.21046188,-0.00000029,-0.00000009,-0.02522264,0.00000001,0.,-0.
 00216132,0.00000017,0.00000007,0.05556058,-0.06995118,-0.02588622,-0.0
 0000002,0.00147375,-0.00160024,0.,-0.27662633,-0.06463122,0.00000009,0
 .60190231,-0.02714571,-0.00228686,0.,-0.00176794,0.00663780,0.,-0.0635
 4400,-0.10241837,0.00000002,0.04876663,0.58771092,0.,0.,0.00467445,0.,
 0.,0.00371468,0.00000008,0.00000001,-0.03325090,-0.00000013,0.00000001
 ,0.08956980,-0.00285313,-0.00015031,0.,-0.00025611,0.00105756,0.,-0.00
 706451,-0.03130000,0.,-0.06258270,-0.05098112,0.00000001,0.06736081,0.
 00216869,0.00055058,0.,-0.00013630,0.00006907,0.,-0.00637812,-0.005751
 57,0.,-0.04947054,-0.32877338,0.,0.05548481,0.34818171,0.,0.,0.0011785
 9,0.,0.,0.00012246,0.,0.00000001,0.00351692,0.00000001,0.,-0.02128847,
 -0.00000002,0.00000001,0.00914703,0.00515965,0.00217200,0.,0.00019445,
 -0.00082170,0.,-0.03717574,0.01306574,0.,-0.15740570,0.06790918,0.0000
 0003,0.00789575,-0.00482582,0.,0.50519237,-0.00485166,-0.00263339,0.,0
 .00032177,-0.00040843,0.,-0.00205465,0.01224509,-0.00000001,0.07176192
 ,-0.14774524,-0.00000001,0.02426263,-0.01431236,0.,0.04800081,0.555917
 91,0.,0.,0.00200895,0.,0.,0.00005772,0.,-0.00000002,0.00396328,0.00000
 008,-0.00000005,-0.05048919,0.00000001,0.,0.00492889,-0.00000007,0.000
 00005,0.51022173,-0.00154305,-0.00066166,-0.00047592,0.00013134,-0.000
 11517,-0.00004684,0.00029258,0.00365458,0.00105450,-0.02211026,-0.0008
 4309,0.01703340,0.00071965,0.00002233,-0.00129770,-0.12399309,-0.02610
 636,0.12275340,0.14161587,0.00085860,0.00053936,0.00041319,-0.00007206
 ,0.00004951,0.00007435,0.00042146,-0.00161956,-0.00090359,0.01378600,0
 .00374720,-0.01520526,-0.00086209,0.00036423,0.00074713,-0.02246262,-0
 .05476064,0.03022351,0.02247351,0.05406526,0.00013141,0.00000624,-0.00
 008944,-0.00002661,-0.00003261,0.00004022,-0.00102120,-0.00037835,-0.0
 0108971,-0.00033233,-0.00167474,0.00409402,0.00049363,-0.00034664,0.00
 037134,0.11870306,0.03392843,-0.21130749,-0.13146152,-0.03638125,0.230
 78655,-0.00154305,-0.00066166,0.00047592,0.00013134,-0.00011517,0.0000
 4684,0.00029260,0.00365457,-0.00105449,-0.02211024,-0.00084301,-0.0170
 3343,0.00071964,0.00002233,0.00129770,-0.12399263,-0.02610595,-0.12275
 329,0.01084196,0.00255051,0.01526711,0.14161537,0.00085860,0.00053936,
 -0.00041319,-0.00007206,0.00004951,-0.00007435,0.00042144,-0.00161955,
 0.00090359,0.01378598,0.00374714,0.01520528,-0.00086208,0.00036422,-0.
 00074713,-0.02246220,-0.05476041,-0.03022306,0.00255054,0.00076916,0.0
 0492810,0.02247305,0.05406502,-0.00013142,-0.00000624,-0.00008944,0.00
 002661,0.00003261,0.00004022,0.00102122,0.00037836,-0.00108971,0.00033
 229,0.00167476,0.00409405,-0.00049363,0.00034664,0.00037134,-0.1187029
 1,-0.03392801,-0.21130806,-0.01526704,-0.00492802,-0.02363493,0.131461
 40,0.03638075,0.23078718,-0.00030270,-0.00051840,0.,-0.00002780,0.0000
 3910,0.,0.00263254,0.00090356,0.,0.00741036,0.02844905,0.00000004,-0.0
 0393941,0.00311263,0.,-0.07587506,-0.08522851,-0.00000013,-0.00595499,
 -0.01669331,-0.00175355,-0.00595498,-0.01669328,0.00175349,0.08201205,
 0.00060348,0.00051667,0.,0.00005216,-0.00009824,0.,-0.00159833,0.00138
 797,0.,-0.00651231,-0.02061920,-0.00000002,0.00335060,-0.00069251,0.,-
 0.08057540,-0.29354253,-0.00000043,-0.00097469,-0.00315450,-0.00004918
 ,-0.00097467,-0.00315444,0.00004916,0.08662916,0.31935677,0.,0.,-0.000
 18032,0.,0.,0.00003223,0.,0.,-0.00022652,0.,0.,-0.00111844,0.,0.,0.001
 65189,-0.00000012,-0.00000044,-0.04807583,0.00770773,0.02595995,0.0008
 2944,-0.00770775,-0.02595999,0.00082935,0.00000016,0.00000047,0.046258
 20\\0.00000310,0.00000080,-0.00000002,-0.00000996,-0.00000294,0.,0.000
 02336,-0.00000072,0.00000004,0.00001659,0.00000513,0.,-0.00001495,-0.0
 0000143,0.,-0.00002562,0.00000113,0.,0.00000458,-0.00000196,-0.0000004
 2,0.00000458,-0.00000196,0.00000042,-0.00000169,0.00000195,0.\\\@


 QUANTUM MECHANICS IS BOHRING -- M.S. GORDON
 Job cpu time:       0 days  4 hours 29 minutes 33.3 seconds.
 Elapsed time:       0 days  0 hours  6 minutes 57.1 seconds.
 File lengths (MBytes):  RWF=   9023 Int=      0 D2E=      0 Chk=      7 Scr=      1
 Normal termination of Gaussian 16 at Fri May 31 17:48:04 2019.
