 Entering Gaussian System, Link 0=g16
 Initial command:
 /ichec/packages/gaussian/16b01/l1.exe "/localscratch/339542/Gau-27501.inp" -scrdir="/localscratch/339542/"
 Entering Link 1 = /ichec/packages/gaussian/16b01/l1.exe PID=     27507.
  
 Copyright (c) 1988-2017, Gaussian, Inc.  All Rights Reserved.
  
 This is part of the Gaussian(R) 16 program.  It is based on
 the Gaussian(R) 09 system (copyright 2009, Gaussian, Inc.),
 the Gaussian(R) 03 system (copyright 2003, Gaussian, Inc.),
 the Gaussian(R) 98 system (copyright 1998, Gaussian, Inc.),
 the Gaussian(R) 94 system (copyright 1995, Gaussian, Inc.),
 the Gaussian 92(TM) system (copyright 1992, Gaussian, Inc.),
 the Gaussian 90(TM) system (copyright 1990, Gaussian, Inc.),
 the Gaussian 88(TM) system (copyright 1988, Gaussian, Inc.),
 the Gaussian 86(TM) system (copyright 1986, Carnegie Mellon
 University), and the Gaussian 82(TM) system (copyright 1983,
 Carnegie Mellon University). Gaussian is a federally registered
 trademark of Gaussian, Inc.
  
 This software contains proprietary and confidential information,
 including trade secrets, belonging to Gaussian, Inc.
  
 This software is provided under written license and may be
 used, copied, transmitted, or stored only in accord with that
 written license.
  
 The following legend is applicable only to US Government
 contracts under FAR:
  
                    RESTRICTED RIGHTS LEGEND
  
 Use, reproduction and disclosure by the US Government is
 subject to restrictions as set forth in subparagraphs (a)
 and (c) of the Commercial Computer Software - Restricted
 Rights clause in FAR 52.227-19.
  
 Gaussian, Inc.
 340 Quinnipiac St., Bldg. 40, Wallingford CT 06492
  
  
 ---------------------------------------------------------------
 Warning -- This program may not be used in any manner that
 competes with the business of Gaussian, Inc. or will provide
 assistance to any competitor of Gaussian, Inc.  The licensee
 of this program is prohibited from giving any competitor of
 Gaussian, Inc. access to this program.  By using this program,
 the user acknowledges that Gaussian, Inc. is engaged in the
 business of creating and licensing software in the field of
 computational chemistry and represents and warrants to the
 licensee that it is not a competitor of Gaussian, Inc. and that
 it will not use this program in any manner prohibited above.
 ---------------------------------------------------------------
  

 Cite this work as:
 Gaussian 16, Revision B.01,
 M. J. Frisch, G. W. Trucks, H. B. Schlegel, G. E. Scuseria, 
 M. A. Robb, J. R. Cheeseman, G. Scalmani, V. Barone, 
 G. A. Petersson, H. Nakatsuji, X. Li, M. Caricato, A. V. Marenich, 
 J. Bloino, B. G. Janesko, R. Gomperts, B. Mennucci, H. P. Hratchian, 
 J. V. Ortiz, A. F. Izmaylov, J. L. Sonnenberg, D. Williams-Young, 
 F. Ding, F. Lipparini, F. Egidi, J. Goings, B. Peng, A. Petrone, 
 T. Henderson, D. Ranasinghe, V. G. Zakrzewski, J. Gao, N. Rega, 
 G. Zheng, W. Liang, M. Hada, M. Ehara, K. Toyota, R. Fukuda, 
 J. Hasegawa, M. Ishida, T. Nakajima, Y. Honda, O. Kitao, H. Nakai, 
 T. Vreven, K. Throssell, J. A. Montgomery, Jr., J. E. Peralta, 
 F. Ogliaro, M. J. Bearpark, J. J. Heyd, E. N. Brothers, K. N. Kudin, 
 V. N. Staroverov, T. A. Keith, R. Kobayashi, J. Normand, 
 K. Raghavachari, A. P. Rendell, J. C. Burant, S. S. Iyengar, 
 J. Tomasi, M. Cossi, J. M. Millam, M. Klene, C. Adamo, R. Cammi, 
 J. W. Ochterski, R. L. Martin, K. Morokuma, O. Farkas, 
 J. B. Foresman, and D. J. Fox, Gaussian, Inc., Wallingford CT, 2016.
 
 ******************************************
 Gaussian 16:  ES64L-G16RevB.01 20-Dec-2017
                31-May-2019 
 ******************************************
 %mem=80GB
 %nproc=40
 Will use up to   40 processors via shared memory.
 -----------------------------------------------
 # opt=maxcyc=500 freq=noraman uB2PLYPD3/cc-pvtz
 -----------------------------------------------
 1/6=500,18=20,19=15,38=1/1,3;
 2/9=110,12=2,17=6,18=5,40=1/2;
 3/5=16,6=1,11=2,25=1,30=1,71=1,74=-60,116=2/1,2,3;
 4//1;
 5/5=2,38=5/2;
 8/6=4,10=1/1;
 9/15=2,16=-3/6;
 10/5=1/2;
 6/7=2,8=2,9=2,10=2/1;
 7/12=2/1,2,3,16;
 1/6=500,18=20,19=15/3(2);
 2/9=110/2;
 99//99;
 2/9=110/2;
 3/5=16,6=1,11=2,25=1,30=1,71=1,74=-60,116=2/1,2,3;
 4/5=5,16=3,69=1/1;
 5/5=2,38=5/2;
 8/6=4,10=1/1;
 9/15=2,16=-3/6;
 10/5=1/2;
 7/12=2/1,2,3,16;
 1/6=500,18=20,19=15/3(-8);
 2/9=110/2;
 6/7=2,8=2,9=2,10=2/1;
 99/9=10/99;
 -------------------
 Title Card Required
 -------------------
 Symbolic Z-matrix:
 Charge =  0 Multiplicity = 2
 C                    -1.70747  -0.26021  -0.29476 
 C                    -0.54081   0.5344    0.30039 
 H                    -2.62306   0.33425  -0.30692 
 H                    -1.48118  -0.56473  -1.3187 
 H                    -1.90108  -1.1643    0.28797 
 C                     0.71761  -0.28114   0.35972 
 H                    -0.35989   1.43748  -0.28917 
 H                    -0.80769   0.86001   1.31168 
 C                     1.84115   0.00852  -0.28664 
 H                     0.67402  -1.18337   0.9686 
 H                     2.6891   -0.63856  -0.20201 
 

 GradGradGradGradGradGradGradGradGradGradGradGradGradGradGradGradGradGrad
 Berny optimization.
 Initialization pass.
                           ----------------------------
                           !    Initial Parameters    !
                           ! (Angstroms and Degrees)  !
 --------------------------                            --------------------------
 ! Name  Definition              Value          Derivative Info.                !
 --------------------------------------------------------------------------------
 ! R1    R(1,2)                  1.5319         estimate D2E/DX2                !
 ! R2    R(1,3)                  1.0917         estimate D2E/DX2                !
 ! R3    R(1,4)                  1.092          estimate D2E/DX2                !
 ! R4    R(1,5)                  1.0929         estimate D2E/DX2                !
 ! R5    R(2,6)                  1.5008         estimate D2E/DX2                !
 ! R6    R(2,7)                  1.0935         estimate D2E/DX2                !
 ! R7    R(2,8)                  1.0954         estimate D2E/DX2                !
 ! R8    R(6,9)                  1.3282         estimate D2E/DX2                !
 ! R9    R(6,10)                 1.0893         estimate D2E/DX2                !
 ! R10   R(9,11)                 1.07           estimate D2E/DX2                !
 ! A1    A(2,1,3)              111.1365         estimate D2E/DX2                !
 ! A2    A(2,1,4)              110.557          estimate D2E/DX2                !
 ! A3    A(2,1,5)              110.9077         estimate D2E/DX2                !
 ! A4    A(3,1,4)              108.3732         estimate D2E/DX2                !
 ! A5    A(3,1,5)              107.9273         estimate D2E/DX2                !
 ! A6    A(4,1,5)              107.8182         estimate D2E/DX2                !
 ! A7    A(1,2,6)              111.8439         estimate D2E/DX2                !
 ! A8    A(1,2,7)              110.1762         estimate D2E/DX2                !
 ! A9    A(1,2,8)              109.1056         estimate D2E/DX2                !
 ! A10   A(6,2,7)              109.3509         estimate D2E/DX2                !
 ! A11   A(6,2,8)              109.2275         estimate D2E/DX2                !
 ! A12   A(7,2,8)              107.0111         estimate D2E/DX2                !
 ! A13   A(2,6,9)              124.8603         estimate D2E/DX2                !
 ! A14   A(2,6,10)             116.0166         estimate D2E/DX2                !
 ! A15   A(9,6,10)             119.1106         estimate D2E/DX2                !
 ! A16   A(6,9,11)             120.0            estimate D2E/DX2                !
 ! D1    D(3,1,2,6)            178.4238         estimate D2E/DX2                !
 ! D2    D(3,1,2,7)            -59.7313         estimate D2E/DX2                !
 ! D3    D(3,1,2,8)             57.471          estimate D2E/DX2                !
 ! D4    D(4,1,2,6)            -61.1848         estimate D2E/DX2                !
 ! D5    D(4,1,2,7)             60.6601         estimate D2E/DX2                !
 ! D6    D(4,1,2,8)            177.8625         estimate D2E/DX2                !
 ! D7    D(5,1,2,6)             58.3602         estimate D2E/DX2                !
 ! D8    D(5,1,2,7)           -179.7949         estimate D2E/DX2                !
 ! D9    D(5,1,2,8)            -62.5925         estimate D2E/DX2                !
 ! D10   D(1,2,6,9)            117.8348         estimate D2E/DX2                !
 ! D11   D(1,2,6,10)           -60.8628         estimate D2E/DX2                !
 ! D12   D(7,2,6,9)             -4.4831         estimate D2E/DX2                !
 ! D13   D(7,2,6,10)           176.8192         estimate D2E/DX2                !
 ! D14   D(8,2,6,9)           -121.2832         estimate D2E/DX2                !
 ! D15   D(8,2,6,10)            60.0191         estimate D2E/DX2                !
 ! D16   D(2,6,9,11)          -178.9165         estimate D2E/DX2                !
 ! D17   D(10,6,9,11)           -0.2561         estimate D2E/DX2                !
 --------------------------------------------------------------------------------
 Trust Radius=3.00D-01 FncErr=1.00D-07 GrdErr=1.00D-07 EigMax=2.50D+02 EigMin=1.00D-04
 Number of steps in this run=    100 maximum allowed number of steps=    100.
 GradGradGradGradGradGradGradGradGradGradGradGradGradGradGradGradGradGrad

                          Input orientation:                          
 ---------------------------------------------------------------------
 Center     Atomic      Atomic             Coordinates (Angstroms)
 Number     Number       Type             X           Y           Z
 ---------------------------------------------------------------------
      1          6           0       -1.707467   -0.260212   -0.294762
      2          6           0       -0.540811    0.534404    0.300391
      3          1           0       -2.623057    0.334247   -0.306921
      4          1           0       -1.481181   -0.564732   -1.318701
      5          1           0       -1.901079   -1.164298    0.287970
      6          6           0        0.717611   -0.281143    0.359723
      7          1           0       -0.359888    1.437476   -0.289167
      8          1           0       -0.807688    0.860010    1.311681
      9          6           0        1.841149    0.008521   -0.286643
     10          1           0        0.674023   -1.183372    0.968596
     11          1           0        2.689102   -0.638560   -0.202014
 ---------------------------------------------------------------------
                    Distance matrix (angstroms):
                    1          2          3          4          5
     1  C    0.000000
     2  C    1.531897   0.000000
     3  H    1.091712   2.178219   0.000000
     4  H    1.091966   2.171141   1.770803   0.000000
     5  H    1.092901   2.176252   1.766574   1.765555   0.000000
     6  C    2.511930   1.500754   3.461673   2.780686   2.764534
     7  H    2.167520   1.093550   2.517809   2.515169   3.078569
     8  H    2.155263   1.095422   2.488346   3.066332   2.518196
     9  C    3.558786   2.508963   4.476119   3.525853   3.963579
    10  H    2.849525   2.207504   3.847187   3.203022   2.663600
    11  H    4.413793   3.472836   5.401517   4.317835   4.646100
                    6          7          8          9         10
     6  C    0.000000
     7  H    2.129721   0.000000
     8  H    2.129552   1.759746   0.000000
     9  C    1.328169   2.624211   3.208740   0.000000
    10  H    1.089332   3.085415   2.547270   2.087682   0.000000
    11  H    2.080883   3.689697   4.094451   1.070000   2.393260
                   11
    11  H    0.000000
 Stoichiometry    C4H7(2)
 Framework group  C1[X(C4H7)]
 Deg. of freedom    27
 Full point group                 C1      NOp   1
 Largest Abelian subgroup         C1      NOp   1
 Largest concise Abelian subgroup C1      NOp   1
                         Standard orientation:                         
 ---------------------------------------------------------------------
 Center     Atomic      Atomic             Coordinates (Angstroms)
 Number     Number       Type             X           Y           Z
 ---------------------------------------------------------------------
      1          6           0       -1.645936   -0.362623   -0.151519
      2          6           0       -0.486996    0.614404    0.069804
      3          1           0       -2.580115    0.170559   -0.338229
      4          1           0       -1.442905   -1.010998   -1.006374
      5          1           0       -1.791547   -0.999829    0.724380
      6          6           0        0.798295   -0.101682    0.365627
      7          1           0       -0.354247    1.247973   -0.811569
      8          1           0       -0.731661    1.277145    0.906981
      9          6           0        1.890619   -0.043291   -0.387665
     10          1           0        0.803331   -0.724969    1.259009
     11          1           0        2.761250   -0.600730   -0.111687
 ---------------------------------------------------------------------
 Rotational constants (GHZ):          24.1809892           4.3873277           4.2385094
 Standard basis: CC-pVTZ (5D, 7F)
 There are   245 symmetry adapted cartesian basis functions of A   symmetry.
 There are   218 symmetry adapted basis functions of A   symmetry.
   218 basis functions,   327 primitive gaussians,   245 cartesian basis functions
    16 alpha electrons       15 beta electrons
       nuclear repulsion energy       109.8531133518 Hartrees.
 NAtoms=   11 NActive=   11 NUniq=   11 SFac= 1.00D+00 NAtFMM=   60 NAOKFM=F Big=F
 Integral buffers will be    131072 words long.
 Raffenetti 2 integral format.
 Two-electron integral symmetry is turned on.
 Nuclear repulsion after empirical dispersion term =      109.8479286942 Hartrees.
 One-electron integrals computed using PRISM.
 NBasis=   218 RedAO= T EigKep=  5.37D-04  NBF=   218
 NBsUse=   218 1.00D-06 EigRej= -1.00D+00 NBFU=   218
 ExpMin= 1.03D-01 ExpMax= 8.24D+03 ExpMxC= 2.81D+02 IAcc=3 IRadAn=         5 AccDes= 0.00D+00
 Harris functional with IExCor=  419 and IRadAn=       5 diagonalized for initial guess.
 HarFok:  IExCor=  419 AccDes= 0.00D+00 IRadAn=         5 IDoV= 1 UseB2=F ITyADJ=14
 ICtDFT=  3500011 ScaDFX=  1.000000  1.000000  1.000000  1.000000
 FoFCou: FMM=F IPFlag=           0 FMFlag=      100000 FMFlg1=           0
         NFxFlg=           0 DoJE=T BraDBF=F KetDBF=T FulRan=T
         wScrn=  0.000000 ICntrl=       500 IOpCl=  0 I1Cent=   200000004 NGrid=           0
         NMat0=    1 NMatS0=      1 NMatT0=    0 NMatD0=    1 NMtDS0=    0 NMtDT0=    0
 Petite list used in FoFCou.
 Initial guess <Sx>= 0.0000 <Sy>= 0.0000 <Sz>= 0.5000 <S**2>= 0.7500 S= 0.5000
 Keep R1 and R2 ints in memory in canonical form, NReq=612885869.
 Requested convergence on RMS density matrix=1.00D-08 within 128 cycles.
 Requested convergence on MAX density matrix=1.00D-06.
 Requested convergence on             energy=1.00D-06.
 No special actions if energy rises.
 Integral accuracy reduced to 1.0D-05 until final iterations.
 Initial convergence to 1.0D-05 achieved.  Increase integral accuracy.
 SCF Done:  E(UB2PLYPD3) =  -156.222548437     A.U. after   19 cycles
            NFock= 19  Conv=0.97D-08     -V/T= 2.0048
 <Sx>= 0.0000 <Sy>= 0.0000 <Sz>= 0.5000 <S**2>= 0.7835 S= 0.5166
 <L.S>=  0.00000000000    
 Annihilation of the first spin contaminant:
 S**2 before annihilation     0.7835,   after     0.7502
 DoSCS=T DFT=T ScalE2(SS,OS)=  0.270000  0.270000
 ExpMin= 1.03D-01 ExpMax= 8.24D+03 ExpMxC= 2.81D+02 IAcc=3 IRadAn=         5 AccDes= 0.00D+00
 HarFok:  IExCor=  205 AccDes= 0.00D+00 IRadAn=         5 IDoV=-2 UseB2=F ITyADJ=14
 ICtDFT= 12500011 ScaDFX=  1.000000  1.000000  1.000000  1.000000
 Range of M.O.s used for correlation:     5   218
 NBasis=   218 NAE=    16 NBE=    15 NFC=     4 NFV=     0
 NROrb=    214 NOA=    12 NOB=    11 NVA=   202 NVB=   203

 **** Warning!!: The largest alpha MO coefficient is  0.11943347D+02


 **** Warning!!: The largest beta MO coefficient is  0.12825323D+02

 DoSCS=T DFT=T ScalE2(SS,OS)=  0.270000  0.270000
 Fully direct method using O(ONN) memory.
 JobTyp=2 Pass  1:  I=   5 to  16 NPSUse= 40 ParTrn=T ParDer=T DoDerP=T.
 JobTyp=3 Pass  1:  I=   5 to  15 NPSUse= 40 ParTrn=T ParDer=T DoDerP=T.
 Spin components of T(2) and E(2):
     alpha-alpha T2 =       0.4138076202D-01 E2=     -0.2580669021D-01
     alpha-beta  T2 =       0.2457406807D+00 E2=     -0.1631702820D+00
     beta-beta   T2 =       0.3673238134D-01 E2=     -0.2242424467D-01
 (S**2,0)=  0.78345D+00           (S**2,1)=  0.76292D+00
 Scaling Projection term by:   0.270000
 E(PUHF)=      -0.15622621374D+03        E(PMP2)=      -0.15643463687D+03
 E2(B2PLYPD3) =    -0.2114012168D+00 E(B2PLYPD3) =    -0.15643394965343D+03
          IDoAtm=11111111111
          Differentiating once with respect to electric field.
                with respect to dipole field.
          Differentiating once with respect to nuclear coordinates.
 Keep R1 and R2 ints in memory in canonical form, NReq=612894013.
          There are     1 degrees of freedom in the 1st order CPHF.  IDoFFX=0 NUNeed=     1.
 LinEq1:  Iter=  0 NonCon=     1 RMS=8.26D-04 Max=2.26D-02 NDo=     1
 AX will form     1 AO Fock derivatives at one time.
 LinEq1:  Iter=  1 NonCon=     1 RMS=3.30D-04 Max=8.91D-03 NDo=     1
 LinEq1:  Iter=  2 NonCon=     1 RMS=2.35D-04 Max=8.97D-03 NDo=     1
 LinEq1:  Iter=  3 NonCon=     1 RMS=1.03D-04 Max=4.20D-03 NDo=     1
 LinEq1:  Iter=  4 NonCon=     1 RMS=5.44D-05 Max=1.76D-03 NDo=     1
 LinEq1:  Iter=  5 NonCon=     1 RMS=1.59D-05 Max=3.22D-04 NDo=     1
 LinEq1:  Iter=  6 NonCon=     1 RMS=6.59D-06 Max=1.08D-04 NDo=     1
 LinEq1:  Iter=  7 NonCon=     1 RMS=2.51D-06 Max=2.79D-05 NDo=     1
 LinEq1:  Iter=  8 NonCon=     1 RMS=8.92D-07 Max=1.08D-05 NDo=     1
 LinEq1:  Iter=  9 NonCon=     1 RMS=2.82D-07 Max=4.43D-06 NDo=     1
 LinEq1:  Iter= 10 NonCon=     1 RMS=6.71D-08 Max=1.68D-06 NDo=     1
 LinEq1:  Iter= 11 NonCon=     1 RMS=1.76D-08 Max=7.77D-07 NDo=     1
 LinEq1:  Iter= 12 NonCon=     1 RMS=7.60D-09 Max=2.56D-07 NDo=     1
 LinEq1:  Iter= 13 NonCon=     1 RMS=3.65D-09 Max=9.69D-08 NDo=     1
 LinEq1:  Iter= 14 NonCon=     1 RMS=1.33D-09 Max=2.86D-08 NDo=     1
 LinEq1:  Iter= 15 NonCon=     1 RMS=3.81D-10 Max=4.14D-09 NDo=     1
 LinEq1:  Iter= 16 NonCon=     1 RMS=1.15D-10 Max=1.33D-09 NDo=     1
 LinEq1:  Iter= 17 NonCon=     0 RMS=2.78D-11 Max=3.53D-10 NDo=     1
 Linear equations converged to 1.000D-10 1.000D-09 after    17 iterations.
 End of Minotr F.D. properties file   721 does not exist.
 End of Minotr F.D. properties file   722 does not exist.
 End of Minotr F.D. properties file   788 does not exist.

 **********************************************************************

            Population analysis using the SCF Density.

 **********************************************************************

 Orbital symmetries:
 Alpha Orbitals:
       Occupied  (A) (A) (A) (A) (A) (A) (A) (A) (A) (A) (A) (A)
                 (A) (A) (A) (A)
       Virtual   (A) (A) (A) (A) (A) (A) (A) (A) (A) (A) (A) (A)
                 (A) (A) (A) (A) (A) (A) (A) (A) (A) (A) (A) (A)
                 (A) (A) (A) (A) (A) (A) (A) (A) (A) (A) (A) (A)
                 (A) (A) (A) (A) (A) (A) (A) (A) (A) (A) (A) (A)
                 (A) (A) (A) (A) (A) (A) (A) (A) (A) (A) (A) (A)
                 (A) (A) (A) (A) (A) (A) (A) (A) (A) (A) (A) (A)
                 (A) (A) (A) (A) (A) (A) (A) (A) (A) (A) (A) (A)
                 (A) (A) (A) (A) (A) (A) (A) (A) (A) (A) (A) (A)
                 (A) (A) (A) (A) (A) (A) (A) (A) (A) (A) (A) (A)
                 (A) (A) (A) (A) (A) (A) (A) (A) (A) (A) (A) (A)
                 (A) (A) (A) (A) (A) (A) (A) (A) (A) (A) (A) (A)
                 (A) (A) (A) (A) (A) (A) (A) (A) (A) (A) (A) (A)
                 (A) (A) (A) (A) (A) (A) (A) (A) (A) (A) (A) (A)
                 (A) (A) (A) (A) (A) (A) (A) (A) (A) (A) (A) (A)
                 (A) (A) (A) (A) (A) (A) (A) (A) (A) (A) (A) (A)
                 (A) (A) (A) (A) (A) (A) (A) (A) (A) (A) (A) (A)
                 (A) (A) (A) (A) (A) (A) (A) (A) (A) (A)
 Beta  Orbitals:
       Occupied  (A) (A) (A) (A) (A) (A) (A) (A) (A) (A) (A) (A)
                 (A) (A) (A)
       Virtual   (A) (A) (A) (A) (A) (A) (A) (A) (A) (A) (A) (A)
                 (A) (A) (A) (A) (A) (A) (A) (A) (A) (A) (A) (A)
                 (A) (A) (A) (A) (A) (A) (A) (A) (A) (A) (A) (A)
                 (A) (A) (A) (A) (A) (A) (A) (A) (A) (A) (A) (A)
                 (A) (A) (A) (A) (A) (A) (A) (A) (A) (A) (A) (A)
                 (A) (A) (A) (A) (A) (A) (A) (A) (A) (A) (A) (A)
                 (A) (A) (A) (A) (A) (A) (A) (A) (A) (A) (A) (A)
                 (A) (A) (A) (A) (A) (A) (A) (A) (A) (A) (A) (A)
                 (A) (A) (A) (A) (A) (A) (A) (A) (A) (A) (A) (A)
                 (A) (A) (A) (A) (A) (A) (A) (A) (A) (A) (A) (A)
                 (A) (A) (A) (A) (A) (A) (A) (A) (A) (A) (A) (A)
                 (A) (A) (A) (A) (A) (A) (A) (A) (A) (A) (A) (A)
                 (A) (A) (A) (A) (A) (A) (A) (A) (A) (A) (A) (A)
                 (A) (A) (A) (A) (A) (A) (A) (A) (A) (A) (A) (A)
                 (A) (A) (A) (A) (A) (A) (A) (A) (A) (A) (A) (A)
                 (A) (A) (A) (A) (A) (A) (A) (A) (A) (A) (A) (A)
                 (A) (A) (A) (A) (A) (A) (A) (A) (A) (A) (A)
 The electronic state is 2-A.
 Alpha  occ. eigenvalues --  -10.63824 -10.62108 -10.61767 -10.60526  -0.92275
 Alpha  occ. eigenvalues --   -0.84387  -0.72646  -0.62723  -0.55402  -0.50140
 Alpha  occ. eigenvalues --   -0.49136  -0.43958  -0.41925  -0.40629  -0.32797
 Alpha  occ. eigenvalues --   -0.31570
 Alpha virt. eigenvalues --    0.06438   0.08891   0.10963   0.12497   0.13241
 Alpha virt. eigenvalues --    0.16117   0.16751   0.17771   0.22817   0.26046
 Alpha virt. eigenvalues --    0.27880   0.29965   0.31569   0.34004   0.34919
 Alpha virt. eigenvalues --    0.37753   0.40373   0.44485   0.45134   0.48274
 Alpha virt. eigenvalues --    0.49698   0.50600   0.52068   0.52389   0.53108
 Alpha virt. eigenvalues --    0.53810   0.55211   0.56023   0.58287   0.61163
 Alpha virt. eigenvalues --    0.62921   0.64692   0.69210   0.71091   0.73892
 Alpha virt. eigenvalues --    0.78688   0.81517   0.82052   0.87986   0.92461
 Alpha virt. eigenvalues --    0.93421   0.98093   1.01582   1.01884   1.05456
 Alpha virt. eigenvalues --    1.09034   1.12677   1.13550   1.15937   1.17379
 Alpha virt. eigenvalues --    1.17503   1.18599   1.20698   1.24240   1.24648
 Alpha virt. eigenvalues --    1.24899   1.26150   1.32679   1.35200   1.36227
 Alpha virt. eigenvalues --    1.37523   1.40067   1.40784   1.43549   1.46783
 Alpha virt. eigenvalues --    1.48461   1.48697   1.52134   1.56017   1.59906
 Alpha virt. eigenvalues --    1.64542   1.65832   1.69357   1.76426   1.87307
 Alpha virt. eigenvalues --    2.17275   2.25295   2.33599   2.35644   2.37979
 Alpha virt. eigenvalues --    2.39461   2.41583   2.44310   2.46540   2.54444
 Alpha virt. eigenvalues --    2.56368   2.59792   2.60841   2.62292   2.68008
 Alpha virt. eigenvalues --    2.68836   2.74723   2.77416   2.79803   2.82566
 Alpha virt. eigenvalues --    2.84490   2.86003   2.89200   2.89965   2.93348
 Alpha virt. eigenvalues --    2.95444   2.99674   3.01660   3.02514   3.02719
 Alpha virt. eigenvalues --    3.08082   3.09649   3.12181   3.13774   3.16466
 Alpha virt. eigenvalues --    3.17843   3.18952   3.20132   3.21775   3.23676
 Alpha virt. eigenvalues --    3.26668   3.29092   3.29987   3.32022   3.35115
 Alpha virt. eigenvalues --    3.39149   3.39556   3.40925   3.42688   3.47360
 Alpha virt. eigenvalues --    3.49698   3.52971   3.57036   3.59904   3.60228
 Alpha virt. eigenvalues --    3.61945   3.68635   3.68972   3.76103   3.77211
 Alpha virt. eigenvalues --    3.79117   3.80974   3.83972   3.88123   3.90259
 Alpha virt. eigenvalues --    3.92425   3.94018   3.97750   3.99163   4.00275
 Alpha virt. eigenvalues --    4.01570   4.04781   4.08919   4.11232   4.12737
 Alpha virt. eigenvalues --    4.15978   4.16760   4.18524   4.23192   4.24335
 Alpha virt. eigenvalues --    4.25183   4.29314   4.32890   4.37628   4.39162
 Alpha virt. eigenvalues --    4.42322   4.46706   4.48458   4.51152   4.54080
 Alpha virt. eigenvalues --    4.62344   4.64167   4.69283   4.73523   4.79261
 Alpha virt. eigenvalues --    4.85890   4.88490   4.96338   4.98286   5.00761
 Alpha virt. eigenvalues --    5.01929   5.03409   5.06726   5.12351   5.13523
 Alpha virt. eigenvalues --    5.21395   5.27265   5.31308   5.32607   5.39653
 Alpha virt. eigenvalues --    5.47853   5.48634   5.50653   5.53379   5.56311
 Alpha virt. eigenvalues --    5.62683   5.66663   5.76426   5.87820   6.01813
 Alpha virt. eigenvalues --    6.04989   6.06045   6.14545  10.11860  12.77567
 Alpha virt. eigenvalues --   13.58833  13.64379
  Beta  occ. eigenvalues --  -10.62431 -10.61665 -10.61660 -10.60551  -0.91602
  Beta  occ. eigenvalues --   -0.82722  -0.71564  -0.60637  -0.54381  -0.49659
  Beta  occ. eigenvalues --   -0.48075  -0.43890  -0.41026  -0.40472  -0.30220
  Beta virt. eigenvalues --   -0.02117   0.07660   0.09348   0.11210   0.12637
  Beta virt. eigenvalues --    0.13505   0.16385   0.16791   0.17835   0.22839
  Beta virt. eigenvalues --    0.26395   0.29415   0.30769   0.31695   0.34474
  Beta virt. eigenvalues --    0.35328   0.38608   0.41566   0.45532   0.46619
  Beta virt. eigenvalues --    0.48768   0.49795   0.50691   0.52215   0.53184
  Beta virt. eigenvalues --    0.53509   0.54035   0.55739   0.57106   0.58807
  Beta virt. eigenvalues --    0.61597   0.64472   0.65238   0.69745   0.72554
  Beta virt. eigenvalues --    0.75178   0.79079   0.82111   0.82612   0.88764
  Beta virt. eigenvalues --    0.92604   0.94554   0.98352   1.02132   1.02637
  Beta virt. eigenvalues --    1.05788   1.09302   1.13303   1.13889   1.17065
  Beta virt. eigenvalues --    1.17702   1.18025   1.19216   1.21608   1.24423
  Beta virt. eigenvalues --    1.24988   1.25502   1.26314   1.33047   1.36087
  Beta virt. eigenvalues --    1.36725   1.38130   1.40350   1.41664   1.44594
  Beta virt. eigenvalues --    1.46892   1.48783   1.49194   1.52396   1.56516
  Beta virt. eigenvalues --    1.60074   1.64673   1.65941   1.69727   1.78271
  Beta virt. eigenvalues --    1.87579   2.18250   2.26852   2.33851   2.35958
  Beta virt. eigenvalues --    2.38245   2.39875   2.43554   2.44612   2.47360
  Beta virt. eigenvalues --    2.55572   2.56577   2.60176   2.61685   2.63180
  Beta virt. eigenvalues --    2.68436   2.69387   2.75966   2.79175   2.80589
  Beta virt. eigenvalues --    2.83275   2.86253   2.86547   2.89463   2.90413
  Beta virt. eigenvalues --    2.93416   2.95876   3.00330   3.02499   3.02970
  Beta virt. eigenvalues --    3.04211   3.09680   3.10408   3.12521   3.15102
  Beta virt. eigenvalues --    3.17744   3.18350   3.19538   3.20210   3.21833
  Beta virt. eigenvalues --    3.25825   3.28604   3.30093   3.31330   3.33131
  Beta virt. eigenvalues --    3.36203   3.40232   3.40831   3.42371   3.43697
  Beta virt. eigenvalues --    3.47468   3.50422   3.53736   3.57244   3.60191
  Beta virt. eigenvalues --    3.60424   3.62240   3.68804   3.69238   3.77169
  Beta virt. eigenvalues --    3.78016   3.79677   3.81565   3.84155   3.88763
  Beta virt. eigenvalues --    3.90518   3.92651   3.94328   3.98127   3.99411
  Beta virt. eigenvalues --    4.00627   4.02134   4.04983   4.09065   4.11866
  Beta virt. eigenvalues --    4.12927   4.16071   4.17037   4.18962   4.23276
  Beta virt. eigenvalues --    4.24435   4.25628   4.29594   4.33340   4.37808
  Beta virt. eigenvalues --    4.39388   4.42371   4.46962   4.48626   4.51412
  Beta virt. eigenvalues --    4.54908   4.62645   4.64696   4.69620   4.73895
  Beta virt. eigenvalues --    4.79834   4.86479   4.89229   4.96580   4.98599
  Beta virt. eigenvalues --    5.00889   5.02253   5.03508   5.07216   5.13169
  Beta virt. eigenvalues --    5.13739   5.21717   5.28973   5.31570   5.32838
  Beta virt. eigenvalues --    5.39850   5.47866   5.48633   5.50708   5.53418
  Beta virt. eigenvalues --    5.56560   5.62761   5.66808   5.76680   5.88826
  Beta virt. eigenvalues --    6.02984   6.04987   6.06123   6.14778  10.12482
  Beta virt. eigenvalues --   12.77765  13.58841  13.65096
          Condensed to atoms (all electrons):
               1          2          3          4          5          6
     1  C    4.859106   0.345220   0.407196   0.403350   0.406722  -0.056072
     2  C    0.345220   4.818936  -0.035448  -0.036495  -0.036670   0.344443
     3  H    0.407196  -0.035448   0.589010  -0.027963  -0.031486   0.008195
     4  H    0.403350  -0.036495  -0.027963   0.586724  -0.031712  -0.000111
     5  H    0.406722  -0.036670  -0.031486  -0.031712   0.601940  -0.003243
     6  C   -0.056072   0.344443   0.008195  -0.000111  -0.003243   4.929138
     7  H   -0.032396   0.413303  -0.004942  -0.004514   0.007007  -0.040704
     8  H   -0.040045   0.419905  -0.003954   0.007950  -0.005014  -0.039063
     9  C    0.000440  -0.062546  -0.000113   0.002457   0.000353   0.639195
    10  H   -0.000685  -0.038281  -0.000264   0.000327   0.003329   0.408954
    11  H   -0.000451   0.006638   0.000027  -0.000098  -0.000026  -0.069378
               7          8          9         10         11
     1  C   -0.032396  -0.040045   0.000440  -0.000685  -0.000451
     2  C    0.413303   0.419905  -0.062546  -0.038281   0.006638
     3  H   -0.004942  -0.003954  -0.000113  -0.000264   0.000027
     4  H   -0.004514   0.007950   0.002457   0.000327  -0.000098
     5  H    0.007007  -0.005014   0.000353   0.003329  -0.000026
     6  C   -0.040704  -0.039063   0.639195   0.408954  -0.069378
     7  H    0.590741  -0.033046   0.001302   0.006997  -0.000136
     8  H   -0.033046   0.597595   0.001475  -0.003274  -0.000400
     9  C    0.001302   0.001475   5.280856  -0.054624   0.407601
    10  H    0.006997  -0.003274  -0.054624   0.544099  -0.006640
    11  H   -0.000136  -0.000400   0.407601  -0.006640   0.516666
          Atomic-Atomic Spin Densities.
               1          2          3          4          5          6
     1  C   -0.011138  -0.005418   0.001537   0.001039   0.000100   0.005729
     2  C   -0.005418   0.049480   0.001034  -0.000475  -0.000336   0.021357
     3  H    0.001537   0.001034  -0.001840  -0.000703  -0.000149  -0.000468
     4  H    0.001039  -0.000475  -0.000703   0.000971  -0.000052  -0.001660
     5  H    0.000100  -0.000336  -0.000149  -0.000052   0.000362  -0.000067
     6  C    0.005729   0.021357  -0.000468  -0.001660  -0.000067  -0.235825
     7  H    0.001771  -0.008812  -0.000382   0.000539   0.000029  -0.002686
     8  H    0.002229  -0.004057  -0.000504  -0.000080   0.000033   0.002965
     9  C    0.000176  -0.010707  -0.000012   0.000392  -0.000021  -0.022555
    10  H    0.000865  -0.011305  -0.000097   0.000464   0.000335   0.016449
    11  H   -0.000081   0.001543   0.000003  -0.000055  -0.000007   0.001016
               7          8          9         10         11
     1  C    0.001771   0.002229   0.000176   0.000865  -0.000081
     2  C   -0.008812  -0.004057  -0.010707  -0.011305   0.001543
     3  H   -0.000382  -0.000504  -0.000012  -0.000097   0.000003
     4  H    0.000539  -0.000080   0.000392   0.000464  -0.000055
     5  H    0.000029   0.000033  -0.000021   0.000335  -0.000007
     6  C   -0.002686   0.002965  -0.022555   0.016449   0.001016
     7  H    0.002573   0.001561   0.007723   0.001786  -0.000486
     8  H    0.001561  -0.008461   0.000181   0.000959  -0.000059
     9  C    0.007723   0.000181   1.138975  -0.024832  -0.000235
    10  H    0.001786   0.000959  -0.024832   0.088274  -0.007733
    11  H   -0.000486  -0.000059  -0.000235  -0.007733   0.041062
 Mulliken charges and spin densities:
               1          2
     1  C   -0.292385  -0.003191
     2  C   -0.139006   0.032304
     3  H    0.099741  -0.001580
     4  H    0.100083   0.000381
     5  H    0.088800   0.000228
     6  C   -0.121355  -0.215743
     7  H    0.096390   0.003615
     8  H    0.097870  -0.005232
     9  C   -0.216397   1.089085
    10  H    0.140061   0.065164
    11  H    0.146197   0.034968
 Sum of Mulliken charges =  -0.00000   1.00000
 Mulliken charges and spin densities with hydrogens summed into heavy atoms:
               1          2
     1  C   -0.003760  -0.004162
     2  C    0.055254   0.030688
     6  C    0.018706  -0.150579
     9  C   -0.070200   1.124053
 Electronic spatial extent (au):  <R**2>=            343.7772
 Charge=             -0.0000 electrons
 Dipole moment (field-independent basis, Debye):
    X=             -0.4841    Y=             -0.2867    Z=              0.6609  Tot=              0.8680
 Quadrupole moment (field-independent basis, Debye-Ang):
   XX=            -26.2586   YY=            -26.9852   ZZ=            -26.4204
   XY=             -1.7205   XZ=              0.6711   YZ=             -0.8635
 Traceless Quadrupole moment (field-independent basis, Debye-Ang):
   XX=              0.2962   YY=             -0.4305   ZZ=              0.1343
   XY=             -1.7205   XZ=              0.6711   YZ=             -0.8635
 Octapole moment (field-independent basis, Debye-Ang**2):
  XXX=              1.0574  YYY=              0.2381  ZZZ=              2.4163  XYY=             -1.6585
  XXY=             -3.3465  XXZ=              1.3322  XZZ=             -2.3261  YZZ=             -0.5621
  YYZ=              0.8721  XYZ=             -0.8789
 Hexadecapole moment (field-independent basis, Debye-Ang**3):
 XXXX=           -342.5613 YYYY=            -77.0175 ZZZZ=            -61.2330 XXXY=            -15.9246
 XXXZ=              4.1561 YYYX=             -1.9889 YYYZ=             -0.9525 ZZZX=              2.8348
 ZZZY=             -1.4216 XXYY=            -72.9264 XXZZ=            -73.5289 YYZZ=            -20.9659
 XXYZ=             -1.8669 YYXZ=              0.8727 ZZXY=             -0.7982
 N-N= 1.098479286942D+02 E-N=-5.815941394785D+02  KE= 1.554784504129D+02
                          Isotropic Fermi Contact Couplings
        Atom                 a.u.       MegaHertz       Gauss      10(-4) cm-1
     1  C(13)             -0.00376      -4.22229      -1.50662      -1.40841
     2  C(13)              0.03038      34.15300      12.18664      11.39221
     3  H(1)              -0.00004      -0.16938      -0.06044      -0.05650
     4  H(1)               0.00013       0.57579       0.20546       0.19206
     5  H(1)               0.00002       0.11167       0.03985       0.03725
     6  C(13)              0.01182      13.28330       4.73981       4.43083
     7  H(1)              -0.00058      -2.59328      -0.92535      -0.86502
     8  H(1)              -0.00119      -5.31468      -1.89641      -1.77279
     9  C(13)              0.37055     416.56620     148.64118     138.95153
    10  H(1)               0.03019     134.93650      48.14870      45.00997
    11  H(1)               0.02315     103.49364      36.92910      34.52176
 --------------------------------------------------------
       Center         ----  Spin Dipole Couplings  ----
                      3XX-RR        3YY-RR        3ZZ-RR
 --------------------------------------------------------
     1   Atom        0.004346     -0.002321     -0.002025
     2   Atom        0.042261     -0.019485     -0.022776
     3   Atom        0.003055     -0.001509     -0.001546
     4   Atom        0.004646     -0.001976     -0.002670
     5   Atom        0.003473     -0.001962     -0.001511
     6   Atom        0.044778     -0.065137      0.020359
     7   Atom        0.010570     -0.003733     -0.006838
     8   Atom        0.002928     -0.001924     -0.001004
     9   Atom       -0.508601      0.003160      0.505441
    10   Atom        0.000593     -0.005260      0.004667
    11   Atom        0.049396     -0.021185     -0.028211
 --------------------------------------------------------
                        XY            XZ            YZ
 --------------------------------------------------------
     1   Atom        0.000928     -0.001868     -0.001167
     2   Atom       -0.019954     -0.008850      0.001567
     3   Atom        0.000019     -0.000158     -0.000187
     4   Atom        0.002857      0.000846      0.000170
     5   Atom        0.001446     -0.000973     -0.000594
     6   Atom       -0.010951     -0.077551     -0.054212
     7   Atom       -0.009916      0.000919     -0.002974
     8   Atom       -0.004167     -0.004862      0.002917
     9   Atom        0.035864     -0.002452     -0.644459
    10   Atom       -0.000109     -0.006925     -0.007945
    11   Atom       -0.049024      0.005768     -0.022764
 --------------------------------------------------------


 ---------------------------------------------------------------------------------
              Anisotropic Spin Dipole Couplings in Principal Axis System
 ---------------------------------------------------------------------------------

       Atom             a.u.   MegaHertz   Gauss  10(-4) cm-1        Axes

              Baa    -0.0034    -0.456    -0.163    -0.152  0.0884  0.6962  0.7124
     1 C(13)  Bbb    -0.0017    -0.222    -0.079    -0.074 -0.3089  0.6991 -0.6449
              Bcc     0.0051     0.678     0.242     0.226  0.9470  0.1630 -0.2769
 
              Baa    -0.0259    -3.471    -1.239    -1.158  0.3045  0.8425  0.4444
     2 C(13)  Bbb    -0.0234    -3.138    -1.120    -1.047 -0.0204 -0.4607  0.8873
              Bcc     0.0493     6.610     2.358     2.205  0.9523 -0.2792 -0.1231
 
              Baa    -0.0017    -0.917    -0.327    -0.306  0.0221  0.6659  0.7458
     3 H(1)   Bbb    -0.0013    -0.716    -0.256    -0.239 -0.0271  0.7461 -0.6653
              Bcc     0.0031     1.633     0.583     0.545  0.9994  0.0055 -0.0345
 
              Baa    -0.0031    -1.650    -0.589    -0.550 -0.3571  0.8576  0.3701
     4 H(1)   Bbb    -0.0027    -1.441    -0.514    -0.481  0.0418 -0.3812  0.9235
              Bcc     0.0058     3.091     1.103     1.031  0.9331  0.3453  0.1002
 
              Baa    -0.0025    -1.319    -0.471    -0.440 -0.1537  0.9027  0.4019
     5 H(1)   Bbb    -0.0016    -0.840    -0.300    -0.280  0.2734 -0.3520  0.8952
              Bcc     0.0040     2.160     0.771     0.720  0.9495  0.2475 -0.1926
 
              Baa    -0.1068   -14.334    -5.115    -4.781  0.3289  0.7796  0.5329
     6 C(13)  Bbb    -0.0086    -1.156    -0.413    -0.386  0.6129 -0.6056  0.5075
              Bcc     0.1154    15.490     5.527     5.167  0.7184  0.1597 -0.6771
 
              Baa    -0.0103    -5.503    -1.964    -1.836  0.3352  0.7579  0.5596
     7 H(1)   Bbb    -0.0055    -2.956    -1.055    -0.986 -0.3310 -0.4614  0.8231
              Bcc     0.0159     8.459     3.018     2.822  0.8821 -0.4612  0.0961
 
              Baa    -0.0044    -2.357    -0.841    -0.786  0.0213  0.7748 -0.6318
     8 H(1)   Bbb    -0.0042    -2.259    -0.806    -0.754  0.6661  0.4602  0.5869
              Bcc     0.0087     4.616     1.647     1.540  0.7455 -0.4334 -0.5063
 
              Baa    -0.5187   -69.608   -24.838   -23.219  0.9447 -0.2786 -0.1731
     9 C(13)  Bbb    -0.4276   -57.377   -20.473   -19.139  0.3276  0.7770  0.5375
              Bcc     0.9463   126.985    45.311    42.358 -0.0153 -0.5645  0.8253
 
              Baa    -0.0109    -5.813    -2.074    -1.939  0.3342  0.7709  0.5423
    10 H(1)   Bbb    -0.0014    -0.749    -0.267    -0.250  0.8156 -0.5248  0.2435
              Bcc     0.0123     6.563     2.342     2.189 -0.4723 -0.3609  0.8042
 
              Baa    -0.0576   -30.723   -10.963   -10.248  0.3270  0.7770  0.5379
    11 H(1)   Bbb    -0.0193   -10.284    -3.670    -3.431 -0.3689 -0.4191  0.8296
              Bcc     0.0769    41.008    14.633    13.679  0.8700 -0.4698  0.1495
 

 ---------------------------------------------------------------------------------

 Calling FoFJK, ICntrl=  10002127 FMM=F ISym2X=0 I1Cent= 0 IOpClX= 1 NMat=1 NMatS=1 NMatT=0.
 ***** Axes restored to original set *****
 -------------------------------------------------------------------
 Center     Atomic                   Forces (Hartrees/Bohr)
 Number     Number              X              Y              Z
 -------------------------------------------------------------------
      1        6          -0.000602368   -0.000480438   -0.000500691
      2        6          -0.003609849    0.001863124    0.000924768
      3        1           0.001495344   -0.000967803   -0.000006451
      4        1          -0.000658082    0.000521103    0.001851389
      5        1           0.000189380    0.001461166   -0.001048967
      6        6           0.005369777    0.021438668   -0.015918276
      7        1          -0.000407624   -0.002470906    0.001663614
      8        1           0.000474745   -0.000442435   -0.001651429
      9        6          -0.023092997   -0.024751235    0.025578259
     10        1           0.003109974   -0.000908921   -0.000763832
     11        1           0.017731699    0.004737676   -0.010128385
 -------------------------------------------------------------------
 Cartesian Forces:  Max     0.025578259 RMS     0.009587697

 GradGradGradGradGradGradGradGradGradGradGradGradGradGradGradGradGradGrad
 Berny optimization.
 FormGI is forming the generalized inverse of G from B-inverse, IUseBI=4.
 Internal  Forces:  Max     0.036818404 RMS     0.006560719
 Search for a local minimum.
 Step number   1 out of a maximum of  100
 All quantities printed in internal units (Hartrees-Bohrs-Radians)
 Mixed Optimization -- RFO/linear search
 Second derivative matrix not updated -- first step.
 ITU=  0
     Eigenvalues ---    0.00344   0.00756   0.01352   0.03039   0.04203
     Eigenvalues ---    0.05440   0.05500   0.05565   0.09301   0.12775
     Eigenvalues ---    0.15999   0.16000   0.16000   0.16000   0.16000
     Eigenvalues ---    0.21938   0.22001   0.29249   0.32298   0.34193
     Eigenvalues ---    0.34406   0.34479   0.34586   0.34616   0.34890
     Eigenvalues ---    0.37230   0.59940
 RFO step:  Lambda=-9.24490837D-03 EMin= 3.44013592D-03
 Linear search not attempted -- first point.
 Iteration  1 RMS(Cart)=  0.04313330 RMS(Int)=  0.00529395
 Iteration  2 RMS(Cart)=  0.00652059 RMS(Int)=  0.00008097
 Iteration  3 RMS(Cart)=  0.00009954 RMS(Int)=  0.00000301
 Iteration  4 RMS(Cart)=  0.00000001 RMS(Int)=  0.00000301
 Variable       Old X    -DE/DX   Delta X   Delta X   Delta X     New X
                                 (Linear)    (Quad)   (Total)
    R1        2.89487  -0.00071   0.00000  -0.00237  -0.00237   2.89250
    R2        2.06304  -0.00178   0.00000  -0.00501  -0.00501   2.05802
    R3        2.06352  -0.00202   0.00000  -0.00568  -0.00568   2.05783
    R4        2.06528  -0.00180   0.00000  -0.00509  -0.00509   2.06020
    R5        2.83601   0.00229   0.00000   0.00688   0.00688   2.84289
    R6        2.06651  -0.00300   0.00000  -0.00851  -0.00851   2.05800
    R7        2.07005  -0.00177   0.00000  -0.00504  -0.00504   2.06500
    R8        2.50987  -0.01642   0.00000  -0.02698  -0.02698   2.48290
    R9        2.05854   0.00020   0.00000   0.00056   0.00056   2.05910
   R10        2.02201   0.01039   0.00000   0.02722   0.02722   2.04923
    A1        1.93970  -0.00010   0.00000  -0.00091  -0.00091   1.93878
    A2        1.92958   0.00031   0.00000   0.00196   0.00195   1.93154
    A3        1.93570   0.00019   0.00000   0.00130   0.00130   1.93700
    A4        1.89147  -0.00015   0.00000  -0.00122  -0.00122   1.89025
    A5        1.88369  -0.00008   0.00000  -0.00072  -0.00072   1.88297
    A6        1.88178  -0.00018   0.00000  -0.00051  -0.00051   1.88127
    A7        1.95204   0.00077   0.00000   0.00372   0.00372   1.95577
    A8        1.92294  -0.00013   0.00000  -0.00013  -0.00013   1.92281
    A9        1.90425  -0.00018   0.00000  -0.00047  -0.00047   1.90379
   A10        1.90853  -0.00031   0.00000  -0.00148  -0.00149   1.90705
   A11        1.90638  -0.00024   0.00000  -0.00087  -0.00087   1.90551
   A12        1.86770   0.00006   0.00000  -0.00099  -0.00099   1.86671
   A13        2.17922   0.00658   0.00000   0.02869   0.02869   2.20791
   A14        2.02487   0.00013   0.00000   0.00586   0.00586   2.03074
   A15        2.07887  -0.00671   0.00000  -0.03454  -0.03454   2.04433
   A16        2.09440   0.03682   0.00000   0.21755   0.21755   2.31194
    D1        3.11408   0.00001   0.00000  -0.00036  -0.00036   3.11372
    D2       -1.04251   0.00005   0.00000   0.00020   0.00020  -1.04231
    D3        1.00306  -0.00007   0.00000  -0.00135  -0.00135   1.00170
    D4       -1.06788  -0.00004   0.00000  -0.00119  -0.00119  -1.06907
    D5        1.05872  -0.00001   0.00000  -0.00064  -0.00064   1.05808
    D6        3.10429  -0.00012   0.00000  -0.00219  -0.00219   3.10210
    D7        1.01858   0.00005   0.00000   0.00029   0.00029   1.01887
    D8       -3.13801   0.00009   0.00000   0.00084   0.00084  -3.13717
    D9       -1.09244  -0.00002   0.00000  -0.00071  -0.00071  -1.09315
   D10        2.05661   0.00003   0.00000   0.00135   0.00135   2.05796
   D11       -1.06226   0.00003   0.00000   0.00097   0.00096  -1.06129
   D12       -0.07825  -0.00011   0.00000   0.00006   0.00006  -0.07818
   D13        3.08608  -0.00011   0.00000  -0.00032  -0.00033   3.08575
   D14       -2.11679   0.00013   0.00000   0.00258   0.00259  -2.11420
   D15        1.04753   0.00013   0.00000   0.00220   0.00220   1.04973
   D16       -3.12268  -0.00017   0.00000  -0.00364  -0.00363  -3.12631
   D17       -0.00447  -0.00008   0.00000  -0.00273  -0.00275  -0.00721
         Item               Value     Threshold  Converged?
 Maximum Force            0.036818     0.000450     NO 
 RMS     Force            0.006561     0.000300     NO 
 Maximum Displacement     0.186466     0.001800     NO 
 RMS     Displacement     0.046952     0.001200     NO 
 Predicted change in Energy=-4.858895D-03
 GradGradGradGradGradGradGradGradGradGradGradGradGradGradGradGradGradGrad

                          Input orientation:                          
 ---------------------------------------------------------------------
 Center     Atomic      Atomic             Coordinates (Angstroms)
 Number     Number       Type             X           Y           Z
 ---------------------------------------------------------------------
      1          6           0       -1.719406   -0.255120   -0.296159
      2          6           0       -0.549527    0.531095    0.300597
      3          1           0       -2.626360    0.347421   -0.316889
      4          1           0       -1.492961   -0.567430   -1.314500
      5          1           0       -1.926218   -1.151480    0.288924
      6          6           0        0.706144   -0.294089    0.375210
      7          1           0       -0.357369    1.425120   -0.290860
      8          1           0       -0.819471    0.865597    1.305259
      9          6           0        1.840028   -0.049425   -0.241850
     10          1           0        0.658079   -1.193590    0.988300
     11          1           0        2.787775   -0.575761   -0.267880
 ---------------------------------------------------------------------
                    Distance matrix (angstroms):
                    1          2          3          4          5
     1  C    0.000000
     2  C    1.530643   0.000000
     3  H    1.089060   2.174457   0.000000
     4  H    1.088959   2.169185   1.765438   0.000000
     5  H    1.090209   2.174045   1.761792   1.760623   0.000000
     6  C    2.517051   1.504395   3.463542   2.786736   2.769818
     7  H    2.162956   1.089049   2.512058   2.511506   3.071856
     8  H    2.151844   1.092753   2.482886   3.061093   2.515239
     9  C    3.565786   2.518178   4.484611   3.539452   3.959905
    10  H    2.860594   2.214900   3.855616   3.212777   2.677590
    11  H    4.518661   3.561724   5.492498   4.406834   4.781549
                    6          7          8          9         10
     6  C    0.000000
     7  H    2.128471   0.000000
     8  H    2.130109   1.753340   0.000000
     9  C    1.313894   2.646741   3.209945   0.000000
    10  H    1.089629   3.086264   2.554186   2.054114   0.000000
    11  H    2.196837   3.727732   4.191003   1.084404   2.548590
                   11
    11  H    0.000000
 Stoichiometry    C4H7(2)
 Framework group  C1[X(C4H7)]
 Deg. of freedom    27
 Full point group                 C1      NOp   1
 Largest Abelian subgroup         C1      NOp   1
 Largest concise Abelian subgroup C1      NOp   1
                         Standard orientation:                         
 ---------------------------------------------------------------------
 Center     Atomic      Atomic             Coordinates (Angstroms)
 Number     Number       Type             X           Y           Z
 ---------------------------------------------------------------------
      1          6           0       -1.652002   -0.369193   -0.140709
      2          6           0       -0.495320    0.615864    0.045346
      3          1           0       -2.584292    0.155349   -0.345019
      4          1           0       -1.451240   -1.045510   -0.970240
      5          1           0       -1.797415   -0.974126    0.754538
      6          6           0        0.796787   -0.084267    0.367029
      7          1           0       -0.364679    1.215809   -0.854113
      8          1           0       -0.740991    1.306248    0.855978
      9          6           0        1.894690   -0.069079   -0.354562
     10          1           0        0.811060   -0.677263    1.281055
     11          1           0        2.862628   -0.540455   -0.224820
 ---------------------------------------------------------------------
 Rotational constants (GHZ):          24.5771991           4.3537832           4.1993318
 Standard basis: CC-pVTZ (5D, 7F)
 There are   245 symmetry adapted cartesian basis functions of A   symmetry.
 There are   218 symmetry adapted basis functions of A   symmetry.
   218 basis functions,   327 primitive gaussians,   245 cartesian basis functions
    16 alpha electrons       15 beta electrons
       nuclear repulsion energy       109.8010224729 Hartrees.
 NAtoms=   11 NActive=   11 NUniq=   11 SFac= 1.00D+00 NAtFMM=   60 NAOKFM=F Big=F
 Integral buffers will be    131072 words long.
 Raffenetti 2 integral format.
 Two-electron integral symmetry is turned on.
 Nuclear repulsion after empirical dispersion term =      109.7958578730 Hartrees.
 One-electron integrals computed using PRISM.
 NBasis=   218 RedAO= T EigKep=  5.02D-04  NBF=   218
 NBsUse=   218 1.00D-06 EigRej= -1.00D+00 NBFU=   218
 Initial guess from the checkpoint file:  "/localscratch/339542/Gau-27507.chk"
 B after Tr=     0.000000    0.000000   -0.000000
         Rot=    0.999859    0.016727    0.000160   -0.001256 Ang=   1.92 deg.
 Initial guess <Sx>= 0.0000 <Sy>= 0.0000 <Sz>= 0.5000 <S**2>= 0.7829 S= 0.5163
 ExpMin= 1.03D-01 ExpMax= 8.24D+03 ExpMxC= 2.81D+02 IAcc=3 IRadAn=         5 AccDes= 0.00D+00
 Harris functional with IExCor=  419 and IRadAn=       5 diagonalized for initial guess.
 HarFok:  IExCor=  419 AccDes= 0.00D+00 IRadAn=         5 IDoV= 1 UseB2=F ITyADJ=14
 ICtDFT=  3500011 ScaDFX=  1.000000  1.000000  1.000000  1.000000
 FoFCou: FMM=F IPFlag=           0 FMFlag=      100000 FMFlg1=           0
         NFxFlg=           0 DoJE=T BraDBF=F KetDBF=T FulRan=T
         wScrn=  0.000000 ICntrl=       500 IOpCl=  0 I1Cent=   200000004 NGrid=           0
         NMat0=    1 NMatS0=      1 NMatT0=    0 NMatD0=    1 NMtDS0=    0 NMtDT0=    0
 Petite list used in FoFCou.
 Keep R1 and R2 ints in memory in canonical form, NReq=612885869.
 Requested convergence on RMS density matrix=1.00D-08 within 128 cycles.
 Requested convergence on MAX density matrix=1.00D-06.
 Requested convergence on             energy=1.00D-06.
 No special actions if energy rises.
 Integral accuracy reduced to 1.0D-05 until final iterations.
 Initial convergence to 1.0D-05 achieved.  Increase integral accuracy.
 SCF Done:  E(UB2PLYPD3) =  -156.227982086     A.U. after   15 cycles
            NFock= 15  Conv=0.66D-08     -V/T= 2.0047
 <Sx>= 0.0000 <Sy>= 0.0000 <Sz>= 0.5000 <S**2>= 0.7775 S= 0.5137
 <L.S>=  0.00000000000    
 Annihilation of the first spin contaminant:
 S**2 before annihilation     0.7775,   after     0.7502
 DoSCS=T DFT=T ScalE2(SS,OS)=  0.270000  0.270000
 ExpMin= 1.03D-01 ExpMax= 8.24D+03 ExpMxC= 2.81D+02 IAcc=3 IRadAn=         5 AccDes= 0.00D+00
 HarFok:  IExCor=  205 AccDes= 0.00D+00 IRadAn=         5 IDoV=-2 UseB2=F ITyADJ=14
 ICtDFT= 12500011 ScaDFX=  1.000000  1.000000  1.000000  1.000000
 Range of M.O.s used for correlation:     5   218
 NBasis=   218 NAE=    16 NBE=    15 NFC=     4 NFV=     0
 NROrb=    214 NOA=    12 NOB=    11 NVA=   202 NVB=   203

 **** Warning!!: The largest alpha MO coefficient is  0.12710682D+02


 **** Warning!!: The largest beta MO coefficient is  0.12053112D+02

 DoSCS=T DFT=T ScalE2(SS,OS)=  0.270000  0.270000
 Fully direct method using O(ONN) memory.
 JobTyp=2 Pass  1:  I=   5 to  16 NPSUse= 40 ParTrn=T ParDer=T DoDerP=T.
 JobTyp=3 Pass  1:  I=   5 to  15 NPSUse= 40 ParTrn=T ParDer=T DoDerP=T.
 Spin components of T(2) and E(2):
     alpha-alpha T2 =       0.4148308953D-01 E2=     -0.2587398050D-01
     alpha-beta  T2 =       0.2448687657D+00 E2=     -0.1631333379D+00
     beta-beta   T2 =       0.3643658720D-01 E2=     -0.2231747082D-01
 (S**2,0)=  0.77751D+00           (S**2,1)=  0.75937D+00
 Scaling Projection term by:   0.270000
 E(PUHF)=      -0.15623139823D+03        E(PMP2)=      -0.15643992651D+03
 E2(B2PLYPD3) =    -0.2113247892D+00 E(B2PLYPD3) =    -0.15643930687541D+03
          IDoAtm=11111111111
          Differentiating once with respect to electric field.
                with respect to dipole field.
          Differentiating once with respect to nuclear coordinates.
 Keep R1 and R2 ints in memory in canonical form, NReq=612894013.
          There are     1 degrees of freedom in the 1st order CPHF.  IDoFFX=0 NUNeed=     1.
 LinEq1:  Iter=  0 NonCon=     1 RMS=7.95D-04 Max=1.95D-02 NDo=     1
 AX will form     1 AO Fock derivatives at one time.
 LinEq1:  Iter=  1 NonCon=     1 RMS=3.13D-04 Max=8.00D-03 NDo=     1
 LinEq1:  Iter=  2 NonCon=     1 RMS=2.22D-04 Max=8.64D-03 NDo=     1
 LinEq1:  Iter=  3 NonCon=     1 RMS=9.86D-05 Max=4.03D-03 NDo=     1
 LinEq1:  Iter=  4 NonCon=     1 RMS=5.22D-05 Max=1.42D-03 NDo=     1
 LinEq1:  Iter=  5 NonCon=     1 RMS=1.46D-05 Max=2.29D-04 NDo=     1
 LinEq1:  Iter=  6 NonCon=     1 RMS=5.95D-06 Max=9.02D-05 NDo=     1
 LinEq1:  Iter=  7 NonCon=     1 RMS=2.32D-06 Max=2.79D-05 NDo=     1
 LinEq1:  Iter=  8 NonCon=     1 RMS=8.35D-07 Max=9.69D-06 NDo=     1
 LinEq1:  Iter=  9 NonCon=     1 RMS=2.68D-07 Max=4.43D-06 NDo=     1
 LinEq1:  Iter= 10 NonCon=     1 RMS=6.43D-08 Max=1.63D-06 NDo=     1
 LinEq1:  Iter= 11 NonCon=     1 RMS=1.54D-08 Max=6.57D-07 NDo=     1
 LinEq1:  Iter= 12 NonCon=     1 RMS=4.93D-09 Max=1.68D-07 NDo=     1
 LinEq1:  Iter= 13 NonCon=     1 RMS=1.32D-09 Max=3.36D-08 NDo=     1
 LinEq1:  Iter= 14 NonCon=     1 RMS=3.98D-10 Max=5.79D-09 NDo=     1
 LinEq1:  Iter= 15 NonCon=     1 RMS=1.42D-10 Max=1.71D-09 NDo=     1
 LinEq1:  Iter= 16 NonCon=     0 RMS=6.44D-11 Max=8.27D-10 NDo=     1
 Linear equations converged to 1.000D-10 1.000D-09 after    16 iterations.
 End of Minotr F.D. properties file   721 does not exist.
 End of Minotr F.D. properties file   722 does not exist.
 End of Minotr F.D. properties file   788 does not exist.
 Calling FoFJK, ICntrl=  10002127 FMM=F ISym2X=0 I1Cent= 0 IOpClX= 1 NMat=1 NMatS=1 NMatT=0.
 ***** Axes restored to original set *****
 -------------------------------------------------------------------
 Center     Atomic                   Forces (Hartrees/Bohr)
 Number     Number              X              Y              Z
 -------------------------------------------------------------------
      1        6           0.000549356   -0.000478114    0.000040460
      2        6          -0.000598186    0.000184197   -0.000168928
      3        1           0.000176785    0.000153520    0.000089258
      4        1          -0.000097713    0.000050198    0.000033695
      5        1           0.000008615    0.000093437   -0.000071896
      6        6           0.004688904    0.005479067   -0.005337760
      7        1           0.000208004   -0.000159081   -0.000003393
      8        1           0.000623302   -0.000366731   -0.000067205
      9        6          -0.002744927   -0.008243289    0.006540404
     10        1          -0.000817154   -0.001448122    0.001231462
     11        1          -0.001996986    0.004734917   -0.002286096
 -------------------------------------------------------------------
 Cartesian Forces:  Max     0.008243289 RMS     0.002676012

 GradGradGradGradGradGradGradGradGradGradGradGradGradGradGradGradGradGrad
 Berny optimization.
 Using GEDIIS/GDIIS optimizer.
 FormGI is forming the generalized inverse of G from B-inverse, IUseBI=4.
 Internal  Forces:  Max     0.008124772 RMS     0.001770994
 Search for a local minimum.
 Step number   2 out of a maximum of  100
 All quantities printed in internal units (Hartrees-Bohrs-Radians)
 Mixed Optimization -- RFO/linear search
 Update second derivatives using D2CorX and points    1    2
 DE= -5.36D-03 DEPred=-4.86D-03 R= 1.10D+00
 TightC=F SS=  1.41D+00  RLast= 2.26D-01 DXNew= 5.0454D-01 6.7850D-01
 Trust test= 1.10D+00 RLast= 2.26D-01 DXMaxT set to 5.05D-01
 ITU=  1  0
 Use linear search instead of GDIIS.
     Eigenvalues ---    0.00344   0.00756   0.01334   0.03039   0.04179
     Eigenvalues ---    0.05435   0.05501   0.05547   0.09322   0.12707
     Eigenvalues ---    0.12998   0.16000   0.16000   0.16000   0.16265
     Eigenvalues ---    0.21942   0.22271   0.29246   0.32369   0.34185
     Eigenvalues ---    0.34405   0.34477   0.34585   0.34614   0.34930
     Eigenvalues ---    0.39071   0.58385
 RFO step:  Lambda=-3.35254521D-04 EMin= 3.44010401D-03
 Quartic linear search produced a step of  0.28659.
 Iteration  1 RMS(Cart)=  0.01898725 RMS(Int)=  0.00077046
 Iteration  2 RMS(Cart)=  0.00076174 RMS(Int)=  0.00000489
 Iteration  3 RMS(Cart)=  0.00000023 RMS(Int)=  0.00000489
 Variable       Old X    -DE/DX   Delta X   Delta X   Delta X     New X
                                 (Linear)    (Quad)   (Total)
    R1        2.89250  -0.00043  -0.00068  -0.00132  -0.00200   2.89049
    R2        2.05802  -0.00006  -0.00144   0.00097  -0.00047   2.05756
    R3        2.05783  -0.00007  -0.00163   0.00112  -0.00051   2.05733
    R4        2.06020  -0.00012  -0.00146   0.00079  -0.00067   2.05952
    R5        2.84289  -0.00101   0.00197  -0.00565  -0.00368   2.83922
    R6        2.05800  -0.00009  -0.00244   0.00170  -0.00074   2.05727
    R7        2.06500  -0.00033  -0.00145  -0.00002  -0.00147   2.06354
    R8        2.48290  -0.00674  -0.00773  -0.00784  -0.01557   2.46733
    R9        2.05910   0.00192   0.00016   0.00695   0.00712   2.06622
   R10        2.04923  -0.00399   0.00780  -0.02034  -0.01254   2.03669
    A1        1.93878  -0.00039  -0.00026  -0.00354  -0.00380   1.93498
    A2        1.93154   0.00015   0.00056   0.00103   0.00158   1.93312
    A3        1.93700   0.00008   0.00037   0.00072   0.00109   1.93809
    A4        1.89025   0.00007  -0.00035   0.00022  -0.00013   1.89012
    A5        1.88297   0.00013  -0.00021   0.00070   0.00049   1.88346
    A6        1.88127  -0.00003  -0.00015   0.00099   0.00084   1.88212
    A7        1.95577  -0.00020   0.00107  -0.00282  -0.00175   1.95402
    A8        1.92281   0.00015  -0.00004   0.00319   0.00314   1.92595
    A9        1.90379   0.00041  -0.00013   0.00391   0.00376   1.90755
   A10        1.90705   0.00001  -0.00043  -0.00016  -0.00059   1.90646
   A11        1.90551  -0.00042  -0.00025  -0.00700  -0.00724   1.89826
   A12        1.86671   0.00005  -0.00028   0.00306   0.00276   1.86947
   A13        2.20791  -0.00039   0.00822  -0.00895  -0.00072   2.20719
   A14        2.03074  -0.00059   0.00168  -0.00636  -0.00468   2.02605
   A15        2.04433   0.00097  -0.00990   0.01534   0.00544   2.04977
   A16        2.31194   0.00812   0.06235   0.01591   0.07826   2.39020
    D1        3.11372  -0.00013  -0.00010  -0.00709  -0.00719   3.10653
    D2       -1.04231  -0.00014   0.00006  -0.00697  -0.00692  -1.04924
    D3        1.00170   0.00025  -0.00039   0.00088   0.00050   1.00220
    D4       -1.06907  -0.00019  -0.00034  -0.00848  -0.00882  -1.07789
    D5        1.05808  -0.00021  -0.00018  -0.00836  -0.00855   1.04953
    D6        3.10210   0.00019  -0.00063  -0.00051  -0.00113   3.10097
    D7        1.01887  -0.00008   0.00008  -0.00609  -0.00601   1.01286
    D8       -3.13717  -0.00010   0.00024  -0.00598  -0.00574   3.14028
    D9       -1.09315   0.00030  -0.00020   0.00188   0.00168  -1.09147
   D10        2.05796   0.00001   0.00039   0.00497   0.00535   2.06331
   D11       -1.06129  -0.00001   0.00028   0.00325   0.00352  -1.05777
   D12       -0.07818  -0.00005   0.00002   0.00292   0.00294  -0.07524
   D13        3.08575  -0.00007  -0.00009   0.00121   0.00111   3.08686
   D14       -2.11420   0.00012   0.00074   0.00330   0.00404  -2.11016
   D15        1.04973   0.00010   0.00063   0.00158   0.00221   1.05194
   D16       -3.12631  -0.00005  -0.00104  -0.00258  -0.00362  -3.12994
   D17       -0.00721  -0.00005  -0.00079  -0.00110  -0.00189  -0.00910
         Item               Value     Threshold  Converged?
 Maximum Force            0.008125     0.000450     NO 
 RMS     Force            0.001771     0.000300     NO 
 Maximum Displacement     0.074780     0.001800     NO 
 RMS     Displacement     0.018946     0.001200     NO 
 Predicted change in Energy=-3.600560D-04
 GradGradGradGradGradGradGradGradGradGradGradGradGradGradGradGradGradGrad

                          Input orientation:                          
 ---------------------------------------------------------------------
 Center     Atomic      Atomic             Coordinates (Angstroms)
 Number     Number       Type             X           Y           Z
 ---------------------------------------------------------------------
      1          6           0       -1.718558   -0.254911   -0.297011
      2          6           0       -0.547546    0.528653    0.298292
      3          1           0       -2.621662    0.352964   -0.317121
      4          1           0       -1.495021   -0.568659   -1.315264
      5          1           0       -1.929369   -1.149176    0.289188
      6          6           0        0.700442   -0.303693    0.382413
      7          1           0       -0.345982    1.418091   -0.296225
      8          1           0       -0.812716    0.866531    1.302252
      9          6           0        1.832263   -0.068680   -0.224614
     10          1           0        0.637955   -1.202591    1.001759
     11          1           0        2.800908   -0.536189   -0.293515
 ---------------------------------------------------------------------
                    Distance matrix (angstroms):
                    1          2          3          4          5
     1  C    0.000000
     2  C    1.529584   0.000000
     3  H    1.088812   2.170611   0.000000
     4  H    1.088690   2.169185   1.764935   0.000000
     5  H    1.089853   2.173621   1.761619   1.760660   0.000000
     6  C    2.513077   1.502448   3.457878   2.787897   2.763953
     7  H    2.164001   1.088659   2.512698   2.511156   3.072569
     8  H    2.153096   1.091977   2.481613   3.062140   2.517198
     9  C    3.556438   2.508730   4.474794   3.536992   3.947320
    10  H    2.852728   2.213026   3.845036   3.212485   2.664914
    11  H    4.528212   3.563183   5.495035   4.415885   4.805291
                    6          7          8          9         10
     6  C    0.000000
     7  H    2.126051   0.000000
     8  H    2.122540   1.754192   0.000000
     9  C    1.305653   2.638250   3.194034   0.000000
    10  H    1.093394   3.085590   2.544800   2.053318   0.000000
    11  H    2.218759   3.704340   4.191942   1.077769   2.607718
                   11
    11  H    0.000000
 Stoichiometry    C4H7(2)
 Framework group  C1[X(C4H7)]
 Deg. of freedom    27
 Full point group                 C1      NOp   1
 Largest Abelian subgroup         C1      NOp   1
 Largest concise Abelian subgroup C1      NOp   1
                         Standard orientation:                         
 ---------------------------------------------------------------------
 Center     Atomic      Atomic             Coordinates (Angstroms)
 Number     Number       Type             X           Y           Z
 ---------------------------------------------------------------------
      1          6           0       -1.650106   -0.366510   -0.142313
      2          6           0       -0.492237    0.615593    0.043268
      3          1           0       -2.579869    0.163495   -0.342679
      4          1           0       -1.454748   -1.040558   -0.974622
      5          1           0       -1.795869   -0.973048    0.751356
      6          6           0        0.794566   -0.088148    0.369207
      7          1           0       -0.355828    1.214246   -0.855723
      8          1           0       -0.730832    1.305359    0.855493
      9          6           0        1.888604   -0.074272   -0.343267
     10          1           0        0.798425   -0.682396    1.287012
     11          1           0        2.873762   -0.507078   -0.282203
 ---------------------------------------------------------------------
 Rotational constants (GHZ):          24.6643093           4.3705420           4.2162692
 Standard basis: CC-pVTZ (5D, 7F)
 There are   245 symmetry adapted cartesian basis functions of A   symmetry.
 There are   218 symmetry adapted basis functions of A   symmetry.
   218 basis functions,   327 primitive gaussians,   245 cartesian basis functions
    16 alpha electrons       15 beta electrons
       nuclear repulsion energy       109.9967778549 Hartrees.
 NAtoms=   11 NActive=   11 NUniq=   11 SFac= 1.00D+00 NAtFMM=   60 NAOKFM=F Big=F
 Integral buffers will be    131072 words long.
 Raffenetti 2 integral format.
 Two-electron integral symmetry is turned on.
 Nuclear repulsion after empirical dispersion term =      109.9916082985 Hartrees.
 One-electron integrals computed using PRISM.
 NBasis=   218 RedAO= T EigKep=  4.75D-04  NBF=   218
 NBsUse=   218 1.00D-06 EigRej= -1.00D+00 NBFU=   218
 Initial guess from the checkpoint file:  "/localscratch/339542/Gau-27507.chk"
 B after Tr=    -0.000000   -0.000000    0.000000
         Rot=    0.999999   -0.001366    0.000110    0.000550 Ang=  -0.17 deg.
 Initial guess <Sx>= 0.0000 <Sy>= 0.0000 <Sz>= 0.5000 <S**2>= 0.7773 S= 0.5136
 ExpMin= 1.03D-01 ExpMax= 8.24D+03 ExpMxC= 2.81D+02 IAcc=3 IRadAn=         5 AccDes= 0.00D+00
 Harris functional with IExCor=  419 and IRadAn=       5 diagonalized for initial guess.
 HarFok:  IExCor=  419 AccDes= 0.00D+00 IRadAn=         5 IDoV= 1 UseB2=F ITyADJ=14
 ICtDFT=  3500011 ScaDFX=  1.000000  1.000000  1.000000  1.000000
 FoFCou: FMM=F IPFlag=           0 FMFlag=      100000 FMFlg1=           0
         NFxFlg=           0 DoJE=T BraDBF=F KetDBF=T FulRan=T
         wScrn=  0.000000 ICntrl=       500 IOpCl=  0 I1Cent=   200000004 NGrid=           0
         NMat0=    1 NMatS0=      1 NMatT0=    0 NMatD0=    1 NMtDS0=    0 NMtDT0=    0
 Petite list used in FoFCou.
 Keep R1 and R2 ints in memory in canonical form, NReq=612885869.
 Requested convergence on RMS density matrix=1.00D-08 within 128 cycles.
 Requested convergence on MAX density matrix=1.00D-06.
 Requested convergence on             energy=1.00D-06.
 No special actions if energy rises.
 Integral accuracy reduced to 1.0D-05 until final iterations.
 Initial convergence to 1.0D-05 achieved.  Increase integral accuracy.
 SCF Done:  E(UB2PLYPD3) =  -156.228466173     A.U. after   13 cycles
            NFock= 13  Conv=0.68D-08     -V/T= 2.0045
 <Sx>= 0.0000 <Sy>= 0.0000 <Sz>= 0.5000 <S**2>= 0.7754 S= 0.5126
 <L.S>=  0.00000000000    
 Annihilation of the first spin contaminant:
 S**2 before annihilation     0.7754,   after     0.7502
 DoSCS=T DFT=T ScalE2(SS,OS)=  0.270000  0.270000
 ExpMin= 1.03D-01 ExpMax= 8.24D+03 ExpMxC= 2.81D+02 IAcc=3 IRadAn=         5 AccDes= 0.00D+00
 HarFok:  IExCor=  205 AccDes= 0.00D+00 IRadAn=         5 IDoV=-2 UseB2=F ITyADJ=14
 ICtDFT= 12500011 ScaDFX=  1.000000  1.000000  1.000000  1.000000
 Range of M.O.s used for correlation:     5   218
 NBasis=   218 NAE=    16 NBE=    15 NFC=     4 NFV=     0
 NROrb=    214 NOA=    12 NOB=    11 NVA=   202 NVB=   203

 **** Warning!!: The largest alpha MO coefficient is  0.12161571D+02


 **** Warning!!: The largest beta MO coefficient is  0.11768493D+02

 DoSCS=T DFT=T ScalE2(SS,OS)=  0.270000  0.270000
 Fully direct method using O(ONN) memory.
 JobTyp=2 Pass  1:  I=   5 to  16 NPSUse= 40 ParTrn=T ParDer=T DoDerP=T.
 JobTyp=3 Pass  1:  I=   5 to  15 NPSUse= 40 ParTrn=T ParDer=T DoDerP=T.
 Spin components of T(2) and E(2):
     alpha-alpha T2 =       0.4149095623D-01 E2=     -0.2591499022D-01
     alpha-beta  T2 =       0.2441452916D+00 E2=     -0.1630903497D+00
     beta-beta   T2 =       0.3631129247D-01 E2=     -0.2228913183D-01
 (S**2,0)=  0.77544D+00           (S**2,1)=  0.75804D+00
 Scaling Projection term by:   0.270000
 E(PUHF)=      -0.15623182398D+03        E(PMP2)=      -0.15644035869D+03
 E2(B2PLYPD3) =    -0.2112944717D+00 E(B2PLYPD3) =    -0.15643976064449D+03
          IDoAtm=11111111111
          Differentiating once with respect to electric field.
                with respect to dipole field.
          Differentiating once with respect to nuclear coordinates.
 Keep R1 and R2 ints in memory in canonical form, NReq=612894013.
          There are     1 degrees of freedom in the 1st order CPHF.  IDoFFX=0 NUNeed=     1.
 LinEq1:  Iter=  0 NonCon=     1 RMS=7.84D-04 Max=1.82D-02 NDo=     1
 AX will form     1 AO Fock derivatives at one time.
 LinEq1:  Iter=  1 NonCon=     1 RMS=3.05D-04 Max=7.55D-03 NDo=     1
 LinEq1:  Iter=  2 NonCon=     1 RMS=2.16D-04 Max=8.49D-03 NDo=     1
 LinEq1:  Iter=  3 NonCon=     1 RMS=9.71D-05 Max=3.95D-03 NDo=     1
 LinEq1:  Iter=  4 NonCon=     1 RMS=5.13D-05 Max=1.38D-03 NDo=     1
 LinEq1:  Iter=  5 NonCon=     1 RMS=1.42D-05 Max=2.16D-04 NDo=     1
 LinEq1:  Iter=  6 NonCon=     1 RMS=5.72D-06 Max=8.17D-05 NDo=     1
 LinEq1:  Iter=  7 NonCon=     1 RMS=2.25D-06 Max=2.64D-05 NDo=     1
 LinEq1:  Iter=  8 NonCon=     1 RMS=8.18D-07 Max=9.56D-06 NDo=     1
 LinEq1:  Iter=  9 NonCon=     1 RMS=2.64D-07 Max=4.34D-06 NDo=     1
 LinEq1:  Iter= 10 NonCon=     1 RMS=6.34D-08 Max=1.58D-06 NDo=     1
 LinEq1:  Iter= 11 NonCon=     1 RMS=1.51D-08 Max=6.27D-07 NDo=     1
 LinEq1:  Iter= 12 NonCon=     1 RMS=5.11D-09 Max=1.70D-07 NDo=     1
 LinEq1:  Iter= 13 NonCon=     1 RMS=1.74D-09 Max=3.94D-08 NDo=     1
 LinEq1:  Iter= 14 NonCon=     1 RMS=8.20D-10 Max=1.44D-08 NDo=     1
 LinEq1:  Iter= 15 NonCon=     1 RMS=2.59D-10 Max=2.96D-09 NDo=     1
 LinEq1:  Iter= 16 NonCon=     0 RMS=8.22D-11 Max=8.62D-10 NDo=     1
 Linear equations converged to 1.000D-10 1.000D-09 after    16 iterations.
 End of Minotr F.D. properties file   721 does not exist.
 End of Minotr F.D. properties file   722 does not exist.
 End of Minotr F.D. properties file   788 does not exist.
 Calling FoFJK, ICntrl=  10002127 FMM=F ISym2X=0 I1Cent= 0 IOpClX= 1 NMat=1 NMatS=1 NMatT=0.
 ***** Axes restored to original set *****
 -------------------------------------------------------------------
 Center     Atomic                   Forces (Hartrees/Bohr)
 Number     Number              X              Y              Z
 -------------------------------------------------------------------
      1        6          -0.000012274    0.000206170    0.000125017
      2        6          -0.000594854    0.000195015   -0.000132458
      3        1          -0.000194463    0.000008438   -0.000059628
      4        1           0.000067564    0.000001921   -0.000072842
      5        1           0.000024113   -0.000044088    0.000055746
      6        6           0.001129644   -0.001075855    0.000350506
      7        1          -0.000034413    0.000057025   -0.000086534
      8        1          -0.000131469    0.000064424    0.000153041
      9        6           0.001465681   -0.000302659   -0.000401623
     10        1          -0.001033028    0.000070173    0.000327533
     11        1          -0.000686503    0.000819435   -0.000258757
 -------------------------------------------------------------------
 Cartesian Forces:  Max     0.001465681 RMS     0.000490147

 GradGradGradGradGradGradGradGradGradGradGradGradGradGradGradGradGradGrad
 Berny optimization.
 Using GEDIIS/GDIIS optimizer.
 FormGI is forming the generalized inverse of G from B-inverse, IUseBI=4.
 Internal  Forces:  Max     0.001428019 RMS     0.000420170
 Search for a local minimum.
 Step number   3 out of a maximum of  100
 All quantities printed in internal units (Hartrees-Bohrs-Radians)
 Mixed Optimization -- En-DIIS/RFO-DIIS
 Update second derivatives using D2CorX and points    1    2    3
 DE= -4.54D-04 DEPred=-3.60D-04 R= 1.26D+00
 TightC=F SS=  1.41D+00  RLast= 8.47D-02 DXNew= 8.4853D-01 2.5398D-01
 Trust test= 1.26D+00 RLast= 8.47D-02 DXMaxT set to 5.05D-01
 ITU=  1  1  0
 Use linear search instead of GDIIS.
     Eigenvalues ---    0.00344   0.00756   0.01338   0.03037   0.04194
     Eigenvalues ---    0.05431   0.05522   0.05539   0.09124   0.09436
     Eigenvalues ---    0.12798   0.16000   0.16000   0.16027   0.16773
     Eigenvalues ---    0.21958   0.22456   0.29248   0.32630   0.34214
     Eigenvalues ---    0.34414   0.34483   0.34590   0.34634   0.34962
     Eigenvalues ---    0.39138   0.61326
 RFO step:  Lambda=-3.45526450D-05 EMin= 3.43978691D-03
 Quartic linear search produced a step of  0.12616.
 Iteration  1 RMS(Cart)=  0.00538928 RMS(Int)=  0.00004013
 Iteration  2 RMS(Cart)=  0.00003963 RMS(Int)=  0.00000070
 Iteration  3 RMS(Cart)=  0.00000000 RMS(Int)=  0.00000070
 Variable       Old X    -DE/DX   Delta X   Delta X   Delta X     New X
                                 (Linear)    (Quad)   (Total)
    R1        2.89049  -0.00002  -0.00025   0.00004  -0.00021   2.89028
    R2        2.05756   0.00017  -0.00006   0.00052   0.00047   2.05802
    R3        2.05733   0.00008  -0.00006   0.00024   0.00018   2.05751
    R4        2.05952   0.00006  -0.00008   0.00020   0.00011   2.05964
    R5        2.83922   0.00100  -0.00046   0.00379   0.00332   2.84254
    R6        2.05727   0.00009  -0.00009   0.00025   0.00016   2.05743
    R7        2.06354   0.00019  -0.00018   0.00068   0.00050   2.06404
    R8        2.46733   0.00108  -0.00196   0.00286   0.00089   2.46822
    R9        2.06622   0.00019   0.00090   0.00011   0.00101   2.06723
   R10        2.03669  -0.00096  -0.00158  -0.00174  -0.00332   2.03337
    A1        1.93498   0.00020  -0.00048   0.00186   0.00138   1.93636
    A2        1.93312  -0.00011   0.00020  -0.00098  -0.00078   1.93234
    A3        1.93809  -0.00008   0.00014  -0.00067  -0.00053   1.93756
    A4        1.89012  -0.00004  -0.00002  -0.00013  -0.00014   1.88998
    A5        1.88346  -0.00004   0.00006  -0.00001   0.00005   1.88351
    A6        1.88212   0.00006   0.00011  -0.00009   0.00002   1.88214
    A7        1.95402   0.00012  -0.00022   0.00083   0.00061   1.95463
    A8        1.92595  -0.00007   0.00040  -0.00093  -0.00054   1.92541
    A9        1.90755  -0.00010   0.00047  -0.00104  -0.00057   1.90698
   A10        1.90646  -0.00001  -0.00007   0.00015   0.00008   1.90654
   A11        1.89826   0.00003  -0.00091   0.00113   0.00022   1.89848
   A12        1.86947   0.00003   0.00035  -0.00015   0.00020   1.86966
   A13        2.20719  -0.00065  -0.00009  -0.00294  -0.00303   2.20416
   A14        2.02605  -0.00078  -0.00059  -0.00570  -0.00629   2.01976
   A15        2.04977   0.00143   0.00069   0.00863   0.00931   2.05908
   A16        2.39020   0.00111   0.00987   0.00502   0.01489   2.40509
    D1        3.10653   0.00002  -0.00091  -0.00015  -0.00105   3.10548
    D2       -1.04924   0.00003  -0.00087  -0.00004  -0.00092  -1.05016
    D3        1.00220  -0.00003   0.00006  -0.00140  -0.00133   1.00087
    D4       -1.07789   0.00004  -0.00111   0.00027  -0.00084  -1.07873
    D5        1.04953   0.00005  -0.00108   0.00038  -0.00070   1.04882
    D6        3.10097  -0.00001  -0.00014  -0.00098  -0.00112   3.09985
    D7        1.01286  -0.00002  -0.00076  -0.00092  -0.00168   1.01118
    D8        3.14028  -0.00000  -0.00072  -0.00082  -0.00154   3.13873
    D9       -1.09147  -0.00007   0.00021  -0.00217  -0.00196  -1.09343
   D10        2.06331   0.00001   0.00067   0.00084   0.00151   2.06482
   D11       -1.05777   0.00001   0.00044   0.00117   0.00162  -1.05616
   D12       -0.07524   0.00003   0.00037   0.00136   0.00173  -0.07351
   D13        3.08686   0.00003   0.00014   0.00170   0.00184   3.08870
   D14       -2.11016  -0.00002   0.00051   0.00082   0.00133  -2.10883
   D15        1.05194  -0.00002   0.00028   0.00116   0.00144   1.05338
   D16       -3.12994  -0.00000  -0.00046  -0.00014  -0.00059  -3.13053
   D17       -0.00910  -0.00002  -0.00024  -0.00063  -0.00087  -0.00996
         Item               Value     Threshold  Converged?
 Maximum Force            0.001428     0.000450     NO 
 RMS     Force            0.000420     0.000300     NO 
 Maximum Displacement     0.019826     0.001800     NO 
 RMS     Displacement     0.005380     0.001200     NO 
 Predicted change in Energy=-2.211781D-05
 GradGradGradGradGradGradGradGradGradGradGradGradGradGradGradGradGradGrad

                          Input orientation:                          
 ---------------------------------------------------------------------
 Center     Atomic      Atomic             Coordinates (Angstroms)
 Number     Number       Type             X           Y           Z
 ---------------------------------------------------------------------
      1          6           0       -1.719002   -0.254251   -0.296820
      2          6           0       -0.546700    0.527358    0.298224
      3          1           0       -2.621918    0.354305   -0.318008
      4          1           0       -1.495025   -0.568785   -1.314836
      5          1           0       -1.930764   -1.148063    0.289836
      6          6           0        0.701227   -0.308000    0.384783
      7          1           0       -0.343193    1.415543   -0.297655
      8          1           0       -0.812524    0.867229    1.301626
      9          6           0        1.833337   -0.071656   -0.222201
     10          1           0        0.629579   -1.205641    1.005900
     11          1           0        2.805697   -0.525697   -0.300697
 ---------------------------------------------------------------------
                    Distance matrix (angstroms):
                    1          2          3          4          5
     1  C    0.000000
     2  C    1.529472   0.000000
     3  H    1.089058   2.171686   0.000000
     4  H    1.088785   2.168597   1.765120   0.000000
     5  H    1.089912   2.173187   1.761896   1.760797   0.000000
     6  C    2.514951   1.504206   3.460615   2.789307   2.764434
     7  H    2.163577   1.088743   2.513808   2.509767   3.072069
     8  H    2.152777   1.092240   2.481977   3.061668   2.517058
     9  C    3.557812   2.508832   4.476597   3.538217   3.948328
    10  H    2.849220   2.210819   3.841666   3.210194   2.659214
[...]
    R5        2.84385   0.00013   0.00000   0.00069   0.00069   2.84454
    R6        2.05751  -0.00002   0.00000  -0.00009  -0.00009   2.05742
    R7        2.06414  -0.00001   0.00000  -0.00002  -0.00002   2.06412
    R8        2.46766   0.00000   0.00000   0.00005   0.00005   2.46770
    R9        2.06672  -0.00009   0.00000  -0.00041  -0.00041   2.06631
   R10        2.03312   0.00008   0.00000   0.00030   0.00030   2.03341
    A1        1.93630   0.00002   0.00000   0.00016   0.00016   1.93646
    A2        1.93250  -0.00000   0.00000  -0.00001  -0.00001   1.93249
    A3        1.93774   0.00000   0.00000   0.00003   0.00003   1.93777
    A4        1.88991  -0.00001   0.00000  -0.00005  -0.00005   1.88986
    A5        1.88339  -0.00001   0.00000  -0.00009  -0.00009   1.88331
    A6        1.88202  -0.00000   0.00000  -0.00005  -0.00005   1.88197
    A7        1.95402  -0.00001   0.00000  -0.00010  -0.00010   1.95392
    A8        1.92569   0.00001   0.00000   0.00012   0.00012   1.92581
    A9        1.90734   0.00001   0.00000   0.00014   0.00014   1.90748
   A10        1.90691  -0.00000   0.00000  -0.00020  -0.00020   1.90671
   A11        1.89800   0.00000   0.00000  -0.00002  -0.00002   1.89798
   A12        1.86976  -0.00000   0.00000   0.00006   0.00006   1.86982
   A13        2.20118  -0.00017   0.00000  -0.00140  -0.00140   2.19978
   A14        2.01766   0.00002   0.00000   0.00008   0.00008   2.01774
   A15        2.06417   0.00015   0.00000   0.00132   0.00132   2.06550
   A16        2.40749  -0.00012   0.00000  -0.00106  -0.00106   2.40643
    D1        3.10559   0.00000   0.00000   0.00061   0.00061   3.10620
    D2       -1.04978  -0.00000   0.00000   0.00037   0.00037  -1.04941
    D3        1.00173   0.00000   0.00000   0.00060   0.00060   1.00233
    D4       -1.07864   0.00000   0.00000   0.00065   0.00065  -1.07799
    D5        1.04917  -0.00000   0.00000   0.00040   0.00040   1.04958
    D6        3.10069   0.00001   0.00000   0.00064   0.00064   3.10133
    D7        1.01136   0.00000   0.00000   0.00059   0.00059   1.01195
    D8        3.13917  -0.00000   0.00000   0.00035   0.00035   3.13952
    D9       -1.09250   0.00000   0.00000   0.00059   0.00059  -1.09192
   D10        2.06590  -0.00000   0.00000   0.00036   0.00036   2.06627
   D11       -1.05535   0.00000   0.00000   0.00047   0.00047  -1.05488
   D12       -0.07263  -0.00000   0.00000   0.00042   0.00042  -0.07221
   D13        3.08931   0.00000   0.00000   0.00052   0.00052   3.08983
   D14       -2.10800   0.00000   0.00000   0.00046   0.00046  -2.10754
   D15        1.05393   0.00000   0.00000   0.00057   0.00057   1.05450
   D16       -3.13096   0.00000   0.00000   0.00004   0.00004  -3.13092
   D17       -0.01020  -0.00000   0.00000  -0.00008  -0.00008  -0.01028
         Item               Value     Threshold  Converged?
 Maximum Force            0.000171     0.000450     YES
 RMS     Force            0.000048     0.000300     YES
 Maximum Displacement     0.001427     0.001800     YES
 RMS     Displacement     0.000629     0.001200     YES
 Predicted change in Energy=-3.683753D-07
 Optimization completed.
    -- Stationary point found.
                           ----------------------------
                           !   Optimized Parameters   !
                           ! (Angstroms and Degrees)  !
 --------------------------                            --------------------------
 ! Name  Definition              Value          Derivative Info.                !
 --------------------------------------------------------------------------------
 ! R1    R(1,2)                  1.5294         -DE/DX =    0.0                 !
 ! R2    R(1,3)                  1.089          -DE/DX =    0.0                 !
 ! R3    R(1,4)                  1.0889         -DE/DX =    0.0                 !
 ! R4    R(1,5)                  1.09           -DE/DX =    0.0                 !
 ! R5    R(2,6)                  1.5049         -DE/DX =    0.0001              !
 ! R6    R(2,7)                  1.0888         -DE/DX =    0.0                 !
 ! R7    R(2,8)                  1.0923         -DE/DX =    0.0                 !
 ! R8    R(6,9)                  1.3058         -DE/DX =    0.0                 !
 ! R9    R(6,10)                 1.0937         -DE/DX =   -0.0001              !
 ! R10   R(9,11)                 1.0759         -DE/DX =    0.0001              !
 ! A1    A(2,1,3)              110.9419         -DE/DX =    0.0                 !
 ! A2    A(2,1,4)              110.724          -DE/DX =    0.0                 !
 ! A3    A(2,1,5)              111.0245         -DE/DX =    0.0                 !
 ! A4    A(3,1,4)              108.2839         -DE/DX =    0.0                 !
 ! A5    A(3,1,5)              107.9105         -DE/DX =    0.0                 !
 ! A6    A(4,1,5)              107.832          -DE/DX =    0.0                 !
 ! A7    A(1,2,6)              111.9572         -DE/DX =    0.0                 !
 ! A8    A(1,2,7)              110.3336         -DE/DX =    0.0                 !
 ! A9    A(1,2,8)              109.2825         -DE/DX =    0.0                 !
 ! A10   A(6,2,7)              109.2581         -DE/DX =    0.0                 !
 ! A11   A(6,2,8)              108.7474         -DE/DX =    0.0                 !
 ! A12   A(7,2,8)              107.1292         -DE/DX =    0.0                 !
 ! A13   A(2,6,9)              126.1182         -DE/DX =   -0.0002              !
 ! A14   A(2,6,10)             115.6035         -DE/DX =    0.0                 !
 ! A15   A(9,6,10)             118.2685         -DE/DX =    0.0001              !
 ! A16   A(6,9,11)             137.9393         -DE/DX =   -0.0001              !
 ! D1    D(3,1,2,6)            177.9372         -DE/DX =    0.0                 !
 ! D2    D(3,1,2,7)            -60.1482         -DE/DX =    0.0                 !
 ! D3    D(3,1,2,8)             57.3949         -DE/DX =    0.0                 !
 ! D4    D(4,1,2,6)            -61.8013         -DE/DX =    0.0                 !
 ! D5    D(4,1,2,7)             60.1133         -DE/DX =    0.0                 !
 ! D6    D(4,1,2,8)            177.6564         -DE/DX =    0.0                 !
 ! D7    D(5,1,2,6)             57.9465         -DE/DX =    0.0                 !
 ! D8    D(5,1,2,7)            179.861          -DE/DX =    0.0                 !
 ! D9    D(5,1,2,8)            -62.5958         -DE/DX =    0.0                 !
 ! D10   D(1,2,6,9)            118.3676         -DE/DX =    0.0                 !
 ! D11   D(1,2,6,10)           -60.4669         -DE/DX =    0.0                 !
 ! D12   D(7,2,6,9)             -4.1613         -DE/DX =    0.0                 !
 ! D13   D(7,2,6,10)           177.0043         -DE/DX =    0.0                 !
 ! D14   D(8,2,6,9)           -120.7796         -DE/DX =    0.0                 !
 ! D15   D(8,2,6,10)            60.3859         -DE/DX =    0.0                 !
 ! D16   D(2,6,9,11)          -179.3909         -DE/DX =    0.0                 !
 ! D17   D(10,6,9,11)           -0.5843         -DE/DX =    0.0                 !
 --------------------------------------------------------------------------------
 GradGradGradGradGradGradGradGradGradGradGradGradGradGradGradGradGradGrad


 ----------------------------------------------------------------------

 Electric dipole moment (input orientation):
 (Debye = 10**-18 statcoulomb cm , SI units = C m)
                  (au)            (Debye)         (10**-30 SI)
   Tot        0.277345D+00      0.704940D+00      0.235143D+01
   x         -0.154226D+00     -0.392003D+00     -0.130758D+01
   y         -0.166696D+00     -0.423700D+00     -0.141331D+01
   z          0.159207D+00      0.404664D+00      0.134981D+01

 Dipole polarizability, Alpha (input orientation).
 (esu units = cm**3 , SI units = C**2 m**2 J**-1)
 Alpha(0;0):
               (au)            (10**-24 esu)      (10**-40 SI)
   iso        0.476652D+02      0.706325D+01      0.785893D+01
   aniso      0.229884D+02      0.340652D+01      0.379027D+01
   xx         0.617951D+02      0.915709D+01      0.101886D+02
   yx        -0.393964D+00     -0.583795D-01     -0.649559D-01
   yy         0.409340D+02      0.606579D+01      0.674910D+01
   zx        -0.478151D+01     -0.708547D+00     -0.788364D+00
   zy        -0.181217D+01     -0.268536D+00     -0.298787D+00
   zz         0.402665D+02      0.596687D+01      0.663904D+01

 ----------------------------------------------------------------------

 Dipole orientation:
     6         -2.81954809         -0.01763380          1.77283864
     6         -0.72746869          1.32536609          0.29879538
     1         -4.45759116          1.20632186          2.00539300
     1         -3.42205059         -1.72296786          0.79165762
     1         -2.16719819         -0.56597047          3.64805686
     6          1.59461153         -0.29481209          0.03338013
     1         -1.39986958          1.85913389         -1.57104794
     1         -0.21263565          3.06699169          1.27978926
     6          2.57818550         -1.09125217         -2.08501335
     1          2.49313485         -0.86492575          1.80509344
     1          4.15214361         -2.23010370         -2.68437782

 Electric dipole moment (dipole orientation):
 (Debye = 10**-18 statcoulomb cm , SI units = C m)
                  (au)            (Debye)         (10**-30 SI)
   Tot        0.277345D+00      0.704940D+00      0.235143D+01
   x          0.000000D+00      0.000000D+00      0.000000D+00
   y          0.000000D+00      0.000000D+00      0.000000D+00
   z          0.277345D+00      0.704940D+00      0.235143D+01

 Dipole polarizability, Alpha (dipole orientation).
 (esu units = cm**3 , SI units = C**2 m**2 J**-1)
 Alpha(0;0):
               (au)            (10**-24 esu)      (10**-40 SI)
   iso        0.476652D+02      0.706325D+01      0.785893D+01
   aniso      0.229884D+02      0.340652D+01      0.379027D+01
   xx         0.504867D+02      0.748135D+01      0.832412D+01
   yx        -0.633407D+01     -0.938612D+00     -0.104435D+01
   yy         0.413043D+02      0.612067D+01      0.681017D+01
   zx        -0.929127D+01     -0.137682D+01     -0.153192D+01
   zy         0.438551D+01      0.649866D+00      0.723073D+00
   zz         0.512045D+02      0.758773D+01      0.844249D+01

 ----------------------------------------------------------------------
 1\1\GINC-N68\Freq\UB2PLYPD3-FC\CC-pVTZ\C4H7(2)\ROOT\31-May-2019\0\\#N 
 Geom=AllCheck Guess=TCheck SCRF=Check GenChk UB2PLYPD3(FC)/CC-pVTZ Fre
 q\\Title Card Required\\0,2\C,-1.7186273807,-0.2542400608,-0.296768745
 4\C,-0.5461822887,0.5270946041,0.2982408852\H,-2.6211158188,0.35489144
 65,-0.3188540739\H,-1.4944772258,-0.5697776668,-1.3145126236\H,-1.9314
 326157,-1.1475424265,0.2904240135\C,0.7013627854,-0.3099972436,0.38560
 99038\H,-0.3418477326,1.4150003351,-0.2978531988\H,-0.8116339639,0.867
 3396946,1.3016727454\C,1.8324566835,-0.0714722073,-0.2217756483\H,0.62
 61399289,-1.2069191467,1.0068748558\H,2.8060715284,-0.5220363786,-0.30
 29055737\\Version=ES64L-G16RevB.01\State=2-A\HF=-156.2284707\MP2=-156.
 4397909\PUHF=-156.2318535\PMP2-0=-156.4403935\S2=0.775607\S2-1=0.75809
 3\S2A=0.750219\RMSD=1.474e-09\RMSF=9.760e-05\ZeroPoint=0.0950305\Therm
 al=0.1002979\Dipole=-0.1542257,-0.1666964,0.1592069\DipoleDeriv=0.0441
 174,-0.0155694,-0.013499,0.0640679,0.087875,-0.0379476,-0.0102592,-0.0
 233387,0.0969183,0.1189348,0.023833,0.01461,-0.041755,0.1089423,0.0553
 071,0.0277055,0.0330222,0.1734075,-0.1534919,0.071465,-0.0173302,0.090
 2041,-0.0090472,0.0005723,-0.0217269,-0.0081743,0.0658387,0.0342739,0.
 0055889,0.0556125,-0.0221983,0.031921,-0.0524208,-0.0021908,-0.0647283
 ,-0.1127027,0.0413884,-0.0212775,-0.0133972,-0.0668327,-0.0917464,0.07
 23487,0.0213904,0.1023453,-0.0148095,0.0315383,-0.0619539,-0.0828103,-
 0.1057665,0.0375825,-0.1435446,-0.0651074,-0.1383686,-0.0819706,-0.006
 7482,-0.0534071,0.0150769,-0.0081607,-0.0830402,0.0522911,-0.0106017,0
 .0897187,0.0062492,-0.0413371,0.0225563,0.0298011,0.0486624,0.0284676,
 -0.0603598,0.0229062,-0.083316,-0.1153703,-0.1409662,-0.0010713,-0.063
 7878,-0.1098567,-0.183491,-0.0015943,0.0216618,-0.0548186,-0.2418995,0
 .0415106,-0.0095927,0.0378982,0.0206023,-0.0431853,0.1021612,0.0311167
 ,0.1013434,0.0389658,0.03078,0.0394287,0.037826,0.1310332,0.1157217,0.
 0131866,-0.0148946,0.0463147,0.1853731\Polar=61.7951241,-0.3939642,40.
 9339632,-4.7815095,-1.8121738,40.2664626\PG=C01 [X(C4H7)]\NImag=0\\0.5
 1313950,-0.04580791,0.54512352,-0.03270145,-0.01999709,0.55785557,-0.1
 3653649,-0.04344183,-0.03287031,0.45353742,-0.04712952,-0.11084440,-0.
 02164283,0.00315878,0.54263147,-0.03491558,-0.01973956,-0.09577251,-0.
 04431294,-0.03889810,0.56348605,-0.22664181,0.12470542,-0.00300064,-0.
 02000646,0.01486558,-0.00037082,0.24795814,0.12573961,-0.13419965,0.00
 256265,-0.01695886,0.01046578,-0.00106092,-0.13548046,0.14357048,-0.00
 234795,0.00197759,-0.04851847,-0.01116776,0.00829594,-0.00153162,0.005
 13381,-0.00130593,0.04793278,-0.06043182,0.01782908,0.05617676,0.00405
 248,-0.00772974,-0.02643742,-0.00540873,0.00613375,0.02569299,0.064579
 34,0.01717962,-0.06926992,-0.06902786,0.00341173,-0.00574289,-0.017342
 33,0.00325982,-0.00562918,-0.01788795,-0.01573152,0.07260413,0.0543520
 9,-0.06947255,-0.28065460,0.00211142,-0.00348067,-0.01175829,-0.000235
 14,0.00088140,0.00208249,-0.05808578,0.07849504,0.30439964,-0.05655000
 ,-0.03840856,0.02672251,-0.00632901,-0.02210347,0.01500033,0.00606592,
 0.02203829,-0.01590753,-0.00229087,-0.00607676,0.00384805,0.06047273,-
 0.03914758,-0.22225988,0.11766004,-0.00347389,-0.01510259,0.00930574,-
 0.00400317,-0.01484160,0.01001062,0.00206384,0.00868931,-0.00536440,0.
 04632544,0.24227352,0.02737132,0.11828391,-0.12787572,-0.00303109,-0.0
 1268179,0.00803211,-0.00028310,-0.00096689,-0.00069381,0.00476939,0.02
 598545,-0.01611553,-0.02769019,-0.12890032,0.13554998,-0.03461904,0.01
 348094,-0.00317220,-0.14802074,0.05772837,-0.00352537,-0.00349205,-0.0
 0240508,-0.00202885,0.00249444,0.00089196,0.00107104,0.00158485,0.0010
 9259,0.00053567,0.71418486,-0.01072929,0.01275105,-0.00003479,0.065691
 79,-0.12270509,0.00896737,-0.00455323,-0.00166737,-0.00203977,-0.00037
 384,0.00016422,0.00016638,-0.00079542,0.00073236,-0.00012037,0.0073596
 2,0.41423192,-0.01104870,0.00764262,-0.00033023,-0.00866660,0.01181561
 ,-0.07360334,-0.00180704,-0.00131316,-0.00031831,-0.00072436,0.0008874
 8,0.00044150,0.00132670,-0.00003002,0.00043402,-0.22631535,-0.18423219
 ,0.35174383,-0.00599843,-0.02181609,0.01458653,-0.05661304,-0.04107034
 ,0.02944540,0.00052014,0.00067880,0.00059381,0.00119911,0.00079602,-0.
 00007453,-0.00375498,-0.00264736,-0.00278007,0.00312756,0.02407586,-0.
 01650629,0.06628210,-0.00380385,-0.01335192,0.00870248,-0.03901166,-0.
 22128438,0.11807791,-0.00002019,0.00072532,-0.00004528,0.00072414,0.00
 018669,-0.00007263,-0.00268691,-0.00047830,-0.00173436,-0.00160712,-0.
 01532524,0.01018762,0.04326853,0.24100980,-0.00346028,-0.01295021,0.00
 822082,0.02853543,0.11998486,-0.13294010,0.00080803,0.00054780,0.00032
 048,0.00073725,0.00011261,0.00083060,-0.00269505,-0.00223531,-0.000170
 50,-0.00027556,0.00067090,-0.00098287,-0.02873262,-0.12990611,0.139735
 23,0.00504554,-0.00975687,-0.02691641,-0.05814768,0.02048246,0.0615476
 8,0.00121973,0.00094547,0.00043999,-0.00406857,-0.00336902,-0.00229868
 ,0.00103094,0.00052711,0.00077494,-0.01371122,0.01015463,0.02662046,-0
 .00204377,0.00169124,0.00512601,0.07173584,0.00241086,-0.00624183,-0.0
 1745718,0.01947476,-0.07326419,-0.06878254,0.00031034,0.00073750,0.000
 70407,-0.00297624,-0.00107734,-0.00135983,0.00082225,0.00019281,0.0000
 9290,0.00700855,-0.00551078,-0.01783168,-0.00661125,0.00901817,0.02443
 852,-0.02148118,0.07642137,0.00235659,-0.00427274,-0.01261288,0.057963
 23,-0.06830337,-0.26542916,-0.00021055,0.00051921,0.00018910,-0.002659
 73,-0.00137809,0.00060462,0.00002081,-0.00016593,0.00086061,0.00078379
 ,0.00134190,0.00377756,0.00419655,-0.00539555,-0.01638140,-0.06240210,
 0.07888366,0.28821634,-0.00001849,0.00291478,0.00105565,-0.03445727,-0
 .00084667,0.01256809,-0.00057568,-0.00052709,-0.00069802,-0.00000947,-
 0.00015760,-0.00049185,0.00008777,-0.00002920,0.00008119,-0.46979867,-
 0.09133095,0.23269839,0.00133905,-0.00137141,0.00008773,-0.00064121,0.
 00102549,-0.00059326,0.81813506,0.00062096,-0.00149894,-0.00015267,0.0
 1051564,0.00609553,-0.00969205,0.00041000,0.00042046,0.00031262,0.0000
 7799,0.00022552,0.00024426,0.00034410,0.00027446,-0.00006382,-0.058599
 58,-0.07707435,0.05205260,0.00025873,0.00052533,-0.00089532,0.00300660
 ,-0.00167515,-0.00049831,-0.04921569,0.16098003,-0.00258766,0.00029924
 ,-0.00034144,0.00677696,-0.00551194,-0.00096981,-0.00073505,-0.0000668
 5,0.00025612,0.00064538,0.00027907,0.00050602,-0.00022002,-0.00025056,
 0.00007622,0.21070218,0.06504743,-0.16069895,-0.00087496,-0.00006673,0
 .00004836,-0.00016921,0.00018204,0.00040616,-0.27207540,-0.05902857,0.
 19057393,0.00242216,0.00027758,-0.00008585,0.00217950,0.02309594,-0.01
 346563,0.00031636,-0.00008936,0.00034829,-0.00008642,-0.00012567,-0.00
 010558,-0.00025011,-0.00065594,0.00026631,-0.04523965,-0.01463799,0.01
 216771,-0.00425190,0.00297493,-0.00012166,0.00077479,-0.00051366,0.000
 60617,-0.00679291,-0.02231801,0.02365679,0.05030670,-0.00019782,0.0002
 7464,-0.00040680,-0.00139790,-0.01238780,0.01433238,0.00025561,0.00030
 895,-0.00011144,0.00004514,-0.00004138,-0.00001955,0.00057696,0.000524
 86,0.00012089,-0.00827062,-0.21273150,0.11911649,0.00327246,-0.0012221
 1,0.00027106,-0.00115003,0.00060368,-0.00037301,-0.00215103,-0.0023329
 2,0.01273346,0.00978509,0.22674753,0.00129820,-0.00032602,0.00002282,0
 .00296916,0.00438511,0.00508005,0.00019645,-0.00011390,0.00005045,-0.0
 0006943,-0.00004306,-0.00022937,-0.00034946,-0.00003680,-0.00001937,0.
 00803528,0.12118294,-0.12212064,0.00008330,0.00038304,0.00130370,-0.00
 153250,0.00057646,0.00044150,0.01069511,0.02090803,-0.00235468,-0.0203
 0641,-0.14370469,0.11847480,0.00018887,0.00002346,0.00020541,0.0003412
 9,-0.00045138,0.00446625,0.00004445,-0.00007507,-0.00005877,-0.0000294
 9,-0.00007858,-0.00009103,-0.00006725,-0.00005184,-0.00001438,-0.00651
 035,0.01513883,-0.00774492,0.00019417,-0.00015772,-0.00000927,-0.00119
 438,0.00053008,-0.00006151,-0.30726818,0.11489925,0.03488100,0.0006214
 7,-0.00076787,-0.00101970,0.31367941,0.00086493,-0.00048266,-0.0002059
 5,0.00203144,0.00213854,0.00483211,0.00025027,0.00010930,0.00008953,-0
 .00006260,-0.00010917,-0.00001746,-0.00003591,-0.00000495,-0.00001559,
 -0.01667962,0.00713476,0.00170462,-0.00020536,0.00019664,-0.00003879,-
 0.00105042,0.00079576,-0.00035778,0.14168938,-0.08593998,-0.01361660,0
 .00220709,0.00025604,-0.00321108,-0.12900919,0.07590571,0.00168343,-0.
 00144518,0.00000664,0.00169248,0.00603717,0.00540662,0.00050406,0.0003
 1659,0.00023079,-0.00004505,-0.00008037,-0.00010709,-0.00005614,0.0000
 0694,-0.00007801,0.01418937,-0.01094978,0.00165742,0.00006288,-0.00013
 039,0.00001568,-0.00119019,0.00055358,-0.00007245,0.01667237,-0.003186
 76,-0.02750194,-0.00296015,-0.00195879,-0.00064925,-0.03055307,0.01083
 700,0.02109158\\-0.00002736,-0.00001132,-0.00000855,0.00009904,-0.0001
 3242,0.00006131,0.00000942,0.00000550,0.00000490,0.00000015,0.00000212
 ,-0.00000500,0.00000415,-0.00000125,0.00000142,-0.00019695,0.00034642,
 -0.00016082,-0.00000220,0.00001989,-0.00001158,-0.00000814,0.00000248,
 0.00000380,0.00012470,-0.00022206,0.00010142,0.00005276,-0.00008583,0.
 00004214,-0.00005556,0.00007647,-0.00002904\\\@


 Once you get people laughing, they're
 listening and you can tell them almost anything.
                                 -- Herb Gardner
 Job cpu time:       0 days  7 hours 50 minutes 22.4 seconds.
 Elapsed time:       0 days  0 hours 12 minutes  6.0 seconds.
 File lengths (MBytes):  RWF=  14059 Int=      0 D2E=      0 Chk=      9 Scr=      1
 Normal termination of Gaussian 16 at Fri May 31 18:48:55 2019.
