 Entering Gaussian System, Link 0=g16
 Initial command:
 /ichec/packages/gaussian/16b01/l1.exe "/localscratch/339543/Gau-67942.inp" -scrdir="/localscratch/339543/"
 Entering Link 1 = /ichec/packages/gaussian/16b01/l1.exe PID=     67971.
  
 Copyright (c) 1988-2017, Gaussian, Inc.  All Rights Reserved.
  
 This is part of the Gaussian(R) 16 program.  It is based on
 the Gaussian(R) 09 system (copyright 2009, Gaussian, Inc.),
 the Gaussian(R) 03 system (copyright 2003, Gaussian, Inc.),
 the Gaussian(R) 98 system (copyright 1998, Gaussian, Inc.),
 the Gaussian(R) 94 system (copyright 1995, Gaussian, Inc.),
 the Gaussian 92(TM) system (copyright 1992, Gaussian, Inc.),
 the Gaussian 90(TM) system (copyright 1990, Gaussian, Inc.),
 the Gaussian 88(TM) system (copyright 1988, Gaussian, Inc.),
 the Gaussian 86(TM) system (copyright 1986, Carnegie Mellon
 University), and the Gaussian 82(TM) system (copyright 1983,
 Carnegie Mellon University). Gaussian is a federally registered
 trademark of Gaussian, Inc.
  
 This software contains proprietary and confidential information,
 including trade secrets, belonging to Gaussian, Inc.
  
 This software is provided under written license and may be
 used, copied, transmitted, or stored only in accord with that
 written license.
  
 The following legend is applicable only to US Government
 contracts under FAR:
  
                    RESTRICTED RIGHTS LEGEND
  
 Use, reproduction and disclosure by the US Government is
 subject to restrictions as set forth in subparagraphs (a)
 and (c) of the Commercial Computer Software - Restricted
 Rights clause in FAR 52.227-19.
  
 Gaussian, Inc.
 340 Quinnipiac St., Bldg. 40, Wallingford CT 06492
  
  
 ---------------------------------------------------------------
 Warning -- This program may not be used in any manner that
 competes with the business of Gaussian, Inc. or will provide
 assistance to any competitor of Gaussian, Inc.  The licensee
 of this program is prohibited from giving any competitor of
 Gaussian, Inc. access to this program.  By using this program,
 the user acknowledges that Gaussian, Inc. is engaged in the
 business of creating and licensing software in the field of
 computational chemistry and represents and warrants to the
 licensee that it is not a competitor of Gaussian, Inc. and that
 it will not use this program in any manner prohibited above.
 ---------------------------------------------------------------
  

 Cite this work as:
 Gaussian 16, Revision B.01,
 M. J. Frisch, G. W. Trucks, H. B. Schlegel, G. E. Scuseria, 
 M. A. Robb, J. R. Cheeseman, G. Scalmani, V. Barone, 
 G. A. Petersson, H. Nakatsuji, X. Li, M. Caricato, A. V. Marenich, 
 J. Bloino, B. G. Janesko, R. Gomperts, B. Mennucci, H. P. Hratchian, 
 J. V. Ortiz, A. F. Izmaylov, J. L. Sonnenberg, D. Williams-Young, 
 F. Ding, F. Lipparini, F. Egidi, J. Goings, B. Peng, A. Petrone, 
 T. Henderson, D. Ranasinghe, V. G. Zakrzewski, J. Gao, N. Rega, 
 G. Zheng, W. Liang, M. Hada, M. Ehara, K. Toyota, R. Fukuda, 
 J. Hasegawa, M. Ishida, T. Nakajima, Y. Honda, O. Kitao, H. Nakai, 
 T. Vreven, K. Throssell, J. A. Montgomery, Jr., J. E. Peralta, 
 F. Ogliaro, M. J. Bearpark, J. J. Heyd, E. N. Brothers, K. N. Kudin, 
 V. N. Staroverov, T. A. Keith, R. Kobayashi, J. Normand, 
 K. Raghavachari, A. P. Rendell, J. C. Burant, S. S. Iyengar, 
 J. Tomasi, M. Cossi, J. M. Millam, M. Klene, C. Adamo, R. Cammi, 
 J. W. Ochterski, R. L. Martin, K. Morokuma, O. Farkas, 
 J. B. Foresman, and D. J. Fox, Gaussian, Inc., Wallingford CT, 2016.
 
 ******************************************
 Gaussian 16:  ES64L-G16RevB.01 20-Dec-2017
                31-May-2019 
 ******************************************
 %mem=80GB
 %nproc=40
 Will use up to   40 processors via shared memory.
 ----------------------------------------------------------------------
 # opt=(maxcyc=500,modredundant) uB2PLYPD3/cc-pvtz scf=maxcyc=500 nosym
 m
 ----------------------------------------------------------------------
 1/6=500,18=120,19=15,38=1/1,3;
 2/9=110,12=2,15=1,17=6,18=5,40=1/2;
 3/5=16,6=1,11=2,25=1,30=1,71=1,74=-60,116=2/1,2,3;
 4//1;
 5/5=2,7=500,38=5/2;
 8/6=4,10=1/1;
 9/15=2,16=-3/6;
 10/5=1,31=1/2;
 6/7=2,8=2,9=2,10=2/1;
 7/12=2,30=1/1,2,3,16;
 1/6=500,18=20,19=15/3(2);
 2/9=110,15=1/2;
 99//99;
 2/9=110,15=1/2;
 3/5=16,6=1,11=2,25=1,30=1,71=1,74=-60,116=2/1,2,3;
 4/5=5,16=3,69=1/1;
 5/5=2,7=500,38=5/2;
 8/6=4,10=1/1;
 9/15=2,16=-3/6;
 10/5=1,31=1/2;
 7/12=2,30=1/1,2,3,16;
 1/6=500,18=20,19=15/3(-8);
 2/9=110,15=1/2;
 6/7=2,8=2,9=2,10=2/1;
 99/9=10/99;
 -------------------
 Title Card Required
 -------------------
 Symbolic Z-matrix:
 Charge =  0 Multiplicity = 1
 C                    -1.70747  -0.26021  -0.29476 
 C                    -0.54081   0.5344    0.30039 
 H                    -2.62306   0.33425  -0.30692 
 H                    -1.48118  -0.56473  -1.3187 
 H                    -1.90108  -1.1643    0.28797 
 C                     0.71761  -0.28114   0.35972 
 H                    -0.35989   1.43748  -0.28917 
 H                    -0.80769   0.86001   1.31168 
 C                     1.84115   0.00852  -0.28664 
 H                     0.67402  -1.18337   0.9686 
 H                     1.91899   0.89715  -0.90577 
 H                     2.71699  -0.6259   -0.21994 
 
 The following ModRedundant input section has been read:
 D    *          2       1    *    R                                           
 D       3       1       2       7 S  36 10.000                                
 

 GradGradGradGradGradGradGradGradGradGradGradGradGradGradGradGradGradGrad
 Berny optimization.
 Initialization pass.
                           ----------------------------
                           !    Initial Parameters    !
                           ! (Angstroms and Degrees)  !
 --------------------------                            --------------------------
 ! Name  Definition              Value          Derivative Info.                !
 --------------------------------------------------------------------------------
 ! R1    R(1,2)                  1.5319         estimate D2E/DX2                !
 ! R2    R(1,3)                  1.0917         estimate D2E/DX2                !
 ! R3    R(1,4)                  1.092          estimate D2E/DX2                !
 ! R4    R(1,5)                  1.0929         estimate D2E/DX2                !
 ! R5    R(2,6)                  1.5008         estimate D2E/DX2                !
 ! R6    R(2,7)                  1.0935         estimate D2E/DX2                !
 ! R7    R(2,8)                  1.0954         estimate D2E/DX2                !
 ! R8    R(6,9)                  1.3282         estimate D2E/DX2                !
 ! R9    R(6,10)                 1.0893         estimate D2E/DX2                !
 ! R10   R(9,11)                 1.0858         estimate D2E/DX2                !
 ! R11   R(9,12)                 1.0835         estimate D2E/DX2                !
 ! A1    A(2,1,3)              111.1365         estimate D2E/DX2                !
 ! A2    A(2,1,4)              110.557          estimate D2E/DX2                !
 ! A3    A(2,1,5)              110.9077         estimate D2E/DX2                !
 ! A4    A(3,1,4)              108.3732         estimate D2E/DX2                !
 ! A5    A(3,1,5)              107.9273         estimate D2E/DX2                !
 ! A6    A(4,1,5)              107.8182         estimate D2E/DX2                !
 ! A7    A(1,2,6)              111.8439         estimate D2E/DX2                !
 ! A8    A(1,2,7)              110.1762         estimate D2E/DX2                !
 ! A9    A(1,2,8)              109.1056         estimate D2E/DX2                !
 ! A10   A(6,2,7)              109.3509         estimate D2E/DX2                !
 ! A11   A(6,2,8)              109.2275         estimate D2E/DX2                !
 ! A12   A(7,2,8)              107.0111         estimate D2E/DX2                !
 ! A13   A(2,6,9)              124.8603         estimate D2E/DX2                !
 ! A14   A(2,6,10)             116.0166         estimate D2E/DX2                !
 ! A15   A(9,6,10)             119.1106         estimate D2E/DX2                !
 ! A16   A(6,9,11)             121.1051         estimate D2E/DX2                !
 ! A17   A(6,9,12)             121.7443         estimate D2E/DX2                !
 ! A18   A(11,9,12)            117.1506         estimate D2E/DX2                !
 ! D1    D(3,1,2,7)            -59.7313         Scan                            !
 ! D2    D(1,2,6,9)            117.8348         estimate D2E/DX2                !
 ! D3    D(1,2,6,10)           -60.8628         estimate D2E/DX2                !
 ! D4    D(7,2,6,9)             -4.4831         estimate D2E/DX2                !
 ! D5    D(7,2,6,10)           176.8192         estimate D2E/DX2                !
 ! D6    D(8,2,6,9)           -121.2832         estimate D2E/DX2                !
 ! D7    D(8,2,6,10)            60.0191         estimate D2E/DX2                !
 ! D8    D(2,6,9,11)             1.0835         estimate D2E/DX2                !
 ! D9    D(2,6,9,12)          -179.0019         estimate D2E/DX2                !
 ! D10   D(10,6,9,11)          179.7439         estimate D2E/DX2                !
 ! D11   D(10,6,9,12)           -0.3415         estimate D2E/DX2                !
 --------------------------------------------------------------------------------
 Trust Radius=3.00D-01 FncErr=1.00D-07 GrdErr=1.00D-07 EigMax=2.50D+02 EigMin=1.00D-04
 Number of optimizations in scan=  37
 Number of steps in this run=    100 maximum allowed number of steps=    100.
 GradGradGradGradGradGradGradGradGradGradGradGradGradGradGradGradGradGrad

                          Input orientation:                          
 ---------------------------------------------------------------------
 Center     Atomic      Atomic             Coordinates (Angstroms)
 Number     Number       Type             X           Y           Z
 ---------------------------------------------------------------------
      1          6           0       -1.707467   -0.260212   -0.294762
      2          6           0       -0.540811    0.534404    0.300391
      3          1           0       -2.623057    0.334247   -0.306921
      4          1           0       -1.481181   -0.564732   -1.318701
      5          1           0       -1.901079   -1.164298    0.287970
      6          6           0        0.717611   -0.281143    0.359723
      7          1           0       -0.359888    1.437476   -0.289167
      8          1           0       -0.807688    0.860010    1.311681
      9          6           0        1.841149    0.008521   -0.286643
     10          1           0        0.674023   -1.183372    0.968596
     11          1           0        1.918986    0.897148   -0.905768
     12          1           0        2.716993   -0.625900   -0.219939
 ---------------------------------------------------------------------
                    Distance matrix (angstroms):
                    1          2          3          4          5
     1  C    0.000000
     2  C    1.531897   0.000000
     3  H    1.091712   2.178219   0.000000
     4  H    1.091966   2.171141   1.770803   0.000000
     5  H    1.092901   2.176252   1.766574   1.765555   0.000000
     6  C    2.511930   1.500754   3.461673   2.780686   2.764534
     7  H    2.167520   1.093550   2.517809   2.515169   3.078569
     8  H    2.155263   1.095422   2.488346   3.066332   2.518196
     9  C    3.558786   2.508963   4.476119   3.525853   3.963579
    10  H    2.849525   2.207504   3.847187   3.203022   2.663600
    11  H    3.855382   2.763513   4.615802   3.724076   4.501940
    12  H    4.440177   3.497190   5.426378   4.340010   4.677011
                    6          7          8          9         10
     6  C    0.000000
     7  H    2.129721   0.000000
     8  H    2.129552   1.759746   0.000000
     9  C    1.328169   2.624211   3.208740   0.000000
    10  H    1.089332   3.085415   2.547270   2.087682   0.000000
    11  H    2.105502   2.421862   3.514713   1.085833   3.064594
    12  H    2.110070   3.705335   4.120335   1.083532   2.428398
                   11         12
    11  H    0.000000
    12  H    1.851176   0.000000
 Symmetry turned off by external request.
 Stoichiometry    C4H8
 Framework group  C1[X(C4H8)]
 Deg. of freedom    30
 Full point group                 C1      NOp   1
 Rotational constants (GHZ):          22.2996232           4.1957606           4.1031043
 Standard basis: CC-pVTZ (5D, 7F)
   232 basis functions,   344 primitive gaussians,   260 cartesian basis functions
    16 alpha electrons       16 beta electrons
       nuclear repulsion energy       117.3842724609 Hartrees.
 NAtoms=   12 NActive=   12 NUniq=   12 SFac= 1.00D+00 NAtFMM=   60 NAOKFM=F Big=F
 Integral buffers will be    131072 words long.
 Raffenetti 2 integral format.
 Two-electron integral symmetry is turned off.
 Nuclear repulsion after empirical dispersion term =      117.3786083468 Hartrees.
 One-electron integrals computed using PRISM.
 NBasis=   232 RedAO= T EigKep=  4.53D-04  NBF=   232
 NBsUse=   232 1.00D-06 EigRej= -1.00D+00 NBFU=   232
 ExpMin= 1.03D-01 ExpMax= 8.24D+03 ExpMxC= 2.81D+02 IAcc=3 IRadAn=         5 AccDes= 0.00D+00
 Harris functional with IExCor=  419 and IRadAn=       5 diagonalized for initial guess.
 HarFok:  IExCor=  419 AccDes= 0.00D+00 IRadAn=         5 IDoV= 1 UseB2=F ITyADJ=14
 ICtDFT=  3500011 ScaDFX=  1.000000  1.000000  1.000000  1.000000
 FoFCou: FMM=F IPFlag=           0 FMFlag=      100000 FMFlg1=           0
         NFxFlg=           0 DoJE=T BraDBF=F KetDBF=T FulRan=T
         wScrn=  0.000000 ICntrl=       500 IOpCl=  0 I1Cent=   200000004 NGrid=           0
         NMat0=    1 NMatS0=      1 NMatT0=    0 NMatD0=    1 NMtDS0=    0 NMtDT0=    0
 Symmetry not used in FoFCou.
 Initial guess <Sx>= 0.0000 <Sy>= 0.0000 <Sz>= 0.0000 <S**2>=-0.0000 S=-0.0000
 Keep R1 and R2 ints in memory in canonical form, NReq=774238648.
 Requested convergence on RMS density matrix=1.00D-08 within 500 cycles.
 Requested convergence on MAX density matrix=1.00D-06.
 Requested convergence on             energy=1.00D-06.
 No special actions if energy rises.
 Integral accuracy reduced to 1.0D-05 until final iterations.
 Initial convergence to 1.0D-05 achieved.  Increase integral accuracy.
 SCF Done:  E(UB2PLYPD3) =  -156.901655083     A.U. after   11 cycles
            NFock= 11  Conv=0.83D-08     -V/T= 2.0050
 <Sx>= 0.0000 <Sy>= 0.0000 <Sz>= 0.0000 <S**2>=-0.0000 S=-0.0000
 <L.S>=  0.00000000000    
 Annihilation of the first spin contaminant:
 S**2 before annihilation    -0.0000,   after    -0.0000
 DoSCS=T DFT=T ScalE2(SS,OS)=  0.270000  0.270000
 ExpMin= 1.03D-01 ExpMax= 8.24D+03 ExpMxC= 2.81D+02 IAcc=3 IRadAn=         5 AccDes= 0.00D+00
 HarFok:  IExCor=  205 AccDes= 0.00D+00 IRadAn=         5 IDoV=-2 UseB2=F ITyADJ=14
 ICtDFT= 12500011 ScaDFX=  1.000000  1.000000  1.000000  1.000000
 Range of M.O.s used for correlation:     5   232
 NBasis=   232 NAE=    16 NBE=    16 NFC=     4 NFV=     0
 NROrb=    228 NOA=    12 NOB=    12 NVA=   216 NVB=   216

 **** Warning!!: The largest alpha MO coefficient is  0.11556552D+02


 **** Warning!!: The largest beta MO coefficient is  0.11556552D+02

 DoSCS=T DFT=T ScalE2(SS,OS)=  0.270000  0.270000
 Fully direct method using O(ONN) memory.
 JobTyp=2 Pass  1:  I=   5 to  16 NPSUse= 40 ParTrn=T ParDer=T DoDerP=T.
 JobTyp=3 Pass  1:  I=   5 to  16 NPSUse= 40 ParTrn=T ParDer=T DoDerP=T.
 Spin components of T(2) and E(2):
     alpha-alpha T2 =       0.3986426904D-01 E2=     -0.2492910413D-01
     alpha-beta  T2 =       0.2589955051D+00 E2=     -0.1737053512D+00
     beta-beta   T2 =       0.3986426904D-01 E2=     -0.2492910413D-01
 (S**2,0)=  0.00000D+00           (S**2,1)=  0.00000D+00
 E(PUHF)=      -0.15690165508D+03        E(PMP2)=      -0.15712521864D+03
 E2(B2PLYPD3) =    -0.2235635595D+00 E(B2PLYPD3) =    -0.15712521864285D+03
          IDoAtm=111111111111
          Differentiating once with respect to electric field.
                with respect to dipole field.
          Differentiating once with respect to nuclear coordinates.
 Keep R1 and R2 ints in memory in canonical form, NReq=774247682.
          There are     1 degrees of freedom in the 1st order CPHF.  IDoFFX=0 NUNeed=     1.
 LinEq1:  Iter=  0 NonCon=     1 RMS=5.52D-04 Max=7.05D-03 NDo=     1
 AX will form     1 AO Fock derivatives at one time.
 LinEq1:  Iter=  1 NonCon=     1 RMS=2.21D-04 Max=2.84D-03 NDo=     1
 LinEq1:  Iter=  2 NonCon=     1 RMS=5.91D-05 Max=1.62D-03 NDo=     1
 LinEq1:  Iter=  3 NonCon=     1 RMS=3.32D-05 Max=8.39D-04 NDo=     1
 LinEq1:  Iter=  4 NonCon=     1 RMS=8.96D-06 Max=1.27D-04 NDo=     1
 LinEq1:  Iter=  5 NonCon=     1 RMS=2.44D-06 Max=2.27D-05 NDo=     1
 LinEq1:  Iter=  6 NonCon=     1 RMS=8.95D-07 Max=1.34D-05 NDo=     1
 LinEq1:  Iter=  7 NonCon=     1 RMS=3.13D-07 Max=4.58D-06 NDo=     1
 LinEq1:  Iter=  8 NonCon=     1 RMS=1.09D-07 Max=1.31D-06 NDo=     1
 LinEq1:  Iter=  9 NonCon=     1 RMS=1.57D-08 Max=1.40D-07 NDo=     1
 LinEq1:  Iter= 10 NonCon=     1 RMS=5.85D-09 Max=6.14D-08 NDo=     1
 LinEq1:  Iter= 11 NonCon=     1 RMS=1.75D-09 Max=1.60D-08 NDo=     1
 LinEq1:  Iter= 12 NonCon=     1 RMS=3.24D-10 Max=4.07D-09 NDo=     1
 LinEq1:  Iter= 13 NonCon=     0 RMS=5.59D-11 Max=7.91D-10 NDo=     1
 Linear equations converged to 1.000D-10 1.000D-09 after    13 iterations.
 End of Minotr F.D. properties file   721 does not exist.
 End of Minotr F.D. properties file   722 does not exist.
 End of Minotr F.D. properties file   788 does not exist.

 **********************************************************************

            Population analysis using the SCF Density.

 **********************************************************************

 Alpha  occ. eigenvalues --  -10.61608 -10.61404 -10.60370 -10.60290  -0.91760
 Alpha  occ. eigenvalues --   -0.83703  -0.72251  -0.63731  -0.54381  -0.51113
 Alpha  occ. eigenvalues --   -0.49204  -0.44678  -0.43430  -0.40351  -0.39321
 Alpha  occ. eigenvalues --   -0.30237
 Alpha virt. eigenvalues --    0.06898   0.08957   0.11020   0.11546   0.13028
 Alpha virt. eigenvalues --    0.15741   0.16811   0.17059   0.18597   0.22835
 Alpha virt. eigenvalues --    0.26224   0.29941   0.31490   0.32665   0.33814
 Alpha virt. eigenvalues --    0.36129   0.37724   0.39925   0.43753   0.47908
 Alpha virt. eigenvalues --    0.48317   0.49507   0.51169   0.51585   0.52270
 Alpha virt. eigenvalues --    0.53695   0.53913   0.54586   0.57027   0.57858
 Alpha virt. eigenvalues --    0.58753   0.62377   0.65288   0.69607   0.70924
 Alpha virt. eigenvalues --    0.71949   0.77758   0.78721   0.80298   0.82796
 Alpha virt. eigenvalues --    0.88046   0.92649   0.96301   0.97384   0.99511
 Alpha virt. eigenvalues --    1.01546   1.05185   1.08393   1.09397   1.13227
 Alpha virt. eigenvalues --    1.14959   1.15916   1.17378   1.18474   1.18760
 Alpha virt. eigenvalues --    1.20951   1.24292   1.24810   1.25706   1.26988
 Alpha virt. eigenvalues --    1.28754   1.33762   1.36122   1.38353   1.40207
 Alpha virt. eigenvalues --    1.40805   1.44965   1.46489   1.48316   1.51038
 Alpha virt. eigenvalues --    1.53920   1.55195   1.56862   1.60391   1.62553
 Alpha virt. eigenvalues --    1.66630   1.68278   1.71616   1.79858   1.98577
 Alpha virt. eigenvalues --    2.18758   2.24499   2.35282   2.36181   2.39255
 Alpha virt. eigenvalues --    2.39530   2.44578   2.46152   2.49541   2.56336
 Alpha virt. eigenvalues --    2.57530   2.59565   2.63010   2.66649   2.67908
 Alpha virt. eigenvalues --    2.68608   2.77026   2.79260   2.82100   2.85460
 Alpha virt. eigenvalues --    2.87474   2.89371   2.92744   2.93774   2.94566
 Alpha virt. eigenvalues --    2.97898   3.00136   3.01082   3.01831   3.03159
 Alpha virt. eigenvalues --    3.06554   3.09681   3.11435   3.12602   3.14119
 Alpha virt. eigenvalues --    3.15755   3.17603   3.20646   3.21670   3.23809
 Alpha virt. eigenvalues --    3.26285   3.28335   3.30118   3.31263   3.32759
 Alpha virt. eigenvalues --    3.37923   3.39255   3.41220   3.43811   3.45999
 Alpha virt. eigenvalues --    3.48196   3.49343   3.55538   3.57287   3.59986
 Alpha virt. eigenvalues --    3.61554   3.62708   3.67926   3.70268   3.73942
 Alpha virt. eigenvalues --    3.74601   3.79390   3.81172   3.83894   3.85255
 Alpha virt. eigenvalues --    3.86382   3.89115   3.91383   3.93991   3.97435
 Alpha virt. eigenvalues --    3.97957   3.99686   4.03392   4.05288   4.06490
 Alpha virt. eigenvalues --    4.06974   4.10653   4.12756   4.15998   4.17648
 Alpha virt. eigenvalues --    4.18477   4.19199   4.22336   4.23793   4.25836
 Alpha virt. eigenvalues --    4.29108   4.33970   4.37918   4.39886   4.42030
 Alpha virt. eigenvalues --    4.44369   4.47623   4.49315   4.52762   4.57301
 Alpha virt. eigenvalues --    4.63250   4.64755   4.68089   4.69828   4.81055
 Alpha virt. eigenvalues --    4.83338   4.90586   4.95040   4.96592   4.99738
 Alpha virt. eigenvalues --    5.01245   5.01595   5.04774   5.11024   5.12646
 Alpha virt. eigenvalues --    5.14546   5.15987   5.23148   5.31100   5.33676
 Alpha virt. eigenvalues --    5.36647   5.39921   5.48142   5.49139   5.50541
 Alpha virt. eigenvalues --    5.53726   5.55453   5.62106   5.63403   5.66978
 Alpha virt. eigenvalues --    5.81170   6.03913   6.05072   6.06541   6.11211
 Alpha virt. eigenvalues --    6.18080   6.42515  11.17907  12.93858  13.61273
 Alpha virt. eigenvalues --   14.34481
  Beta  occ. eigenvalues --  -10.61608 -10.61404 -10.60370 -10.60290  -0.91760
  Beta  occ. eigenvalues --   -0.83703  -0.72251  -0.63731  -0.54381  -0.51113
  Beta  occ. eigenvalues --   -0.49204  -0.44678  -0.43430  -0.40351  -0.39321
  Beta  occ. eigenvalues --   -0.30237
  Beta virt. eigenvalues --    0.06898   0.08957   0.11020   0.11546   0.13028
  Beta virt. eigenvalues --    0.15741   0.16811   0.17059   0.18597   0.22835
  Beta virt. eigenvalues --    0.26224   0.29941   0.31490   0.32665   0.33814
  Beta virt. eigenvalues --    0.36129   0.37724   0.39925   0.43753   0.47908
  Beta virt. eigenvalues --    0.48317   0.49507   0.51169   0.51585   0.52270
  Beta virt. eigenvalues --    0.53695   0.53913   0.54586   0.57027   0.57858
  Beta virt. eigenvalues --    0.58753   0.62377   0.65288   0.69607   0.70924
  Beta virt. eigenvalues --    0.71949   0.77758   0.78721   0.80298   0.82796
  Beta virt. eigenvalues --    0.88046   0.92649   0.96301   0.97384   0.99511
  Beta virt. eigenvalues --    1.01546   1.05185   1.08393   1.09397   1.13227
  Beta virt. eigenvalues --    1.14959   1.15916   1.17378   1.18474   1.18760
  Beta virt. eigenvalues --    1.20951   1.24292   1.24810   1.25706   1.26988
  Beta virt. eigenvalues --    1.28754   1.33762   1.36122   1.38353   1.40207
  Beta virt. eigenvalues --    1.40805   1.44965   1.46489   1.48316   1.51038
  Beta virt. eigenvalues --    1.53920   1.55195   1.56862   1.60391   1.62553
  Beta virt. eigenvalues --    1.66630   1.68278   1.71616   1.79858   1.98577
  Beta virt. eigenvalues --    2.18758   2.24499   2.35282   2.36181   2.39255
  Beta virt. eigenvalues --    2.39530   2.44578   2.46152   2.49541   2.56336
  Beta virt. eigenvalues --    2.57530   2.59565   2.63010   2.66649   2.67908
  Beta virt. eigenvalues --    2.68608   2.77026   2.79260   2.82100   2.85460
  Beta virt. eigenvalues --    2.87474   2.89371   2.92744   2.93774   2.94566
  Beta virt. eigenvalues --    2.97898   3.00136   3.01082   3.01831   3.03159
  Beta virt. eigenvalues --    3.06554   3.09681   3.11435   3.12602   3.14119
  Beta virt. eigenvalues --    3.15755   3.17603   3.20646   3.21670   3.23809
  Beta virt. eigenvalues --    3.26285   3.28335   3.30118   3.31263   3.32759
  Beta virt. eigenvalues --    3.37923   3.39255   3.41220   3.43811   3.45999
  Beta virt. eigenvalues --    3.48196   3.49343   3.55538   3.57287   3.59986
  Beta virt. eigenvalues --    3.61554   3.62708   3.67926   3.70268   3.73942
  Beta virt. eigenvalues --    3.74601   3.79390   3.81172   3.83894   3.85255
  Beta virt. eigenvalues --    3.86382   3.89115   3.91383   3.93991   3.97435
  Beta virt. eigenvalues --    3.97957   3.99686   4.03392   4.05288   4.06490
  Beta virt. eigenvalues --    4.06974   4.10653   4.12756   4.15998   4.17648
  Beta virt. eigenvalues --    4.18477   4.19199   4.22336   4.23793   4.25836
  Beta virt. eigenvalues --    4.29108   4.33970   4.37918   4.39886   4.42030
  Beta virt. eigenvalues --    4.44369   4.47623   4.49315   4.52762   4.57301
  Beta virt. eigenvalues --    4.63250   4.64755   4.68089   4.69828   4.81055
  Beta virt. eigenvalues --    4.83338   4.90586   4.95040   4.96592   4.99738
  Beta virt. eigenvalues --    5.01245   5.01595   5.04774   5.11024   5.12646
  Beta virt. eigenvalues --    5.14546   5.15987   5.23148   5.31100   5.33676
  Beta virt. eigenvalues --    5.36647   5.39921   5.48142   5.49139   5.50541
  Beta virt. eigenvalues --    5.53726   5.55453   5.62106   5.63403   5.66978
  Beta virt. eigenvalues --    5.81170   6.03913   6.05072   6.06541   6.11211
  Beta virt. eigenvalues --    6.18080   6.42515  11.17907  12.93858  13.61273
  Beta virt. eigenvalues --   14.34481
          Condensed to atoms (all electrons):
               1          2          3          4          5          6
     1  C    4.865467   0.343697   0.405638   0.402049   0.407390  -0.056922
     2  C    0.343697   4.811082  -0.035105  -0.035593  -0.036557   0.360612
     3  H    0.405638  -0.035105   0.592007  -0.028315  -0.031464   0.008332
     4  H    0.402049  -0.035593  -0.028315   0.589129  -0.031399  -0.000127
     5  H    0.407390  -0.036557  -0.031464  -0.031399   0.598625  -0.003251
     6  C   -0.056922   0.360612   0.008332  -0.000127  -0.003251   4.917166
     7  H   -0.033177   0.415414  -0.005172  -0.004970   0.007042  -0.041464
     8  H   -0.041405   0.420351  -0.003884   0.008103  -0.004954  -0.040686
     9  C   -0.000113  -0.060620  -0.000163   0.002770   0.000466   0.634777
    10  H   -0.001276  -0.040675  -0.000301   0.000212   0.003064   0.408657
    11  H    0.000107  -0.006877  -0.000055   0.000204   0.000033  -0.050516
    12  H   -0.000382   0.006674   0.000028  -0.000090  -0.000017  -0.046569
               7          8          9         10         11         12
     1  C   -0.033177  -0.041405  -0.000113  -0.001276   0.000107  -0.000382
     2  C    0.415414   0.420351  -0.060620  -0.040675  -0.006877   0.006674
     3  H   -0.005172  -0.003884  -0.000163  -0.000301  -0.000055   0.000028
     4  H   -0.004970   0.008103   0.002770   0.000212   0.000204  -0.000090
     5  H    0.007042  -0.004954   0.000466   0.003064   0.000033  -0.000017
     6  C   -0.041464  -0.040686   0.634777   0.408657  -0.050516  -0.046569
     7  H    0.599230  -0.034210  -0.003418   0.006272   0.004496  -0.000028
     8  H   -0.034210   0.602827   0.001687  -0.003249   0.000232  -0.000390
     9  C   -0.003418   0.001687   4.953066  -0.042879   0.409439   0.419978
    10  H    0.006272  -0.003249  -0.042879   0.546529   0.006938  -0.008393
    11  H    0.004496   0.000232   0.409439   0.006938   0.554841  -0.036126
    12  H   -0.000028  -0.000390   0.419978  -0.008393  -0.036126   0.542300
          Atomic-Atomic Spin Densities.
               1          2          3          4          5          6
     1  C   -0.000000   0.000000   0.000000   0.000000  -0.000000  -0.000000
     2  C    0.000000   0.000000   0.000000  -0.000000   0.000000  -0.000000
     3  H    0.000000   0.000000  -0.000000   0.000000   0.000000  -0.000000
     4  H    0.000000  -0.000000   0.000000   0.000000  -0.000000   0.000000
     5  H   -0.000000   0.000000   0.000000  -0.000000  -0.000000  -0.000000
     6  C   -0.000000  -0.000000  -0.000000   0.000000  -0.000000  -0.000000
     7  H   -0.000000   0.000000   0.000000   0.000000  -0.000000  -0.000000
     8  H   -0.000000  -0.000000   0.000000  -0.000000  -0.000000   0.000000
     9  C    0.000000   0.000000   0.000000  -0.000000  -0.000000   0.000000
    10  H    0.000000  -0.000000   0.000000   0.000000  -0.000000  -0.000000
    11  H   -0.000000  -0.000000   0.000000   0.000000  -0.000000  -0.000000
    12  H    0.000000   0.000000   0.000000   0.000000   0.000000  -0.000000
               7          8          9         10         11         12
     1  C   -0.000000  -0.000000   0.000000   0.000000  -0.000000   0.000000
     2  C    0.000000  -0.000000   0.000000  -0.000000  -0.000000   0.000000
     3  H    0.000000   0.000000   0.000000   0.000000   0.000000   0.000000
     4  H    0.000000  -0.000000  -0.000000   0.000000   0.000000   0.000000
     5  H   -0.000000  -0.000000  -0.000000  -0.000000  -0.000000   0.000000
     6  C   -0.000000   0.000000   0.000000  -0.000000  -0.000000  -0.000000
     7  H   -0.000000  -0.000000  -0.000000  -0.000000  -0.000000  -0.000000
     8  H   -0.000000   0.000000  -0.000000   0.000000  -0.000000  -0.000000
     9  C   -0.000000  -0.000000   0.000000   0.000000   0.000000  -0.000000
    10  H   -0.000000   0.000000   0.000000   0.000000   0.000000  -0.000000
    11  H   -0.000000  -0.000000   0.000000   0.000000   0.000000  -0.000000
    12  H   -0.000000  -0.000000  -0.000000  -0.000000  -0.000000  -0.000000
 Mulliken charges and spin densities:
               1          2
     1  C   -0.291073  -0.000000
     2  C   -0.142402   0.000000
     3  H    0.098453   0.000000
     4  H    0.098027   0.000000
     5  H    0.091023  -0.000000
     6  C   -0.090006  -0.000000
     7  H    0.089985  -0.000000
     8  H    0.095580  -0.000000
     9  C   -0.314990   0.000000
    10  H    0.125102   0.000000
    11  H    0.117284   0.000000
    12  H    0.123016  -0.000000
 Sum of Mulliken charges =  -0.00000   0.00000
 Mulliken charges and spin densities with hydrogens summed into heavy atoms:
               1          2
     1  C   -0.003570  -0.000000
     2  C    0.043163   0.000000
     6  C    0.035096  -0.000000
     9  C   -0.074689   0.000000
 Electronic spatial extent (au):  <R**2>=            364.9195
 Charge=             -0.0000 electrons
 Dipole moment (field-independent basis, Debye):
    X=             -0.3647    Y=              0.0434    Z=              0.1004  Tot=              0.3807
 Quadrupole moment (field-independent basis, Debye-Ang):
   XX=            -26.9313   YY=            -26.7058   ZZ=            -27.4384
   XY=             -0.5668   XZ=             -0.8725   YZ=             -1.3324
 Traceless Quadrupole moment (field-independent basis, Debye-Ang):
   XX=              0.0939   YY=              0.3194   ZZ=             -0.4132
   XY=             -0.5668   XZ=             -0.8725   YZ=             -1.3324
 Octapole moment (field-independent basis, Debye-Ang**2):
  XXX=              1.6855  YYY=              0.2002  ZZZ=              0.5202  XYY=              0.0321
  XXY=             -0.8261  XXZ=             -1.5516  XZZ=             -1.6842  YZZ=              0.2691
  YYZ=              0.4583  XYZ=             -1.4745
 Hexadecapole moment (field-independent basis, Debye-Ang**3):
 XXXX=           -363.5234 YYYY=            -76.4553 ZZZZ=            -67.7300 XXXY=             -9.3911
 XXXZ=             -5.6977 YYYX=             -0.0900 YYYZ=             -3.8975 ZZZX=             -0.9602
 ZZZY=             -0.7577 XXYY=            -73.2048 XXZZ=            -76.5360 YYZZ=            -23.0591
 XXYZ=             -3.0170 YYXZ=             -0.9356 ZZXY=              0.6549
 N-N= 1.173786083468D+02 E-N=-5.980218247093D+02  KE= 1.561218751354D+02
                          Isotropic Fermi Contact Couplings
        Atom                 a.u.       MegaHertz       Gauss      10(-4) cm-1
     1  C(13)             -0.00000      -0.00000      -0.00000      -0.00000
     2  C(13)              0.00000       0.00000       0.00000       0.00000
     3  H(1)              -0.00000      -0.00000      -0.00000      -0.00000
     4  H(1)              -0.00000      -0.00000      -0.00000      -0.00000
     5  H(1)               0.00000       0.00000       0.00000       0.00000
     6  C(13)              0.00000       0.00000       0.00000       0.00000
     7  H(1)               0.00000       0.00000       0.00000       0.00000
     8  H(1)               0.00000       0.00000       0.00000       0.00000
     9  C(13)              0.00000       0.00000       0.00000       0.00000
    10  H(1)              -0.00000      -0.00000      -0.00000      -0.00000
    11  H(1)              -0.00000      -0.00000      -0.00000      -0.00000
    12  H(1)               0.00000       0.00000       0.00000       0.00000
 --------------------------------------------------------
       Center         ----  Spin Dipole Couplings  ----
                      3XX-RR        3YY-RR        3ZZ-RR
 --------------------------------------------------------
     1   Atom        0.000000      0.000000      0.000000
     2   Atom        0.000000      0.000000      0.000000
     3   Atom        0.000000      0.000000      0.000000
     4   Atom        0.000000      0.000000      0.000000
     5   Atom        0.000000      0.000000      0.000000
     6   Atom        0.000000      0.000000      0.000000
     7   Atom        0.000000      0.000000      0.000000
     8   Atom        0.000000      0.000000      0.000000
     9   Atom        0.000000      0.000000      0.000000
    10   Atom        0.000000      0.000000      0.000000
    11   Atom        0.000000      0.000000      0.000000
    12   Atom        0.000000      0.000000      0.000000
 --------------------------------------------------------
                        XY            XZ            YZ
 --------------------------------------------------------
     1   Atom        0.000000      0.000000      0.000000
     2   Atom        0.000000      0.000000      0.000000
     3   Atom        0.000000      0.000000      0.000000
     4   Atom        0.000000      0.000000      0.000000
     5   Atom        0.000000      0.000000      0.000000
     6   Atom        0.000000      0.000000      0.000000
     7   Atom        0.000000      0.000000      0.000000
     8   Atom        0.000000      0.000000      0.000000
     9   Atom        0.000000      0.000000      0.000000
    10   Atom        0.000000      0.000000      0.000000
    11   Atom        0.000000      0.000000      0.000000
    12   Atom        0.000000      0.000000      0.000000
 --------------------------------------------------------


 ---------------------------------------------------------------------------------
              Anisotropic Spin Dipole Couplings in Principal Axis System
 ---------------------------------------------------------------------------------

       Atom             a.u.   MegaHertz   Gauss  10(-4) cm-1        Axes

              Baa     0.0000     0.000     0.000     0.000  1.0000  0.0000  0.0000
     1 C(13)  Bbb     0.0000     0.000     0.000     0.000 -0.0000  1.0000  0.0000
              Bcc     0.0000     0.000     0.000     0.000  0.0000  0.0000  1.0000
 
              Baa     0.0000     0.000     0.000     0.000  1.0000  0.0000  0.0000
     2 C(13)  Bbb     0.0000     0.000     0.000     0.000 -0.0000  1.0000  0.0000
              Bcc     0.0000     0.000     0.000     0.000  0.0000  0.0000  1.0000
 
              Baa     0.0000     0.000     0.000     0.000  1.0000  0.0000  0.0000
     3 H(1)   Bbb     0.0000     0.000     0.000     0.000 -0.0000  1.0000  0.0000
              Bcc     0.0000     0.000     0.000     0.000  0.0000  0.0000  1.0000
 
              Baa     0.0000     0.000     0.000     0.000  1.0000  0.0000  0.0000
     4 H(1)   Bbb     0.0000     0.000     0.000     0.000 -0.0000  1.0000  0.0000
              Bcc     0.0000     0.000     0.000     0.000  0.0000  0.0000  1.0000
 
              Baa     0.0000     0.000     0.000     0.000  1.0000  0.0000  0.0000
     5 H(1)   Bbb     0.0000     0.000     0.000     0.000 -0.0000  1.0000  0.0000
              Bcc     0.0000     0.000     0.000     0.000  0.0000  0.0000  1.0000
 
              Baa     0.0000     0.000     0.000     0.000  1.0000  0.0000  0.0000
     6 C(13)  Bbb     0.0000     0.000     0.000     0.000 -0.0000  1.0000  0.0000
              Bcc     0.0000     0.000     0.000     0.000  0.0000  0.0000  1.0000
 
              Baa     0.0000     0.000     0.000     0.000  1.0000  0.0000  0.0000
     7 H(1)   Bbb     0.0000     0.000     0.000     0.000 -0.0000  1.0000  0.0000
              Bcc     0.0000     0.000     0.000     0.000  0.0000  0.0000  1.0000
 
              Baa     0.0000     0.000     0.000     0.000  1.0000  0.0000  0.0000
     8 H(1)   Bbb     0.0000     0.000     0.000     0.000 -0.0000  1.0000  0.0000
              Bcc     0.0000     0.000     0.000     0.000  0.0000  0.0000  1.0000
 
              Baa     0.0000     0.000     0.000     0.000  1.0000  0.0000  0.0000
     9 C(13)  Bbb     0.0000     0.000     0.000     0.000 -0.0000  1.0000  0.0000
              Bcc     0.0000     0.000     0.000     0.000  0.0000  0.0000  1.0000
 
              Baa     0.0000     0.000     0.000     0.000  1.0000  0.0000  0.0000
    10 H(1)   Bbb     0.0000     0.000     0.000     0.000 -0.0000  1.0000  0.0000
              Bcc     0.0000     0.000     0.000     0.000  0.0000  0.0000  1.0000
 
              Baa     0.0000     0.000     0.000     0.000  1.0000  0.0000  0.0000
    11 H(1)   Bbb     0.0000     0.000     0.000     0.000 -0.0000  1.0000  0.0000
              Bcc     0.0000     0.000     0.000     0.000  0.0000  0.0000  1.0000
 
              Baa     0.0000     0.000     0.000     0.000  1.0000  0.0000  0.0000
    12 H(1)   Bbb     0.0000     0.000     0.000     0.000 -0.0000  1.0000  0.0000
              Bcc     0.0000     0.000     0.000     0.000  0.0000  0.0000  1.0000
 

 ---------------------------------------------------------------------------------

 Calling FoFJK, ICntrl=  10002127 FMM=F ISym2X=0 I1Cent= 0 IOpClX= 1 NMat=1 NMatS=1 NMatT=0.
 -------------------------------------------------------------------
 Center     Atomic                   Forces (Hartrees/Bohr)
 Number     Number              X              Y              Z
 -------------------------------------------------------------------
      1        6          -0.000845004   -0.000227743   -0.000336551
      2        6           0.001223984   -0.000354602    0.000404797
      3        1           0.001324623   -0.001050417   -0.000071474
      4        1          -0.000654924    0.000475930    0.001786961
      5        1           0.000272697    0.001573631   -0.001093211
      6        6          -0.002402606   -0.000806462    0.001767065
      7        1          -0.000481710   -0.001486398    0.001061341
      8        1           0.000198375   -0.000355094   -0.001612517
      9        6           0.003037344    0.000795930   -0.001720518
     10        1           0.000103662    0.002093948   -0.001404444
     11        1           0.000051244   -0.002066137    0.001359230
     12        1          -0.001827685    0.001407414   -0.000140680
 -------------------------------------------------------------------
 Cartesian Forces:  Max     0.003037344 RMS     0.001287229

 GradGradGradGradGradGradGradGradGradGradGradGradGradGradGradGradGradGrad
 Berny optimization.
 FormGI is forming the generalized inverse of G from B-inverse, IUseBI=4.
 Internal  Forces:  Max     0.002523376 RMS     0.001029428
 Search for a local minimum.
 Step number   1 out of a maximum of  100 on scan point     1 out of    37
 All quantities printed in internal units (Hartrees-Bohrs-Radians)
 Mixed Optimization -- RFO/linear search
 Second derivative matrix not updated -- first step.
 ITU=  0
     Eigenvalues ---    0.00756   0.01701   0.03039   0.03039   0.07171
     Eigenvalues ---    0.07903   0.15998   0.16000   0.16000   0.16000
     Eigenvalues ---    0.16000   0.16000   0.16000   0.16000   0.16000
     Eigenvalues ---    0.16000   0.22001   0.22429   0.29249   0.32298
     Eigenvalues ---    0.34193   0.34406   0.34479   0.34586   0.34616
     Eigenvalues ---    0.34890   0.35299   0.35571   0.599401000.00000
     Eigenvalues --- 1000.000001000.000001000.000001000.000001000.00000
     Eigenvalues --- 1000.000001000.000001000.000001000.000001000.00000
 RFO step:  Lambda=-1.27688624D-04 EMin= 7.55971096D-03
 Linear search not attempted -- first point.
 Iteration  1 RMS(Cart)=  0.00620784 RMS(Int)=  0.00001317
 Iteration  2 RMS(Cart)=  0.00002617 RMS(Int)=  0.00000170
 Iteration  3 RMS(Cart)=  0.00000000 RMS(Int)=  0.00000170
 Iteration  1 RMS(Cart)=  0.00000000 RMS(Int)=  0.00000000
 Variable       Old X    -DE/DX   Delta X   Delta X   Delta X     New X
                                 (Linear)    (Quad)   (Total)
    R1        2.89487  -0.00059   0.00000  -0.00200  -0.00200   2.89286
    R2        2.06304  -0.00168   0.00000  -0.00486  -0.00486   2.05818
    R3        2.06352  -0.00194   0.00000  -0.00562  -0.00562   2.05790
    R4        2.06528  -0.00193   0.00000  -0.00560  -0.00560   2.05968
    R5        2.83601  -0.00165   0.00000  -0.00511  -0.00511   2.83091
    R6        2.06651  -0.00188   0.00000  -0.00546  -0.00546   2.06105
    R7        2.07005  -0.00164   0.00000  -0.00480  -0.00480   2.06525
    R8        2.50987   0.00134   0.00000   0.00224   0.00224   2.51211
    R9        2.05854  -0.00252   0.00000  -0.00723  -0.00723   2.05131
   R10        2.05193  -0.00246   0.00000  -0.00697  -0.00697   2.04495
   R11        2.04758  -0.00231   0.00000  -0.00649  -0.00649   2.04109
    A1        1.93970   0.00016   0.00000   0.00100   0.00099   1.94069
    A2        1.92958   0.00031   0.00000   0.00192   0.00192   1.93150
    A3        1.93570   0.00006   0.00000   0.00037   0.00037   1.93608
    A4        1.89147  -0.00028   0.00000  -0.00176  -0.00176   1.88970
    A5        1.88369  -0.00013   0.00000  -0.00081  -0.00081   1.88287
    A6        1.88178  -0.00014   0.00000  -0.00087  -0.00087   1.88091
    A7        1.95204   0.00118   0.00000   0.00544   0.00544   1.95748
    A8        1.92294  -0.00050   0.00000  -0.00168  -0.00169   1.92125
    A9        1.90425  -0.00060   0.00000  -0.00295  -0.00295   1.90130
   A10        1.90853   0.00006   0.00000   0.00080   0.00080   1.90933
   A11        1.90638   0.00008   0.00000   0.00057   0.00057   1.90695
   A12        1.86770  -0.00028   0.00000  -0.00254  -0.00254   1.86516
   A13        2.17922   0.00065   0.00000   0.00298   0.00298   2.18220
   A14        2.02487  -0.00033   0.00000  -0.00147  -0.00147   2.02341
   A15        2.07887  -0.00033   0.00000  -0.00146  -0.00146   2.07741
   A16        2.11368   0.00029   0.00000   0.00180   0.00180   2.11548
   A17        2.12484  -0.00009   0.00000  -0.00057  -0.00057   2.12427
   A18        2.04466  -0.00020   0.00000  -0.00124  -0.00124   2.04342
    D1       -1.04251  -0.00009   0.00000   0.00000   0.00000  -1.04251
    D2        2.05661   0.00009   0.00000   0.00520   0.00520   2.06181
    D3       -1.06226   0.00005   0.00000   0.00247   0.00247  -1.05978
    D4       -0.07825  -0.00010   0.00000   0.00313   0.00313  -0.07512
    D5        3.08608  -0.00015   0.00000   0.00040   0.00040   3.08648
    D6       -2.11679   0.00016   0.00000   0.00540   0.00540  -2.11139
    D7        1.04753   0.00011   0.00000   0.00267   0.00267   1.05020
    D8        0.01891  -0.00002   0.00000  -0.00109  -0.00109   0.01782
    D9       -3.12417  -0.00006   0.00000  -0.00261  -0.00261  -3.12678
   D10        3.13712   0.00003   0.00000   0.00172   0.00172   3.13884
   D11       -0.00596  -0.00001   0.00000   0.00020   0.00020  -0.00575
         Item               Value     Threshold  Converged?
 Maximum Force            0.002523     0.000450     NO 
 RMS     Force            0.001042     0.000300     NO 
 Maximum Displacement     0.018811     0.001800     NO 
 RMS     Displacement     0.006195     0.001200     NO 
 Predicted change in Energy=-6.387960D-05
 GradGradGradGradGradGradGradGradGradGradGradGradGradGradGradGradGradGrad

                          Input orientation:                          
 ---------------------------------------------------------------------
 Center     Atomic      Atomic             Coordinates (Angstroms)
 Number     Number       Type             X           Y           Z
 ---------------------------------------------------------------------
      1          6           0       -1.709726   -0.259960   -0.293718
      2          6           0       -0.539851    0.530874    0.297418
      3          1           0       -2.622713    0.333867   -0.300986
      4          1           0       -1.491135   -0.562627   -1.316711
      5          1           0       -1.902148   -1.162487    0.286264
      6          6           0        0.717882   -0.280731    0.357128
      7          1           0       -0.361867    1.431999   -0.290658
      8          1           0       -0.806184    0.857716    1.305699
      9          6           0        1.844760    0.009825   -0.285445
     10          1           0        0.674443   -1.179597    0.964149
     11          1           0        1.926248    0.895299   -0.902153
     12          1           0        2.717881   -0.622029   -0.214527
 ---------------------------------------------------------------------
                    Distance matrix (angstroms):
                    1          2          3          4          5
     1  C    0.000000
     2  C    1.530838   0.000000
     3  H    1.089141   2.176054   0.000000
     4  H    1.088992   2.169354   1.765182   0.000000
     5  H    1.089936   2.173349   1.761576   1.760196   0.000000
     6  C    2.513426   1.498052   3.459829   2.785850   2.765334
     7  H    2.163205   1.090660   2.513449   2.511287   3.071915
     8  H    2.150284   1.092881   2.481055   3.059994   2.514280
     9  C    3.564719   2.509501   4.479237   3.538278   3.967428
    10  H    2.848197   2.201080   3.842184   3.205106   2.664328
    11  H    3.863304   2.766482   4.622732   3.738437   4.505933
    12  H    4.443092   3.493435   5.426155   4.351339   4.678413
                    6          7          8          9         10
     6  C    0.000000
     7  H    2.125777   0.000000
     8  H    2.125705   1.753732   0.000000
     9  C    1.329352   2.625226   3.205957   0.000000
    10  H    1.085506   3.077160   2.541566   2.084671   0.000000
    11  H    2.104515   2.428465   3.513147   1.082143   3.058642
    12  H    2.107906   3.702658   4.113364   1.080097   2.424004
                   11         12
    11  H    0.000000
    12  H    1.844397   0.000000
 Symmetry turned off by external request.
 Stoichiometry    C4H8
 Framework group  C1[X(C4H8)]
 Deg. of freedom    30
 Full point group                 C1      NOp   1
 Rotational constants (GHZ):          22.4922967           4.1880039           4.0965404
 Standard basis: CC-pVTZ (5D, 7F)
   232 basis functions,   344 primitive gaussians,   260 cartesian basis functions
    16 alpha electrons       16 beta electrons
       nuclear repulsion energy       117.4792727192 Hartrees.
 NAtoms=   12 NActive=   12 NUniq=   12 SFac= 1.00D+00 NAtFMM=   60 NAOKFM=F Big=F
 Integral buffers will be    131072 words long.
 Raffenetti 2 integral format.
 Two-electron integral symmetry is turned off.
 Nuclear repulsion after empirical dispersion term =      117.4736096049 Hartrees.
 One-electron integrals computed using PRISM.
 NBasis=   232 RedAO= T EigKep=  4.53D-04  NBF=   232
 NBsUse=   232 1.00D-06 EigRej= -1.00D+00 NBFU=   232
 Initial guess from the checkpoint file:  "/localscratch/339543/Gau-67971.chk"
 B after Tr=     0.000763   -0.000461   -0.000982
         Rot=    1.000000   -0.000034    0.000005   -0.000101 Ang=  -0.01 deg.
 Initial guess <Sx>= 0.0000 <Sy>= 0.0000 <Sz>= 0.0000 <S**2>=-0.0000 S=-0.0000
 Keep R1 and R2 ints in memory in canonical form, NReq=774238648.
 Requested convergence on RMS density matrix=1.00D-08 within 500 cycles.
 Requested convergence on MAX density matrix=1.00D-06.
 Requested convergence on             energy=1.00D-06.
 No special actions if energy rises.
 SCF Done:  E(UB2PLYPD3) =  -156.901833294     A.U. after    9 cycles
            NFock=  9  Conv=0.27D-08     -V/T= 2.0048
 <Sx>= 0.0000 <Sy>= 0.0000 <Sz>= 0.0000 <S**2>=-0.0000 S=-0.0000
 <L.S>=  0.00000000000    
 Annihilation of the first spin contaminant:
 S**2 before annihilation    -0.0000,   after     0.0000
 DoSCS=T DFT=T ScalE2(SS,OS)=  0.270000  0.270000
 ExpMin= 1.03D-01 ExpMax= 8.24D+03 ExpMxC= 2.81D+02 IAcc=3 IRadAn=         5 AccDes= 0.00D+00
 HarFok:  IExCor=  205 AccDes= 0.00D+00 IRadAn=         5 IDoV=-2 UseB2=F ITyADJ=14
 ICtDFT= 12500011 ScaDFX=  1.000000  1.000000  1.000000  1.000000
 Range of M.O.s used for correlation:     5   232
 NBasis=   232 NAE=    16 NBE=    16 NFC=     4 NFV=     0
 NROrb=    228 NOA=    12 NOB=    12 NVA=   216 NVB=   216

 **** Warning!!: The largest alpha MO coefficient is  0.11631696D+02


 **** Warning!!: The largest beta MO coefficient is  0.11631696D+02

 DoSCS=T DFT=T ScalE2(SS,OS)=  0.270000  0.270000
 Fully direct method using O(ONN) memory.
 JobTyp=2 Pass  1:  I=   5 to  16 NPSUse= 40 ParTrn=T ParDer=T DoDerP=T.
 JobTyp=3 Pass  1:  I=   5 to  16 NPSUse= 40 ParTrn=T ParDer=T DoDerP=T.
 Spin components of T(2) and E(2):
     alpha-alpha T2 =       0.3979110220D-01 E2=     -0.2492418026D-01
     alpha-beta  T2 =       0.2583402724D+00 E2=     -0.1736024022D+00
     beta-beta   T2 =       0.3979110220D-01 E2=     -0.2492418026D-01
 (S**2,0)=  0.00000D+00           (S**2,1)=  0.00000D+00
 E(PUHF)=      -0.15690183329D+03        E(PMP2)=      -0.15712528406D+03
 E2(B2PLYPD3) =    -0.2234507627D+00 E(B2PLYPD3) =    -0.15712528405668D+03
          IDoAtm=111111111111
          Differentiating once with respect to electric field.
                with respect to dipole field.
          Differentiating once with respect to nuclear coordinates.
 Keep R1 and R2 ints in memory in canonical form, NReq=774247682.
          There are     1 degrees of freedom in the 1st order CPHF.  IDoFFX=0 NUNeed=     1.
 LinEq1:  Iter=  0 NonCon=     1 RMS=5.51D-04 Max=7.11D-03 NDo=     1
 AX will form     1 AO Fock derivatives at one time.
 LinEq1:  Iter=  1 NonCon=     1 RMS=2.20D-04 Max=2.80D-03 NDo=     1
 LinEq1:  Iter=  2 NonCon=     1 RMS=5.90D-05 Max=1.63D-03 NDo=     1
 LinEq1:  Iter=  3 NonCon=     1 RMS=3.32D-05 Max=8.38D-04 NDo=     1
 LinEq1:  Iter=  4 NonCon=     1 RMS=8.90D-06 Max=1.28D-04 NDo=     1
 LinEq1:  Iter=  5 NonCon=     1 RMS=2.42D-06 Max=2.25D-05 NDo=     1
 LinEq1:  Iter=  6 NonCon=     1 RMS=8.85D-07 Max=1.33D-05 NDo=     1
 LinEq1:  Iter=  7 NonCon=     1 RMS=3.09D-07 Max=4.54D-06 NDo=     1
 LinEq1:  Iter=  8 NonCon=     1 RMS=1.08D-07 Max=1.29D-06 NDo=     1
 LinEq1:  Iter=  9 NonCon=     1 RMS=1.56D-08 Max=1.40D-07 NDo=     1
 LinEq1:  Iter= 10 NonCon=     1 RMS=5.87D-09 Max=6.15D-08 NDo=     1
 LinEq1:  Iter= 11 NonCon=     1 RMS=1.72D-09 Max=1.58D-08 NDo=     1
 LinEq1:  Iter= 12 NonCon=     1 RMS=3.18D-10 Max=3.94D-09 NDo=     1
 LinEq1:  Iter= 13 NonCon=     0 RMS=5.38D-11 Max=7.75D-10 NDo=     1
 Linear equations converged to 1.000D-10 1.000D-09 after    13 iterations.
 End of Minotr F.D. properties file   721 does not exist.
 End of Minotr F.D. properties file   722 does not exist.
 End of Minotr F.D. properties file   788 does not exist.
 Calling FoFJK, ICntrl=  10002127 FMM=F ISym2X=0 I1Cent= 0 IOpClX= 1 NMat=1 NMatS=1 NMatT=0.
 -------------------------------------------------------------------
 Center     Atomic                   Forces (Hartrees/Bohr)
 Number     Number              X              Y              Z
 -------------------------------------------------------------------
      1        6           0.000014278    0.000025534   -0.000014888
      2        6           0.000375994   -0.000257109   -0.000062192
      3        1           0.000041003    0.000040180    0.000046687
      4        1          -0.000051643   -0.000039811   -0.000039616
      5        1          -0.000035526   -0.000032297    0.000004402
      6        6          -0.000428608    0.000237966    0.000059465
      7        1          -0.000066698    0.000065412   -0.000043992
      8        1          -0.000014128    0.000020548    0.000062093
      9        6           0.000092060    0.000106388   -0.000012011
     10        1           0.000103394   -0.000091039   -0.000041591
     11        1          -0.000013449   -0.000003311   -0.000041875
     12        1          -0.000016677   -0.000072460    0.000083518
 -------------------------------------------------------------------
 Cartesian Forces:  Max     0.000428608 RMS     0.000122491

 GradGradGradGradGradGradGradGradGradGradGradGradGradGradGradGradGradGrad
 Berny optimization.
 Using GEDIIS/GDIIS optimizer.
 FormGI is forming the generalized inverse of G from B-inverse, IUseBI=4.
 Internal  Forces:  Max     0.000315083 RMS     0.000089519
 Search for a local minimum.
 Step number   2 out of a maximum of  100 on scan point     1 out of    37
 All quantities printed in internal units (Hartrees-Bohrs-Radians)
 Mixed Optimization -- En-DIIS/RFO-DIIS
 Update second derivatives using D2CorX and points    1    2
 DE= -6.54D-05 DEPred=-6.39D-05 R= 1.02D+00
 TightC=F SS=  1.41D+00  RLast= 2.20D-02 DXNew= 5.0454D-01 6.6012D-02
 Trust test= 1.02D+00 RLast= 2.20D-02 DXMaxT set to 3.00D-01
 ITU=  1  0
 Use linear search instead of GDIIS.
     Eigenvalues ---    0.00751   0.01698   0.03036   0.03041   0.07112
     Eigenvalues ---    0.07892   0.15633   0.15999   0.16000   0.16000
     Eigenvalues ---    0.16000   0.16000   0.16000   0.16000   0.16000
     Eigenvalues ---    0.16140   0.21711   0.22149   0.29274   0.31411
     Eigenvalues ---    0.34232   0.34431   0.34525   0.34597   0.34741
     Eigenvalues ---    0.35124   0.35457   0.36973   0.598871000.00000
     Eigenvalues --- 1000.000001000.000001000.000001000.000001000.00000
     Eigenvalues --- 1000.000001000.000001000.000001000.000001000.00000
 RFO step:  Lambda=-2.07146535D-06 EMin= 7.50791119D-03
 Quartic linear search produced a step of  0.02234.
 Iteration  1 RMS(Cart)=  0.00244686 RMS(Int)=  0.00000226
 Iteration  2 RMS(Cart)=  0.00000299 RMS(Int)=  0.00000024
 Iteration  3 RMS(Cart)=  0.00000000 RMS(Int)=  0.00000024
 Iteration  1 RMS(Cart)=  0.00000000 RMS(Int)=  0.00000000
 Variable       Old X    -DE/DX   Delta X   Delta X   Delta X     New X
                                 (Linear)    (Quad)   (Total)
    R1        2.89286   0.00003  -0.00004   0.00011   0.00007   2.89293
    R2        2.05818  -0.00001  -0.00011  -0.00001  -0.00012   2.05806
    R3        2.05790   0.00004  -0.00013   0.00015   0.00002   2.05792
    R4        2.05968   0.00004  -0.00013   0.00014   0.00001   2.05969
    R5        2.83091  -0.00032  -0.00011  -0.00097  -0.00108   2.82983
    R6        2.06105   0.00007  -0.00012   0.00023   0.00011   2.06116
    R7        2.06525   0.00007  -0.00011   0.00023   0.00012   2.06537
    R8        2.51211   0.00004   0.00005   0.00006   0.00011   2.51222
    R9        2.05131   0.00005  -0.00016   0.00019   0.00003   2.05133
   R10        2.04495   0.00002  -0.00016   0.00010  -0.00005   2.04490
   R11        2.04109   0.00003  -0.00015   0.00014  -0.00001   2.04108
    A1        1.94069  -0.00016   0.00002  -0.00102  -0.00100   1.93969
    A2        1.93150   0.00013   0.00004   0.00084   0.00088   1.93238
    A3        1.93608   0.00005   0.00001   0.00033   0.00034   1.93642
    A4        1.88970  -0.00000  -0.00004  -0.00001  -0.00005   1.88965
    A5        1.88287  -0.00002  -0.00002  -0.00014  -0.00016   1.88272
    A6        1.88091  -0.00000  -0.00002  -0.00000  -0.00002   1.88089
    A7        1.95748   0.00020   0.00012   0.00087   0.00100   1.95848
    A8        1.92125  -0.00011  -0.00004  -0.00026  -0.00030   1.92095
    A9        1.90130  -0.00009  -0.00007  -0.00064  -0.00071   1.90059
   A10        1.90933   0.00010   0.00002   0.00081   0.00083   1.91016
   A11        1.90695  -0.00007   0.00001  -0.00054  -0.00053   1.90642
   A12        1.86516  -0.00004  -0.00006  -0.00030  -0.00036   1.86480
   A13        2.18220   0.00007   0.00007   0.00032   0.00039   2.18260
   A14        2.02341   0.00009  -0.00003   0.00067   0.00064   2.02405
   A15        2.07741  -0.00017  -0.00003  -0.00099  -0.00102   2.07639
   A16        2.11548   0.00007   0.00004   0.00042   0.00046   2.11594
   A17        2.12427  -0.00014  -0.00001  -0.00089  -0.00090   2.12337
   A18        2.04342   0.00007  -0.00003   0.00047   0.00044   2.04387
    D1       -1.04251  -0.00002   0.00000   0.00000   0.00000  -1.04251
    D2        2.06181   0.00006   0.00012   0.00385   0.00396   2.06577
    D3       -1.05978   0.00005   0.00006   0.00312   0.00318  -1.05661
    D4       -0.07512  -0.00000   0.00007   0.00302   0.00309  -0.07203
    D5        3.08648  -0.00002   0.00001   0.00229   0.00230   3.08878
    D6       -2.11139   0.00003   0.00012   0.00323   0.00335  -2.10803
    D7        1.05020   0.00002   0.00006   0.00251   0.00257   1.05277
    D8        0.01782  -0.00004  -0.00002  -0.00153  -0.00155   0.01627
    D9       -3.12678  -0.00003  -0.00006  -0.00103  -0.00109  -3.12787
   D10        3.13884  -0.00003   0.00004  -0.00076  -0.00073   3.13812
   D11       -0.00575  -0.00001   0.00000  -0.00027  -0.00026  -0.00602
         Item               Value     Threshold  Converged?
 Maximum Force            0.000315     0.000450     YES
 RMS     Force            0.000091     0.000300     YES
 Maximum Displacement     0.006919     0.001800     NO 
 RMS     Displacement     0.002447     0.001200     NO 
 Predicted change in Energy=-1.070968D-06
 GradGradGradGradGradGradGradGradGradGradGradGradGradGradGradGradGradGrad

                          Input orientation:                          
 ---------------------------------------------------------------------
 Center     Atomic      Atomic             Coordinates (Angstroms)
 Number     Number       Type             X           Y           Z
 ---------------------------------------------------------------------
      1          6           0       -1.710598   -0.260242   -0.293312
      2          6           0       -0.539446    0.530257    0.295830
      3          1           0       -2.622844    0.334633   -0.298497
      4          1           0       -1.494797   -0.563223   -1.316817
      5          1           0       -1.902941   -1.162517    0.287103
      6          6           0        0.717889   -0.280892    0.355802
      7          1           0       -0.362487    1.431336   -0.292735
      8          1           0       -0.805032    0.857680    1.304191
      9          6           0        1.845940    0.010754   -0.284338
     10          1           0        0.674624   -1.180711    0.961447
     11          1           0        1.928577    0.896468   -0.900497
     12          1           0        2.718705   -0.621394   -0.211717
 ---------------------------------------------------------------------
                    Distance matrix (angstroms):
                    1          2          3          4          5
     1  C    0.000000
     2  C    1.530874   0.000000
     3  H    1.089080   2.175325   0.000000
     4  H    1.089004   2.170029   1.765109   0.000000
     5  H    1.089943   2.173632   1.761433   1.760197   0.000000
     6  C    2.513826   1.497481   3.459403   2.788071   2.765995
     7  H    2.163062   1.090719   2.512370   2.511799   3.072016
     8  H    2.149841   1.092947   2.479239   3.060134   2.514173
     9  C    3.566859   2.509292   4.480528   3.543442   3.969536
    10  H    2.847975   2.201004   3.841486   3.205957   2.664378
    11  H    3.866555   2.767029   4.625310   3.744797   4.508918
    12  H    4.444751   3.492772   5.427123   4.356401   4.679877
                    6          7          8          9         10
     6  C    0.000000
     7  H    2.125920   0.000000
     8  H    2.124870   1.753597   0.000000
     9  C    1.329412   2.625886   3.204428   0.000000
    10  H    1.085519   3.077557   2.542024   2.084118   0.000000
    11  H    2.104811   2.429904   3.512089   1.082114   3.058416
    12  H    2.107436   3.703243   4.111248   1.080094   2.422276
                   11         12
    11  H    0.000000
    12  H    1.844621   0.000000
 Symmetry turned off by external request.
 Stoichiometry    C4H8
 Framework group  C1[X(C4H8)]
 Deg. of freedom    30
 Full point group                 C1      NOp   1
 Rotational constants (GHZ):          22.5398841           4.1853692           4.0933584
 Standard basis: CC-pVTZ (5D, 7F)
   232 basis functions,   344 primitive gaussians,   260 cartesian basis functions
    16 alpha electrons       16 beta electrons
       nuclear repulsion energy       117.4764751030 Hartrees.
 NAtoms=   12 NActive=   12 NUniq=   12 SFac= 1.00D+00 NAtFMM=   60 NAOKFM=F Big=F
 Integral buffers will be    131072 words long.
 Raffenetti 2 integral format.
 Two-electron integral symmetry is turned off.
 Nuclear repulsion after empirical dispersion term =      117.4708130916 Hartrees.
 One-electron integrals computed using PRISM.
 NBasis=   232 RedAO= T EigKep=  4.53D-04  NBF=   232
 NBsUse=   232 1.00D-06 EigRej= -1.00D+00 NBFU=   232
 Initial guess from the checkpoint file:  "/localscratch/339543/Gau-67971.chk"
 B after Tr=     0.000212   -0.000039   -0.000414
         Rot=    1.000000    0.000020    0.000040   -0.000063 Ang=   0.01 deg.
 Initial guess <Sx>= 0.0000 <Sy>= 0.0000 <Sz>= 0.0000 <S**2>=-0.0000 S=-0.0000
 Keep R1 and R2 ints in memory in canonical form, NReq=774238648.
 Requested convergence on RMS density matrix=1.00D-08 within 500 cycles.
 Requested convergence on MAX density matrix=1.00D-06.
 Requested convergence on             energy=1.00D-06.
 No special actions if energy rises.
 SCF Done:  E(UB2PLYPD3) =  -156.901837357     A.U. after    7 cycles
            NFock=  7  Conv=0.60D-08     -V/T= 2.0047
 <Sx>= 0.0000 <Sy>= 0.0000 <Sz>= 0.0000 <S**2>=-0.0000 S=-0.0000
 <L.S>=  0.00000000000    
 Annihilation of the first spin contaminant:
 S**2 before annihilation    -0.0000,   after     0.0000
 DoSCS=T DFT=T ScalE2(SS,OS)=  0.270000  0.270000
 ExpMin= 1.03D-01 ExpMax= 8.24D+03 ExpMxC= 2.81D+02 IAcc=3 IRadAn=         5 AccDes= 0.00D+00
 HarFok:  IExCor=  205 AccDes= 0.00D+00 IRadAn=         5 IDoV=-2 UseB2=F ITyADJ=14
 ICtDFT= 12500011 ScaDFX=  1.000000  1.000000  1.000000  1.000000
 Range of M.O.s used for correlation:     5   232
 NBasis=   232 NAE=    16 NBE=    16 NFC=     4 NFV=     0
 NROrb=    228 NOA=    12 NOB=    12 NVA=   216 NVB=   216

 **** Warning!!: The largest alpha MO coefficient is  0.11632053D+02


 **** Warning!!: The largest beta MO coefficient is  0.11632053D+02

 DoSCS=T DFT=T ScalE2(SS,OS)=  0.270000  0.270000
 Fully direct method using O(ONN) memory.
 JobTyp=2 Pass  1:  I=   5 to  16 NPSUse= 40 ParTrn=T ParDer=T DoDerP=T.
 JobTyp=3 Pass  1:  I=   5 to  16 NPSUse= 40 ParTrn=T ParDer=T DoDerP=T.
 Spin components of T(2) and E(2):
     alpha-alpha T2 =       0.3978908648D-01 E2=     -0.2492411275D-01
     alpha-beta  T2 =       0.2583279999D+00 E2=     -0.1735999080D+00
     beta-beta   T2 =       0.3978908648D-01 E2=     -0.2492411275D-01
 (S**2,0)=  0.00000D+00           (S**2,1)=  0.00000D+00
 E(PUHF)=      -0.15690183736D+03        E(PMP2)=      -0.15712528549D+03
 E2(B2PLYPD3) =    -0.2234481335D+00 E(B2PLYPD3) =    -0.15712528549003D+03
          IDoAtm=111111111111
          Differentiating once with respect to electric field.
                with respect to dipole field.
          Differentiating once with respect to nuclear coordinates.
 Keep R1 and R2 ints in memory in canonical form, NReq=774247682.
          There are     1 degrees of freedom in the 1st order CPHF.  IDoFFX=0 NUNeed=     1.
 LinEq1:  Iter=  0 NonCon=     1 RMS=5.51D-04 Max=7.12D-03 NDo=     1
 AX will form     1 AO Fock derivatives at one time.
 LinEq1:  Iter=  1 NonCon=     1 RMS=2.20D-04 Max=2.80D-03 NDo=     1
 LinEq1:  Iter=  2 NonCon=     1 RMS=5.90D-05 Max=1.63D-03 NDo=     1
 LinEq1:  Iter=  3 NonCon=     1 RMS=3.32D-05 Max=8.38D-04 NDo=     1
 LinEq1:  Iter=  4 NonCon=     1 RMS=8.89D-06 Max=1.28D-04 NDo=     1
 LinEq1:  Iter=  5 NonCon=     1 RMS=2.42D-06 Max=2.24D-05 NDo=     1
 LinEq1:  Iter=  6 NonCon=     1 RMS=8.84D-07 Max=1.33D-05 NDo=     1
 LinEq1:  Iter=  7 NonCon=     1 RMS=3.08D-07 Max=4.54D-06 NDo=     1
 LinEq1:  Iter=  8 NonCon=     1 RMS=1.08D-07 Max=1.29D-06 NDo=     1
 LinEq1:  Iter=  9 NonCon=     1 RMS=1.56D-08 Max=1.41D-07 NDo=     1
 LinEq1:  Iter= 10 NonCon=     1 RMS=5.90D-09 Max=6.15D-08 NDo=     1
 LinEq1:  Iter= 11 NonCon=     1 RMS=1.72D-09 Max=1.57D-08 NDo=     1
 LinEq1:  Iter= 12 NonCon=     1 RMS=3.17D-10 Max=3.93D-09 NDo=     1
 LinEq1:  Iter= 13 NonCon=     0 RMS=5.37D-11 Max=7.74D-10 NDo=     1
 Linear equations converged to 1.000D-10 1.000D-09 after    13 iterations.
 End of Minotr F.D. properties file   721 does not exist.
 End of Minotr F.D. properties file   722 does not exist.
 End of Minotr F.D. properties file   788 does not exist.
 Calling FoFJK, ICntrl=  10002127 FMM=F ISym2X=0 I1Cent= 0 IOpClX= 1 NMat=1 NMatS=1 NMatT=0.
 -------------------------------------------------------------------
 Center     Atomic                   Forces (Hartrees/Bohr)
 Number     Number              X              Y              Z
 -------------------------------------------------------------------
      1        6          -0.000001634    0.000034215    0.000003967
      2        6           0.000079194   -0.000128602   -0.000004930
      3        1          -0.000022810    0.000026278    0.000010261
      4        1           0.000000627   -0.000017049   -0.000024052
      5        1          -0.000005562   -0.000024504    0.000015680
      6        6          -0.000101693    0.000117417   -0.000027802
      7        1          -0.000004169    0.000014656   -0.000034303
      8        1          -0.000017504    0.000031094    0.000046850
      9        6           0.000035601    0.000022793    0.000009100
     10        1           0.000024571   -0.000058558   -0.000004394
     11        1          -0.000004738    0.000019115   -0.000020763
     12        1           0.000018117   -0.000036856    0.000030386
 -------------------------------------------------------------------
 Cartesian Forces:  Max     0.000128602 RMS     0.000042887

 GradGradGradGradGradGradGradGradGradGradGradGradGradGradGradGradGradGrad
 Berny optimization.
 Using GEDIIS/GDIIS optimizer.
 FormGI is forming the generalized inverse of G from B-inverse, IUseBI=4.
 Internal  Forces:  Max     0.000090994 RMS     0.000031666
 Search for a local minimum.
 Step number   3 out of a maximum of  100 on scan point     1 out of    37
 All quantities printed in internal units (Hartrees-Bohrs-Radians)
 Mixed Optimization -- En-DIIS/RFO-DIIS
 Swapping is turned off.
 Update second derivatives using D2CorX and points    1    2    3
 DE= -1.43D-06 DEPred=-1.07D-06 R= 1.34D+00
 TightC=F SS=  1.41D+00  RLast= 8.44D-03 DXNew= 5.0454D-01 2.5329D-02
 Trust test= 1.34D+00 RLast= 8.44D-03 DXMaxT set to 3.00D-01
 ITU=  1  1  0
     Eigenvalues ---    0.00548   0.01684   0.02998   0.03050   0.07248
     Eigenvalues ---    0.07882   0.14347   0.15999   0.16000   0.16000
     Eigenvalues ---    0.16000   0.16000   0.16000   0.16000   0.16027
     Eigenvalues ---    0.16746   0.20559   0.22165   0.29268   0.31911
     Eigenvalues ---    0.34249   0.34445   0.34524   0.34687   0.34782
     Eigenvalues ---    0.35119   0.35451   0.36844   0.598131000.00000
     Eigenvalues --- 1000.000001000.000001000.000001000.000001000.00000
     Eigenvalues --- 1000.000001000.000001000.000001000.000001000.00000
 En-DIIS/RFO-DIIS/Sim-DIIS IScMMF=       -3 using points:     3    2
 RFO step:  Lambda=-7.01456949D-07.
 DidBck=F Rises=F RFO-DIIS coefs:    2.09680   -1.09680
 Iteration  1 RMS(Cart)=  0.00253140 RMS(Int)=  0.00000209
 Iteration  2 RMS(Cart)=  0.00000306 RMS(Int)=  0.00000027
 Iteration  3 RMS(Cart)=  0.00000000 RMS(Int)=  0.00000027
 Iteration  1 RMS(Cart)=  0.00000000 RMS(Int)=  0.00000000
 Variable       Old X    -DE/DX   Delta X   Delta X   Delta X     New X
                                 (Linear)    (Quad)   (Total)
    R1        2.89293   0.00001   0.00007  -0.00003   0.00004   2.89297
    R2        2.05806   0.00003  -0.00013   0.00021   0.00008   2.05814
    R3        2.05792   0.00003   0.00002   0.00004   0.00007   2.05798
    R4        2.05969   0.00003   0.00002   0.00006   0.00007   2.05977
    R5        2.82983  -0.00006  -0.00118   0.00070  -0.00049   2.82934
    R6        2.06116   0.00003   0.00012  -0.00003   0.00009   2.06125
    R7        2.06537   0.00006   0.00014   0.00009   0.00022   2.06559
    R8        2.51222   0.00003   0.00012   0.00000   0.00012   2.51235
    R9        2.05133   0.00005   0.00003   0.00010   0.00013   2.05146
   R10        2.04490   0.00003  -0.00006   0.00010   0.00004   2.04494
   R11        2.04108   0.00004  -0.00001   0.00010   0.00010   2.04118
    A1        1.93969  -0.00002  -0.00110   0.00074  -0.00036   1.93933
    A2        1.93238   0.00002   0.00097  -0.00061   0.00036   1.93274
    A3        1.93642  -0.00000   0.00038  -0.00035   0.00003   1.93645
    A4        1.88965   0.00001  -0.00006   0.00014   0.00008   1.88974
    A5        1.88272  -0.00000  -0.00017   0.00011  -0.00007   1.88265
    A6        1.88089  -0.00000  -0.00003  -0.00002  -0.00004   1.88084
    A7        1.95848   0.00009   0.00109  -0.00026   0.00083   1.95931
    A8        1.92095  -0.00003  -0.00033   0.00004  -0.00029   1.92066
    A9        1.90059  -0.00004  -0.00078   0.00038  -0.00040   1.90019
   A10        1.91016  -0.00002   0.00091  -0.00089   0.00001   1.91017
   A11        1.90642  -0.00000  -0.00058   0.00054  -0.00004   1.90638
   A12        1.86480  -0.00000  -0.00040   0.00023  -0.00017   1.86463
   A13        2.18260   0.00005   0.00043   0.00003   0.00046   2.18305
   A14        2.02405   0.00001   0.00070  -0.00045   0.00025   2.02430
   A15        2.07639  -0.00006  -0.00112   0.00042  -0.00070   2.07569
   A16        2.11594   0.00002   0.00050  -0.00027   0.00023   2.11618
   A17        2.12337  -0.00004  -0.00099   0.00046  -0.00053   2.12285
   A18        2.04387   0.00002   0.00049  -0.00020   0.00029   2.04416
    D1       -1.04251   0.00000   0.00000   0.00000   0.00000  -1.04251
    D2        2.06577   0.00002   0.00435  -0.00011   0.00424   2.07001
    D3       -1.05661   0.00001   0.00348   0.00004   0.00352  -1.05309
    D4       -0.07203   0.00001   0.00339   0.00065   0.00403  -0.06800
    D5        3.08878   0.00001   0.00252   0.00079   0.00332   3.09209
    D6       -2.10803   0.00003   0.00368   0.00057   0.00425  -2.10379
    D7        1.05277   0.00002   0.00282   0.00072   0.00353   1.05630
    D8        0.01627  -0.00001  -0.00170   0.00082  -0.00088   0.01539
    D9       -3.12787  -0.00001  -0.00119   0.00027  -0.00092  -3.12879
   D10        3.13812  -0.00000  -0.00080   0.00066  -0.00013   3.13798
   D11       -0.00602  -0.00001  -0.00029   0.00011  -0.00018  -0.00619
         Item               Value     Threshold  Converged?
 Maximum Force            0.000091     0.000450     YES
 RMS     Force            0.000032     0.000300     YES
 Maximum Displacement     0.006296     0.001800     NO 
 RMS     Displacement     0.002531     0.001200     NO 
 Predicted change in Energy=-3.507401D-07
 GradGradGradGradGradGradGradGradGradGradGradGradGradGradGradGradGradGrad

                          Input orientation:                          
 ---------------------------------------------------------------------
 Center     Atomic      Atomic             Coordinates (Angstroms)
 Number     Number       Type             X           Y           Z
 ---------------------------------------------------------------------
      1          6           0       -1.711658   -0.260435   -0.292693
      2          6           0       -0.539234    0.529683    0.294486
      3          1           0       -2.623383    0.335323   -0.296865
      4          1           0       -1.497673   -0.564401   -1.316324
      5          1           0       -1.904029   -1.162146    0.288661
      6          6           0        0.717928   -0.281271    0.354247
      7          1           0       -0.362715    1.430283   -0.295035
      8          1           0       -0.803957    0.858202    1.302844
      9          6           0        1.847177    0.011671   -0.283321
     10          1           0        0.674400   -1.182351    0.958116
     11          1           0        1.931019    0.898349   -0.897964
     12          1           0        2.719716   -0.620758   -0.209691
 ---------------------------------------------------------------------
                    Distance matrix (angstroms):
                    1          2          3          4          5
     1  C    0.000000
     2  C    1.530896   0.000000
     3  H    1.089123   2.175120   0.000000
     4  H    1.089039   2.170330   1.765226   0.000000
     5  H    1.089983   2.173703   1.761456   1.760228   0.000000
     6  C    2.514330   1.497223   3.459552   2.789240   2.766750
     7  H    2.162910   1.090767   2.511883   2.511955   3.071976
     8  H    2.149653   1.093064   2.478464   3.060242   2.514067
     9  C    3.569235   2.509414   4.482281   3.547813   3.971972
    10  H    2.847406   2.200993   3.841052   3.205127   2.663995
    11  H    3.870172   2.767671   4.628271   3.751079   4.512351
    12  H    4.446774   3.492631   5.428665   4.360526   4.681931
                    6          7          8          9         10
     6  C    0.000000
     7  H    2.125741   0.000000
     8  H    2.124704   1.753621   0.000000
     9  C    1.329478   2.626066   3.203286   0.000000
    10  H    1.085586   3.077637   2.543272   2.083809   0.000000
    11  H    2.105024   2.430575   3.510735   1.082134   3.058339
    12  H    2.107233   3.703436   4.109909   1.080145   2.421255
                   11         12
    11  H    0.000000
    12  H    1.844844   0.000000
 Symmetry turned off by external request.
 Stoichiometry    C4H8
 Framework group  C1[X(C4H8)]
 Deg. of freedom    30
 Full point group                 C1      NOp   1
 Rotational constants (GHZ):          22.5875779           4.1823549           4.0895339
 Standard basis: CC-pVTZ (5D, 7F)
   232 basis functions,   344 primitive gaussians,   260 cartesian basis functions
    16 alpha electrons       16 beta electrons
       nuclear repulsion energy       117.4678175700 Hartrees.
 NAtoms=   12 NActive=   12 NUniq=   12 SFac= 1.00D+00 NAtFMM=   60 NAOKFM=F Big=F
 Integral buffers will be    131072 words long.
 Raffenetti 2 integral format.
 Two-electron integral symmetry is turned off.
 Nuclear repulsion after empirical dispersion term =      117.4621566954 Hartrees.
 One-electron integrals computed using PRISM.
 NBasis=   232 RedAO= T EigKep=  4.53D-04  NBF=   232
 NBsUse=   232 1.00D-06 EigRej= -1.00D+00 NBFU=   232
 Initial guess from the checkpoint file:  "/localscratch/339543/Gau-67971.chk"
 B after Tr=     0.000126   -0.000068   -0.000373
         Rot=    1.000000   -0.000012    0.000013   -0.000054 Ang=  -0.01 deg.
 Initial guess <Sx>= 0.0000 <Sy>= 0.0000 <Sz>= 0.0000 <S**2>= 0.0000 S= 0.0000
 Keep R1 and R2 ints in memory in canonical form, NReq=774238648.
 Requested convergence on RMS density matrix=1.00D-08 within 500 cycles.
 Requested convergence on MAX density matrix=1.00D-06.
 Requested convergence on             energy=1.00D-06.
 No special actions if energy rises.
 SCF Done:  E(UB2PLYPD3) =  -156.901837206     A.U. after    7 cycles
            NFock=  7  Conv=0.48D-08     -V/T= 2.0048
 <Sx>= 0.0000 <Sy>= 0.0000 <Sz>= 0.0000 <S**2>=-0.0000 S=-0.0000
 <L.S>=  0.00000000000    
 Annihilation of the first spin contaminant:
 S**2 before annihilation    -0.0000,   after    -0.0000
 DoSCS=T DFT=T ScalE2(SS,OS)=  0.270000  0.270000
 ExpMin= 1.03D-01 ExpMax= 8.24D+03 ExpMxC= 2.81D+02 IAcc=3 IRadAn=         5 AccDes= 0.00D+00
 HarFok:  IExCor=  205 AccDes= 0.00D+00 IRadAn=         5 IDoV=-2 UseB2=F ITyADJ=14
 ICtDFT= 12500011 ScaDFX=  1.000000  1.000000  1.000000  1.000000
 Range of M.O.s used for correlation:     5   232
 NBasis=   232 NAE=    16 NBE=    16 NFC=     4 NFV=     0
 NROrb=    228 NOA=    12 NOB=    12 NVA=   216 NVB=   216

 **** Warning!!: The largest alpha MO coefficient is  0.11632975D+02


 **** Warning!!: The largest beta MO coefficient is  0.11632975D+02

 DoSCS=T DFT=T ScalE2(SS,OS)=  0.270000  0.270000
 Fully direct method using O(ONN) memory.
 JobTyp=2 Pass  1:  I=   5 to  16 NPSUse= 40 ParTrn=T ParDer=T DoDerP=T.
 JobTyp=3 Pass  1:  I=   5 to  16 NPSUse= 40 ParTrn=T ParDer=T DoDerP=T.
 Spin components of T(2) and E(2):
     alpha-alpha T2 =       0.3978938295D-01 E2=     -0.2492404413D-01
     alpha-beta  T2 =       0.2583367593D+00 E2=     -0.1736006049D+00
     beta-beta   T2 =       0.3978938295D-01 E2=     -0.2492404413D-01
 (S**2,0)=  0.00000D+00           (S**2,1)=  0.00000D+00
 E(PUHF)=      -0.15690183721D+03        E(PMP2)=      -0.15712528590D+03
 E2(B2PLYPD3) =    -0.2234486932D+00 E(B2PLYPD3) =    -0.15712528589947D+03
          IDoAtm=111111111111
          Differentiating once with respect to electric field.
                with respect to dipole field.
          Differentiating once with respect to nuclear coordinates.
 Keep R1 and R2 ints in memory in canonical form, NReq=774247682.
          There are     1 degrees of freedom in the 1st order CPHF.  IDoFFX=0 NUNeed=     1.
 LinEq1:  Iter=  0 NonCon=     1 RMS=5.51D-04 Max=7.13D-03 NDo=     1
 AX will form     1 AO Fock derivatives at one time.
 LinEq1:  Iter=  1 NonCon=     1 RMS=2.20D-04 Max=2.80D-03 NDo=     1
 LinEq1:  Iter=  2 NonCon=     1 RMS=5.90D-05 Max=1.63D-03 NDo=     1
 LinEq1:  Iter=  3 NonCon=     1 RMS=3.32D-05 Max=8.37D-04 NDo=     1
 LinEq1:  Iter=  4 NonCon=     1 RMS=8.89D-06 Max=1.28D-04 NDo=     1
 LinEq1:  Iter=  5 NonCon=     1 RMS=2.42D-06 Max=2.24D-05 NDo=     1
 LinEq1:  Iter=  6 NonCon=     1 RMS=8.84D-07 Max=1.34D-05 NDo=     1
 LinEq1:  Iter=  7 NonCon=     1 RMS=3.07D-07 Max=4.53D-06 NDo=     1
 LinEq1:  Iter=  8 NonCon=     1 RMS=1.08D-07 Max=1.29D-06 NDo=     1
 LinEq1:  Iter=  9 NonCon=     1 RMS=1.56D-08 Max=1.41D-07 NDo=     1
 LinEq1:  Iter= 10 NonCon=     1 RMS=5.92D-09 Max=6.14D-08 NDo=     1
 LinEq1:  Iter= 11 NonCon=     1 RMS=1.72D-09 Max=1.57D-08 NDo=     1
 LinEq1:  Iter= 12 NonCon=     1 RMS=3.17D-10 Max=3.91D-09 NDo=     1
 LinEq1:  Iter= 13 NonCon=     0 RMS=5.36D-11 Max=7.73D-10 NDo=     1
 Linear equations converged to 1.000D-10 1.000D-09 after    13 iterations.
 End of Minotr F.D. properties file   721 does not exist.
 End of Minotr F.D. properties file   722 does not exist.
 End of Minotr F.D. properties file   788 does not exist.
 Calling FoFJK, ICntrl=  10002127 FMM=F ISym2X=0 I1Cent= 0 IOpClX= 1 NMat=1 NMatS=1 NMatT=0.
 -------------------------------------------------------------------
 Center     Atomic                   Forces (Hartrees/Bohr)
 Number     Number              X              Y              Z
 -------------------------------------------------------------------
      1        6           0.000003224    0.000001837    0.000021145
      2        6          -0.000062076    0.000013619   -0.000002860
      3        1          -0.000002100   -0.000001230   -0.000008402
      4        1           0.000007389    0.000002311   -0.000003796
      5        1           0.000001686   -0.000005834    0.000005413
      6        6           0.000059834   -0.000013188   -0.000020435
      7        1           0.000008293    0.000004408   -0.000006839
      8        1           0.000014399    0.000008731   -0.000001334
      9        6          -0.000018364   -0.000004898    0.000030711
[...]
  Beta virt. eigenvalues --    0.26309   0.29967   0.31540   0.32758   0.33838
  Beta virt. eigenvalues --    0.36131   0.37769   0.39972   0.43689   0.48044
  Beta virt. eigenvalues --    0.48325   0.49565   0.51242   0.51656   0.52346
  Beta virt. eigenvalues --    0.53785   0.53973   0.54707   0.57129   0.57935
  Beta virt. eigenvalues --    0.58848   0.62489   0.65381   0.69520   0.70897
  Beta virt. eigenvalues --    0.72040   0.77805   0.78947   0.80374   0.82865
  Beta virt. eigenvalues --    0.88025   0.92726   0.96207   0.97484   0.99633
  Beta virt. eigenvalues --    1.01579   1.05260   1.08560   1.09413   1.13265
  Beta virt. eigenvalues --    1.15045   1.16053   1.17395   1.18482   1.18723
  Beta virt. eigenvalues --    1.21067   1.24314   1.25010   1.25800   1.27052
  Beta virt. eigenvalues --    1.28785   1.33820   1.36232   1.38556   1.40348
  Beta virt. eigenvalues --    1.40993   1.45134   1.46594   1.48565   1.51136
  Beta virt. eigenvalues --    1.54079   1.55473   1.57074   1.60514   1.62786
  Beta virt. eigenvalues --    1.66912   1.68479   1.71947   1.79964   1.98882
  Beta virt. eigenvalues --    2.18859   2.24022   2.35157   2.36109   2.39144
  Beta virt. eigenvalues --    2.39337   2.44588   2.46404   2.49532   2.56314
  Beta virt. eigenvalues --    2.57394   2.59434   2.62985   2.66619   2.67878
  Beta virt. eigenvalues --    2.68721   2.77183   2.79326   2.82394   2.85599
  Beta virt. eigenvalues --    2.87653   2.89552   2.92818   2.93928   2.94696
  Beta virt. eigenvalues --    2.97967   3.00281   3.01113   3.01835   3.03220
  Beta virt. eigenvalues --    3.06816   3.09742   3.11478   3.12603   3.14197
  Beta virt. eigenvalues --    3.15614   3.17727   3.20758   3.21657   3.24030
  Beta virt. eigenvalues --    3.26455   3.28523   3.30231   3.31363   3.32968
  Beta virt. eigenvalues --    3.38049   3.39501   3.41374   3.44055   3.46133
  Beta virt. eigenvalues --    3.48425   3.49747   3.55918   3.57549   3.60363
  Beta virt. eigenvalues --    3.61923   3.62904   3.68168   3.70684   3.74159
  Beta virt. eigenvalues --    3.74845   3.79697   3.81493   3.84239   3.85588
  Beta virt. eigenvalues --    3.86584   3.89430   3.91586   3.94262   3.97684
  Beta virt. eigenvalues --    3.98260   4.00046   4.03746   4.05588   4.06820
  Beta virt. eigenvalues --    4.07351   4.11064   4.13224   4.16400   4.18254
  Beta virt. eigenvalues --    4.18926   4.19557   4.22764   4.24374   4.26416
  Beta virt. eigenvalues --    4.29769   4.34624   4.38456   4.40459   4.42510
  Beta virt. eigenvalues --    4.44845   4.48103   4.49861   4.53008   4.57726
  Beta virt. eigenvalues --    4.64090   4.65127   4.68483   4.70410   4.81794
  Beta virt. eigenvalues --    4.84113   4.91570   4.95945   4.97399   5.00329
  Beta virt. eigenvalues --    5.01911   5.02313   5.05582   5.12099   5.13635
  Beta virt. eigenvalues --    5.15453   5.17146   5.24127   5.31833   5.34426
  Beta virt. eigenvalues --    5.37585   5.40753   5.49361   5.50220   5.51524
  Beta virt. eigenvalues --    5.54518   5.56371   5.63020   5.64575   5.67677
  Beta virt. eigenvalues --    5.81915   6.04501   6.05652   6.06969   6.11608
  Beta virt. eigenvalues --    6.18785   6.43933  11.24014  12.99514  13.65844
  Beta virt. eigenvalues --   14.36851
          Condensed to atoms (all electrons):
               1          2          3          4          5          6
     1  C    4.866298   0.343631   0.406263   0.402207   0.407832  -0.056367
     2  C    0.343631   4.811701  -0.035059  -0.035410  -0.036574   0.360224
     3  H    0.406263  -0.035059   0.591087  -0.028515  -0.031607   0.008294
     4  H    0.402207  -0.035410  -0.028515   0.588636  -0.031602  -0.000057
     5  H    0.407832  -0.036574  -0.031607  -0.031602   0.597837  -0.003260
     6  C   -0.056367   0.360224   0.008294  -0.000057  -0.003260   4.918782
     7  H   -0.033200   0.415696  -0.005197  -0.005029   0.007082  -0.041663
     8  H   -0.041725   0.420699  -0.003957   0.008170  -0.004990  -0.040913
     9  C    0.000140  -0.060662  -0.000175   0.002687   0.000439   0.634511
    10  H   -0.001402  -0.040815  -0.000295   0.000196   0.003120   0.409099
    11  H    0.000095  -0.006650  -0.000052   0.000186   0.000033  -0.050381
    12  H   -0.000375   0.006656   0.000028  -0.000085  -0.000017  -0.046729
               7          8          9         10         11         12
     1  C   -0.033200  -0.041725   0.000140  -0.001402   0.000095  -0.000375
     2  C    0.415696   0.420699  -0.060662  -0.040815  -0.006650   0.006656
     3  H   -0.005197  -0.003957  -0.000175  -0.000295  -0.000052   0.000028
     4  H   -0.005029   0.008170   0.002687   0.000196   0.000186  -0.000085
     5  H    0.007082  -0.004990   0.000439   0.003120   0.000033  -0.000017
     6  C   -0.041663  -0.040913   0.634511   0.409099  -0.050381  -0.046729
     7  H    0.598572  -0.034400  -0.003380   0.006349   0.004485  -0.000029
     8  H   -0.034400   0.602854   0.001483  -0.003257   0.000215  -0.000388
     9  C   -0.003380   0.001483   4.954546  -0.043107   0.409752   0.420615
    10  H    0.006349  -0.003257  -0.043107   0.545064   0.006923  -0.008369
    11  H    0.004485   0.000215   0.409752   0.006923   0.553071  -0.036213
    12  H   -0.000029  -0.000388   0.420615  -0.008369  -0.036213   0.541150
          Atomic-Atomic Spin Densities.
               1          2          3          4          5          6
     1  C   -0.000000   0.000000  -0.000000   0.000000   0.000000   0.000000
     2  C    0.000000   0.000000   0.000000   0.000000   0.000000  -0.000000
     3  H   -0.000000   0.000000  -0.000000   0.000000  -0.000000   0.000000
     4  H    0.000000   0.000000   0.000000  -0.000000   0.000000   0.000000
     5  H    0.000000   0.000000  -0.000000   0.000000  -0.000000  -0.000000
     6  C    0.000000  -0.000000   0.000000   0.000000  -0.000000  -0.000000
     7  H    0.000000   0.000000  -0.000000   0.000000  -0.000000  -0.000000
     8  H   -0.000000  -0.000000   0.000000  -0.000000   0.000000  -0.000000
     9  C   -0.000000   0.000000  -0.000000   0.000000   0.000000   0.000000
    10  H    0.000000  -0.000000  -0.000000   0.000000  -0.000000   0.000000
    11  H   -0.000000  -0.000000  -0.000000   0.000000   0.000000  -0.000000
    12  H   -0.000000  -0.000000   0.000000  -0.000000  -0.000000   0.000000
               7          8          9         10         11         12
     1  C    0.000000  -0.000000  -0.000000   0.000000  -0.000000  -0.000000
     2  C    0.000000  -0.000000   0.000000  -0.000000  -0.000000  -0.000000
     3  H   -0.000000   0.000000  -0.000000  -0.000000  -0.000000   0.000000
     4  H    0.000000  -0.000000   0.000000   0.000000   0.000000  -0.000000
     5  H   -0.000000   0.000000   0.000000  -0.000000   0.000000  -0.000000
     6  C   -0.000000  -0.000000   0.000000   0.000000  -0.000000   0.000000
     7  H    0.000000  -0.000000   0.000000  -0.000000  -0.000000   0.000000
     8  H   -0.000000  -0.000000   0.000000  -0.000000  -0.000000  -0.000000
     9  C    0.000000   0.000000   0.000000   0.000000   0.000000  -0.000000
    10  H   -0.000000  -0.000000   0.000000   0.000000   0.000000  -0.000000
    11  H   -0.000000  -0.000000   0.000000   0.000000   0.000000  -0.000000
    12  H    0.000000  -0.000000  -0.000000  -0.000000  -0.000000  -0.000000
 Mulliken charges and spin densities:
               1          2
     1  C   -0.293397  -0.000000
     2  C   -0.143436   0.000000
     3  H    0.099186  -0.000000
     4  H    0.098617   0.000000
     5  H    0.091706   0.000000
     6  C   -0.091540  -0.000000
     7  H    0.090715   0.000000
     8  H    0.096211  -0.000000
     9  C   -0.316849   0.000000
    10  H    0.126494   0.000000
    11  H    0.118537   0.000000
    12  H    0.123756  -0.000000
 Sum of Mulliken charges =  -0.00000  -0.00000
 Mulliken charges and spin densities with hydrogens summed into heavy atoms:
               1          2
     1  C   -0.003888  -0.000000
     2  C    0.043490   0.000000
     6  C    0.034954  -0.000000
     9  C   -0.074556   0.000000
 Electronic spatial extent (au):  <R**2>=            365.6389
 Charge=             -0.0000 electrons
 Dipole moment (field-independent basis, Debye):
    X=             -0.3214    Y=             -0.1694    Z=              0.1309  Tot=              0.3862
 Quadrupole moment (field-independent basis, Debye-Ang):
   XX=            -27.4213   YY=            -26.0205   ZZ=            -27.5781
   XY=              0.3814   XZ=             -1.1887   YZ=              0.7933
 Traceless Quadrupole moment (field-independent basis, Debye-Ang):
   XX=             -0.4146   YY=              0.9861   ZZ=             -0.5714
   XY=              0.3814   XZ=             -1.1887   YZ=              0.7933
 Octapole moment (field-independent basis, Debye-Ang**2):
  XXX=             -0.5462  YYY=             -0.7349  ZZZ=              4.1939  XYY=              0.5420
  XXY=              1.3065  XXZ=             -1.4297  XZZ=             -0.6387  YZZ=             -1.2446
  YYZ=              1.6414  XYZ=              0.6831
 Hexadecapole moment (field-independent basis, Debye-Ang**3):
 XXXX=           -346.2869 YYYY=            -86.9032 ZZZZ=            -83.1866 XXXY=            -36.9737
 XXXZ=              5.5012 YYYX=            -38.5442 YYYZ=              6.4917 ZZZX=             17.0178
 ZZZY=              3.9461 XXYY=            -72.1910 XXZZ=            -69.1763 YYZZ=            -27.4029
 XXYZ=              0.5153 YYXZ=              6.9743 ZZXY=            -14.0842
 N-N= 1.174530124024D+02 E-N=-5.981977410862D+02  KE= 1.561591534497D+02
                          Isotropic Fermi Contact Couplings
        Atom                 a.u.       MegaHertz       Gauss      10(-4) cm-1
     1  C(13)             -0.00000      -0.00000      -0.00000      -0.00000
     2  C(13)              0.00000       0.00000       0.00000       0.00000
     3  H(1)               0.00000       0.00000       0.00000       0.00000
     4  H(1)               0.00000       0.00000       0.00000       0.00000
     5  H(1)               0.00000       0.00000       0.00000       0.00000
     6  C(13)             -0.00000      -0.00000      -0.00000      -0.00000
     7  H(1)              -0.00000      -0.00000      -0.00000      -0.00000
     8  H(1)               0.00000       0.00000       0.00000       0.00000
     9  C(13)             -0.00000      -0.00000      -0.00000      -0.00000
    10  H(1)               0.00000       0.00000       0.00000       0.00000
    11  H(1)               0.00000       0.00000       0.00000       0.00000
    12  H(1)               0.00000       0.00000       0.00000       0.00000
 --------------------------------------------------------
       Center         ----  Spin Dipole Couplings  ----
                      3XX-RR        3YY-RR        3ZZ-RR
 --------------------------------------------------------
     1   Atom        0.000000      0.000000      0.000000
     2   Atom        0.000000      0.000000      0.000000
     3   Atom        0.000000      0.000000      0.000000
     4   Atom        0.000000      0.000000      0.000000
     5   Atom        0.000000      0.000000      0.000000
     6   Atom        0.000000      0.000000      0.000000
     7   Atom        0.000000      0.000000      0.000000
     8   Atom        0.000000      0.000000      0.000000
     9   Atom        0.000000      0.000000      0.000000
    10   Atom        0.000000      0.000000      0.000000
    11   Atom        0.000000      0.000000      0.000000
    12   Atom        0.000000      0.000000      0.000000
 --------------------------------------------------------
                        XY            XZ            YZ
 --------------------------------------------------------
     1   Atom        0.000000      0.000000      0.000000
     2   Atom        0.000000      0.000000      0.000000
     3   Atom        0.000000      0.000000      0.000000
     4   Atom        0.000000      0.000000      0.000000
     5   Atom        0.000000      0.000000      0.000000
     6   Atom        0.000000      0.000000      0.000000
     7   Atom        0.000000      0.000000      0.000000
     8   Atom        0.000000      0.000000      0.000000
     9   Atom        0.000000      0.000000      0.000000
    10   Atom        0.000000      0.000000      0.000000
    11   Atom        0.000000      0.000000      0.000000
    12   Atom        0.000000      0.000000      0.000000
 --------------------------------------------------------


 ---------------------------------------------------------------------------------
              Anisotropic Spin Dipole Couplings in Principal Axis System
 ---------------------------------------------------------------------------------

       Atom             a.u.   MegaHertz   Gauss  10(-4) cm-1        Axes

              Baa     0.0000     0.000     0.000     0.000  1.0000  0.0000  0.0000
     1 C(13)  Bbb     0.0000     0.000     0.000     0.000 -0.0000  1.0000  0.0000
              Bcc     0.0000     0.000     0.000     0.000  0.0000  0.0000  1.0000
 
              Baa     0.0000     0.000     0.000     0.000  1.0000  0.0000  0.0000
     2 C(13)  Bbb     0.0000     0.000     0.000     0.000 -0.0000  1.0000  0.0000
              Bcc     0.0000     0.000     0.000     0.000  0.0000  0.0000  1.0000
 
              Baa     0.0000     0.000     0.000     0.000  1.0000  0.0000  0.0000
     3 H(1)   Bbb     0.0000     0.000     0.000     0.000 -0.0000  1.0000  0.0000
              Bcc     0.0000     0.000     0.000     0.000  0.0000  0.0000  1.0000
 
              Baa     0.0000     0.000     0.000     0.000  1.0000  0.0000  0.0000
     4 H(1)   Bbb     0.0000     0.000     0.000     0.000 -0.0000  1.0000  0.0000
              Bcc     0.0000     0.000     0.000     0.000  0.0000  0.0000  1.0000
 
              Baa     0.0000     0.000     0.000     0.000  1.0000  0.0000  0.0000
     5 H(1)   Bbb     0.0000     0.000     0.000     0.000 -0.0000  1.0000  0.0000
              Bcc     0.0000     0.000     0.000     0.000  0.0000  0.0000  1.0000
 
              Baa     0.0000     0.000     0.000     0.000  1.0000  0.0000  0.0000
     6 C(13)  Bbb     0.0000     0.000     0.000     0.000 -0.0000  1.0000  0.0000
              Bcc     0.0000     0.000     0.000     0.000  0.0000  0.0000  1.0000
 
              Baa     0.0000     0.000     0.000     0.000  1.0000  0.0000  0.0000
     7 H(1)   Bbb     0.0000     0.000     0.000     0.000 -0.0000  1.0000  0.0000
              Bcc     0.0000     0.000     0.000     0.000  0.0000  0.0000  1.0000
 
              Baa     0.0000     0.000     0.000     0.000  1.0000  0.0000  0.0000
     8 H(1)   Bbb     0.0000     0.000     0.000     0.000 -0.0000  1.0000  0.0000
              Bcc     0.0000     0.000     0.000     0.000  0.0000  0.0000  1.0000
 
              Baa     0.0000     0.000     0.000     0.000  1.0000  0.0000  0.0000
     9 C(13)  Bbb     0.0000     0.000     0.000     0.000 -0.0000  1.0000  0.0000
              Bcc     0.0000     0.000     0.000     0.000  0.0000  0.0000  1.0000
 
              Baa     0.0000     0.000     0.000     0.000  1.0000  0.0000  0.0000
    10 H(1)   Bbb     0.0000     0.000     0.000     0.000 -0.0000  1.0000  0.0000
              Bcc     0.0000     0.000     0.000     0.000  0.0000  0.0000  1.0000
 
              Baa     0.0000     0.000     0.000     0.000  1.0000  0.0000  0.0000
    11 H(1)   Bbb     0.0000     0.000     0.000     0.000 -0.0000  1.0000  0.0000
              Bcc     0.0000     0.000     0.000     0.000  0.0000  0.0000  1.0000
 
              Baa     0.0000     0.000     0.000     0.000  1.0000  0.0000  0.0000
    12 H(1)   Bbb     0.0000     0.000     0.000     0.000 -0.0000  1.0000  0.0000
              Bcc     0.0000     0.000     0.000     0.000  0.0000  0.0000  1.0000
 

 ---------------------------------------------------------------------------------

 1\1\GINC-N69\Scan\UB2PLYPD3-FC\CC-pVTZ\C4H8\ROOT\31-May-2019\0\\# opt=
 (maxcyc=500,modredundant) uB2PLYPD3/cc-pvtz scf=maxcyc=500 nosymm\\Tit
 le Card Required\\0,1\C,-1.7169820657,-0.3188838023,-0.1723811015\C,-0
 .4226191835,-0.1682708689,0.6317041551\H,-2.5884781456,-0.3102529541,0
 .480710472\H,-1.8210760698,0.4928683927,-0.8908663509\H,-1.7240237212,
 -1.2569293712,-0.7273569367\C,0.7948881345,-0.2223310028,-0.2381442328
 \H,-0.4324399343,0.7721768106,1.1841673788\H,-0.3711726188,-0.97005551
 26,1.3727881044\C,1.6815818697,0.7589872033,-0.3733059294\H,0.93422415
 83,-1.1377682298,-0.8048086235\H,1.5773292493,1.6885877827,0.170748344
 2\H,2.5363593269,0.6640205524,-1.0267952797\\Version=ES64L-G16RevB.01\
 HF=-156.9018378,-156.9015556,-156.9007323,-156.8995474,-156.8982818,-1
 56.8972809,-156.8968629,-156.8971799,-156.8981244,-156.8993896,-156.90
 06135,-156.901496,-156.9018375,-156.9015662,-156.9007361,-156.8995279,
 -156.8982407,-156.8972435,-156.8968611,-156.8972229,-156.8981948,-156.
 8994614,-156.9006653,-156.9015174,-156.9018379,-156.9015627,-156.90074
 28,-156.8995524,-156.8982752,-156.897269,-156.8968621,-156.8972015,-15
 6.8981683,-156.8994418,-156.9006577,-156.9015173,-156.9018372\MP2=-157
 .125286,-157.1249972,-157.1241874,-157.1230288,-157.1217922,-157.12081
 4,-157.12041,-157.1207329,-157.1216711,-157.1229159,-157.124111,-157.1
 249629,-157.1252852,-157.1250105,-157.1241929,-157.1230077,-157.121745
 9,-157.1207719,-157.1204087,-157.1207844,-157.121758,-157.1230074,-157
 .1241792,-157.1249946,-157.1252858,-157.1249981,-157.124187,-157.12301
 95,-157.1217713,-157.1207932,-157.1204095,-157.1207635,-157.1217301,-1
 57.1229848,-157.1241672,-157.1249911,-157.1252856\PUHF=-156.9018378,-1
 56.9015556,-156.9007323,-156.8995474,-156.8982818,-156.8972809,-156.89
 68629,-156.8971799,-156.8981244,-156.8993896,-156.9006135,-156.901496,
 -156.9018375,-156.9015662,-156.9007361,-156.8995279,-156.8982407,-156.
 8972435,-156.8968611,-156.8972229,-156.8981948,-156.8994614,-156.90066
 53,-156.9015174,-156.9018379,-156.9015627,-156.9007428,-156.8995524,-1
 56.8982752,-156.897269,-156.8968621,-156.8972015,-156.8981683,-156.899
 4418,-156.9006577,-156.9015173,-156.9018372\PMP2-0=-157.125286,-157.12
 49972,-157.1241874,-157.1230288,-157.1217922,-157.120814,-157.12041,-1
 57.1207329,-157.1216711,-157.1229159,-157.124111,-157.1249629,-157.125
 2852,-157.1250105,-157.1241929,-157.1230077,-157.1217459,-157.1207719,
 -157.1204087,-157.1207844,-157.121758,-157.1230074,-157.1241792,-157.1
 249946,-157.1252858,-157.1249981,-157.124187,-157.1230195,-157.1217713
 ,-157.1207932,-157.1204095,-157.1207635,-157.1217301,-157.1229848,-157
 .1241672,-157.1249911,-157.1252856\S2=0.,0.,0.,0.,0.,0.,0.,0.,0.,0.,0.
 ,0.,0.,0.,0.,0.,0.,0.,0.,0.,0.,0.,0.,0.,0.,0.,0.,0.,0.,0.,0.,0.,0.,0.,
 0.,0.,0.\S2-1=0.,0.,0.,0.,0.,0.,0.,0.,0.,0.,0.,0.,0.,0.,0.,0.,0.,0.,0.
 ,0.,0.,0.,0.,0.,0.,0.,0.,0.,0.,0.,0.,0.,0.,0.,0.,0.,0.\S2A=0.,0.,0.,0.
 ,0.,0.,0.,0.,0.,0.,0.,0.,0.,0.,0.,0.,0.,0.,0.,0.,0.,0.,0.,0.,0.,0.,0.,
 0.,0.,0.,0.,0.,0.,0.,0.,0.,0.\RMSD=6.945e-09,6.156e-09,5.605e-09,8.427
 e-09,4.559e-09,2.470e-09,9.013e-09,4.978e-09,2.136e-09,6.814e-09,2.533
 e-09,7.177e-09,8.599e-09,1.769e-09,1.838e-09,9.980e-09,5.053e-09,3.149
 e-09,7.339e-09,7.426e-09,6.269e-09,6.703e-09,5.652e-09,9.194e-09,3.729
 e-09,4.846e-09,1.700e-09,1.662e-09,4.544e-09,2.661e-09,2.540e-09,7.186
 e-09,4.682e-09,1.850e-09,6.892e-09,7.396e-09,8.185e-09\PG=C01 [X(C4H8)
 ]\\@


 When I told the people of Northern Ireland that I was
 an atheist, a woman in the audience stood up and said,
 "Yes, but is it the God of the Catholics or the God
 of the Protestants in whom you don't believe?"
                               -- Quentin Crisp
 Job cpu time:       2 days 13 hours 56 minutes  8.4 seconds.
 Elapsed time:       0 days  2 hours 12 minutes 19.7 seconds.
 File lengths (MBytes):  RWF=     51 Int=      0 D2E=      0 Chk=     12 Scr=      1
 Normal termination of Gaussian 16 at Fri May 31 22:33:58 2019.
