 Entering Gaussian System, Link 0=g16
 Initial command:
 /ichec/packages/gaussian/16b01/l1.exe "/localscratch/339543/Gau-88076.inp" -scrdir="/localscratch/339543/"
 Entering Link 1 = /ichec/packages/gaussian/16b01/l1.exe PID=     88077.
  
 Copyright (c) 1988-2017, Gaussian, Inc.  All Rights Reserved.
  
 This is part of the Gaussian(R) 16 program.  It is based on
 the Gaussian(R) 09 system (copyright 2009, Gaussian, Inc.),
 the Gaussian(R) 03 system (copyright 2003, Gaussian, Inc.),
 the Gaussian(R) 98 system (copyright 1998, Gaussian, Inc.),
 the Gaussian(R) 94 system (copyright 1995, Gaussian, Inc.),
 the Gaussian 92(TM) system (copyright 1992, Gaussian, Inc.),
 the Gaussian 90(TM) system (copyright 1990, Gaussian, Inc.),
 the Gaussian 88(TM) system (copyright 1988, Gaussian, Inc.),
 the Gaussian 86(TM) system (copyright 1986, Carnegie Mellon
 University), and the Gaussian 82(TM) system (copyright 1983,
 Carnegie Mellon University). Gaussian is a federally registered
 trademark of Gaussian, Inc.
  
 This software contains proprietary and confidential information,
 including trade secrets, belonging to Gaussian, Inc.
  
 This software is provided under written license and may be
 used, copied, transmitted, or stored only in accord with that
 written license.
  
 The following legend is applicable only to US Government
 contracts under FAR:
  
                    RESTRICTED RIGHTS LEGEND
  
 Use, reproduction and disclosure by the US Government is
 subject to restrictions as set forth in subparagraphs (a)
 and (c) of the Commercial Computer Software - Restricted
 Rights clause in FAR 52.227-19.
  
 Gaussian, Inc.
 340 Quinnipiac St., Bldg. 40, Wallingford CT 06492
  
  
 ---------------------------------------------------------------
 Warning -- This program may not be used in any manner that
 competes with the business of Gaussian, Inc. or will provide
 assistance to any competitor of Gaussian, Inc.  The licensee
 of this program is prohibited from giving any competitor of
 Gaussian, Inc. access to this program.  By using this program,
 the user acknowledges that Gaussian, Inc. is engaged in the
 business of creating and licensing software in the field of
 computational chemistry and represents and warrants to the
 licensee that it is not a competitor of Gaussian, Inc. and that
 it will not use this program in any manner prohibited above.
 ---------------------------------------------------------------
  

 Cite this work as:
 Gaussian 16, Revision B.01,
 M. J. Frisch, G. W. Trucks, H. B. Schlegel, G. E. Scuseria, 
 M. A. Robb, J. R. Cheeseman, G. Scalmani, V. Barone, 
 G. A. Petersson, H. Nakatsuji, X. Li, M. Caricato, A. V. Marenich, 
 J. Bloino, B. G. Janesko, R. Gomperts, B. Mennucci, H. P. Hratchian, 
 J. V. Ortiz, A. F. Izmaylov, J. L. Sonnenberg, D. Williams-Young, 
 F. Ding, F. Lipparini, F. Egidi, J. Goings, B. Peng, A. Petrone, 
 T. Henderson, D. Ranasinghe, V. G. Zakrzewski, J. Gao, N. Rega, 
 G. Zheng, W. Liang, M. Hada, M. Ehara, K. Toyota, R. Fukuda, 
 J. Hasegawa, M. Ishida, T. Nakajima, Y. Honda, O. Kitao, H. Nakai, 
 T. Vreven, K. Throssell, J. A. Montgomery, Jr., J. E. Peralta, 
 F. Ogliaro, M. J. Bearpark, J. J. Heyd, E. N. Brothers, K. N. Kudin, 
 V. N. Staroverov, T. A. Keith, R. Kobayashi, J. Normand, 
 K. Raghavachari, A. P. Rendell, J. C. Burant, S. S. Iyengar, 
 J. Tomasi, M. Cossi, J. M. Millam, M. Klene, C. Adamo, R. Cammi, 
 J. W. Ochterski, R. L. Martin, K. Morokuma, O. Farkas, 
 J. B. Foresman, and D. J. Fox, Gaussian, Inc., Wallingford CT, 2016.
 
 ******************************************
 Gaussian 16:  ES64L-G16RevB.01 20-Dec-2017
                31-May-2019 
 ******************************************
 %mem=80GB
 %nproc=40
 Will use up to   40 processors via shared memory.
 ----------------------------------------------------------------------
 # opt=(maxcyc=500,modredundant) uB2PLYPD3/cc-pvtz scf=maxcyc=500 nosym
 m
 ----------------------------------------------------------------------
 1/6=500,18=120,19=15,38=1/1,3;
 2/9=110,12=2,15=1,17=6,18=5,40=1/2;
 3/5=16,6=1,11=2,25=1,30=1,71=1,74=-60,116=2/1,2,3;
 4//1;
 5/5=2,7=500,38=5/2;
 8/6=4,10=1/1;
 9/15=2,16=-3/6;
 10/5=1,31=1/2;
 6/7=2,8=2,9=2,10=2/1;
 7/12=2,30=1/1,2,3,16;
 1/6=500,18=20,19=15/3(2);
 2/9=110,15=1/2;
 99//99;
 2/9=110,15=1/2;
 3/5=16,6=1,11=2,25=1,30=1,71=1,74=-60,116=2/1,2,3;
 4/5=5,16=3,69=1/1;
 5/5=2,7=500,38=5/2;
 8/6=4,10=1/1;
 9/15=2,16=-3/6;
 10/5=1,31=1/2;
 7/12=2,30=1/1,2,3,16;
 1/6=500,18=20,19=15/3(-8);
 2/9=110,15=1/2;
 6/7=2,8=2,9=2,10=2/1;
 99/9=10/99;
 -------------------
 Title Card Required
 -------------------
 Symbolic Z-matrix:
 Charge =  0 Multiplicity = 1
 C                    -1.70747  -0.26021  -0.29476 
 C                    -0.54081   0.5344    0.30039 
 H                    -2.62306   0.33425  -0.30692 
 H                    -1.48118  -0.56473  -1.3187 
 H                    -1.90108  -1.1643    0.28797 
 C                     0.71761  -0.28114   0.35972 
 H                    -0.35989   1.43748  -0.28917 
 H                    -0.80769   0.86001   1.31168 
 C                     1.84115   0.00852  -0.28664 
 H                     0.67402  -1.18337   0.9686 
 H                     1.91899   0.89715  -0.90577 
 H                     2.71699  -0.6259   -0.21994 
 
 The following ModRedundant input section has been read:
 D    *          6       2    *    R                                           
 D       7       2       6      10 S  36 10.000                                
 

 GradGradGradGradGradGradGradGradGradGradGradGradGradGradGradGradGradGrad
 Berny optimization.
 Initialization pass.
                           ----------------------------
                           !    Initial Parameters    !
                           ! (Angstroms and Degrees)  !
 --------------------------                            --------------------------
 ! Name  Definition              Value          Derivative Info.                !
 --------------------------------------------------------------------------------
 ! R1    R(1,2)                  1.5319         estimate D2E/DX2                !
 ! R2    R(1,3)                  1.0917         estimate D2E/DX2                !
 ! R3    R(1,4)                  1.092          estimate D2E/DX2                !
 ! R4    R(1,5)                  1.0929         estimate D2E/DX2                !
 ! R5    R(2,6)                  1.5008         estimate D2E/DX2                !
 ! R6    R(2,7)                  1.0935         estimate D2E/DX2                !
 ! R7    R(2,8)                  1.0954         estimate D2E/DX2                !
 ! R8    R(6,9)                  1.3282         estimate D2E/DX2                !
 ! R9    R(6,10)                 1.0893         estimate D2E/DX2                !
 ! R10   R(9,11)                 1.0858         estimate D2E/DX2                !
 ! R11   R(9,12)                 1.0835         estimate D2E/DX2                !
 ! A1    A(2,1,3)              111.1365         estimate D2E/DX2                !
 ! A2    A(2,1,4)              110.557          estimate D2E/DX2                !
 ! A3    A(2,1,5)              110.9077         estimate D2E/DX2                !
 ! A4    A(3,1,4)              108.3732         estimate D2E/DX2                !
 ! A5    A(3,1,5)              107.9273         estimate D2E/DX2                !
 ! A6    A(4,1,5)              107.8182         estimate D2E/DX2                !
 ! A7    A(1,2,6)              111.8439         estimate D2E/DX2                !
 ! A8    A(1,2,7)              110.1762         estimate D2E/DX2                !
 ! A9    A(1,2,8)              109.1056         estimate D2E/DX2                !
 ! A10   A(6,2,7)              109.3509         estimate D2E/DX2                !
 ! A11   A(6,2,8)              109.2275         estimate D2E/DX2                !
 ! A12   A(7,2,8)              107.0111         estimate D2E/DX2                !
 ! A13   A(2,6,9)              124.8603         estimate D2E/DX2                !
 ! A14   A(2,6,10)             116.0166         estimate D2E/DX2                !
 ! A15   A(9,6,10)             119.1106         estimate D2E/DX2                !
 ! A16   A(6,9,11)             121.1051         estimate D2E/DX2                !
 ! A17   A(6,9,12)             121.7443         estimate D2E/DX2                !
 ! A18   A(11,9,12)            117.1506         estimate D2E/DX2                !
 ! D1    D(3,1,2,6)            178.4238         estimate D2E/DX2                !
 ! D2    D(3,1,2,7)            -59.7313         estimate D2E/DX2                !
 ! D3    D(3,1,2,8)             57.471          estimate D2E/DX2                !
 ! D4    D(4,1,2,6)            -61.1848         estimate D2E/DX2                !
 ! D5    D(4,1,2,7)             60.6601         estimate D2E/DX2                !
 ! D6    D(4,1,2,8)            177.8625         estimate D2E/DX2                !
 ! D7    D(5,1,2,6)             58.3602         estimate D2E/DX2                !
 ! D8    D(5,1,2,7)           -179.7949         estimate D2E/DX2                !
 ! D9    D(5,1,2,8)            -62.5925         estimate D2E/DX2                !
 ! D10   D(7,2,6,10)           176.8192         Scan                            !
 ! D11   D(2,6,9,11)             1.0835         estimate D2E/DX2                !
 ! D12   D(2,6,9,12)          -179.0019         estimate D2E/DX2                !
 ! D13   D(10,6,9,11)          179.7439         estimate D2E/DX2                !
 ! D14   D(10,6,9,12)           -0.3415         estimate D2E/DX2                !
 --------------------------------------------------------------------------------
 Trust Radius=3.00D-01 FncErr=1.00D-07 GrdErr=1.00D-07 EigMax=2.50D+02 EigMin=1.00D-04
 Number of optimizations in scan=  37
 Number of steps in this run=    100 maximum allowed number of steps=    100.
 GradGradGradGradGradGradGradGradGradGradGradGradGradGradGradGradGradGrad

                          Input orientation:                          
 ---------------------------------------------------------------------
 Center     Atomic      Atomic             Coordinates (Angstroms)
 Number     Number       Type             X           Y           Z
 ---------------------------------------------------------------------
      1          6           0       -1.707467   -0.260212   -0.294762
      2          6           0       -0.540811    0.534404    0.300391
      3          1           0       -2.623057    0.334247   -0.306921
      4          1           0       -1.481181   -0.564732   -1.318701
      5          1           0       -1.901079   -1.164298    0.287970
      6          6           0        0.717611   -0.281143    0.359723
      7          1           0       -0.359888    1.437476   -0.289167
      8          1           0       -0.807688    0.860010    1.311681
      9          6           0        1.841149    0.008521   -0.286643
     10          1           0        0.674023   -1.183372    0.968596
     11          1           0        1.918986    0.897148   -0.905768
     12          1           0        2.716993   -0.625900   -0.219939
 ---------------------------------------------------------------------
                    Distance matrix (angstroms):
                    1          2          3          4          5
     1  C    0.000000
     2  C    1.531897   0.000000
     3  H    1.091712   2.178219   0.000000
     4  H    1.091966   2.171141   1.770803   0.000000
     5  H    1.092901   2.176252   1.766574   1.765555   0.000000
     6  C    2.511930   1.500754   3.461673   2.780686   2.764534
     7  H    2.167520   1.093550   2.517809   2.515169   3.078569
     8  H    2.155263   1.095422   2.488346   3.066332   2.518196
     9  C    3.558786   2.508963   4.476119   3.525853   3.963579
    10  H    2.849525   2.207504   3.847187   3.203022   2.663600
    11  H    3.855382   2.763513   4.615802   3.724076   4.501940
    12  H    4.440177   3.497190   5.426378   4.340010   4.677011
                    6          7          8          9         10
     6  C    0.000000
     7  H    2.129721   0.000000
     8  H    2.129552   1.759746   0.000000
     9  C    1.328169   2.624211   3.208740   0.000000
    10  H    1.089332   3.085415   2.547270   2.087682   0.000000
    11  H    2.105502   2.421862   3.514713   1.085833   3.064594
    12  H    2.110070   3.705335   4.120335   1.083532   2.428398
                   11         12
    11  H    0.000000
    12  H    1.851176   0.000000
 Symmetry turned off by external request.
 Stoichiometry    C4H8
 Framework group  C1[X(C4H8)]
 Deg. of freedom    30
 Full point group                 C1      NOp   1
 Rotational constants (GHZ):          22.2996232           4.1957606           4.1031043
 Standard basis: CC-pVTZ (5D, 7F)
   232 basis functions,   344 primitive gaussians,   260 cartesian basis functions
    16 alpha electrons       16 beta electrons
       nuclear repulsion energy       117.3842724609 Hartrees.
 NAtoms=   12 NActive=   12 NUniq=   12 SFac= 1.00D+00 NAtFMM=   60 NAOKFM=F Big=F
 Integral buffers will be    131072 words long.
 Raffenetti 2 integral format.
 Two-electron integral symmetry is turned off.
 Nuclear repulsion after empirical dispersion term =      117.3786083468 Hartrees.
 One-electron integrals computed using PRISM.
 NBasis=   232 RedAO= T EigKep=  4.53D-04  NBF=   232
 NBsUse=   232 1.00D-06 EigRej= -1.00D+00 NBFU=   232
 ExpMin= 1.03D-01 ExpMax= 8.24D+03 ExpMxC= 2.81D+02 IAcc=3 IRadAn=         5 AccDes= 0.00D+00
 Harris functional with IExCor=  419 and IRadAn=       5 diagonalized for initial guess.
 HarFok:  IExCor=  419 AccDes= 0.00D+00 IRadAn=         5 IDoV= 1 UseB2=F ITyADJ=14
 ICtDFT=  3500011 ScaDFX=  1.000000  1.000000  1.000000  1.000000
 FoFCou: FMM=F IPFlag=           0 FMFlag=      100000 FMFlg1=           0
         NFxFlg=           0 DoJE=T BraDBF=F KetDBF=T FulRan=T
         wScrn=  0.000000 ICntrl=       500 IOpCl=  0 I1Cent=   200000004 NGrid=           0
         NMat0=    1 NMatS0=      1 NMatT0=    0 NMatD0=    1 NMtDS0=    0 NMtDT0=    0
 Symmetry not used in FoFCou.
 Initial guess <Sx>= 0.0000 <Sy>= 0.0000 <Sz>= 0.0000 <S**2>=-0.0000 S=-0.0000
 Keep R1 and R2 ints in memory in canonical form, NReq=774238648.
 Requested convergence on RMS density matrix=1.00D-08 within 500 cycles.
 Requested convergence on MAX density matrix=1.00D-06.
 Requested convergence on             energy=1.00D-06.
 No special actions if energy rises.
 Integral accuracy reduced to 1.0D-05 until final iterations.
 Initial convergence to 1.0D-05 achieved.  Increase integral accuracy.
 SCF Done:  E(UB2PLYPD3) =  -156.901655083     A.U. after   11 cycles
            NFock= 11  Conv=0.83D-08     -V/T= 2.0050
 <Sx>= 0.0000 <Sy>= 0.0000 <Sz>= 0.0000 <S**2>=-0.0000 S=-0.0000
 <L.S>=  0.00000000000    
 Annihilation of the first spin contaminant:
 S**2 before annihilation    -0.0000,   after     0.0000
 DoSCS=T DFT=T ScalE2(SS,OS)=  0.270000  0.270000
 ExpMin= 1.03D-01 ExpMax= 8.24D+03 ExpMxC= 2.81D+02 IAcc=3 IRadAn=         5 AccDes= 0.00D+00
 HarFok:  IExCor=  205 AccDes= 0.00D+00 IRadAn=         5 IDoV=-2 UseB2=F ITyADJ=14
 ICtDFT= 12500011 ScaDFX=  1.000000  1.000000  1.000000  1.000000
 Range of M.O.s used for correlation:     5   232
 NBasis=   232 NAE=    16 NBE=    16 NFC=     4 NFV=     0
 NROrb=    228 NOA=    12 NOB=    12 NVA=   216 NVB=   216

 **** Warning!!: The largest alpha MO coefficient is  0.11556552D+02


 **** Warning!!: The largest beta MO coefficient is  0.11556552D+02

 DoSCS=T DFT=T ScalE2(SS,OS)=  0.270000  0.270000
 Fully direct method using O(ONN) memory.
 JobTyp=2 Pass  1:  I=   5 to  16 NPSUse= 40 ParTrn=T ParDer=T DoDerP=T.
 JobTyp=3 Pass  1:  I=   5 to  16 NPSUse= 40 ParTrn=T ParDer=T DoDerP=T.
 Spin components of T(2) and E(2):
     alpha-alpha T2 =       0.3986426904D-01 E2=     -0.2492910413D-01
     alpha-beta  T2 =       0.2589955051D+00 E2=     -0.1737053512D+00
     beta-beta   T2 =       0.3986426904D-01 E2=     -0.2492910413D-01
 (S**2,0)=  0.00000D+00           (S**2,1)=  0.00000D+00
 E(PUHF)=      -0.15690165508D+03        E(PMP2)=      -0.15712521864D+03
 E2(B2PLYPD3) =    -0.2235635595D+00 E(B2PLYPD3) =    -0.15712521864285D+03
          IDoAtm=111111111111
          Differentiating once with respect to electric field.
                with respect to dipole field.
          Differentiating once with respect to nuclear coordinates.
 Keep R1 and R2 ints in memory in canonical form, NReq=774247682.
          There are     1 degrees of freedom in the 1st order CPHF.  IDoFFX=0 NUNeed=     1.
 LinEq1:  Iter=  0 NonCon=     1 RMS=5.52D-04 Max=7.05D-03 NDo=     1
 AX will form     1 AO Fock derivatives at one time.
 LinEq1:  Iter=  1 NonCon=     1 RMS=2.21D-04 Max=2.84D-03 NDo=     1
 LinEq1:  Iter=  2 NonCon=     1 RMS=5.91D-05 Max=1.62D-03 NDo=     1
 LinEq1:  Iter=  3 NonCon=     1 RMS=3.32D-05 Max=8.39D-04 NDo=     1
 LinEq1:  Iter=  4 NonCon=     1 RMS=8.96D-06 Max=1.27D-04 NDo=     1
 LinEq1:  Iter=  5 NonCon=     1 RMS=2.44D-06 Max=2.27D-05 NDo=     1
 LinEq1:  Iter=  6 NonCon=     1 RMS=8.95D-07 Max=1.34D-05 NDo=     1
 LinEq1:  Iter=  7 NonCon=     1 RMS=3.13D-07 Max=4.58D-06 NDo=     1
 LinEq1:  Iter=  8 NonCon=     1 RMS=1.09D-07 Max=1.31D-06 NDo=     1
 LinEq1:  Iter=  9 NonCon=     1 RMS=1.57D-08 Max=1.40D-07 NDo=     1
 LinEq1:  Iter= 10 NonCon=     1 RMS=5.85D-09 Max=6.14D-08 NDo=     1
 LinEq1:  Iter= 11 NonCon=     1 RMS=1.75D-09 Max=1.60D-08 NDo=     1
 LinEq1:  Iter= 12 NonCon=     1 RMS=3.24D-10 Max=4.07D-09 NDo=     1
 LinEq1:  Iter= 13 NonCon=     0 RMS=5.59D-11 Max=7.91D-10 NDo=     1
 Linear equations converged to 1.000D-10 1.000D-09 after    13 iterations.
 End of Minotr F.D. properties file   721 does not exist.
 End of Minotr F.D. properties file   722 does not exist.
 End of Minotr F.D. properties file   788 does not exist.

 **********************************************************************

            Population analysis using the SCF Density.

 **********************************************************************

 Alpha  occ. eigenvalues --  -10.61608 -10.61404 -10.60370 -10.60290  -0.91760
 Alpha  occ. eigenvalues --   -0.83703  -0.72251  -0.63731  -0.54381  -0.51113
 Alpha  occ. eigenvalues --   -0.49204  -0.44678  -0.43430  -0.40351  -0.39321
 Alpha  occ. eigenvalues --   -0.30237
 Alpha virt. eigenvalues --    0.06898   0.08957   0.11020   0.11546   0.13028
 Alpha virt. eigenvalues --    0.15741   0.16811   0.17059   0.18597   0.22835
 Alpha virt. eigenvalues --    0.26224   0.29941   0.31490   0.32665   0.33814
 Alpha virt. eigenvalues --    0.36129   0.37724   0.39925   0.43753   0.47908
 Alpha virt. eigenvalues --    0.48317   0.49507   0.51169   0.51585   0.52270
 Alpha virt. eigenvalues --    0.53695   0.53913   0.54586   0.57027   0.57858
 Alpha virt. eigenvalues --    0.58753   0.62377   0.65288   0.69607   0.70924
 Alpha virt. eigenvalues --    0.71949   0.77758   0.78721   0.80298   0.82796
 Alpha virt. eigenvalues --    0.88046   0.92649   0.96301   0.97384   0.99511
 Alpha virt. eigenvalues --    1.01546   1.05185   1.08393   1.09397   1.13227
 Alpha virt. eigenvalues --    1.14959   1.15916   1.17378   1.18474   1.18760
 Alpha virt. eigenvalues --    1.20951   1.24292   1.24810   1.25706   1.26988
 Alpha virt. eigenvalues --    1.28754   1.33762   1.36122   1.38353   1.40207
 Alpha virt. eigenvalues --    1.40805   1.44965   1.46489   1.48316   1.51038
 Alpha virt. eigenvalues --    1.53920   1.55195   1.56862   1.60391   1.62553
 Alpha virt. eigenvalues --    1.66630   1.68278   1.71616   1.79858   1.98577
 Alpha virt. eigenvalues --    2.18758   2.24499   2.35282   2.36181   2.39255
 Alpha virt. eigenvalues --    2.39530   2.44578   2.46152   2.49541   2.56336
 Alpha virt. eigenvalues --    2.57530   2.59565   2.63010   2.66649   2.67908
 Alpha virt. eigenvalues --    2.68608   2.77026   2.79260   2.82100   2.85460
 Alpha virt. eigenvalues --    2.87474   2.89371   2.92744   2.93774   2.94566
 Alpha virt. eigenvalues --    2.97898   3.00136   3.01082   3.01831   3.03159
 Alpha virt. eigenvalues --    3.06554   3.09681   3.11435   3.12602   3.14119
 Alpha virt. eigenvalues --    3.15755   3.17603   3.20646   3.21670   3.23809
 Alpha virt. eigenvalues --    3.26285   3.28335   3.30118   3.31263   3.32759
 Alpha virt. eigenvalues --    3.37923   3.39255   3.41220   3.43811   3.45999
 Alpha virt. eigenvalues --    3.48196   3.49343   3.55538   3.57287   3.59986
 Alpha virt. eigenvalues --    3.61554   3.62708   3.67926   3.70268   3.73942
 Alpha virt. eigenvalues --    3.74601   3.79390   3.81172   3.83894   3.85255
 Alpha virt. eigenvalues --    3.86382   3.89115   3.91383   3.93991   3.97435
 Alpha virt. eigenvalues --    3.97957   3.99686   4.03392   4.05288   4.06490
 Alpha virt. eigenvalues --    4.06974   4.10653   4.12756   4.15998   4.17648
 Alpha virt. eigenvalues --    4.18477   4.19199   4.22336   4.23793   4.25836
 Alpha virt. eigenvalues --    4.29108   4.33970   4.37918   4.39886   4.42030
 Alpha virt. eigenvalues --    4.44369   4.47623   4.49315   4.52762   4.57301
 Alpha virt. eigenvalues --    4.63250   4.64755   4.68089   4.69828   4.81055
 Alpha virt. eigenvalues --    4.83338   4.90586   4.95040   4.96592   4.99738
 Alpha virt. eigenvalues --    5.01245   5.01595   5.04774   5.11024   5.12646
 Alpha virt. eigenvalues --    5.14546   5.15987   5.23148   5.31100   5.33676
 Alpha virt. eigenvalues --    5.36647   5.39921   5.48142   5.49139   5.50541
 Alpha virt. eigenvalues --    5.53726   5.55453   5.62106   5.63403   5.66978
 Alpha virt. eigenvalues --    5.81170   6.03913   6.05072   6.06541   6.11211
 Alpha virt. eigenvalues --    6.18080   6.42515  11.17907  12.93858  13.61273
 Alpha virt. eigenvalues --   14.34481
  Beta  occ. eigenvalues --  -10.61608 -10.61404 -10.60370 -10.60290  -0.91760
  Beta  occ. eigenvalues --   -0.83703  -0.72251  -0.63731  -0.54381  -0.51113
  Beta  occ. eigenvalues --   -0.49204  -0.44678  -0.43430  -0.40351  -0.39321
  Beta  occ. eigenvalues --   -0.30237
  Beta virt. eigenvalues --    0.06898   0.08957   0.11020   0.11546   0.13028
  Beta virt. eigenvalues --    0.15741   0.16811   0.17059   0.18597   0.22835
  Beta virt. eigenvalues --    0.26224   0.29941   0.31490   0.32665   0.33814
  Beta virt. eigenvalues --    0.36129   0.37724   0.39925   0.43753   0.47908
  Beta virt. eigenvalues --    0.48317   0.49507   0.51169   0.51585   0.52270
  Beta virt. eigenvalues --    0.53695   0.53913   0.54586   0.57027   0.57858
  Beta virt. eigenvalues --    0.58753   0.62377   0.65288   0.69607   0.70924
  Beta virt. eigenvalues --    0.71949   0.77758   0.78721   0.80298   0.82796
  Beta virt. eigenvalues --    0.88046   0.92649   0.96301   0.97384   0.99511
  Beta virt. eigenvalues --    1.01546   1.05185   1.08393   1.09397   1.13227
  Beta virt. eigenvalues --    1.14959   1.15916   1.17378   1.18474   1.18760
  Beta virt. eigenvalues --    1.20951   1.24292   1.24810   1.25706   1.26988
  Beta virt. eigenvalues --    1.28754   1.33762   1.36122   1.38353   1.40207
  Beta virt. eigenvalues --    1.40805   1.44965   1.46489   1.48316   1.51038
  Beta virt. eigenvalues --    1.53920   1.55195   1.56862   1.60391   1.62553
  Beta virt. eigenvalues --    1.66630   1.68278   1.71616   1.79858   1.98577
  Beta virt. eigenvalues --    2.18758   2.24499   2.35282   2.36181   2.39255
  Beta virt. eigenvalues --    2.39530   2.44578   2.46152   2.49541   2.56336
  Beta virt. eigenvalues --    2.57530   2.59565   2.63010   2.66649   2.67908
  Beta virt. eigenvalues --    2.68608   2.77026   2.79260   2.82100   2.85460
  Beta virt. eigenvalues --    2.87474   2.89371   2.92744   2.93774   2.94566
  Beta virt. eigenvalues --    2.97898   3.00136   3.01082   3.01831   3.03159
  Beta virt. eigenvalues --    3.06554   3.09681   3.11435   3.12602   3.14119
  Beta virt. eigenvalues --    3.15755   3.17603   3.20646   3.21670   3.23809
  Beta virt. eigenvalues --    3.26285   3.28335   3.30118   3.31263   3.32759
  Beta virt. eigenvalues --    3.37923   3.39255   3.41220   3.43811   3.45999
  Beta virt. eigenvalues --    3.48196   3.49343   3.55538   3.57287   3.59986
  Beta virt. eigenvalues --    3.61554   3.62708   3.67926   3.70268   3.73942
  Beta virt. eigenvalues --    3.74601   3.79390   3.81172   3.83894   3.85255
  Beta virt. eigenvalues --    3.86382   3.89115   3.91383   3.93991   3.97435
  Beta virt. eigenvalues --    3.97957   3.99686   4.03392   4.05288   4.06490
  Beta virt. eigenvalues --    4.06974   4.10653   4.12756   4.15998   4.17648
  Beta virt. eigenvalues --    4.18477   4.19199   4.22336   4.23793   4.25836
  Beta virt. eigenvalues --    4.29108   4.33970   4.37918   4.39886   4.42030
  Beta virt. eigenvalues --    4.44369   4.47623   4.49315   4.52762   4.57301
  Beta virt. eigenvalues --    4.63250   4.64755   4.68089   4.69828   4.81055
  Beta virt. eigenvalues --    4.83338   4.90586   4.95040   4.96592   4.99738
  Beta virt. eigenvalues --    5.01245   5.01595   5.04774   5.11024   5.12646
  Beta virt. eigenvalues --    5.14546   5.15987   5.23148   5.31100   5.33676
  Beta virt. eigenvalues --    5.36647   5.39921   5.48142   5.49139   5.50541
  Beta virt. eigenvalues --    5.53726   5.55453   5.62106   5.63403   5.66978
  Beta virt. eigenvalues --    5.81170   6.03913   6.05072   6.06541   6.11211
  Beta virt. eigenvalues --    6.18080   6.42515  11.17907  12.93858  13.61273
  Beta virt. eigenvalues --   14.34481
          Condensed to atoms (all electrons):
               1          2          3          4          5          6
     1  C    4.865467   0.343697   0.405638   0.402049   0.407390  -0.056922
     2  C    0.343697   4.811082  -0.035105  -0.035593  -0.036557   0.360612
     3  H    0.405638  -0.035105   0.592007  -0.028315  -0.031464   0.008332
     4  H    0.402049  -0.035593  -0.028315   0.589129  -0.031399  -0.000127
     5  H    0.407390  -0.036557  -0.031464  -0.031399   0.598625  -0.003251
     6  C   -0.056922   0.360612   0.008332  -0.000127  -0.003251   4.917166
     7  H   -0.033177   0.415414  -0.005172  -0.004970   0.007042  -0.041464
     8  H   -0.041405   0.420351  -0.003884   0.008103  -0.004954  -0.040686
     9  C   -0.000113  -0.060620  -0.000163   0.002770   0.000466   0.634777
    10  H   -0.001276  -0.040675  -0.000301   0.000212   0.003064   0.408657
    11  H    0.000107  -0.006877  -0.000055   0.000204   0.000033  -0.050516
    12  H   -0.000382   0.006674   0.000028  -0.000090  -0.000017  -0.046569
               7          8          9         10         11         12
     1  C   -0.033177  -0.041405  -0.000113  -0.001276   0.000107  -0.000382
     2  C    0.415414   0.420351  -0.060620  -0.040675  -0.006877   0.006674
     3  H   -0.005172  -0.003884  -0.000163  -0.000301  -0.000055   0.000028
     4  H   -0.004970   0.008103   0.002770   0.000212   0.000204  -0.000090
     5  H    0.007042  -0.004954   0.000466   0.003064   0.000033  -0.000017
     6  C   -0.041464  -0.040686   0.634777   0.408657  -0.050516  -0.046569
     7  H    0.599230  -0.034210  -0.003418   0.006272   0.004496  -0.000028
     8  H   -0.034210   0.602827   0.001687  -0.003249   0.000232  -0.000390
     9  C   -0.003418   0.001687   4.953066  -0.042879   0.409439   0.419978
    10  H    0.006272  -0.003249  -0.042879   0.546529   0.006938  -0.008393
    11  H    0.004496   0.000232   0.409439   0.006938   0.554841  -0.036126
    12  H   -0.000028  -0.000390   0.419978  -0.008393  -0.036126   0.542300
          Atomic-Atomic Spin Densities.
               1          2          3          4          5          6
     1  C    0.000000   0.000000   0.000000   0.000000  -0.000000  -0.000000
     2  C    0.000000  -0.000000  -0.000000   0.000000   0.000000   0.000000
     3  H    0.000000  -0.000000  -0.000000   0.000000   0.000000  -0.000000
     4  H    0.000000   0.000000   0.000000  -0.000000  -0.000000  -0.000000
     5  H   -0.000000   0.000000   0.000000  -0.000000   0.000000  -0.000000
     6  C   -0.000000   0.000000  -0.000000  -0.000000  -0.000000   0.000000
     7  H    0.000000  -0.000000  -0.000000  -0.000000  -0.000000   0.000000
     8  H    0.000000   0.000000   0.000000  -0.000000   0.000000  -0.000000
     9  C   -0.000000  -0.000000   0.000000  -0.000000   0.000000  -0.000000
    10  H    0.000000   0.000000  -0.000000  -0.000000  -0.000000  -0.000000
    11  H   -0.000000   0.000000   0.000000  -0.000000  -0.000000  -0.000000
    12  H   -0.000000   0.000000   0.000000   0.000000   0.000000   0.000000
               7          8          9         10         11         12
     1  C    0.000000   0.000000  -0.000000   0.000000  -0.000000  -0.000000
     2  C   -0.000000   0.000000  -0.000000   0.000000   0.000000   0.000000
     3  H   -0.000000   0.000000   0.000000  -0.000000   0.000000   0.000000
     4  H   -0.000000  -0.000000  -0.000000  -0.000000  -0.000000   0.000000
     5  H   -0.000000   0.000000   0.000000  -0.000000  -0.000000   0.000000
     6  C    0.000000  -0.000000  -0.000000  -0.000000  -0.000000   0.000000
     7  H    0.000000  -0.000000  -0.000000   0.000000   0.000000   0.000000
     8  H   -0.000000   0.000000   0.000000  -0.000000   0.000000  -0.000000
     9  C   -0.000000   0.000000   0.000000  -0.000000   0.000000  -0.000000
    10  H    0.000000  -0.000000  -0.000000   0.000000  -0.000000   0.000000
    11  H    0.000000   0.000000   0.000000  -0.000000   0.000000  -0.000000
    12  H    0.000000  -0.000000  -0.000000   0.000000  -0.000000   0.000000
 Mulliken charges and spin densities:
               1          2
     1  C   -0.291073   0.000000
     2  C   -0.142402  -0.000000
     3  H    0.098453   0.000000
     4  H    0.098027  -0.000000
     5  H    0.091023   0.000000
     6  C   -0.090006   0.000000
     7  H    0.089985   0.000000
     8  H    0.095580   0.000000
     9  C   -0.314990  -0.000000
    10  H    0.125102   0.000000
    11  H    0.117284   0.000000
    12  H    0.123016   0.000000
 Sum of Mulliken charges =  -0.00000  -0.00000
 Mulliken charges and spin densities with hydrogens summed into heavy atoms:
               1          2
     1  C   -0.003570   0.000000
     2  C    0.043163  -0.000000
     6  C    0.035096   0.000000
     9  C   -0.074689  -0.000000
 Electronic spatial extent (au):  <R**2>=            364.9195
 Charge=             -0.0000 electrons
 Dipole moment (field-independent basis, Debye):
    X=             -0.3647    Y=              0.0434    Z=              0.1004  Tot=              0.3807
 Quadrupole moment (field-independent basis, Debye-Ang):
   XX=            -26.9313   YY=            -26.7058   ZZ=            -27.4384
   XY=             -0.5668   XZ=             -0.8725   YZ=             -1.3324
 Traceless Quadrupole moment (field-independent basis, Debye-Ang):
   XX=              0.0939   YY=              0.3194   ZZ=             -0.4132
   XY=             -0.5668   XZ=             -0.8725   YZ=             -1.3324
 Octapole moment (field-independent basis, Debye-Ang**2):
  XXX=              1.6855  YYY=              0.2002  ZZZ=              0.5202  XYY=              0.0321
  XXY=             -0.8261  XXZ=             -1.5516  XZZ=             -1.6842  YZZ=              0.2691
  YYZ=              0.4583  XYZ=             -1.4745
 Hexadecapole moment (field-independent basis, Debye-Ang**3):
 XXXX=           -363.5234 YYYY=            -76.4553 ZZZZ=            -67.7300 XXXY=             -9.3911
 XXXZ=             -5.6977 YYYX=             -0.0900 YYYZ=             -3.8975 ZZZX=             -0.9602
 ZZZY=             -0.7577 XXYY=            -73.2048 XXZZ=            -76.5360 YYZZ=            -23.0591
 XXYZ=             -3.0170 YYXZ=             -0.9356 ZZXY=              0.6549
 N-N= 1.173786083468D+02 E-N=-5.980218247093D+02  KE= 1.561218751354D+02
                          Isotropic Fermi Contact Couplings
        Atom                 a.u.       MegaHertz       Gauss      10(-4) cm-1
     1  C(13)             -0.00000      -0.00000      -0.00000      -0.00000
     2  C(13)             -0.00000      -0.00000      -0.00000      -0.00000
     3  H(1)               0.00000       0.00000       0.00000       0.00000
     4  H(1)              -0.00000      -0.00000      -0.00000      -0.00000
     5  H(1)              -0.00000      -0.00000      -0.00000      -0.00000
     6  C(13)              0.00000       0.00000       0.00000       0.00000
     7  H(1)              -0.00000      -0.00000      -0.00000      -0.00000
     8  H(1)              -0.00000      -0.00000      -0.00000      -0.00000
     9  C(13)             -0.00000      -0.00000      -0.00000      -0.00000
    10  H(1)               0.00000       0.00000       0.00000       0.00000
    11  H(1)               0.00000       0.00000       0.00000       0.00000
    12  H(1)              -0.00000      -0.00000      -0.00000      -0.00000
 --------------------------------------------------------
       Center         ----  Spin Dipole Couplings  ----
                      3XX-RR        3YY-RR        3ZZ-RR
 --------------------------------------------------------
     1   Atom        0.000000      0.000000      0.000000
     2   Atom        0.000000      0.000000      0.000000
     3   Atom        0.000000      0.000000      0.000000
     4   Atom        0.000000      0.000000      0.000000
     5   Atom        0.000000      0.000000      0.000000
     6   Atom        0.000000      0.000000      0.000000
     7   Atom        0.000000      0.000000      0.000000
     8   Atom        0.000000      0.000000      0.000000
     9   Atom        0.000000      0.000000      0.000000
    10   Atom        0.000000      0.000000      0.000000
    11   Atom        0.000000      0.000000      0.000000
    12   Atom        0.000000      0.000000      0.000000
 --------------------------------------------------------
                        XY            XZ            YZ
 --------------------------------------------------------
     1   Atom        0.000000      0.000000      0.000000
     2   Atom        0.000000      0.000000      0.000000
     3   Atom        0.000000      0.000000      0.000000
     4   Atom        0.000000      0.000000      0.000000
     5   Atom        0.000000      0.000000      0.000000
     6   Atom        0.000000      0.000000      0.000000
     7   Atom        0.000000      0.000000      0.000000
     8   Atom        0.000000      0.000000      0.000000
     9   Atom        0.000000      0.000000      0.000000
    10   Atom        0.000000      0.000000      0.000000
    11   Atom        0.000000      0.000000      0.000000
    12   Atom        0.000000      0.000000      0.000000
 --------------------------------------------------------


 ---------------------------------------------------------------------------------
              Anisotropic Spin Dipole Couplings in Principal Axis System
 ---------------------------------------------------------------------------------

       Atom             a.u.   MegaHertz   Gauss  10(-4) cm-1        Axes

              Baa     0.0000     0.000     0.000     0.000  1.0000  0.0000  0.0000
     1 C(13)  Bbb     0.0000     0.000     0.000     0.000 -0.0000  1.0000  0.0000
              Bcc     0.0000     0.000     0.000     0.000  0.0000  0.0000  1.0000
 
              Baa     0.0000     0.000     0.000     0.000  1.0000  0.0000  0.0000
     2 C(13)  Bbb     0.0000     0.000     0.000     0.000 -0.0000  1.0000  0.0000
              Bcc     0.0000     0.000     0.000     0.000  0.0000  0.0000  1.0000
 
              Baa     0.0000     0.000     0.000     0.000  1.0000  0.0000  0.0000
     3 H(1)   Bbb     0.0000     0.000     0.000     0.000 -0.0000  1.0000  0.0000
              Bcc     0.0000     0.000     0.000     0.000  0.0000  0.0000  1.0000
 
              Baa     0.0000     0.000     0.000     0.000  1.0000  0.0000  0.0000
     4 H(1)   Bbb     0.0000     0.000     0.000     0.000 -0.0000  1.0000  0.0000
              Bcc     0.0000     0.000     0.000     0.000  0.0000  0.0000  1.0000
 
              Baa     0.0000     0.000     0.000     0.000  1.0000  0.0000  0.0000
     5 H(1)   Bbb     0.0000     0.000     0.000     0.000 -0.0000  1.0000  0.0000
              Bcc     0.0000     0.000     0.000     0.000  0.0000  0.0000  1.0000
 
              Baa     0.0000     0.000     0.000     0.000  1.0000  0.0000  0.0000
     6 C(13)  Bbb     0.0000     0.000     0.000     0.000 -0.0000  1.0000  0.0000
              Bcc     0.0000     0.000     0.000     0.000  0.0000  0.0000  1.0000
 
              Baa     0.0000     0.000     0.000     0.000  1.0000  0.0000  0.0000
     7 H(1)   Bbb     0.0000     0.000     0.000     0.000 -0.0000  1.0000  0.0000
              Bcc     0.0000     0.000     0.000     0.000  0.0000  0.0000  1.0000
 
              Baa     0.0000     0.000     0.000     0.000  1.0000  0.0000  0.0000
     8 H(1)   Bbb     0.0000     0.000     0.000     0.000 -0.0000  1.0000  0.0000
              Bcc     0.0000     0.000     0.000     0.000  0.0000  0.0000  1.0000
 
              Baa     0.0000     0.000     0.000     0.000  1.0000  0.0000  0.0000
     9 C(13)  Bbb     0.0000     0.000     0.000     0.000 -0.0000  1.0000  0.0000
              Bcc     0.0000     0.000     0.000     0.000  0.0000  0.0000  1.0000
 
              Baa     0.0000     0.000     0.000     0.000  1.0000  0.0000  0.0000
    10 H(1)   Bbb     0.0000     0.000     0.000     0.000 -0.0000  1.0000  0.0000
              Bcc     0.0000     0.000     0.000     0.000  0.0000  0.0000  1.0000
 
              Baa     0.0000     0.000     0.000     0.000  1.0000  0.0000  0.0000
    11 H(1)   Bbb     0.0000     0.000     0.000     0.000 -0.0000  1.0000  0.0000
              Bcc     0.0000     0.000     0.000     0.000  0.0000  0.0000  1.0000
 
              Baa     0.0000     0.000     0.000     0.000  1.0000  0.0000  0.0000
    12 H(1)   Bbb     0.0000     0.000     0.000     0.000 -0.0000  1.0000  0.0000
              Bcc     0.0000     0.000     0.000     0.000  0.0000  0.0000  1.0000
 

 ---------------------------------------------------------------------------------

 Calling FoFJK, ICntrl=  10002127 FMM=F ISym2X=0 I1Cent= 0 IOpClX= 1 NMat=1 NMatS=1 NMatT=0.
 -------------------------------------------------------------------
 Center     Atomic                   Forces (Hartrees/Bohr)
 Number     Number              X              Y              Z
 -------------------------------------------------------------------
      1        6          -0.000845004   -0.000227743   -0.000336551
      2        6           0.001223984   -0.000354602    0.000404797
      3        1           0.001324623   -0.001050417   -0.000071474
      4        1          -0.000654924    0.000475930    0.001786961
      5        1           0.000272697    0.001573631   -0.001093211
      6        6          -0.002402606   -0.000806462    0.001767065
      7        1          -0.000481710   -0.001486398    0.001061341
      8        1           0.000198375   -0.000355094   -0.001612517
      9        6           0.003037344    0.000795930   -0.001720518
     10        1           0.000103662    0.002093948   -0.001404444
     11        1           0.000051244   -0.002066137    0.001359230
     12        1          -0.001827685    0.001407414   -0.000140680
 -------------------------------------------------------------------
 Cartesian Forces:  Max     0.003037344 RMS     0.001287229

 GradGradGradGradGradGradGradGradGradGradGradGradGradGradGradGradGradGrad
 Berny optimization.
 FormGI is forming the generalized inverse of G from B-inverse, IUseBI=4.
 Internal  Forces:  Max     0.002523376 RMS     0.000987435
 Search for a local minimum.
 Step number   1 out of a maximum of  100 on scan point     1 out of    37
 All quantities printed in internal units (Hartrees-Bohrs-Radians)
 Mixed Optimization -- En-DIIS/RFO-DIIS
 Second derivative matrix not updated -- first step.
 ITU=  0
     Eigenvalues ---    0.00344   0.03039   0.03039   0.03041   0.05434
     Eigenvalues ---    0.05500   0.05565   0.06053   0.16000   0.16000
     Eigenvalues ---    0.16000   0.16000   0.16000   0.16000   0.16000
     Eigenvalues ---    0.16000   0.22001   0.22335   0.29249   0.32298
     Eigenvalues ---    0.34193   0.34406   0.34479   0.34586   0.34616
     Eigenvalues ---    0.34890   0.35299   0.35571   0.599401000.00000
     Eigenvalues --- 1000.000001000.000001000.000001000.000001000.00000
     Eigenvalues --- 1000.000001000.000001000.000001000.000001000.00000
     Eigenvalues --- 1000.000001000.000001000.00000
 RFO step:  Lambda=-1.28112875D-04 EMin= 3.44013592D-03
 Linear search not attempted -- first point.
 Iteration  1 RMS(Cart)=  0.00691832 RMS(Int)=  0.00001770
 Iteration  2 RMS(Cart)=  0.00002945 RMS(Int)=  0.00000244
 Iteration  3 RMS(Cart)=  0.00000000 RMS(Int)=  0.00000244
 Iteration  1 RMS(Cart)=  0.00000000 RMS(Int)=  0.00000000
 Variable       Old X    -DE/DX   Delta X   Delta X   Delta X     New X
                                 (Linear)    (Quad)   (Total)
    R1        2.89487  -0.00059   0.00000  -0.00200  -0.00200   2.89286
    R2        2.06304  -0.00168   0.00000  -0.00486  -0.00486   2.05818
    R3        2.06352  -0.00194   0.00000  -0.00562  -0.00562   2.05790
    R4        2.06528  -0.00193   0.00000  -0.00560  -0.00560   2.05968
    R5        2.83601  -0.00165   0.00000  -0.00511  -0.00511   2.83091
    R6        2.06651  -0.00188   0.00000  -0.00546  -0.00546   2.06105
    R7        2.07005  -0.00164   0.00000  -0.00480  -0.00480   2.06525
    R8        2.50987   0.00134   0.00000   0.00224   0.00224   2.51211
    R9        2.05854  -0.00252   0.00000  -0.00723  -0.00723   2.05131
   R10        2.05193  -0.00246   0.00000  -0.00697  -0.00697   2.04495
   R11        2.04758  -0.00231   0.00000  -0.00649  -0.00649   2.04109
    A1        1.93970   0.00017   0.00000   0.00100   0.00100   1.94070
    A2        1.92958   0.00031   0.00000   0.00203   0.00203   1.93162
    A3        1.93570   0.00004   0.00000   0.00025   0.00025   1.93595
    A4        1.89147  -0.00025   0.00000  -0.00153  -0.00153   1.88994
    A5        1.88369  -0.00013   0.00000  -0.00104  -0.00104   1.88265
    A6        1.88178  -0.00017   0.00000  -0.00088  -0.00088   1.88090
    A7        1.95204   0.00105   0.00000   0.00547   0.00547   1.95751
    A8        1.92294  -0.00020   0.00000  -0.00121  -0.00122   1.92172
    A9        1.90425  -0.00039   0.00000  -0.00279  -0.00279   1.90146
   A10        1.90853  -0.00027   0.00000   0.00050   0.00050   1.90903
   A11        1.90638  -0.00020   0.00000   0.00030   0.00030   1.90668
   A12        1.86770  -0.00003   0.00000  -0.00262  -0.00263   1.86506
   A13        2.17922   0.00065   0.00000   0.00300   0.00299   2.18222
   A14        2.02487  -0.00033   0.00000  -0.00145  -0.00145   2.02342
   A15        2.07887  -0.00032   0.00000  -0.00143  -0.00144   2.07743
   A16        2.11368   0.00029   0.00000   0.00180   0.00180   2.11548
   A17        2.12484  -0.00009   0.00000  -0.00057  -0.00057   2.12427
   A18        2.04466  -0.00020   0.00000  -0.00124  -0.00124   2.04342
    D1        3.11408  -0.00005   0.00000  -0.00349  -0.00349   3.11059
    D2       -1.04251   0.00019   0.00000   0.00003   0.00002  -1.04248
    D3        1.00306  -0.00020   0.00000  -0.00550  -0.00550   0.99756
    D4       -1.06788  -0.00004   0.00000  -0.00340  -0.00340  -1.07128
    D5        1.05872   0.00019   0.00000   0.00012   0.00012   1.05884
    D6        3.10429  -0.00020   0.00000  -0.00541  -0.00541   3.09888
    D7        1.01858  -0.00002   0.00000  -0.00302  -0.00302   1.01556
    D8       -3.13801   0.00021   0.00000   0.00050   0.00050  -3.13751
    D9       -1.09244  -0.00018   0.00000  -0.00503  -0.00503  -1.09747
   D10        3.08608   0.00015   0.00000   0.00000   0.00000   3.08608
   D11        0.01891  -0.00009   0.00000  -0.00277  -0.00277   0.01614
   D12       -3.12417  -0.00013   0.00000  -0.00429  -0.00429  -3.12846
   D13        3.13712   0.00010   0.00000   0.00340   0.00340   3.14052
   D14       -0.00596   0.00006   0.00000   0.00189   0.00189  -0.00407
         Item               Value     Threshold  Converged?
 Maximum Force            0.002523     0.000450     NO 
 RMS     Force            0.000999     0.000300     NO 
 Maximum Displacement     0.021615     0.001800     NO 
 RMS     Displacement     0.006906     0.001200     NO 
 Predicted change in Energy=-6.408870D-05
 GradGradGradGradGradGradGradGradGradGradGradGradGradGradGradGradGradGrad

                          Input orientation:                          
 ---------------------------------------------------------------------
 Center     Atomic      Atomic             Coordinates (Angstroms)
 Number     Number       Type             X           Y           Z
 ---------------------------------------------------------------------
      1          6           0       -1.710428   -0.259991   -0.293509
      2          6           0       -0.539808    0.530527    0.296569
      3          1           0       -2.623161    0.334232   -0.300369
      4          1           0       -1.492619   -0.563488   -1.316423
      5          1           0       -1.902991   -1.162017    0.287205
      6          6           0        0.717648   -0.281552    0.355659
      7          1           0       -0.361455    1.431511   -0.291612
      8          1           0       -0.805059    0.857674    1.305037
      9          6           0        1.845303    0.010262   -0.284978
     10          1           0        0.674288   -1.180220    0.962979
     11          1           0        1.927210    0.896404   -0.900671
     12          1           0        2.718661   -0.621193   -0.213427
 ---------------------------------------------------------------------
                    Distance matrix (angstroms):
                    1          2          3          4          5
     1  C    0.000000
     2  C    1.530838   0.000000
     3  H    1.089141   2.176058   0.000000
     4  H    1.088992   2.169438   1.765330   0.000000
     5  H    1.089936   2.173261   1.761434   1.760189   0.000000
     6  C    2.513452   1.498052   3.459851   2.785790   2.765439
     7  H    2.163542   1.090660   2.513844   2.511930   3.072092
     8  H    2.150400   1.092881   2.481293   3.060146   2.514078
     9  C    3.565997   2.509508   4.480219   3.540451   3.968796
    10  H    2.848237   2.201088   3.842237   3.204921   2.664464
    11  H    3.865010   2.766482   4.624097   3.741572   4.507613
    12  H    4.444515   3.493448   5.427288   4.353713   4.680042
                    6          7          8          9         10
     6  C    0.000000
     7  H    2.125561   0.000000
     8  H    2.125510   1.753671   0.000000
     9  C    1.329352   2.624838   3.204789   0.000000
    10  H    1.085506   3.076996   2.541354   2.084688   0.000000
    11  H    2.104515   2.428019   3.511686   1.082143   3.058655
    12  H    2.107906   3.702273   4.112102   1.080097   2.424027
                   11         12
    11  H    0.000000
    12  H    1.844397   0.000000
 Symmetry turned off by external request.
 Stoichiometry    C4H8
 Framework group  C1[X(C4H8)]
 Deg. of freedom    30
 Full point group                 C1      NOp   1
 Rotational constants (GHZ):          22.5200786           4.1865536           4.0945810
 Standard basis: CC-pVTZ (5D, 7F)
   232 basis functions,   344 primitive gaussians,   260 cartesian basis functions
    16 alpha electrons       16 beta electrons
       nuclear repulsion energy       117.4759018757 Hartrees.
 NAtoms=   12 NActive=   12 NUniq=   12 SFac= 1.00D+00 NAtFMM=   60 NAOKFM=F Big=F
 Integral buffers will be    131072 words long.
 Raffenetti 2 integral format.
 Two-electron integral symmetry is turned off.
 Nuclear repulsion after empirical dispersion term =      117.4702392434 Hartrees.
 One-electron integrals computed using PRISM.
 NBasis=   232 RedAO= T EigKep=  4.53D-04  NBF=   232
 NBsUse=   232 1.00D-06 EigRej= -1.00D+00 NBFU=   232
 Initial guess from the checkpoint file:  "/localscratch/339543/Gau-88077.chk"
 B after Tr=     0.000660   -0.000686   -0.001467
         Rot=    1.000000   -0.000095    0.000003   -0.000106 Ang=  -0.02 deg.
 Initial guess <Sx>= 0.0000 <Sy>= 0.0000 <Sz>= 0.0000 <S**2>=-0.0000 S=-0.0000
 ExpMin= 1.03D-01 ExpMax= 8.24D+03 ExpMxC= 2.81D+02 IAcc=3 IRadAn=         5 AccDes= 0.00D+00
 Harris functional with IExCor=  419 and IRadAn=       5 diagonalized for initial guess.
 HarFok:  IExCor=  419 AccDes= 0.00D+00 IRadAn=         5 IDoV= 1 UseB2=F ITyADJ=14
 ICtDFT=  3500011 ScaDFX=  1.000000  1.000000  1.000000  1.000000
 FoFCou: FMM=F IPFlag=           0 FMFlag=      100000 FMFlg1=           0
         NFxFlg=           0 DoJE=T BraDBF=F KetDBF=T FulRan=T
         wScrn=  0.000000 ICntrl=       500 IOpCl=  0 I1Cent=   200000004 NGrid=           0
         NMat0=    1 NMatS0=      1 NMatT0=    0 NMatD0=    1 NMtDS0=    0 NMtDT0=    0
 Symmetry not used in FoFCou.
 Keep R1 and R2 ints in memory in canonical form, NReq=774238648.
 Requested convergence on RMS density matrix=1.00D-08 within 500 cycles.
 Requested convergence on MAX density matrix=1.00D-06.
 Requested convergence on             energy=1.00D-06.
 No special actions if energy rises.
 Integral accuracy reduced to 1.0D-05 until final iterations.
 Initial convergence to 1.0D-05 achieved.  Increase integral accuracy.
 SCF Done:  E(UB2PLYPD3) =  -156.901834175     A.U. after    9 cycles
            NFock=  9  Conv=0.53D-08     -V/T= 2.0048
 <Sx>= 0.0000 <Sy>= 0.0000 <Sz>= 0.0000 <S**2>=-0.0000 S=-0.0000
 <L.S>=  0.00000000000    
 Annihilation of the first spin contaminant:
 S**2 before annihilation    -0.0000,   after     0.0000
 DoSCS=T DFT=T ScalE2(SS,OS)=  0.270000  0.270000
 ExpMin= 1.03D-01 ExpMax= 8.24D+03 ExpMxC= 2.81D+02 IAcc=3 IRadAn=         5 AccDes= 0.00D+00
 HarFok:  IExCor=  205 AccDes= 0.00D+00 IRadAn=         5 IDoV=-2 UseB2=F ITyADJ=14
 ICtDFT= 12500011 ScaDFX=  1.000000  1.000000  1.000000  1.000000
 Range of M.O.s used for correlation:     5   232
 NBasis=   232 NAE=    16 NBE=    16 NFC=     4 NFV=     0
 NROrb=    228 NOA=    12 NOB=    12 NVA=   216 NVB=   216

 **** Warning!!: The largest alpha MO coefficient is  0.11632593D+02


 **** Warning!!: The largest beta MO coefficient is  0.11632593D+02

 DoSCS=T DFT=T ScalE2(SS,OS)=  0.270000  0.270000
 Fully direct method using O(ONN) memory.
 JobTyp=2 Pass  1:  I=   5 to  16 NPSUse= 40 ParTrn=T ParDer=T DoDerP=T.
 JobTyp=3 Pass  1:  I=   5 to  16 NPSUse= 40 ParTrn=T ParDer=T DoDerP=T.
 Spin components of T(2) and E(2):
     alpha-alpha T2 =       0.3979048311D-01 E2=     -0.2492399070D-01
     alpha-beta  T2 =       0.2583382132D+00 E2=     -0.1736018741D+00
     beta-beta   T2 =       0.3979048311D-01 E2=     -0.2492399070D-01
 (S**2,0)=  0.00000D+00           (S**2,1)=  0.00000D+00
 E(PUHF)=      -0.15690183418D+03        E(PMP2)=      -0.15712528403D+03
 E2(B2PLYPD3) =    -0.2234498555D+00 E(B2PLYPD3) =    -0.15712528403053D+03
          IDoAtm=111111111111
          Differentiating once with respect to electric field.
                with respect to dipole field.
          Differentiating once with respect to nuclear coordinates.
 Keep R1 and R2 ints in memory in canonical form, NReq=774247682.
          There are     1 degrees of freedom in the 1st order CPHF.  IDoFFX=0 NUNeed=     1.
 LinEq1:  Iter=  0 NonCon=     1 RMS=5.51D-04 Max=7.13D-03 NDo=     1
 AX will form     1 AO Fock derivatives at one time.
 LinEq1:  Iter=  1 NonCon=     1 RMS=2.20D-04 Max=2.80D-03 NDo=     1
 LinEq1:  Iter=  2 NonCon=     1 RMS=5.90D-05 Max=1.63D-03 NDo=     1
 LinEq1:  Iter=  3 NonCon=     1 RMS=3.32D-05 Max=8.37D-04 NDo=     1
 LinEq1:  Iter=  4 NonCon=     1 RMS=8.90D-06 Max=1.28D-04 NDo=     1
 LinEq1:  Iter=  5 NonCon=     1 RMS=2.42D-06 Max=2.24D-05 NDo=     1
 LinEq1:  Iter=  6 NonCon=     1 RMS=8.84D-07 Max=1.33D-05 NDo=     1
 LinEq1:  Iter=  7 NonCon=     1 RMS=3.08D-07 Max=4.54D-06 NDo=     1
 LinEq1:  Iter=  8 NonCon=     1 RMS=1.08D-07 Max=1.30D-06 NDo=     1
 LinEq1:  Iter=  9 NonCon=     1 RMS=1.56D-08 Max=1.41D-07 NDo=     1
 LinEq1:  Iter= 10 NonCon=     1 RMS=5.85D-09 Max=6.11D-08 NDo=     1
 LinEq1:  Iter= 11 NonCon=     1 RMS=1.72D-09 Max=1.55D-08 NDo=     1
 LinEq1:  Iter= 12 NonCon=     1 RMS=3.16D-10 Max=3.88D-09 NDo=     1
 LinEq1:  Iter= 13 NonCon=     0 RMS=5.36D-11 Max=7.70D-10 NDo=     1
 Linear equations converged to 1.000D-10 1.000D-09 after    13 iterations.
 End of Minotr F.D. properties file   721 does not exist.
 End of Minotr F.D. properties file   722 does not exist.
 End of Minotr F.D. properties file   788 does not exist.
 Calling FoFJK, ICntrl=  10002127 FMM=F ISym2X=0 I1Cent= 0 IOpClX= 1 NMat=1 NMatS=1 NMatT=0.
 -------------------------------------------------------------------
 Center     Atomic                   Forces (Hartrees/Bohr)
 Number     Number              X              Y              Z
 -------------------------------------------------------------------
      1        6           0.000004473    0.000050637    0.000019883
      2        6           0.000405750   -0.000303414   -0.000108502
      3        1           0.000043948    0.000044266    0.000020422
      4        1          -0.000060013   -0.000023974   -0.000040291
      5        1          -0.000024387   -0.000040384    0.000001891
      6        6          -0.000347033    0.000347692    0.000245136
      7        1          -0.000108769    0.000061312   -0.000064304
      8        1          -0.000032508    0.000012680    0.000062028
      9        6           0.000077153    0.000078609   -0.000045829
     10        1           0.000078903   -0.000138669   -0.000112705
     11        1          -0.000018555   -0.000012209   -0.000055024
     12        1          -0.000018964   -0.000076548    0.000077295
 -------------------------------------------------------------------
 Cartesian Forces:  Max     0.000405750 RMS     0.000137244

 GradGradGradGradGradGradGradGradGradGradGradGradGradGradGradGradGradGrad
 Berny optimization.
 Using GEDIIS/GDIIS optimizer.
 FormGI is forming the generalized inverse of G from B-inverse, IUseBI=4.
 Internal  Forces:  Max     0.000295049 RMS     0.000086279
 Search for a local minimum.
 Step number   2 out of a maximum of  100 on scan point     1 out of    37
 All quantities printed in internal units (Hartrees-Bohrs-Radians)
 Mixed Optimization -- En-DIIS/RFO-DIIS
 Swapping is turned off.
 Update second derivatives using D2CorX and points    1    2
 DE= -6.54D-05 DEPred=-6.41D-05 R= 1.02D+00
 TightC=F SS=  1.41D+00  RLast= 2.35D-02 DXNew= 5.0454D-01 7.0405D-02
 Trust test= 1.02D+00 RLast= 2.35D-02 DXMaxT set to 3.00D-01
 ITU=  1  0
     Eigenvalues ---    0.00344   0.03034   0.03039   0.03064   0.05373
     Eigenvalues ---    0.05491   0.05548   0.06006   0.15755   0.16000
     Eigenvalues ---    0.16000   0.16000   0.16000   0.16000   0.16000
     Eigenvalues ---    0.16108   0.21685   0.22122   0.29260   0.31466
     Eigenvalues ---    0.34232   0.34431   0.34525   0.34598   0.34738
     Eigenvalues ---    0.35123   0.35455   0.36837   0.598851000.00000
     Eigenvalues --- 1000.000001000.000001000.000001000.000001000.00000
     Eigenvalues --- 1000.000001000.000001000.000001000.000001000.00000
     Eigenvalues --- 1000.000001000.000001000.00000
 En-DIIS/RFO-DIIS/Sim-DIIS IScMMF=       -3 using points:     2    1
 RFO step:  Lambda=-2.12102246D-06.
 DidBck=F Rises=F RFO-DIIS coefs:    1.08355   -0.08355
 Iteration  1 RMS(Cart)=  0.00132089 RMS(Int)=  0.00000136
 Iteration  2 RMS(Cart)=  0.00000133 RMS(Int)=  0.00000046
 Iteration  3 RMS(Cart)=  0.00000000 RMS(Int)=  0.00000046
 Iteration  1 RMS(Cart)=  0.00000000 RMS(Int)=  0.00000000
 Variable       Old X    -DE/DX   Delta X   Delta X   Delta X     New X
                                 (Linear)    (Quad)   (Total)
    R1        2.89286   0.00001  -0.00017   0.00017   0.00000   2.89287
    R2        2.05818  -0.00001  -0.00041   0.00029  -0.00012   2.05806
    R3        2.05790   0.00003  -0.00047   0.00047   0.00000   2.05790
    R4        2.05968   0.00004  -0.00047   0.00049   0.00002   2.05970
    R5        2.83091  -0.00030  -0.00043  -0.00059  -0.00101   2.82989
    R6        2.06105   0.00007  -0.00046   0.00057   0.00011   2.06116
    R7        2.06525   0.00007  -0.00040   0.00053   0.00013   2.06537
    R8        2.51211   0.00004   0.00019  -0.00008   0.00011   2.51222
    R9        2.05131   0.00005  -0.00060   0.00063   0.00002   2.05133
   R10        2.04495   0.00002  -0.00058   0.00053  -0.00006   2.04490
   R11        2.04109   0.00003  -0.00054   0.00054  -0.00001   2.04108
    A1        1.94070  -0.00012   0.00008  -0.00100  -0.00092   1.93978
    A2        1.93162   0.00011   0.00017   0.00063   0.00080   1.93242
    A3        1.93595   0.00004   0.00002   0.00033   0.00035   1.93630
    A4        1.88994  -0.00001  -0.00013  -0.00008  -0.00020   1.88973
    A5        1.88265   0.00002  -0.00009   0.00007  -0.00001   1.88264
    A6        1.88090  -0.00005  -0.00007   0.00005  -0.00002   1.88088
    A7        1.95751   0.00021   0.00046   0.00075   0.00121   1.95872
    A8        1.92172  -0.00009  -0.00010  -0.00027  -0.00037   1.92135
    A9        1.90146  -0.00008  -0.00023  -0.00061  -0.00084   1.90062
   A10        1.90903   0.00002   0.00004   0.00100   0.00104   1.91007
   A11        1.90668  -0.00008   0.00002  -0.00063  -0.00060   1.90607
   A12        1.86506   0.00001  -0.00022  -0.00031  -0.00053   1.86454
   A13        2.18222   0.00008   0.00025   0.00014   0.00039   2.18261
   A14        2.02342   0.00009  -0.00012   0.00076   0.00064   2.02405
   A15        2.07743  -0.00017  -0.00012  -0.00094  -0.00106   2.07637
   A16        2.11548   0.00007   0.00015   0.00031   0.00046   2.11594
   A17        2.12427  -0.00014  -0.00005  -0.00085  -0.00090   2.12338
   A18        2.04342   0.00007  -0.00010   0.00055   0.00044   2.04387
    D1        3.11059  -0.00005  -0.00029  -0.00157  -0.00187   3.10872
    D2       -1.04248   0.00006   0.00000   0.00003   0.00003  -1.04245
    D3        0.99756  -0.00003  -0.00046  -0.00085  -0.00131   0.99625
    D4       -1.07128  -0.00007  -0.00028  -0.00191  -0.00219  -1.07347
    D5        1.05884   0.00004   0.00001  -0.00031  -0.00030   1.05854
    D6        3.09888  -0.00004  -0.00045  -0.00119  -0.00164   3.09724
    D7        1.01556  -0.00003  -0.00025  -0.00122  -0.00147   1.01409
    D8       -3.13751   0.00008   0.00004   0.00039   0.00043  -3.13709
    D9       -1.09747  -0.00000  -0.00042  -0.00049  -0.00091  -1.09838
   D10        3.08608   0.00012   0.00000   0.00000  -0.00000   3.08608
   D11        0.01614  -0.00002  -0.00023  -0.00034  -0.00058   0.01556
   D12       -3.12846   0.00002  -0.00036   0.00096   0.00060  -3.12786
   D13        3.14052  -0.00008   0.00028  -0.00296  -0.00267   3.13785
   D14       -0.00407  -0.00005   0.00016  -0.00166  -0.00150  -0.00557
         Item               Value     Threshold  Converged?
 Maximum Force            0.000295     0.000450     YES
 RMS     Force            0.000085     0.000300     YES
 Maximum Displacement     0.003286     0.001800     NO 
 RMS     Displacement     0.001321     0.001200     NO 
 Predicted change in Energy=-1.060650D-06
 GradGradGradGradGradGradGradGradGradGradGradGradGradGradGradGradGradGrad

                          Input orientation:                          
 ---------------------------------------------------------------------
 Center     Atomic      Atomic             Coordinates (Angstroms)
 Number     Number       Type             X           Y           Z
 ---------------------------------------------------------------------
      1          6           0       -1.710449   -0.260093   -0.293759
      2          6           0       -0.539561    0.530170    0.296138
      3          1           0       -2.622829    0.334577   -0.298768
      4          1           0       -1.494358   -0.562531   -1.317353
      5          1           0       -1.902759   -1.162698    0.286162
      6          6           0        0.717989   -0.280693    0.356324
      7          1           0       -0.362328    1.431806   -0.291491
      8          1           0       -0.805386    0.856906    1.304661
      9          6           0        1.845685    0.010515   -0.284637
     10          1           0        0.675320   -1.179696    0.963221
     11          1           0        1.927665    0.895283   -0.902241
     12          1           0        2.718601   -0.621397   -0.211796
 ---------------------------------------------------------------------
                    Distance matrix (angstroms):
                    1          2          3          4          5
     1  C    0.000000
     2  C    1.530840   0.000000
     3  H    1.089080   2.175356   0.000000
     4  H    1.088994   2.170020   1.765153   0.000000
     5  H    1.089948   2.173525   1.761385   1.760185   0.000000
     6  C    2.514029   1.497516   3.459591   2.788388   2.766076
     7  H    2.163321   1.090719   2.512734   2.512224   3.072143
     8  H    2.149831   1.092949   2.479297   3.060138   2.514034
     9  C    3.566427   2.509331   4.480272   3.542707   3.969014
    10  H    2.849133   2.201040   3.842320   3.207711   2.665555
    11  H    3.865361   2.767060   4.624453   3.742697   4.507741
    12  H    4.444518   3.492811   5.427000   4.356002   4.679523
                    6          7          8          9         10
     6  C    0.000000
     7  H    2.125889   0.000000
     8  H    2.124652   1.753429   0.000000
     9  C    1.329410   2.625916   3.204750   0.000000
    10  H    1.085519   3.077492   2.541027   2.084108   0.000000
    11  H    2.104808   2.430008   3.513041   1.082113   3.058407
    12  H    2.107436   3.703258   4.111387   1.080094   2.422263
                   11         12
    11  H    0.000000
    12  H    1.844618   0.000000
 Symmetry turned off by external request.
 Stoichiometry    C4H8
 Framework group  C1[X(C4H8)]
 Deg. of freedom    30
 Full point group                 C1      NOp   1
 Rotational constants (GHZ):          22.5282558           4.1854581           4.0941391
 Standard basis: CC-pVTZ (5D, 7F)
   232 basis functions,   344 primitive gaussians,   260 cartesian basis functions
    16 alpha electrons       16 beta electrons
       nuclear repulsion energy       117.4762149336 Hartrees.
 NAtoms=   12 NActive=   12 NUniq=   12 SFac= 1.00D+00 NAtFMM=   60 NAOKFM=F Big=F
 Integral buffers will be    131072 words long.
 Raffenetti 2 integral format.
 Two-electron integral symmetry is turned off.
 Nuclear repulsion after empirical dispersion term =      117.4705529117 Hartrees.
 One-electron integrals computed using PRISM.
 NBasis=   232 RedAO= T EigKep=  4.53D-04  NBF=   232
 NBsUse=   232 1.00D-06 EigRej= -1.00D+00 NBFU=   232
 Initial guess from the checkpoint file:  "/localscratch/339543/Gau-88077.chk"
 B after Tr=     0.000280    0.000193    0.000096
         Rot=    1.000000    0.000072    0.000055   -0.000045 Ang=   0.01 deg.
 Initial guess <Sx>= 0.0000 <Sy>= 0.0000 <Sz>= 0.0000 <S**2>= 0.0000 S= 0.0000
 Keep R1 and R2 ints in memory in canonical form, NReq=774238648.
 Requested convergence on RMS density matrix=1.00D-08 within 500 cycles.
 Requested convergence on MAX density matrix=1.00D-06.
 Requested convergence on             energy=1.00D-06.
 No special actions if energy rises.
 SCF Done:  E(UB2PLYPD3) =  -156.901837276     A.U. after    6 cycles
            NFock=  6  Conv=0.87D-08     -V/T= 2.0047
 <Sx>= 0.0000 <Sy>= 0.0000 <Sz>= 0.0000 <S**2>=-0.0000 S=-0.0000
 <L.S>=  0.00000000000    
 Annihilation of the first spin contaminant:
 S**2 before annihilation    -0.0000,   after     0.0000
 DoSCS=T DFT=T ScalE2(SS,OS)=  0.270000  0.270000
 ExpMin= 1.03D-01 ExpMax= 8.24D+03 ExpMxC= 2.81D+02 IAcc=3 IRadAn=         5 AccDes= 0.00D+00
 HarFok:  IExCor=  205 AccDes= 0.00D+00 IRadAn=         5 IDoV=-2 UseB2=F ITyADJ=14
 ICtDFT= 12500011 ScaDFX=  1.000000  1.000000  1.000000  1.000000
 Range of M.O.s used for correlation:     5   232
 NBasis=   232 NAE=    16 NBE=    16 NFC=     4 NFV=     0
 NROrb=    228 NOA=    12 NOB=    12 NVA=   216 NVB=   216

 **** Warning!!: The largest alpha MO coefficient is  0.11631338D+02


 **** Warning!!: The largest beta MO coefficient is  0.11631338D+02

 DoSCS=T DFT=T ScalE2(SS,OS)=  0.270000  0.270000
 Fully direct method using O(ONN) memory.
 JobTyp=2 Pass  1:  I=   5 to  16 NPSUse= 40 ParTrn=T ParDer=T DoDerP=T.
 JobTyp=3 Pass  1:  I=   5 to  16 NPSUse= 40 ParTrn=T ParDer=T DoDerP=T.
 Spin components of T(2) and E(2):
     alpha-alpha T2 =       0.3978908603D-01 E2=     -0.2492406284D-01
     alpha-beta  T2 =       0.2583280027D+00 E2=     -0.1735998219D+00
     beta-beta   T2 =       0.3978908603D-01 E2=     -0.2492406284D-01
 (S**2,0)=  0.00000D+00           (S**2,1)=  0.00000D+00
 E(PUHF)=      -0.15690183728D+03        E(PMP2)=      -0.15712528522D+03
 E2(B2PLYPD3) =    -0.2234479476D+00 E(B2PLYPD3) =    -0.15712528522313D+03
          IDoAtm=111111111111
          Differentiating once with respect to electric field.
                with respect to dipole field.
          Differentiating once with respect to nuclear coordinates.
 Keep R1 and R2 ints in memory in canonical form, NReq=774247682.
          There are     1 degrees of freedom in the 1st order CPHF.  IDoFFX=0 NUNeed=     1.
 LinEq1:  Iter=  0 NonCon=     1 RMS=5.51D-04 Max=7.12D-03 NDo=     1
 AX will form     1 AO Fock derivatives at one time.
 LinEq1:  Iter=  1 NonCon=     1 RMS=2.20D-04 Max=2.80D-03 NDo=     1
 LinEq1:  Iter=  2 NonCon=     1 RMS=5.90D-05 Max=1.63D-03 NDo=     1
 LinEq1:  Iter=  3 NonCon=     1 RMS=3.32D-05 Max=8.37D-04 NDo=     1
 LinEq1:  Iter=  4 NonCon=     1 RMS=8.89D-06 Max=1.28D-04 NDo=     1
 LinEq1:  Iter=  5 NonCon=     1 RMS=2.42D-06 Max=2.24D-05 NDo=     1
 LinEq1:  Iter=  6 NonCon=     1 RMS=8.85D-07 Max=1.33D-05 NDo=     1
 LinEq1:  Iter=  7 NonCon=     1 RMS=3.08D-07 Max=4.54D-06 NDo=     1
 LinEq1:  Iter=  8 NonCon=     1 RMS=1.08D-07 Max=1.29D-06 NDo=     1
 LinEq1:  Iter=  9 NonCon=     1 RMS=1.56D-08 Max=1.41D-07 NDo=     1
 LinEq1:  Iter= 10 NonCon=     1 RMS=5.91D-09 Max=6.17D-08 NDo=     1
 LinEq1:  Iter= 11 NonCon=     1 RMS=1.72D-09 Max=1.58D-08 NDo=     1
 LinEq1:  Iter= 12 NonCon=     1 RMS=3.17D-10 Max=3.92D-09 NDo=     1
 LinEq1:  Iter= 13 NonCon=     0 RMS=5.36D-11 Max=7.74D-10 NDo=     1
 Linear equations converged to 1.000D-10 1.000D-09 after    13 iterations.
 End of Minotr F.D. properties file   721 does not exist.
 End of Minotr F.D. properties file   722 does not exist.
 End of Minotr F.D. properties file   788 does not exist.
 Calling FoFJK, ICntrl=  10002127 FMM=F ISym2X=0 I1Cent= 0 IOpClX= 1 NMat=1 NMatS=1 NMatT=0.
 -------------------------------------------------------------------
 Center     Atomic                   Forces (Hartrees/Bohr)
 Number     Number              X              Y              Z
 -------------------------------------------------------------------
      1        6           0.000004563    0.000018290    0.000010874
      2        6           0.000130330   -0.000095143    0.000052105
      3        1          -0.000016555    0.000034532    0.000005795
      4        1          -0.000000988   -0.000014435   -0.000029672
      5        1          -0.000004736   -0.000027172    0.000010595
      6        6          -0.000113626    0.000119473   -0.000013814
      7        1          -0.000027182   -0.000003350   -0.000072118
      8        1          -0.000035540    0.000031022    0.000046357
      9        6           0.000019934    0.000002147   -0.000027876
     10        1           0.000020645   -0.000065106   -0.000015470
     11        1           0.000002126    0.000032380   -0.000004189
     12        1           0.000021029   -0.000032637    0.000037412
 -------------------------------------------------------------------
 Cartesian Forces:  Max     0.000130330 RMS     0.000047273

 GradGradGradGradGradGradGradGradGradGradGradGradGradGradGradGradGradGrad
 Berny optimization.
 Using GEDIIS/GDIIS optimizer.
 FormGI is forming the generalized inverse of G from B-inverse, IUseBI=4.
 Internal  Forces:  Max     0.000136587 RMS     0.000036833
 Search for a local minimum.
 Step number   3 out of a maximum of  100 on scan point     1 out of    37
 All quantities printed in internal units (Hartrees-Bohrs-Radians)
 Mixed Optimization -- En-DIIS/RFO-DIIS
 Swapping is turned off.
 Update second derivatives using D2CorX and points    1    2    3
 DE= -1.19D-06 DEPred=-1.06D-06 R= 1.12D+00
 TightC=F SS=  1.41D+00  RLast= 5.97D-03 DXNew= 5.0454D-01 1.7922D-02
 Trust test= 1.12D+00 RLast= 5.97D-03 DXMaxT set to 3.00D-01
 ITU=  1  1  0
     Eigenvalues ---    0.00343   0.02895   0.03039   0.03635   0.05416
     Eigenvalues ---    0.05495   0.05558   0.05866   0.13413   0.16000
     Eigenvalues ---    0.16000   0.16000   0.16000   0.16000   0.16018
     Eigenvalues ---    0.16098   0.20673   0.22181   0.29262   0.30667
     Eigenvalues ---    0.34236   0.34434   0.34527   0.34629   0.34756
     Eigenvalues ---    0.35106   0.35453   0.36832   0.598001000.00000
     Eigenvalues --- 1000.000001000.000001000.000001000.000001000.00000
     Eigenvalues --- 1000.000001000.000001000.000001000.000001000.00000
     Eigenvalues --- 1000.000001000.000001000.00000
 En-DIIS/RFO-DIIS/Sim-DIIS IScMMF=       -3 using points:     3    2    1
 RFO step:  Lambda=-4.06223762D-07.
 DidBck=F Rises=F RFO-DIIS coefs:    1.02392    0.04482   -0.06874
 Iteration  1 RMS(Cart)=  0.00114316 RMS(Int)=  0.00000066
 Iteration  2 RMS(Cart)=  0.00000085 RMS(Int)=  0.00000030
 Iteration  1 RMS(Cart)=  0.00000000 RMS(Int)=  0.00000000
 Variable       Old X    -DE/DX   Delta X   Delta X   Delta X     New X
                                 (Linear)    (Quad)   (Total)
    R1        2.89287   0.00001  -0.00014   0.00016   0.00002   2.89289
    R2        2.05806   0.00003  -0.00034   0.00039   0.00005   2.05812
    R3        2.05790   0.00003  -0.00039   0.00045   0.00007   2.05797
    R4        2.05970   0.00003  -0.00038   0.00045   0.00006   2.05977
    R5        2.82989  -0.00007  -0.00038  -0.00004  -0.00042   2.82948
    R6        2.06116   0.00003  -0.00037   0.00046   0.00009   2.06124
    R7        2.06537   0.00006  -0.00033   0.00050   0.00018   2.06555
    R8        2.51222   0.00003   0.00016  -0.00007   0.00008   2.51231
    R9        2.05133   0.00004  -0.00050   0.00059   0.00010   2.05143
   R10        2.04490   0.00003  -0.00048   0.00052   0.00004   2.04494
   R11        2.04108   0.00004  -0.00045   0.00052   0.00008   2.04116
    A1        1.93978  -0.00003   0.00005  -0.00042  -0.00038   1.93940
    A2        1.93242   0.00002   0.00016   0.00010   0.00026   1.93268
    A3        1.93630   0.00001   0.00003   0.00010   0.00013   1.93643
    A4        1.88973   0.00001  -0.00011   0.00008  -0.00003   1.88971
    A5        1.88264   0.00001  -0.00007   0.00012   0.00005   1.88269
    A6        1.88088  -0.00001  -0.00006   0.00004  -0.00002   1.88085
    A7        1.95872   0.00006   0.00040   0.00014   0.00054   1.95926
    A8        1.92135  -0.00002  -0.00009  -0.00013  -0.00022   1.92113
    A9        1.90062  -0.00003  -0.00021  -0.00012  -0.00033   1.90029
   A10        1.91007  -0.00001   0.00006   0.00013   0.00019   1.91026
   A11        1.90607  -0.00000   0.00001   0.00004   0.00004   1.90612
   A12        1.86454   0.00000  -0.00019  -0.00007  -0.00026   1.86427
   A13        2.18261   0.00005   0.00022   0.00007   0.00029   2.18290
   A14        2.02405   0.00001  -0.00008   0.00032   0.00024   2.02429
   A15        2.07637  -0.00006  -0.00012  -0.00037  -0.00050   2.07588
   A16        2.11594   0.00002   0.00013   0.00004   0.00018   2.11612
   A17        2.12338  -0.00004  -0.00006  -0.00034  -0.00040   2.12297
   A18        2.04387   0.00003  -0.00007   0.00030   0.00022   2.04409
    D1        3.10872   0.00000  -0.00028  -0.00002  -0.00031   3.10841
    D2       -1.04245   0.00001   0.00000   0.00014   0.00015  -1.04231
    D3        0.99625  -0.00001  -0.00041  -0.00008  -0.00049   0.99576
    D4       -1.07347  -0.00000  -0.00029  -0.00014  -0.00042  -1.07390
    D5        1.05854   0.00001   0.00000   0.00003   0.00003   1.05857
    D6        3.09724  -0.00002  -0.00041  -0.00019  -0.00060   3.09664
    D7        1.01409   0.00001  -0.00024   0.00004  -0.00020   1.01389
    D8       -3.13709   0.00001   0.00004   0.00021   0.00025  -3.13683
    D9       -1.09838  -0.00001  -0.00037  -0.00002  -0.00038  -1.09877
   D10        3.08608   0.00014   0.00000   0.00000   0.00000   3.08608
   D11        0.01556  -0.00002  -0.00020  -0.00054  -0.00074   0.01482
   D12       -3.12786  -0.00005  -0.00028  -0.00121  -0.00149  -3.12935
   D13        3.13785   0.00004   0.00017   0.00085   0.00102   3.13887
   D14       -0.00557   0.00002   0.00009   0.00018   0.00027  -0.00530
         Item               Value     Threshold  Converged?
 Maximum Force            0.000073     0.000450     YES
 RMS     Force            0.000031     0.000300     YES
 Maximum Displacement     0.003354     0.001800     NO 
 RMS     Displacement     0.001143     0.001200     YES
 Predicted change in Energy=-1.998731D-07
 GradGradGradGradGradGradGradGradGradGradGradGradGradGradGradGradGradGrad

                          Input orientation:                          
 ---------------------------------------------------------------------
 Center     Atomic      Atomic             Coordinates (Angstroms)
 Number     Number       Type             X           Y           Z
 ---------------------------------------------------------------------
      1          6           0       -1.711044   -0.260163   -0.293570
      2          6           0       -0.539415    0.529678    0.295448
      3          1           0       -2.623033    0.335165   -0.297705
      4          1           0       -1.496133   -0.562698   -1.317421
      5          1           0       -1.903414   -1.162711    0.286480
      6          6           0        0.717993   -0.281020    0.355371
      7          1           0       -0.362577    1.431312   -0.292386
      8          1           0       -0.804889    0.856790    1.304042
      9          6           0        1.846254    0.010802   -0.284408
     10          1           0        0.675782   -1.180014    0.962407
     11          1           0        1.928790    0.895894   -0.901510
     12          1           0        2.719277   -0.620885   -0.210288
 ---------------------------------------------------------------------
                    Distance matrix (angstroms):
                    1          2          3          4          5
     1  C    0.000000
     2  C    1.530851   0.000000
     3  H    1.089108   2.175117   0.000000
     4  H    1.089030   2.170240   1.765186   0.000000
     5  H    1.089981   2.173650   1.761465   1.760225   0.000000
     6  C    2.514315   1.497296   3.459574   2.789253   2.766568
     7  H    2.163204   1.090764   2.512217   2.512314   3.072169
     8  H    2.149666   1.093042   2.478576   3.060201   2.514076
     9  C    3.567615   2.509359   4.481062   3.545077   3.970271
    10  H    2.849657   2.201041   3.842633   3.208724   2.666350
    11  H    3.867098   2.767464   4.625807   3.745740   4.509430
    12  H    4.445762   3.492654   5.427887   4.358763   4.680771
                    6          7          8          9         10
     6  C    0.000000
     7  H    2.125865   0.000000
     8  H    2.124560   1.753367   0.000000
     9  C    1.329455   2.626185   3.204282   0.000000
    10  H    1.085571   3.077616   2.541195   2.083889   0.000000
    11  H    2.104972   2.430651   3.512689   1.082135   3.058367
    12  H    2.107277   3.703522   4.110530   1.080135   2.421510
                   11         12
    11  H    0.000000
    12  H    1.844798   0.000000
 Symmetry turned off by external request.
 Stoichiometry    C4H8
 Framework group  C1[X(C4H8)]
 Deg. of freedom    30
 Full point group                 C1      NOp   1
 Rotational constants (GHZ):          22.5524034           4.1837307           4.0922927
 Standard basis: CC-pVTZ (5D, 7F)
   232 basis functions,   344 primitive gaussians,   260 cartesian basis functions
    16 alpha electrons       16 beta electrons
       nuclear repulsion energy       117.4714288660 Hartrees.
 NAtoms=   12 NActive=   12 NUniq=   12 SFac= 1.00D+00 NAtFMM=   60 NAOKFM=F Big=F
 Integral buffers will be    131072 words long.
 Raffenetti 2 integral format.
 Two-electron integral symmetry is turned off.
 Nuclear repulsion after empirical dispersion term =      117.4657675683 Hartrees.
 One-electron integrals computed using PRISM.
 NBasis=   232 RedAO= T EigKep=  4.53D-04  NBF=   232
 NBsUse=   232 1.00D-06 EigRej= -1.00D+00 NBFU=   232
 Initial guess from the checkpoint file:  "/localscratch/339543/Gau-88077.chk"
 B after Tr=     0.000037   -0.000178   -0.000361
         Rot=    1.000000   -0.000026   -0.000009   -0.000014 Ang=  -0.00 deg.
 Initial guess <Sx>= 0.0000 <Sy>= 0.0000 <Sz>= 0.0000 <S**2>= 0.0000 S= 0.0000
 Keep R1 and R2 ints in memory in canonical form, NReq=774238648.
 Requested convergence on RMS density matrix=1.00D-08 within 500 cycles.
 Requested convergence on MAX density matrix=1.00D-06.
 Requested convergence on             energy=1.00D-06.
 No special actions if energy rises.
 SCF Done:  E(UB2PLYPD3) =  -156.901836875     A.U. after    7 cycles
            NFock=  7  Conv=0.31D-08     -V/T= 2.0048
 <Sx>= 0.0000 <Sy>= 0.0000 <Sz>= 0.0000 <S**2>=-0.0000 S=-0.0000
 <L.S>=  0.00000000000    
 Annihilation of the first spin contaminant:
 S**2 before annihilation    -0.0000,   after    -0.0000
 DoSCS=T DFT=T ScalE2(SS,OS)=  0.270000  0.270000
 ExpMin= 1.03D-01 ExpMax= 8.24D+03 ExpMxC= 2.81D+02 IAcc=3 IRadAn=         5 AccDes= 0.00D+00
 HarFok:  IExCor=  205 AccDes= 0.00D+00 IRadAn=         5 IDoV=-2 UseB2=F ITyADJ=14
 ICtDFT= 12500011 ScaDFX=  1.000000  1.000000  1.000000  1.000000
 Range of M.O.s used for correlation:     5   232
 NBasis=   232 NAE=    16 NBE=    16 NFC=     4 NFV=     0
 NROrb=    228 NOA=    12 NOB=    12 NVA=   216 NVB=   216

 **** Warning!!: The largest alpha MO coefficient is  0.11630350D+02


 **** Warning!!: The largest beta MO coefficient is  0.11630350D+02

 DoSCS=T DFT=T ScalE2(SS,OS)=  0.270000  0.270000
 Fully direct method using O(ONN) memory.
 JobTyp=2 Pass  1:  I=   5 to  16 NPSUse= 40 ParTrn=T ParDer=T DoDerP=T.
 JobTyp=3 Pass  1:  I=   5 to  16 NPSUse= 40 ParTrn=T ParDer=T DoDerP=T.
 Spin components of T(2) and E(2):
     alpha-alpha T2 =       0.3978934483D-01 E2=     -0.2492405229D-01
     alpha-beta  T2 =       0.2583342426D+00 E2=     -0.1736003919D+00
     beta-beta   T2 =       0.3978934483D-01 E2=     -0.2492405229D-01
 (S**2,0)=  0.00000D+00           (S**2,1)=  0.00000D+00
 E(PUHF)=      -0.15690183688D+03        E(PMP2)=      -0.15712528537D+03
 E2(B2PLYPD3) =    -0.2234484965D+00 E(B2PLYPD3) =    -0.15712528537158D+03
          IDoAtm=111111111111
          Differentiating once with respect to electric field.
                with respect to dipole field.
          Differentiating once with respect to nuclear coordinates.
 Keep R1 and R2 ints in memory in canonical form, NReq=774247682.
          There are     1 degrees of freedom in the 1st order CPHF.  IDoFFX=0 NUNeed=     1.
 LinEq1:  Iter=  0 NonCon=     1 RMS=5.51D-04 Max=7.13D-03 NDo=     1
 AX will form     1 AO Fock derivatives at one time.
 LinEq1:  Iter=  1 NonCon=     1 RMS=2.20D-04 Max=2.80D-03 NDo=     1
 LinEq1:  Iter=  2 NonCon=     1 RMS=5.90D-05 Max=1.63D-03 NDo=     1
 LinEq1:  Iter=  3 NonCon=     1 RMS=3.32D-05 Max=8.37D-04 NDo=     1
 LinEq1:  Iter=  4 NonCon=     1 RMS=8.89D-06 Max=1.29D-04 NDo=     1
[...]
  Beta virt. eigenvalues --    0.06869   0.08975   0.11072   0.11561   0.13061
  Beta virt. eigenvalues --    0.15766   0.16846   0.17074   0.18637   0.22862
  Beta virt. eigenvalues --    0.26302   0.29957   0.31547   0.32723   0.33844
  Beta virt. eigenvalues --    0.36157   0.37772   0.39962   0.43704   0.48005
  Beta virt. eigenvalues --    0.48340   0.49568   0.51269   0.51641   0.52335
  Beta virt. eigenvalues --    0.53783   0.53989   0.54719   0.57132   0.57934
  Beta virt. eigenvalues --    0.58840   0.62498   0.65363   0.69604   0.70900
  Beta virt. eigenvalues --    0.72045   0.77762   0.78920   0.80375   0.82854
  Beta virt. eigenvalues --    0.88069   0.92699   0.96261   0.97477   0.99644
  Beta virt. eigenvalues --    1.01586   1.05260   1.08571   1.09423   1.13224
  Beta virt. eigenvalues --    1.15060   1.16042   1.17436   1.18474   1.18716
  Beta virt. eigenvalues --    1.21046   1.24325   1.24991   1.25803   1.27051
  Beta virt. eigenvalues --    1.28829   1.33886   1.36237   1.38581   1.40340
  Beta virt. eigenvalues --    1.41005   1.45160   1.46647   1.48541   1.51073
  Beta virt. eigenvalues --    1.54091   1.55428   1.57072   1.60538   1.62770
  Beta virt. eigenvalues --    1.66914   1.68493   1.71915   1.80009   1.98902
  Beta virt. eigenvalues --    2.18838   2.24086   2.35198   2.36101   2.39170
  Beta virt. eigenvalues --    2.39391   2.44625   2.46299   2.49521   2.56360
  Beta virt. eigenvalues --    2.57425   2.59431   2.62945   2.66657   2.67937
  Beta virt. eigenvalues --    2.68695   2.77177   2.79353   2.82383   2.85613
  Beta virt. eigenvalues --    2.87667   2.89559   2.92814   2.93921   2.94653
  Beta virt. eigenvalues --    2.97964   3.00247   3.01124   3.01815   3.03203
  Beta virt. eigenvalues --    3.06765   3.09769   3.11467   3.12647   3.14201
  Beta virt. eigenvalues --    3.15680   3.17728   3.20755   3.21686   3.24012
  Beta virt. eigenvalues --    3.26447   3.28545   3.30217   3.31319   3.32991
  Beta virt. eigenvalues --    3.38043   3.39520   3.41397   3.44062   3.46119
  Beta virt. eigenvalues --    3.48447   3.49723   3.55953   3.57582   3.60338
  Beta virt. eigenvalues --    3.61950   3.62906   3.68186   3.70658   3.74191
  Beta virt. eigenvalues --    3.74869   3.79715   3.81465   3.84295   3.85607
  Beta virt. eigenvalues --    3.86642   3.89411   3.91625   3.94239   3.97694
  Beta virt. eigenvalues --    3.98268   4.00038   4.03752   4.05632   4.06781
  Beta virt. eigenvalues --    4.07364   4.11067   4.13212   4.16394   4.18224
  Beta virt. eigenvalues --    4.18940   4.19564   4.22789   4.24389   4.26391
  Beta virt. eigenvalues --    4.29772   4.34617   4.38444   4.40438   4.42532
  Beta virt. eigenvalues --    4.44859   4.48046   4.49901   4.53073   4.57797
  Beta virt. eigenvalues --    4.64071   4.65153   4.68495   4.70436   4.81796
  Beta virt. eigenvalues --    4.84100   4.91528   4.95917   4.97404   5.00329
  Beta virt. eigenvalues --    5.01928   5.02360   5.05601   5.12084   5.13633
  Beta virt. eigenvalues --    5.15420   5.17127   5.24167   5.31861   5.34399
  Beta virt. eigenvalues --    5.37638   5.40757   5.49346   5.50247   5.51571
  Beta virt. eigenvalues --    5.54528   5.56318   5.62951   5.64564   5.67784
  Beta virt. eigenvalues --    5.81943   6.04487   6.05694   6.06990   6.11599
  Beta virt. eigenvalues --    6.18770   6.43933  11.24150  12.99673  13.66057
  Beta virt. eigenvalues --   14.36822
          Condensed to atoms (all electrons):
               1          2          3          4          5          6
     1  C    4.866330   0.343564   0.406231   0.402222   0.407738  -0.056379
     2  C    0.343564   4.811794  -0.035127  -0.035407  -0.036598   0.360185
     3  H    0.406231  -0.035127   0.591261  -0.028503  -0.031608   0.008314
     4  H    0.402222  -0.035407  -0.028503   0.588547  -0.031548  -0.000081
     5  H    0.407738  -0.036598  -0.031608  -0.031548   0.597897  -0.003208
     6  C   -0.056379   0.360185   0.008314  -0.000081  -0.003208   4.918805
     7  H   -0.033266   0.415752  -0.005212  -0.005024   0.007093  -0.041620
     8  H   -0.041738   0.420809  -0.003975   0.008172  -0.004993  -0.040950
     9  C    0.000041  -0.060641  -0.000172   0.002714   0.000450   0.634500
    10  H   -0.001353  -0.040795  -0.000299   0.000197   0.003094   0.409122
    11  H    0.000091  -0.006640  -0.000052   0.000191   0.000034  -0.050390
    12  H   -0.000375   0.006651   0.000028  -0.000086  -0.000017  -0.046722
               7          8          9         10         11         12
     1  C   -0.033266  -0.041738   0.000041  -0.001353   0.000091  -0.000375
     2  C    0.415752   0.420809  -0.060641  -0.040795  -0.006640   0.006651
     3  H   -0.005212  -0.003975  -0.000172  -0.000299  -0.000052   0.000028
     4  H   -0.005024   0.008172   0.002714   0.000197   0.000191  -0.000086
     5  H    0.007093  -0.004993   0.000450   0.003094   0.000034  -0.000017
     6  C   -0.041620  -0.040950   0.634500   0.409122  -0.050390  -0.046722
     7  H    0.598561  -0.034446  -0.003381   0.006347   0.004482  -0.000029
     8  H   -0.034446   0.602947   0.001576  -0.003340   0.000213  -0.000388
     9  C   -0.003381   0.001576   4.954565  -0.043083   0.409731   0.420625
    10  H    0.006347  -0.003340  -0.043083   0.544936   0.006922  -0.008369
    11  H    0.004482   0.000213   0.409731   0.006922   0.553099  -0.036218
    12  H   -0.000029  -0.000388   0.420625  -0.008369  -0.036218   0.541141
          Atomic-Atomic Spin Densities.
               1          2          3          4          5          6
     1  C   -0.000000  -0.000000  -0.000000   0.000000   0.000000   0.000000
     2  C   -0.000000  -0.000000   0.000000  -0.000000  -0.000000   0.000000
     3  H   -0.000000   0.000000   0.000000   0.000000   0.000000   0.000000
     4  H    0.000000  -0.000000   0.000000  -0.000000  -0.000000  -0.000000
     5  H    0.000000  -0.000000   0.000000  -0.000000  -0.000000   0.000000
     6  C    0.000000   0.000000   0.000000  -0.000000   0.000000   0.000000
     7  H    0.000000  -0.000000  -0.000000   0.000000   0.000000   0.000000
     8  H   -0.000000   0.000000  -0.000000   0.000000  -0.000000  -0.000000
     9  C   -0.000000  -0.000000   0.000000   0.000000   0.000000  -0.000000
    10  H    0.000000   0.000000  -0.000000   0.000000   0.000000   0.000000
    11  H    0.000000   0.000000  -0.000000   0.000000   0.000000  -0.000000
    12  H   -0.000000  -0.000000   0.000000  -0.000000  -0.000000   0.000000
               7          8          9         10         11         12
     1  C    0.000000  -0.000000  -0.000000   0.000000   0.000000  -0.000000
     2  C   -0.000000   0.000000  -0.000000   0.000000   0.000000  -0.000000
     3  H   -0.000000  -0.000000   0.000000  -0.000000  -0.000000   0.000000
     4  H    0.000000   0.000000   0.000000   0.000000   0.000000  -0.000000
     5  H    0.000000  -0.000000   0.000000   0.000000   0.000000  -0.000000
     6  C    0.000000  -0.000000  -0.000000   0.000000  -0.000000   0.000000
     7  H    0.000000   0.000000   0.000000   0.000000  -0.000000  -0.000000
     8  H    0.000000   0.000000  -0.000000   0.000000  -0.000000   0.000000
     9  C    0.000000  -0.000000  -0.000000   0.000000   0.000000  -0.000000
    10  H    0.000000   0.000000   0.000000  -0.000000  -0.000000   0.000000
    11  H   -0.000000  -0.000000   0.000000  -0.000000   0.000000  -0.000000
    12  H   -0.000000   0.000000  -0.000000   0.000000  -0.000000  -0.000000
 Mulliken charges and spin densities:
               1          2
     1  C   -0.293107  -0.000000
     2  C   -0.143548  -0.000000
     3  H    0.099114   0.000000
     4  H    0.098606   0.000000
     5  H    0.091666  -0.000000
     6  C   -0.091575   0.000000
     7  H    0.090744   0.000000
     8  H    0.096112   0.000000
     9  C   -0.316925  -0.000000
    10  H    0.126620   0.000000
    11  H    0.118536   0.000000
    12  H    0.123757  -0.000000
 Sum of Mulliken charges =  -0.00000  -0.00000
 Mulliken charges and spin densities with hydrogens summed into heavy atoms:
               1          2
     1  C   -0.003722  -0.000000
     2  C    0.043308  -0.000000
     6  C    0.035045   0.000000
     9  C   -0.074631  -0.000000
 Electronic spatial extent (au):  <R**2>=            365.8396
 Charge=              0.0000 electrons
 Dipole moment (field-independent basis, Debye):
    X=             -0.3400    Y=              0.1797    Z=             -0.0333  Tot=              0.3860
 Quadrupole moment (field-independent basis, Debye-Ang):
   XX=            -26.7465   YY=            -25.9593   ZZ=            -28.2983
   XY=             -0.0723   XZ=              0.9918   YZ=              0.7509
 Traceless Quadrupole moment (field-independent basis, Debye-Ang):
   XX=              0.2549   YY=              1.0421   ZZ=             -1.2969
   XY=             -0.0723   XZ=              0.9918   YZ=              0.7509
 Octapole moment (field-independent basis, Debye-Ang**2):
  XXX=              1.6576  YYY=              1.0876  ZZZ=              5.9693  XYY=              0.5794
  XXY=             -0.4804  XXZ=              3.2598  XZZ=             -2.1918  YZZ=              0.7467
  YYZ=              0.8885  XYZ=              1.1248
 Hexadecapole moment (field-independent basis, Debye-Ang**3):
 XXXX=           -323.7396 YYYY=            -92.5555 ZZZZ=            -87.1790 XXXY=             40.3903
 XXXZ=             30.7275 YYYX=             43.0057 YYYZ=             -5.8963 ZZZX=             24.1068
 ZZZY=             -9.9688 XXYY=            -72.0454 XXZZ=            -75.0414 YYZZ=            -28.5114
 XXYZ=             -2.6939 YYXZ=              6.7778 ZZXY=             15.2428
 N-N= 1.174647285901D+02 E-N=-5.982216639380D+02  KE= 1.561596340700D+02
                          Isotropic Fermi Contact Couplings
        Atom                 a.u.       MegaHertz       Gauss      10(-4) cm-1
     1  C(13)              0.00000       0.00000       0.00000       0.00000
     2  C(13)             -0.00000      -0.00000      -0.00000      -0.00000
     3  H(1)               0.00000       0.00000       0.00000       0.00000
     4  H(1)              -0.00000      -0.00000      -0.00000      -0.00000
     5  H(1)              -0.00000      -0.00000      -0.00000      -0.00000
     6  C(13)              0.00000       0.00000       0.00000       0.00000
     7  H(1)              -0.00000      -0.00000      -0.00000      -0.00000
     8  H(1)               0.00000       0.00000       0.00000       0.00000
     9  C(13)             -0.00000      -0.00000      -0.00000      -0.00000
    10  H(1)               0.00000       0.00000       0.00000       0.00000
    11  H(1)               0.00000       0.00000       0.00000       0.00000
    12  H(1)              -0.00000      -0.00000      -0.00000      -0.00000
 --------------------------------------------------------
       Center         ----  Spin Dipole Couplings  ----
                      3XX-RR        3YY-RR        3ZZ-RR
 --------------------------------------------------------
     1   Atom        0.000000      0.000000      0.000000
     2   Atom        0.000000      0.000000      0.000000
     3   Atom        0.000000      0.000000      0.000000
     4   Atom        0.000000      0.000000      0.000000
     5   Atom        0.000000      0.000000      0.000000
     6   Atom        0.000000      0.000000      0.000000
     7   Atom        0.000000      0.000000      0.000000
     8   Atom        0.000000      0.000000      0.000000
     9   Atom        0.000000      0.000000      0.000000
    10   Atom        0.000000      0.000000      0.000000
    11   Atom        0.000000      0.000000      0.000000
    12   Atom        0.000000      0.000000      0.000000
 --------------------------------------------------------
                        XY            XZ            YZ
 --------------------------------------------------------
     1   Atom        0.000000      0.000000      0.000000
     2   Atom        0.000000      0.000000      0.000000
     3   Atom        0.000000      0.000000      0.000000
     4   Atom        0.000000      0.000000      0.000000
     5   Atom        0.000000      0.000000      0.000000
     6   Atom        0.000000      0.000000      0.000000
     7   Atom        0.000000      0.000000      0.000000
     8   Atom        0.000000      0.000000      0.000000
     9   Atom        0.000000      0.000000      0.000000
    10   Atom        0.000000      0.000000      0.000000
    11   Atom        0.000000      0.000000      0.000000
    12   Atom        0.000000      0.000000      0.000000
 --------------------------------------------------------


 ---------------------------------------------------------------------------------
              Anisotropic Spin Dipole Couplings in Principal Axis System
 ---------------------------------------------------------------------------------

       Atom             a.u.   MegaHertz   Gauss  10(-4) cm-1        Axes

              Baa     0.0000     0.000     0.000     0.000  1.0000  0.0000  0.0000
     1 C(13)  Bbb     0.0000     0.000     0.000     0.000 -0.0000  1.0000  0.0000
              Bcc     0.0000     0.000     0.000     0.000  0.0000  0.0000  1.0000
 
              Baa     0.0000     0.000     0.000     0.000  1.0000  0.0000  0.0000
     2 C(13)  Bbb     0.0000     0.000     0.000     0.000 -0.0000  1.0000  0.0000
              Bcc     0.0000     0.000     0.000     0.000  0.0000  0.0000  1.0000
 
              Baa     0.0000     0.000     0.000     0.000  1.0000  0.0000  0.0000
     3 H(1)   Bbb     0.0000     0.000     0.000     0.000 -0.0000  1.0000  0.0000
              Bcc     0.0000     0.000     0.000     0.000  0.0000  0.0000  1.0000
 
              Baa     0.0000     0.000     0.000     0.000  1.0000  0.0000  0.0000
     4 H(1)   Bbb     0.0000     0.000     0.000     0.000 -0.0000  1.0000  0.0000
              Bcc     0.0000     0.000     0.000     0.000  0.0000  0.0000  1.0000
 
              Baa     0.0000     0.000     0.000     0.000  1.0000  0.0000  0.0000
     5 H(1)   Bbb     0.0000     0.000     0.000     0.000 -0.0000  1.0000  0.0000
              Bcc     0.0000     0.000     0.000     0.000  0.0000  0.0000  1.0000
 
              Baa     0.0000     0.000     0.000     0.000  1.0000  0.0000  0.0000
     6 C(13)  Bbb     0.0000     0.000     0.000     0.000 -0.0000  1.0000  0.0000
              Bcc     0.0000     0.000     0.000     0.000  0.0000  0.0000  1.0000
 
              Baa     0.0000     0.000     0.000     0.000  1.0000  0.0000  0.0000
     7 H(1)   Bbb     0.0000     0.000     0.000     0.000 -0.0000  1.0000  0.0000
              Bcc     0.0000     0.000     0.000     0.000  0.0000  0.0000  1.0000
 
              Baa     0.0000     0.000     0.000     0.000  1.0000  0.0000  0.0000
     8 H(1)   Bbb     0.0000     0.000     0.000     0.000 -0.0000  1.0000  0.0000
              Bcc     0.0000     0.000     0.000     0.000  0.0000  0.0000  1.0000
 
              Baa     0.0000     0.000     0.000     0.000  1.0000  0.0000  0.0000
     9 C(13)  Bbb     0.0000     0.000     0.000     0.000 -0.0000  1.0000  0.0000
              Bcc     0.0000     0.000     0.000     0.000  0.0000  0.0000  1.0000
 
              Baa     0.0000     0.000     0.000     0.000  1.0000  0.0000  0.0000
    10 H(1)   Bbb     0.0000     0.000     0.000     0.000 -0.0000  1.0000  0.0000
              Bcc     0.0000     0.000     0.000     0.000  0.0000  0.0000  1.0000
 
              Baa     0.0000     0.000     0.000     0.000  1.0000  0.0000  0.0000
    11 H(1)   Bbb     0.0000     0.000     0.000     0.000 -0.0000  1.0000  0.0000
              Bcc     0.0000     0.000     0.000     0.000  0.0000  0.0000  1.0000
 
              Baa     0.0000     0.000     0.000     0.000  1.0000  0.0000  0.0000
    12 H(1)   Bbb     0.0000     0.000     0.000     0.000 -0.0000  1.0000  0.0000
              Bcc     0.0000     0.000     0.000     0.000  0.0000  0.0000  1.0000
 

 ---------------------------------------------------------------------------------

 1\1\GINC-N69\Scan\UB2PLYPD3-FC\CC-pVTZ\C4H8\ROOT\31-May-2019\0\\# opt=
 (maxcyc=500,modredundant) uB2PLYPD3/cc-pvtz scf=maxcyc=500 nosymm\\Tit
 le Card Required\\0,1\C,-1.5892481597,0.3768794122,0.5700369823\C,-0.6
 04416621,0.1681457317,-0.5832277372\H,-2.61731425,0.3899555408,0.21073
 26046\H,-1.4949648818,-0.4198697097,1.3064522768\H,-1.4002361887,1.322
 8486045,1.0774912884\C,0.8204131674,0.1914765873,-0.1236776424\H,-0.80
 91866279,-0.7792114551,-1.0836224563\H,-0.7558849467,0.9567090085,-1.3
 248736417\C,1.6743280874,-0.8218746747,-0.23040686\H,1.1543142805,1.11
 2815999,0.34341982\H,1.3802760709,-1.75793047,-0.6868871898\H,2.689511
 0696,-0.7477955746,0.1310225554\\Version=ES64L-G16RevB.01\HF=-156.9018
 369,-156.9016667,-156.9011049,-156.9002846,-156.8994102,-156.8987265,-
 156.898436,-156.8986318,-156.8992472,-156.9000906,-156.9009287,-156.90
 15571,-156.901834,-156.9016949,-156.9011569,-156.9003248,-156.8993759,
 -156.8985353,-156.8980212,-156.8979911,-156.8985056,-156.8994193,-156.
 9003885,-156.9010937,-156.9013389,-156.9010747,-156.9003736,-156.89943
 52,-156.8985573,-156.8980272,-156.8979745,-156.8983713,-156.899116,-15
 6.900039,-156.9009254,-156.9015708,-156.9018362\MP2=-157.1252854,-157.
 1250971,-157.1245271,-157.1237034,-157.122827,-157.122137,-157.1218428
 ,-157.1220391,-157.1226572,-157.123502,-157.1243419,-157.124977,-157.1
 25273,-157.125171,-157.1246856,-157.1239134,-157.1230211,-157.1222235,
 -157.1217327,-157.1217087,-157.1222244,-157.1231418,-157.1241073,-157.
 1248029,-157.1250474,-157.1247911,-157.124103,-157.1231727,-157.122290
 7,-157.121752,-157.1216838,-157.1220502,-157.1227508,-157.1236209,-157
 .1244531,-157.1250529,-157.1252852\PUHF=-156.9018369,-156.9016667,-156
 .9011049,-156.9002846,-156.8994102,-156.8987265,-156.898436,-156.89863
 18,-156.8992472,-156.9000906,-156.9009287,-156.9015571,-156.901834,-15
 6.9016949,-156.9011569,-156.9003248,-156.8993759,-156.8985353,-156.898
 0212,-156.8979911,-156.8985056,-156.8994193,-156.9003885,-156.9010937,
 -156.9013389,-156.9010747,-156.9003736,-156.8994352,-156.8985573,-156.
 8980272,-156.8979745,-156.8983713,-156.899116,-156.900039,-156.9009254
 ,-156.9015708,-156.9018362\PMP2-0=-157.1252854,-157.1250971,-157.12452
 71,-157.1237034,-157.122827,-157.122137,-157.1218428,-157.1220391,-157
 .1226572,-157.123502,-157.1243419,-157.124977,-157.125273,-157.125171,
 -157.1246856,-157.1239134,-157.1230211,-157.1222235,-157.1217327,-157.
 1217087,-157.1222244,-157.1231418,-157.1241073,-157.1248029,-157.12504
 74,-157.1247911,-157.124103,-157.1231727,-157.1222907,-157.121752,-157
 .1216838,-157.1220502,-157.1227508,-157.1236209,-157.1244531,-157.1250
 529,-157.1252852\S2=0.,0.,0.,0.,0.,0.,0.,0.,0.,0.,0.,0.,0.,0.,0.,0.,0.
 ,0.,0.,0.,0.,0.,0.,0.,0.,0.,0.,0.,0.,0.,0.,0.,0.,0.,0.,0.,0.\S2-1=0.,0
 .,0.,0.,0.,0.,0.,0.,0.,0.,0.,0.,0.,0.,0.,0.,0.,0.,0.,0.,0.,0.,0.,0.,0.
 ,0.,0.,0.,0.,0.,0.,0.,0.,0.,0.,0.,0.\S2A=0.,0.,0.,0.,0.,0.,0.,0.,0.,0.
 ,0.,0.,0.,0.,0.,0.,0.,0.,0.,0.,0.,0.,0.,0.,0.,0.,0.,0.,0.,0.,0.,0.,0.,
 0.,0.,0.,0.\RMSD=3.065e-09,4.929e-09,5.570e-09,4.502e-09,4.031e-09,9.1
 93e-09,4.693e-09,8.450e-09,1.060e-09,4.064e-09,6.276e-09,6.533e-09,1.8
 16e-09,9.365e-09,7.804e-09,5.395e-09,3.818e-09,4.922e-09,3.515e-09,8.8
 20e-09,5.485e-09,5.113e-09,3.497e-09,2.725e-09,2.314e-09,1.438e-09,3.7
 25e-09,3.221e-09,5.774e-09,3.319e-09,5.182e-09,2.989e-09,4.176e-09,3.0
 93e-09,4.881e-09,5.285e-09,8.901e-09\PG=C01 [X(C4H8)]\\@


 A successful marriage requires falling in love
 many times, always with the same person.
                           -- Mignon McLaughlin
 Job cpu time:       2 days 18 hours  1 minutes 15.9 seconds.
 Elapsed time:       0 days  2 hours 21 minutes 27.8 seconds.
 File lengths (MBytes):  RWF=     51 Int=      0 D2E=      0 Chk=     12 Scr=      1
 Normal termination of Gaussian 16 at Fri May 31 20:21:14 2019.
