 Entering Gaussian System, Link 0=g16
 Initial command:
 /ichec/packages/gaussian/16b01/l1.exe "/localscratch/339542/Gau-25683.inp" -scrdir="/localscratch/339542/"
 Entering Link 1 = /ichec/packages/gaussian/16b01/l1.exe PID=     25684.
  
 Copyright (c) 1988-2017, Gaussian, Inc.  All Rights Reserved.
  
 This is part of the Gaussian(R) 16 program.  It is based on
 the Gaussian(R) 09 system (copyright 2009, Gaussian, Inc.),
 the Gaussian(R) 03 system (copyright 2003, Gaussian, Inc.),
 the Gaussian(R) 98 system (copyright 1998, Gaussian, Inc.),
 the Gaussian(R) 94 system (copyright 1995, Gaussian, Inc.),
 the Gaussian 92(TM) system (copyright 1992, Gaussian, Inc.),
 the Gaussian 90(TM) system (copyright 1990, Gaussian, Inc.),
 the Gaussian 88(TM) system (copyright 1988, Gaussian, Inc.),
 the Gaussian 86(TM) system (copyright 1986, Carnegie Mellon
 University), and the Gaussian 82(TM) system (copyright 1983,
 Carnegie Mellon University). Gaussian is a federally registered
 trademark of Gaussian, Inc.
  
 This software contains proprietary and confidential information,
 including trade secrets, belonging to Gaussian, Inc.
  
 This software is provided under written license and may be
 used, copied, transmitted, or stored only in accord with that
 written license.
  
 The following legend is applicable only to US Government
 contracts under FAR:
  
                    RESTRICTED RIGHTS LEGEND
  
 Use, reproduction and disclosure by the US Government is
 subject to restrictions as set forth in subparagraphs (a)
 and (c) of the Commercial Computer Software - Restricted
 Rights clause in FAR 52.227-19.
  
 Gaussian, Inc.
 340 Quinnipiac St., Bldg. 40, Wallingford CT 06492
  
  
 ---------------------------------------------------------------
 Warning -- This program may not be used in any manner that
 competes with the business of Gaussian, Inc. or will provide
 assistance to any competitor of Gaussian, Inc.  The licensee
 of this program is prohibited from giving any competitor of
 Gaussian, Inc. access to this program.  By using this program,
 the user acknowledges that Gaussian, Inc. is engaged in the
 business of creating and licensing software in the field of
 computational chemistry and represents and warrants to the
 licensee that it is not a competitor of Gaussian, Inc. and that
 it will not use this program in any manner prohibited above.
 ---------------------------------------------------------------
  

 Cite this work as:
 Gaussian 16, Revision B.01,
 M. J. Frisch, G. W. Trucks, H. B. Schlegel, G. E. Scuseria, 
 M. A. Robb, J. R. Cheeseman, G. Scalmani, V. Barone, 
 G. A. Petersson, H. Nakatsuji, X. Li, M. Caricato, A. V. Marenich, 
 J. Bloino, B. G. Janesko, R. Gomperts, B. Mennucci, H. P. Hratchian, 
 J. V. Ortiz, A. F. Izmaylov, J. L. Sonnenberg, D. Williams-Young, 
 F. Ding, F. Lipparini, F. Egidi, J. Goings, B. Peng, A. Petrone, 
 T. Henderson, D. Ranasinghe, V. G. Zakrzewski, J. Gao, N. Rega, 
 G. Zheng, W. Liang, M. Hada, M. Ehara, K. Toyota, R. Fukuda, 
 J. Hasegawa, M. Ishida, T. Nakajima, Y. Honda, O. Kitao, H. Nakai, 
 T. Vreven, K. Throssell, J. A. Montgomery, Jr., J. E. Peralta, 
 F. Ogliaro, M. J. Bearpark, J. J. Heyd, E. N. Brothers, K. N. Kudin, 
 V. N. Staroverov, T. A. Keith, R. Kobayashi, J. Normand, 
 K. Raghavachari, A. P. Rendell, J. C. Burant, S. S. Iyengar, 
 J. Tomasi, M. Cossi, J. M. Millam, M. Klene, C. Adamo, R. Cammi, 
 J. W. Ochterski, R. L. Martin, K. Morokuma, O. Farkas, 
 J. B. Foresman, and D. J. Fox, Gaussian, Inc., Wallingford CT, 2016.
 
 ******************************************
 Gaussian 16:  ES64L-G16RevB.01 20-Dec-2017
                31-May-2019 
 ******************************************
 %mem=80GB
 %nproc=40
 Will use up to   40 processors via shared memory.
 -----------------------------------------------
 # opt=maxcyc=500 freq=noraman uB2PLYPD3/cc-pvtz
 -----------------------------------------------
 1/6=500,18=20,19=15,38=1/1,3;
 2/9=110,12=2,17=6,18=5,40=1/2;
 3/5=16,6=1,11=2,25=1,30=1,71=1,74=-60,116=2/1,2,3;
 4//1;
 5/5=2,38=5/2;
 8/6=4,10=1/1;
 9/15=2,16=-3/6;
 10/5=1/2;
 6/7=2,8=2,9=2,10=2/1;
 7/12=2/1,2,3,16;
 1/6=500,18=20,19=15/3(2);
 2/9=110/2;
 99//99;
 2/9=110/2;
 3/5=16,6=1,11=2,25=1,30=1,71=1,74=-60,116=2/1,2,3;
 4/5=5,16=3,69=1/1;
 5/5=2,38=5/2;
 8/6=4,10=1/1;
 9/15=2,16=-3/6;
 10/5=1/2;
 7/12=2/1,2,3,16;
 1/6=500,18=20,19=15/3(-8);
 2/9=110/2;
 6/7=2,8=2,9=2,10=2/1;
 99/9=10/99;
 -------------------
 Title Card Required
 -------------------
 Symbolic Z-matrix:
 Charge =  0 Multiplicity = 1
 C                    -1.70747  -0.26021  -0.29476 
 C                    -0.54081   0.5344    0.30039 
 H                    -2.62306   0.33425  -0.30692 
 H                    -1.48118  -0.56473  -1.3187 
 H                    -1.90108  -1.1643    0.28797 
 C                     0.71761  -0.28114   0.35972 
 H                    -0.35989   1.43748  -0.28917 
 H                    -0.80769   0.86001   1.31168 
 C                     1.84115   0.00852  -0.28664 
 H                     0.67402  -1.18337   0.9686 
 H                     1.91899   0.89715  -0.90577 
 H                     2.71699  -0.6259   -0.21994 
 

 GradGradGradGradGradGradGradGradGradGradGradGradGradGradGradGradGradGrad
 Berny optimization.
 Initialization pass.
                           ----------------------------
                           !    Initial Parameters    !
                           ! (Angstroms and Degrees)  !
 --------------------------                            --------------------------
 ! Name  Definition              Value          Derivative Info.                !
 --------------------------------------------------------------------------------
 ! R1    R(1,2)                  1.5319         estimate D2E/DX2                !
 ! R2    R(1,3)                  1.0917         estimate D2E/DX2                !
 ! R3    R(1,4)                  1.092          estimate D2E/DX2                !
 ! R4    R(1,5)                  1.0929         estimate D2E/DX2                !
 ! R5    R(2,6)                  1.5008         estimate D2E/DX2                !
 ! R6    R(2,7)                  1.0935         estimate D2E/DX2                !
 ! R7    R(2,8)                  1.0954         estimate D2E/DX2                !
 ! R8    R(6,9)                  1.3282         estimate D2E/DX2                !
 ! R9    R(6,10)                 1.0893         estimate D2E/DX2                !
 ! R10   R(9,11)                 1.0858         estimate D2E/DX2                !
 ! R11   R(9,12)                 1.0835         estimate D2E/DX2                !
 ! A1    A(2,1,3)              111.1365         estimate D2E/DX2                !
 ! A2    A(2,1,4)              110.557          estimate D2E/DX2                !
 ! A3    A(2,1,5)              110.9077         estimate D2E/DX2                !
 ! A4    A(3,1,4)              108.3732         estimate D2E/DX2                !
 ! A5    A(3,1,5)              107.9273         estimate D2E/DX2                !
 ! A6    A(4,1,5)              107.8182         estimate D2E/DX2                !
 ! A7    A(1,2,6)              111.8439         estimate D2E/DX2                !
 ! A8    A(1,2,7)              110.1762         estimate D2E/DX2                !
 ! A9    A(1,2,8)              109.1056         estimate D2E/DX2                !
 ! A10   A(6,2,7)              109.3509         estimate D2E/DX2                !
 ! A11   A(6,2,8)              109.2275         estimate D2E/DX2                !
 ! A12   A(7,2,8)              107.0111         estimate D2E/DX2                !
 ! A13   A(2,6,9)              124.8603         estimate D2E/DX2                !
 ! A14   A(2,6,10)             116.0166         estimate D2E/DX2                !
 ! A15   A(9,6,10)             119.1106         estimate D2E/DX2                !
 ! A16   A(6,9,11)             121.1051         estimate D2E/DX2                !
 ! A17   A(6,9,12)             121.7443         estimate D2E/DX2                !
 ! A18   A(11,9,12)            117.1506         estimate D2E/DX2                !
 ! D1    D(3,1,2,6)            178.4238         estimate D2E/DX2                !
 ! D2    D(3,1,2,7)            -59.7313         estimate D2E/DX2                !
 ! D3    D(3,1,2,8)             57.471          estimate D2E/DX2                !
 ! D4    D(4,1,2,6)            -61.1848         estimate D2E/DX2                !
 ! D5    D(4,1,2,7)             60.6601         estimate D2E/DX2                !
 ! D6    D(4,1,2,8)            177.8625         estimate D2E/DX2                !
 ! D7    D(5,1,2,6)             58.3602         estimate D2E/DX2                !
 ! D8    D(5,1,2,7)           -179.7949         estimate D2E/DX2                !
 ! D9    D(5,1,2,8)            -62.5925         estimate D2E/DX2                !
 ! D10   D(1,2,6,9)            117.8348         estimate D2E/DX2                !
 ! D11   D(1,2,6,10)           -60.8628         estimate D2E/DX2                !
 ! D12   D(7,2,6,9)             -4.4831         estimate D2E/DX2                !
 ! D13   D(7,2,6,10)           176.8192         estimate D2E/DX2                !
 ! D14   D(8,2,6,9)           -121.2832         estimate D2E/DX2                !
 ! D15   D(8,2,6,10)            60.0191         estimate D2E/DX2                !
 ! D16   D(2,6,9,11)             1.0835         estimate D2E/DX2                !
 ! D17   D(2,6,9,12)          -179.0019         estimate D2E/DX2                !
 ! D18   D(10,6,9,11)          179.7439         estimate D2E/DX2                !
 ! D19   D(10,6,9,12)           -0.3415         estimate D2E/DX2                !
 --------------------------------------------------------------------------------
 Trust Radius=3.00D-01 FncErr=1.00D-07 GrdErr=1.00D-07 EigMax=2.50D+02 EigMin=1.00D-04
 Number of steps in this run=    100 maximum allowed number of steps=    100.
 GradGradGradGradGradGradGradGradGradGradGradGradGradGradGradGradGradGrad

                          Input orientation:                          
 ---------------------------------------------------------------------
 Center     Atomic      Atomic             Coordinates (Angstroms)
 Number     Number       Type             X           Y           Z
 ---------------------------------------------------------------------
      1          6           0       -1.707467   -0.260212   -0.294762
      2          6           0       -0.540811    0.534404    0.300391
      3          1           0       -2.623057    0.334247   -0.306921
      4          1           0       -1.481181   -0.564732   -1.318701
      5          1           0       -1.901079   -1.164298    0.287970
      6          6           0        0.717611   -0.281143    0.359723
      7          1           0       -0.359888    1.437476   -0.289167
      8          1           0       -0.807688    0.860010    1.311681
      9          6           0        1.841149    0.008521   -0.286643
     10          1           0        0.674023   -1.183372    0.968596
     11          1           0        1.918986    0.897148   -0.905768
     12          1           0        2.716993   -0.625900   -0.219939
 ---------------------------------------------------------------------
                    Distance matrix (angstroms):
                    1          2          3          4          5
     1  C    0.000000
     2  C    1.531897   0.000000
     3  H    1.091712   2.178219   0.000000
     4  H    1.091966   2.171141   1.770803   0.000000
     5  H    1.092901   2.176252   1.766574   1.765555   0.000000
     6  C    2.511930   1.500754   3.461673   2.780686   2.764534
     7  H    2.167520   1.093550   2.517809   2.515169   3.078569
     8  H    2.155263   1.095422   2.488346   3.066332   2.518196
     9  C    3.558786   2.508963   4.476119   3.525853   3.963579
    10  H    2.849525   2.207504   3.847187   3.203022   2.663600
    11  H    3.855382   2.763513   4.615802   3.724076   4.501940
    12  H    4.440177   3.497190   5.426378   4.340010   4.677011
                    6          7          8          9         10
     6  C    0.000000
     7  H    2.129721   0.000000
     8  H    2.129552   1.759746   0.000000
     9  C    1.328169   2.624211   3.208740   0.000000
    10  H    1.089332   3.085415   2.547270   2.087682   0.000000
    11  H    2.105502   2.421862   3.514713   1.085833   3.064594
    12  H    2.110070   3.705335   4.120335   1.083532   2.428398
                   11         12
    11  H    0.000000
    12  H    1.851176   0.000000
 Stoichiometry    C4H8
 Framework group  C1[X(C4H8)]
 Deg. of freedom    30
 Full point group                 C1      NOp   1
 Largest Abelian subgroup         C1      NOp   1
 Largest concise Abelian subgroup C1      NOp   1
                         Standard orientation:                         
 ---------------------------------------------------------------------
 Center     Atomic      Atomic             Coordinates (Angstroms)
 Number     Number       Type             X           Y           Z
 ---------------------------------------------------------------------
      1          6           0       -1.707467   -0.260212   -0.294762
      2          6           0       -0.540811    0.534404    0.300391
      3          1           0       -2.623057    0.334247   -0.306921
      4          1           0       -1.481181   -0.564732   -1.318701
      5          1           0       -1.901079   -1.164298    0.287970
      6          6           0        0.717611   -0.281143    0.359723
      7          1           0       -0.359888    1.437476   -0.289167
      8          1           0       -0.807688    0.860010    1.311681
      9          6           0        1.841149    0.008521   -0.286643
     10          1           0        0.674023   -1.183372    0.968596
     11          1           0        1.918986    0.897148   -0.905768
     12          1           0        2.716993   -0.625900   -0.219939
 ---------------------------------------------------------------------
 Rotational constants (GHZ):          22.2996232           4.1957606           4.1031043
 Standard basis: CC-pVTZ (5D, 7F)
 There are   260 symmetry adapted cartesian basis functions of A   symmetry.
 There are   232 symmetry adapted basis functions of A   symmetry.
   232 basis functions,   344 primitive gaussians,   260 cartesian basis functions
    16 alpha electrons       16 beta electrons
       nuclear repulsion energy       117.3842724609 Hartrees.
 NAtoms=   12 NActive=   12 NUniq=   12 SFac= 1.00D+00 NAtFMM=   60 NAOKFM=F Big=F
 Integral buffers will be    131072 words long.
 Raffenetti 2 integral format.
 Two-electron integral symmetry is turned on.
 Nuclear repulsion after empirical dispersion term =      117.3786083468 Hartrees.
 One-electron integrals computed using PRISM.
 NBasis=   232 RedAO= T EigKep=  4.53D-04  NBF=   232
 NBsUse=   232 1.00D-06 EigRej= -1.00D+00 NBFU=   232
 ExpMin= 1.03D-01 ExpMax= 8.24D+03 ExpMxC= 2.81D+02 IAcc=3 IRadAn=         5 AccDes= 0.00D+00
 Harris functional with IExCor=  419 and IRadAn=       5 diagonalized for initial guess.
 HarFok:  IExCor=  419 AccDes= 0.00D+00 IRadAn=         5 IDoV= 1 UseB2=F ITyADJ=14
 ICtDFT=  3500011 ScaDFX=  1.000000  1.000000  1.000000  1.000000
 FoFCou: FMM=F IPFlag=           0 FMFlag=      100000 FMFlg1=           0
         NFxFlg=           0 DoJE=T BraDBF=F KetDBF=T FulRan=T
         wScrn=  0.000000 ICntrl=       500 IOpCl=  0 I1Cent=   200000004 NGrid=           0
         NMat0=    1 NMatS0=      1 NMatT0=    0 NMatD0=    1 NMtDS0=    0 NMtDT0=    0
 Petite list used in FoFCou.
 Initial guess <Sx>= 0.0000 <Sy>= 0.0000 <Sz>= 0.0000 <S**2>=-0.0000 S=-0.0000
 Keep R1 and R2 ints in memory in canonical form, NReq=774239228.
 Requested convergence on RMS density matrix=1.00D-08 within 128 cycles.
 Requested convergence on MAX density matrix=1.00D-06.
 Requested convergence on             energy=1.00D-06.
 No special actions if energy rises.
 Integral accuracy reduced to 1.0D-05 until final iterations.
 Initial convergence to 1.0D-05 achieved.  Increase integral accuracy.
 SCF Done:  E(UB2PLYPD3) =  -156.901655083     A.U. after   11 cycles
            NFock= 11  Conv=0.83D-08     -V/T= 2.0050
 <Sx>= 0.0000 <Sy>= 0.0000 <Sz>= 0.0000 <S**2>=-0.0000 S=-0.0000
 <L.S>=  0.00000000000    
 Annihilation of the first spin contaminant:
 S**2 before annihilation    -0.0000,   after     0.0000
 DoSCS=T DFT=T ScalE2(SS,OS)=  0.270000  0.270000
 ExpMin= 1.03D-01 ExpMax= 8.24D+03 ExpMxC= 2.81D+02 IAcc=3 IRadAn=         5 AccDes= 0.00D+00
 HarFok:  IExCor=  205 AccDes= 0.00D+00 IRadAn=         5 IDoV=-2 UseB2=F ITyADJ=14
 ICtDFT= 12500011 ScaDFX=  1.000000  1.000000  1.000000  1.000000
 Range of M.O.s used for correlation:     5   232
 NBasis=   232 NAE=    16 NBE=    16 NFC=     4 NFV=     0
 NROrb=    228 NOA=    12 NOB=    12 NVA=   216 NVB=   216

 **** Warning!!: The largest alpha MO coefficient is  0.11556552D+02


 **** Warning!!: The largest beta MO coefficient is  0.11556552D+02

 DoSCS=T DFT=T ScalE2(SS,OS)=  0.270000  0.270000
 Fully direct method using O(ONN) memory.
 JobTyp=2 Pass  1:  I=   5 to  16 NPSUse= 40 ParTrn=T ParDer=T DoDerP=T.
 JobTyp=3 Pass  1:  I=   5 to  16 NPSUse= 40 ParTrn=T ParDer=T DoDerP=T.
 Spin components of T(2) and E(2):
     alpha-alpha T2 =       0.3986426904D-01 E2=     -0.2492910413D-01
     alpha-beta  T2 =       0.2589955051D+00 E2=     -0.1737053512D+00
     beta-beta   T2 =       0.3986426904D-01 E2=     -0.2492910413D-01
 (S**2,0)=  0.00000D+00           (S**2,1)=  0.00000D+00
 E(PUHF)=      -0.15690165508D+03        E(PMP2)=      -0.15712521864D+03
 E2(B2PLYPD3) =    -0.2235635595D+00 E(B2PLYPD3) =    -0.15712521864285D+03
          IDoAtm=111111111111
          Differentiating once with respect to electric field.
                with respect to dipole field.
          Differentiating once with respect to nuclear coordinates.
 Keep R1 and R2 ints in memory in canonical form, NReq=774248262.
          There are     1 degrees of freedom in the 1st order CPHF.  IDoFFX=0 NUNeed=     1.
 LinEq1:  Iter=  0 NonCon=     1 RMS=5.52D-04 Max=7.05D-03 NDo=     1
 AX will form     1 AO Fock derivatives at one time.
 LinEq1:  Iter=  1 NonCon=     1 RMS=2.21D-04 Max=2.84D-03 NDo=     1
 LinEq1:  Iter=  2 NonCon=     1 RMS=5.91D-05 Max=1.62D-03 NDo=     1
 LinEq1:  Iter=  3 NonCon=     1 RMS=3.32D-05 Max=8.39D-04 NDo=     1
 LinEq1:  Iter=  4 NonCon=     1 RMS=8.96D-06 Max=1.27D-04 NDo=     1
 LinEq1:  Iter=  5 NonCon=     1 RMS=2.44D-06 Max=2.27D-05 NDo=     1
 LinEq1:  Iter=  6 NonCon=     1 RMS=8.95D-07 Max=1.34D-05 NDo=     1
 LinEq1:  Iter=  7 NonCon=     1 RMS=3.13D-07 Max=4.58D-06 NDo=     1
 LinEq1:  Iter=  8 NonCon=     1 RMS=1.09D-07 Max=1.31D-06 NDo=     1
 LinEq1:  Iter=  9 NonCon=     1 RMS=1.57D-08 Max=1.40D-07 NDo=     1
 LinEq1:  Iter= 10 NonCon=     1 RMS=5.85D-09 Max=6.14D-08 NDo=     1
 LinEq1:  Iter= 11 NonCon=     1 RMS=1.75D-09 Max=1.60D-08 NDo=     1
 LinEq1:  Iter= 12 NonCon=     1 RMS=3.24D-10 Max=4.07D-09 NDo=     1
 LinEq1:  Iter= 13 NonCon=     0 RMS=5.59D-11 Max=7.91D-10 NDo=     1
 Linear equations converged to 1.000D-10 1.000D-09 after    13 iterations.
 End of Minotr F.D. properties file   721 does not exist.
 End of Minotr F.D. properties file   722 does not exist.
 End of Minotr F.D. properties file   788 does not exist.

 **********************************************************************

            Population analysis using the SCF Density.

 **********************************************************************

 Orbital symmetries:
 Alpha Orbitals:
       Occupied  (A) (A) (A) (A) (A) (A) (A) (A) (A) (A) (A) (A)
                 (A) (A) (A) (A)
       Virtual   (A) (A) (A) (A) (A) (A) (A) (A) (A) (A) (A) (A)
                 (A) (A) (A) (A) (A) (A) (A) (A) (A) (A) (A) (A)
                 (A) (A) (A) (A) (A) (A) (A) (A) (A) (A) (A) (A)
                 (A) (A) (A) (A) (A) (A) (A) (A) (A) (A) (A) (A)
                 (A) (A) (A) (A) (A) (A) (A) (A) (A) (A) (A) (A)
                 (A) (A) (A) (A) (A) (A) (A) (A) (A) (A) (A) (A)
                 (A) (A) (A) (A) (A) (A) (A) (A) (A) (A) (A) (A)
                 (A) (A) (A) (A) (A) (A) (A) (A) (A) (A) (A) (A)
                 (A) (A) (A) (A) (A) (A) (A) (A) (A) (A) (A) (A)
                 (A) (A) (A) (A) (A) (A) (A) (A) (A) (A) (A) (A)
                 (A) (A) (A) (A) (A) (A) (A) (A) (A) (A) (A) (A)
                 (A) (A) (A) (A) (A) (A) (A) (A) (A) (A) (A) (A)
                 (A) (A) (A) (A) (A) (A) (A) (A) (A) (A) (A) (A)
                 (A) (A) (A) (A) (A) (A) (A) (A) (A) (A) (A) (A)
                 (A) (A) (A) (A) (A) (A) (A) (A) (A) (A) (A) (A)
                 (A) (A) (A) (A) (A) (A) (A) (A) (A) (A) (A) (A)
                 (A) (A) (A) (A) (A) (A) (A) (A) (A) (A) (A) (A)
                 (A) (A) (A) (A) (A) (A) (A) (A) (A) (A) (A) (A)
 Beta  Orbitals:
       Occupied  (A) (A) (A) (A) (A) (A) (A) (A) (A) (A) (A) (A)
                 (A) (A) (A) (A)
       Virtual   (A) (A) (A) (A) (A) (A) (A) (A) (A) (A) (A) (A)
                 (A) (A) (A) (A) (A) (A) (A) (A) (A) (A) (A) (A)
                 (A) (A) (A) (A) (A) (A) (A) (A) (A) (A) (A) (A)
                 (A) (A) (A) (A) (A) (A) (A) (A) (A) (A) (A) (A)
                 (A) (A) (A) (A) (A) (A) (A) (A) (A) (A) (A) (A)
                 (A) (A) (A) (A) (A) (A) (A) (A) (A) (A) (A) (A)
                 (A) (A) (A) (A) (A) (A) (A) (A) (A) (A) (A) (A)
                 (A) (A) (A) (A) (A) (A) (A) (A) (A) (A) (A) (A)
                 (A) (A) (A) (A) (A) (A) (A) (A) (A) (A) (A) (A)
                 (A) (A) (A) (A) (A) (A) (A) (A) (A) (A) (A) (A)
                 (A) (A) (A) (A) (A) (A) (A) (A) (A) (A) (A) (A)
                 (A) (A) (A) (A) (A) (A) (A) (A) (A) (A) (A) (A)
                 (A) (A) (A) (A) (A) (A) (A) (A) (A) (A) (A) (A)
                 (A) (A) (A) (A) (A) (A) (A) (A) (A) (A) (A) (A)
                 (A) (A) (A) (A) (A) (A) (A) (A) (A) (A) (A) (A)
                 (A) (A) (A) (A) (A) (A) (A) (A) (A) (A) (A) (A)
                 (A) (A) (A) (A) (A) (A) (A) (A) (A) (A) (A) (A)
                 (A) (A) (A) (A) (A) (A) (A) (A) (A) (A) (A) (A)
 The electronic state is 1-A.
 Alpha  occ. eigenvalues --  -10.61608 -10.61404 -10.60370 -10.60290  -0.91760
 Alpha  occ. eigenvalues --   -0.83703  -0.72251  -0.63731  -0.54381  -0.51113
 Alpha  occ. eigenvalues --   -0.49204  -0.44678  -0.43430  -0.40351  -0.39321
 Alpha  occ. eigenvalues --   -0.30237
 Alpha virt. eigenvalues --    0.06898   0.08957   0.11020   0.11546   0.13028
 Alpha virt. eigenvalues --    0.15741   0.16811   0.17059   0.18597   0.22835
 Alpha virt. eigenvalues --    0.26224   0.29941   0.31490   0.32665   0.33814
 Alpha virt. eigenvalues --    0.36129   0.37724   0.39925   0.43753   0.47908
 Alpha virt. eigenvalues --    0.48317   0.49507   0.51169   0.51585   0.52270
 Alpha virt. eigenvalues --    0.53695   0.53913   0.54586   0.57027   0.57858
 Alpha virt. eigenvalues --    0.58753   0.62377   0.65288   0.69607   0.70924
 Alpha virt. eigenvalues --    0.71949   0.77758   0.78721   0.80298   0.82796
 Alpha virt. eigenvalues --    0.88046   0.92649   0.96301   0.97384   0.99511
 Alpha virt. eigenvalues --    1.01546   1.05185   1.08393   1.09397   1.13227
 Alpha virt. eigenvalues --    1.14959   1.15916   1.17378   1.18474   1.18760
 Alpha virt. eigenvalues --    1.20951   1.24292   1.24810   1.25706   1.26988
 Alpha virt. eigenvalues --    1.28754   1.33762   1.36122   1.38353   1.40207
 Alpha virt. eigenvalues --    1.40805   1.44965   1.46489   1.48316   1.51038
 Alpha virt. eigenvalues --    1.53920   1.55195   1.56862   1.60391   1.62553
 Alpha virt. eigenvalues --    1.66630   1.68278   1.71616   1.79858   1.98577
 Alpha virt. eigenvalues --    2.18758   2.24499   2.35282   2.36181   2.39255
 Alpha virt. eigenvalues --    2.39530   2.44578   2.46152   2.49541   2.56336
 Alpha virt. eigenvalues --    2.57530   2.59565   2.63010   2.66649   2.67908
 Alpha virt. eigenvalues --    2.68608   2.77026   2.79260   2.82100   2.85460
 Alpha virt. eigenvalues --    2.87474   2.89371   2.92744   2.93774   2.94566
 Alpha virt. eigenvalues --    2.97898   3.00136   3.01082   3.01831   3.03159
 Alpha virt. eigenvalues --    3.06554   3.09681   3.11435   3.12602   3.14119
 Alpha virt. eigenvalues --    3.15755   3.17603   3.20646   3.21670   3.23809
 Alpha virt. eigenvalues --    3.26285   3.28335   3.30118   3.31263   3.32759
 Alpha virt. eigenvalues --    3.37923   3.39255   3.41220   3.43811   3.45999
 Alpha virt. eigenvalues --    3.48196   3.49343   3.55538   3.57287   3.59986
 Alpha virt. eigenvalues --    3.61554   3.62708   3.67926   3.70268   3.73942
 Alpha virt. eigenvalues --    3.74601   3.79390   3.81172   3.83894   3.85255
 Alpha virt. eigenvalues --    3.86382   3.89115   3.91383   3.93991   3.97435
 Alpha virt. eigenvalues --    3.97957   3.99686   4.03392   4.05288   4.06490
 Alpha virt. eigenvalues --    4.06974   4.10653   4.12756   4.15998   4.17648
 Alpha virt. eigenvalues --    4.18477   4.19199   4.22336   4.23793   4.25836
 Alpha virt. eigenvalues --    4.29108   4.33970   4.37918   4.39886   4.42030
 Alpha virt. eigenvalues --    4.44369   4.47623   4.49315   4.52762   4.57301
 Alpha virt. eigenvalues --    4.63250   4.64755   4.68089   4.69828   4.81055
 Alpha virt. eigenvalues --    4.83338   4.90586   4.95040   4.96592   4.99738
 Alpha virt. eigenvalues --    5.01245   5.01595   5.04774   5.11024   5.12646
 Alpha virt. eigenvalues --    5.14546   5.15987   5.23148   5.31100   5.33676
 Alpha virt. eigenvalues --    5.36647   5.39921   5.48142   5.49139   5.50541
 Alpha virt. eigenvalues --    5.53726   5.55453   5.62106   5.63403   5.66978
 Alpha virt. eigenvalues --    5.81170   6.03913   6.05072   6.06541   6.11211
 Alpha virt. eigenvalues --    6.18080   6.42515  11.17907  12.93858  13.61273
 Alpha virt. eigenvalues --   14.34481
  Beta  occ. eigenvalues --  -10.61608 -10.61404 -10.60370 -10.60290  -0.91760
  Beta  occ. eigenvalues --   -0.83703  -0.72251  -0.63731  -0.54381  -0.51113
  Beta  occ. eigenvalues --   -0.49204  -0.44678  -0.43430  -0.40351  -0.39321
  Beta  occ. eigenvalues --   -0.30237
  Beta virt. eigenvalues --    0.06898   0.08957   0.11020   0.11546   0.13028
  Beta virt. eigenvalues --    0.15741   0.16811   0.17059   0.18597   0.22835
  Beta virt. eigenvalues --    0.26224   0.29941   0.31490   0.32665   0.33814
  Beta virt. eigenvalues --    0.36129   0.37724   0.39925   0.43753   0.47908
  Beta virt. eigenvalues --    0.48317   0.49507   0.51169   0.51585   0.52270
  Beta virt. eigenvalues --    0.53695   0.53913   0.54586   0.57027   0.57858
  Beta virt. eigenvalues --    0.58753   0.62377   0.65288   0.69607   0.70924
  Beta virt. eigenvalues --    0.71949   0.77758   0.78721   0.80298   0.82796
  Beta virt. eigenvalues --    0.88046   0.92649   0.96301   0.97384   0.99511
  Beta virt. eigenvalues --    1.01546   1.05185   1.08393   1.09397   1.13227
  Beta virt. eigenvalues --    1.14959   1.15916   1.17378   1.18474   1.18760
  Beta virt. eigenvalues --    1.20951   1.24292   1.24810   1.25706   1.26988
  Beta virt. eigenvalues --    1.28754   1.33762   1.36122   1.38353   1.40207
  Beta virt. eigenvalues --    1.40805   1.44965   1.46489   1.48316   1.51038
  Beta virt. eigenvalues --    1.53920   1.55195   1.56862   1.60391   1.62553
  Beta virt. eigenvalues --    1.66630   1.68278   1.71616   1.79858   1.98577
  Beta virt. eigenvalues --    2.18758   2.24499   2.35282   2.36181   2.39255
  Beta virt. eigenvalues --    2.39530   2.44578   2.46152   2.49541   2.56336
  Beta virt. eigenvalues --    2.57530   2.59565   2.63010   2.66649   2.67908
  Beta virt. eigenvalues --    2.68608   2.77026   2.79260   2.82100   2.85460
  Beta virt. eigenvalues --    2.87474   2.89371   2.92744   2.93774   2.94566
  Beta virt. eigenvalues --    2.97898   3.00136   3.01082   3.01831   3.03159
  Beta virt. eigenvalues --    3.06554   3.09681   3.11435   3.12602   3.14119
  Beta virt. eigenvalues --    3.15755   3.17603   3.20646   3.21670   3.23809
  Beta virt. eigenvalues --    3.26285   3.28335   3.30118   3.31263   3.32759
  Beta virt. eigenvalues --    3.37923   3.39255   3.41220   3.43811   3.45999
  Beta virt. eigenvalues --    3.48196   3.49343   3.55538   3.57287   3.59986
  Beta virt. eigenvalues --    3.61554   3.62708   3.67926   3.70268   3.73942
  Beta virt. eigenvalues --    3.74601   3.79390   3.81172   3.83894   3.85255
  Beta virt. eigenvalues --    3.86382   3.89115   3.91383   3.93991   3.97435
  Beta virt. eigenvalues --    3.97957   3.99686   4.03392   4.05288   4.06490
  Beta virt. eigenvalues --    4.06974   4.10653   4.12756   4.15998   4.17648
  Beta virt. eigenvalues --    4.18477   4.19199   4.22336   4.23793   4.25836
  Beta virt. eigenvalues --    4.29108   4.33970   4.37918   4.39886   4.42030
  Beta virt. eigenvalues --    4.44369   4.47623   4.49315   4.52762   4.57301
  Beta virt. eigenvalues --    4.63250   4.64755   4.68089   4.69828   4.81055
  Beta virt. eigenvalues --    4.83338   4.90586   4.95040   4.96592   4.99738
  Beta virt. eigenvalues --    5.01245   5.01595   5.04774   5.11024   5.12646
  Beta virt. eigenvalues --    5.14546   5.15987   5.23148   5.31100   5.33676
  Beta virt. eigenvalues --    5.36647   5.39921   5.48142   5.49139   5.50541
  Beta virt. eigenvalues --    5.53726   5.55453   5.62106   5.63403   5.66978
  Beta virt. eigenvalues --    5.81170   6.03913   6.05072   6.06541   6.11211
  Beta virt. eigenvalues --    6.18080   6.42515  11.17907  12.93858  13.61273
  Beta virt. eigenvalues --   14.34481
          Condensed to atoms (all electrons):
               1          2          3          4          5          6
     1  C    4.865467   0.343697   0.405638   0.402049   0.407390  -0.056922
     2  C    0.343697   4.811082  -0.035105  -0.035593  -0.036557   0.360612
     3  H    0.405638  -0.035105   0.592007  -0.028315  -0.031464   0.008332
     4  H    0.402049  -0.035593  -0.028315   0.589129  -0.031399  -0.000127
     5  H    0.407390  -0.036557  -0.031464  -0.031399   0.598625  -0.003251
     6  C   -0.056922   0.360612   0.008332  -0.000127  -0.003251   4.917166
     7  H   -0.033177   0.415414  -0.005172  -0.004970   0.007042  -0.041464
     8  H   -0.041405   0.420351  -0.003884   0.008103  -0.004954  -0.040686
     9  C   -0.000113  -0.060620  -0.000163   0.002770   0.000466   0.634777
    10  H   -0.001276  -0.040675  -0.000301   0.000212   0.003064   0.408657
    11  H    0.000107  -0.006877  -0.000055   0.000204   0.000033  -0.050516
    12  H   -0.000382   0.006674   0.000028  -0.000090  -0.000017  -0.046569
               7          8          9         10         11         12
     1  C   -0.033177  -0.041405  -0.000113  -0.001276   0.000107  -0.000382
     2  C    0.415414   0.420351  -0.060620  -0.040675  -0.006877   0.006674
     3  H   -0.005172  -0.003884  -0.000163  -0.000301  -0.000055   0.000028
     4  H   -0.004970   0.008103   0.002770   0.000212   0.000204  -0.000090
     5  H    0.007042  -0.004954   0.000466   0.003064   0.000033  -0.000017
     6  C   -0.041464  -0.040686   0.634777   0.408657  -0.050516  -0.046569
     7  H    0.599230  -0.034210  -0.003418   0.006272   0.004496  -0.000028
     8  H   -0.034210   0.602827   0.001687  -0.003249   0.000232  -0.000390
     9  C   -0.003418   0.001687   4.953066  -0.042879   0.409439   0.419978
    10  H    0.006272  -0.003249  -0.042879   0.546529   0.006938  -0.008393
    11  H    0.004496   0.000232   0.409439   0.006938   0.554841  -0.036126
    12  H   -0.000028  -0.000390   0.419978  -0.008393  -0.036126   0.542300
          Atomic-Atomic Spin Densities.
               1          2          3          4          5          6
     1  C   -0.000000   0.000000   0.000000  -0.000000   0.000000   0.000000
     2  C    0.000000   0.000000   0.000000  -0.000000  -0.000000  -0.000000
     3  H    0.000000   0.000000   0.000000   0.000000  -0.000000  -0.000000
     4  H   -0.000000  -0.000000   0.000000   0.000000  -0.000000   0.000000
     5  H    0.000000  -0.000000  -0.000000  -0.000000   0.000000   0.000000
     6  C    0.000000  -0.000000  -0.000000   0.000000   0.000000   0.000000
     7  H    0.000000  -0.000000   0.000000  -0.000000  -0.000000   0.000000
     8  H   -0.000000   0.000000  -0.000000   0.000000  -0.000000  -0.000000
     9  C   -0.000000  -0.000000  -0.000000  -0.000000   0.000000  -0.000000
    10  H    0.000000  -0.000000   0.000000  -0.000000   0.000000   0.000000
    11  H   -0.000000  -0.000000  -0.000000   0.000000   0.000000   0.000000
    12  H   -0.000000  -0.000000  -0.000000   0.000000  -0.000000   0.000000
               7          8          9         10         11         12
     1  C    0.000000  -0.000000  -0.000000   0.000000  -0.000000  -0.000000
     2  C   -0.000000   0.000000  -0.000000  -0.000000  -0.000000  -0.000000
     3  H    0.000000  -0.000000  -0.000000   0.000000  -0.000000  -0.000000
     4  H   -0.000000   0.000000  -0.000000  -0.000000   0.000000   0.000000
     5  H   -0.000000  -0.000000   0.000000   0.000000   0.000000  -0.000000
     6  C    0.000000  -0.000000  -0.000000   0.000000   0.000000   0.000000
     7  H   -0.000000  -0.000000   0.000000  -0.000000   0.000000   0.000000
     8  H   -0.000000   0.000000  -0.000000   0.000000   0.000000   0.000000
     9  C    0.000000  -0.000000  -0.000000   0.000000  -0.000000  -0.000000
    10  H   -0.000000   0.000000   0.000000   0.000000   0.000000   0.000000
    11  H    0.000000   0.000000  -0.000000   0.000000   0.000000  -0.000000
    12  H    0.000000   0.000000  -0.000000   0.000000  -0.000000  -0.000000
 Mulliken charges and spin densities:
               1          2
     1  C   -0.291073   0.000000
     2  C   -0.142402  -0.000000
     3  H    0.098453   0.000000
     4  H    0.098027  -0.000000
     5  H    0.091023   0.000000
     6  C   -0.090006   0.000000
     7  H    0.089985  -0.000000
     8  H    0.095580   0.000000
     9  C   -0.314990  -0.000000
    10  H    0.125102   0.000000
    11  H    0.117284   0.000000
    12  H    0.123016  -0.000000
 Sum of Mulliken charges =  -0.00000   0.00000
 Mulliken charges and spin densities with hydrogens summed into heavy atoms:
               1          2
     1  C   -0.003570   0.000000
     2  C    0.043163  -0.000000
     6  C    0.035096   0.000000
     9  C   -0.074689  -0.000000
 Electronic spatial extent (au):  <R**2>=            364.9195
 Charge=             -0.0000 electrons
 Dipole moment (field-independent basis, Debye):
    X=             -0.3647    Y=              0.0434    Z=              0.1004  Tot=              0.3807
 Quadrupole moment (field-independent basis, Debye-Ang):
   XX=            -26.9313   YY=            -26.7058   ZZ=            -27.4384
   XY=             -0.5668   XZ=             -0.8725   YZ=             -1.3324
 Traceless Quadrupole moment (field-independent basis, Debye-Ang):
   XX=              0.0939   YY=              0.3194   ZZ=             -0.4132
   XY=             -0.5668   XZ=             -0.8725   YZ=             -1.3324
 Octapole moment (field-independent basis, Debye-Ang**2):
  XXX=              1.6855  YYY=              0.2002  ZZZ=              0.5202  XYY=              0.0321
  XXY=             -0.8261  XXZ=             -1.5516  XZZ=             -1.6842  YZZ=              0.2691
  YYZ=              0.4583  XYZ=             -1.4745
 Hexadecapole moment (field-independent basis, Debye-Ang**3):
 XXXX=           -363.5234 YYYY=            -76.4553 ZZZZ=            -67.7300 XXXY=             -9.3911
 XXXZ=             -5.6977 YYYX=             -0.0900 YYYZ=             -3.8975 ZZZX=             -0.9602
 ZZZY=             -0.7577 XXYY=            -73.2048 XXZZ=            -76.5360 YYZZ=            -23.0591
 XXYZ=             -3.0170 YYXZ=             -0.9356 ZZXY=              0.6549
 N-N= 1.173786083468D+02 E-N=-5.980218247093D+02  KE= 1.561218751354D+02
                          Isotropic Fermi Contact Couplings
        Atom                 a.u.       MegaHertz       Gauss      10(-4) cm-1
     1  C(13)             -0.00000      -0.00000      -0.00000      -0.00000
     2  C(13)             -0.00000      -0.00000      -0.00000      -0.00000
     3  H(1)               0.00000       0.00000       0.00000       0.00000
     4  H(1)               0.00000       0.00000       0.00000       0.00000
     5  H(1)              -0.00000      -0.00000      -0.00000      -0.00000
     6  C(13)              0.00000       0.00000       0.00000       0.00000
     7  H(1)               0.00000       0.00000       0.00000       0.00000
     8  H(1)               0.00000       0.00000       0.00000       0.00000
     9  C(13)              0.00000       0.00000       0.00000       0.00000
    10  H(1)              -0.00000      -0.00000      -0.00000      -0.00000
    11  H(1)              -0.00000      -0.00000      -0.00000      -0.00000
    12  H(1)              -0.00000      -0.00000      -0.00000      -0.00000
 --------------------------------------------------------
       Center         ----  Spin Dipole Couplings  ----
                      3XX-RR        3YY-RR        3ZZ-RR
 --------------------------------------------------------
     1   Atom        0.000000      0.000000      0.000000
     2   Atom        0.000000      0.000000      0.000000
     3   Atom        0.000000      0.000000      0.000000
     4   Atom        0.000000      0.000000      0.000000
     5   Atom        0.000000      0.000000      0.000000
     6   Atom        0.000000      0.000000      0.000000
     7   Atom        0.000000      0.000000      0.000000
     8   Atom        0.000000      0.000000      0.000000
     9   Atom        0.000000      0.000000      0.000000
    10   Atom        0.000000      0.000000      0.000000
    11   Atom        0.000000      0.000000      0.000000
    12   Atom        0.000000      0.000000      0.000000
 --------------------------------------------------------
                        XY            XZ            YZ
 --------------------------------------------------------
     1   Atom        0.000000      0.000000      0.000000
     2   Atom        0.000000      0.000000      0.000000
     3   Atom        0.000000      0.000000      0.000000
     4   Atom        0.000000      0.000000      0.000000
     5   Atom        0.000000      0.000000      0.000000
     6   Atom        0.000000      0.000000      0.000000
     7   Atom        0.000000      0.000000      0.000000
     8   Atom        0.000000      0.000000      0.000000
     9   Atom        0.000000      0.000000      0.000000
    10   Atom        0.000000      0.000000      0.000000
    11   Atom        0.000000      0.000000      0.000000
    12   Atom        0.000000      0.000000      0.000000
 --------------------------------------------------------


 ---------------------------------------------------------------------------------
              Anisotropic Spin Dipole Couplings in Principal Axis System
 ---------------------------------------------------------------------------------

       Atom             a.u.   MegaHertz   Gauss  10(-4) cm-1        Axes

              Baa     0.0000     0.000     0.000     0.000  1.0000  0.0000  0.0000
     1 C(13)  Bbb     0.0000     0.000     0.000     0.000 -0.0000  1.0000  0.0000
              Bcc     0.0000     0.000     0.000     0.000  0.0000  0.0000  1.0000
 
              Baa     0.0000     0.000     0.000     0.000  1.0000  0.0000  0.0000
     2 C(13)  Bbb     0.0000     0.000     0.000     0.000 -0.0000  1.0000  0.0000
              Bcc     0.0000     0.000     0.000     0.000  0.0000  0.0000  1.0000
 
              Baa     0.0000     0.000     0.000     0.000  1.0000  0.0000  0.0000
     3 H(1)   Bbb     0.0000     0.000     0.000     0.000 -0.0000  1.0000  0.0000
              Bcc     0.0000     0.000     0.000     0.000  0.0000  0.0000  1.0000
 
              Baa     0.0000     0.000     0.000     0.000  1.0000  0.0000  0.0000
     4 H(1)   Bbb     0.0000     0.000     0.000     0.000 -0.0000  1.0000  0.0000
              Bcc     0.0000     0.000     0.000     0.000  0.0000  0.0000  1.0000
 
              Baa     0.0000     0.000     0.000     0.000  1.0000  0.0000  0.0000
     5 H(1)   Bbb     0.0000     0.000     0.000     0.000 -0.0000  1.0000  0.0000
              Bcc     0.0000     0.000     0.000     0.000  0.0000  0.0000  1.0000
 
              Baa     0.0000     0.000     0.000     0.000  1.0000  0.0000  0.0000
     6 C(13)  Bbb     0.0000     0.000     0.000     0.000 -0.0000  1.0000  0.0000
              Bcc     0.0000     0.000     0.000     0.000  0.0000  0.0000  1.0000
 
              Baa     0.0000     0.000     0.000     0.000  1.0000  0.0000  0.0000
     7 H(1)   Bbb     0.0000     0.000     0.000     0.000 -0.0000  1.0000  0.0000
              Bcc     0.0000     0.000     0.000     0.000  0.0000  0.0000  1.0000
 
              Baa     0.0000     0.000     0.000     0.000  1.0000  0.0000  0.0000
     8 H(1)   Bbb     0.0000     0.000     0.000     0.000 -0.0000  1.0000  0.0000
              Bcc     0.0000     0.000     0.000     0.000  0.0000  0.0000  1.0000
 
              Baa     0.0000     0.000     0.000     0.000  1.0000  0.0000  0.0000
     9 C(13)  Bbb     0.0000     0.000     0.000     0.000 -0.0000  1.0000  0.0000
              Bcc     0.0000     0.000     0.000     0.000  0.0000  0.0000  1.0000
 
              Baa     0.0000     0.000     0.000     0.000  1.0000  0.0000  0.0000
    10 H(1)   Bbb     0.0000     0.000     0.000     0.000 -0.0000  1.0000  0.0000
              Bcc     0.0000     0.000     0.000     0.000  0.0000  0.0000  1.0000
 
              Baa     0.0000     0.000     0.000     0.000  1.0000  0.0000  0.0000
    11 H(1)   Bbb     0.0000     0.000     0.000     0.000 -0.0000  1.0000  0.0000
              Bcc     0.0000     0.000     0.000     0.000  0.0000  0.0000  1.0000
 
              Baa     0.0000     0.000     0.000     0.000  1.0000  0.0000  0.0000
    12 H(1)   Bbb     0.0000     0.000     0.000     0.000 -0.0000  1.0000  0.0000
              Bcc     0.0000     0.000     0.000     0.000  0.0000  0.0000  1.0000
 

 ---------------------------------------------------------------------------------

 Calling FoFJK, ICntrl=  10002127 FMM=F ISym2X=0 I1Cent= 0 IOpClX= 1 NMat=1 NMatS=1 NMatT=0.
 ***** Axes restored to original set *****
 -------------------------------------------------------------------
 Center     Atomic                   Forces (Hartrees/Bohr)
 Number     Number              X              Y              Z
 -------------------------------------------------------------------
      1        6          -0.000845004   -0.000227743   -0.000336551
      2        6           0.001223984   -0.000354602    0.000404797
      3        1           0.001324623   -0.001050417   -0.000071474
      4        1          -0.000654924    0.000475930    0.001786961
      5        1           0.000272697    0.001573631   -0.001093211
      6        6          -0.002402606   -0.000806462    0.001767065
      7        1          -0.000481710   -0.001486398    0.001061341
      8        1           0.000198375   -0.000355094   -0.001612517
      9        6           0.003037344    0.000795930   -0.001720518
     10        1           0.000103662    0.002093948   -0.001404444
     11        1           0.000051244   -0.002066137    0.001359230
     12        1          -0.001827685    0.001407414   -0.000140680
 -------------------------------------------------------------------
 Cartesian Forces:  Max     0.003037344 RMS     0.001287229

 GradGradGradGradGradGradGradGradGradGradGradGradGradGradGradGradGradGrad
 Berny optimization.
 FormGI is forming the generalized inverse of G from B-inverse, IUseBI=4.
 Internal  Forces:  Max     0.002523376 RMS     0.000933153
 Search for a local minimum.
 Step number   1 out of a maximum of  100
 All quantities printed in internal units (Hartrees-Bohrs-Radians)
 Mixed Optimization -- En-DIIS/RFO-DIIS
 Second derivative matrix not updated -- first step.
 ITU=  0
     Eigenvalues ---    0.00344   0.00756   0.01701   0.03039   0.03039
     Eigenvalues ---    0.04203   0.05440   0.05500   0.05565   0.09301
     Eigenvalues ---    0.12775   0.15998   0.16000   0.16000   0.16000
     Eigenvalues ---    0.16000   0.16000   0.21938   0.22001   0.29249
     Eigenvalues ---    0.32298   0.34193   0.34406   0.34479   0.34586
     Eigenvalues ---    0.34616   0.34890   0.35299   0.35571   0.59940
 RFO step:  Lambda=-1.27257795D-04 EMin= 3.44013592D-03
 Linear search not attempted -- first point.
 Iteration  1 RMS(Cart)=  0.00556424 RMS(Int)=  0.00001221
 Iteration  2 RMS(Cart)=  0.00002064 RMS(Int)=  0.00000225
 Iteration  3 RMS(Cart)=  0.00000000 RMS(Int)=  0.00000225
 Variable       Old X    -DE/DX   Delta X   Delta X   Delta X     New X
                                 (Linear)    (Quad)   (Total)
    R1        2.89487  -0.00059   0.00000  -0.00200  -0.00200   2.89286
    R2        2.06304  -0.00168   0.00000  -0.00486  -0.00486   2.05818
    R3        2.06352  -0.00194   0.00000  -0.00562  -0.00562   2.05790
    R4        2.06528  -0.00193   0.00000  -0.00560  -0.00560   2.05968
    R5        2.83601  -0.00165   0.00000  -0.00511  -0.00511   2.83091
    R6        2.06651  -0.00188   0.00000  -0.00546  -0.00546   2.06105
    R7        2.07005  -0.00164   0.00000  -0.00480  -0.00480   2.06525
    R8        2.50987   0.00134   0.00000   0.00224   0.00224   2.51211
    R9        2.05854  -0.00252   0.00000  -0.00723  -0.00723   2.05131
   R10        2.05193  -0.00246   0.00000  -0.00697  -0.00697   2.04495
   R11        2.04758  -0.00231   0.00000  -0.00649  -0.00649   2.04109
    A1        1.93970   0.00017   0.00000   0.00100   0.00100   1.94070
    A2        1.92958   0.00031   0.00000   0.00203   0.00203   1.93162
    A3        1.93570   0.00004   0.00000   0.00025   0.00025   1.93595
    A4        1.89147  -0.00025   0.00000  -0.00153  -0.00153   1.88994
    A5        1.88369  -0.00013   0.00000  -0.00104  -0.00104   1.88265
    A6        1.88178  -0.00017   0.00000  -0.00088  -0.00088   1.88090
    A7        1.95204   0.00100   0.00000   0.00532   0.00532   1.95736
    A8        1.92294  -0.00033   0.00000  -0.00167  -0.00167   1.92127
    A9        1.90425  -0.00043   0.00000  -0.00280  -0.00280   1.90145
   A10        1.90853  -0.00021   0.00000   0.00048   0.00048   1.90902
   A11        1.90638  -0.00015   0.00000   0.00051   0.00051   1.90689
   A12        1.86770   0.00008   0.00000  -0.00217  -0.00218   1.86552
   A13        2.17922   0.00065   0.00000   0.00298   0.00298   2.18220
   A14        2.02487  -0.00033   0.00000  -0.00147  -0.00147   2.02341
   A15        2.07887  -0.00033   0.00000  -0.00146  -0.00146   2.07741
   A16        2.11368   0.00029   0.00000   0.00180   0.00180   2.11548
   A17        2.12484  -0.00009   0.00000  -0.00057  -0.00057   2.12427
   A18        2.04466  -0.00020   0.00000  -0.00124  -0.00124   2.04342
    D1        3.11408  -0.00003   0.00000  -0.00329  -0.00329   3.11079
    D2       -1.04251   0.00016   0.00000  -0.00022  -0.00022  -1.04273
    D3        1.00306  -0.00019   0.00000  -0.00547  -0.00546   0.99760
    D4       -1.06788  -0.00002   0.00000  -0.00320  -0.00320  -1.07107
    D5        1.05872   0.00016   0.00000  -0.00012  -0.00013   1.05859
    D6        3.10429  -0.00019   0.00000  -0.00537  -0.00537   3.09892
    D7        1.01858   0.00000   0.00000  -0.00282  -0.00282   1.01576
    D8       -3.13801   0.00018   0.00000   0.00026   0.00026  -3.13776
    D9       -1.09244  -0.00017   0.00000  -0.00499  -0.00499  -1.09743
   D10        2.05661   0.00008   0.00000   0.00508   0.00509   2.06169
   D11       -1.06226   0.00003   0.00000   0.00235   0.00235  -1.05990
   D12       -0.07825  -0.00002   0.00000   0.00330   0.00330  -0.07495
   D13        3.08608  -0.00007   0.00000   0.00057   0.00057   3.08665
   D14       -2.11679   0.00009   0.00000   0.00535   0.00535  -2.11144
   D15        1.04753   0.00004   0.00000   0.00262   0.00262   1.05015
   D16        0.01891  -0.00002   0.00000  -0.00109  -0.00109   0.01782
   D17       -3.12417  -0.00006   0.00000  -0.00261  -0.00261  -3.12678
   D18        3.13712   0.00003   0.00000   0.00172   0.00172   3.13884
   D19       -0.00596  -0.00001   0.00000   0.00020   0.00020  -0.00575
         Item               Value     Threshold  Converged?
 Maximum Force            0.002523     0.000450     NO 
 RMS     Force            0.000933     0.000300     NO 
 Maximum Displacement     0.018266     0.001800     NO 
 RMS     Displacement     0.005555     0.001200     NO 
 Predicted change in Energy=-6.366182D-05
 GradGradGradGradGradGradGradGradGradGradGradGradGradGradGradGradGradGrad

                          Input orientation:                          
 ---------------------------------------------------------------------
 Center     Atomic      Atomic             Coordinates (Angstroms)
 Number     Number       Type             X           Y           Z
 ---------------------------------------------------------------------
      1          6           0       -1.709668   -0.259922   -0.293796
      2          6           0       -0.539902    0.530918    0.297545
      3          1           0       -2.622655    0.333904   -0.301249
      4          1           0       -1.490847   -0.562992   -1.316620
      5          1           0       -1.902335   -1.162219    0.286461
      6          6           0        0.717818   -0.280717    0.357105
      7          1           0       -0.361651    1.431922   -0.290638
      8          1           0       -0.806158    0.857583    1.305903
      9          6           0        1.844671    0.009887   -0.285491
     10          1           0        0.674391   -1.179649    0.964030
     11          1           0        1.926146    0.895426   -0.902106
     12          1           0        2.717782   -0.621993   -0.214684
 ---------------------------------------------------------------------
                    Distance matrix (angstroms):
                    1          2          3          4          5
     1  C    0.000000
     2  C    1.530838   0.000000
     3  H    1.089141   2.176058   0.000000
     4  H    1.088992   2.169438   1.765330   0.000000
     5  H    1.089936   2.173261   1.761434   1.760189   0.000000
     6  C    2.513324   1.498052   3.459761   2.785540   2.765364
     7  H    2.163214   1.090660   2.513542   2.511454   3.071859
     8  H    2.150392   1.092881   2.481297   3.060141   2.514054
     9  C    3.564575   2.509501   4.479089   3.537950   3.967495
    10  H    2.848116   2.201080   3.842172   3.204666   2.664380
    11  H    3.863161   2.766482   4.622545   3.738267   4.505981
    12  H    4.442935   3.493435   5.426002   4.350897   4.678512
                    6          7          8          9         10
     6  C    0.000000
     7  H    2.125549   0.000000
     8  H    2.125665   1.753966   0.000000
     9  C    1.329352   2.624894   3.205935   0.000000
    10  H    1.085506   3.076992   2.541500   2.084671   0.000000
    11  H    2.104515   2.428114   3.513150   1.082143   3.058642
    12  H    2.107906   3.702330   4.113331   1.080097   2.424004
                   11         12
    11  H    0.000000
    12  H    1.844397   0.000000
 Stoichiometry    C4H8
 Framework group  C1[X(C4H8)]
 Deg. of freedom    30
 Full point group                 C1      NOp   1
 Largest Abelian subgroup         C1      NOp   1
 Largest concise Abelian subgroup C1      NOp   1
                         Standard orientation:                         
 ---------------------------------------------------------------------
 Center     Atomic      Atomic             Coordinates (Angstroms)
 Number     Number       Type             X           Y           Z
 ---------------------------------------------------------------------
      1          6           0       -1.710361   -0.256317   -0.294429
      2          6           0       -0.539731    0.529682    0.301637
      3          1           0       -2.622830    0.338342   -0.297792
      4          1           0       -1.492103   -0.552995   -1.319245
      5          1           0       -1.903649   -1.162159    0.280072
      6          6           0        0.717296   -0.283418    0.355604
      7          1           0       -0.360863    1.434293   -0.280793
      8          1           0       -0.805407    0.850089    1.312154
      9          6           0        1.844215    0.010327   -0.285446
     10          1           0        0.673259   -1.186196    0.956748
     11          1           0        1.926286    0.899742   -0.896378
     12          1           0        2.716794   -0.622758   -0.218962
 ---------------------------------------------------------------------
 Rotational constants (GHZ):          22.4904646           4.1882592           4.0967885
 Standard basis: CC-pVTZ (5D, 7F)
 There are   260 symmetry adapted cartesian basis functions of A   symmetry.
 There are   232 symmetry adapted basis functions of A   symmetry.
   232 basis functions,   344 primitive gaussians,   260 cartesian basis functions
    16 alpha electrons       16 beta electrons
       nuclear repulsion energy       117.4804129074 Hartrees.
 NAtoms=   12 NActive=   12 NUniq=   12 SFac= 1.00D+00 NAtFMM=   60 NAOKFM=F Big=F
 Integral buffers will be    131072 words long.
 Raffenetti 2 integral format.
 Two-electron integral symmetry is turned on.
 Nuclear repulsion after empirical dispersion term =      117.4747496644 Hartrees.
 One-electron integrals computed using PRISM.
 NBasis=   232 RedAO= T EigKep=  4.53D-04  NBF=   232
 NBsUse=   232 1.00D-06 EigRej= -1.00D+00 NBFU=   232
 Initial guess from the checkpoint file:  "/localscratch/339542/Gau-25684.chk"
 B after Tr=    -0.000000    0.000000   -0.000000
         Rot=    0.999995   -0.003264   -0.000142    0.000335 Ang=  -0.38 deg.
 Initial guess <Sx>= 0.0000 <Sy>= 0.0000 <Sz>= 0.0000 <S**2>=-0.0000 S=-0.0000
 Keep R1 and R2 ints in memory in canonical form, NReq=774239228.
 Requested convergence on RMS density matrix=1.00D-08 within 128 cycles.
 Requested convergence on MAX density matrix=1.00D-06.
 Requested convergence on             energy=1.00D-06.
 No special actions if energy rises.
 SCF Done:  E(UB2PLYPD3) =  -156.901832791     A.U. after    9 cycles
            NFock=  9  Conv=0.27D-08     -V/T= 2.0048
 <Sx>= 0.0000 <Sy>= 0.0000 <Sz>= 0.0000 <S**2>=-0.0000 S=-0.0000
 <L.S>=  0.00000000000    
 Annihilation of the first spin contaminant:
 S**2 before annihilation    -0.0000,   after     0.0000
 DoSCS=T DFT=T ScalE2(SS,OS)=  0.270000  0.270000
 ExpMin= 1.03D-01 ExpMax= 8.24D+03 ExpMxC= 2.81D+02 IAcc=3 IRadAn=         5 AccDes= 0.00D+00
 HarFok:  IExCor=  205 AccDes= 0.00D+00 IRadAn=         5 IDoV=-2 UseB2=F ITyADJ=14
 ICtDFT= 12500011 ScaDFX=  1.000000  1.000000  1.000000  1.000000
 Range of M.O.s used for correlation:     5   232
 NBasis=   232 NAE=    16 NBE=    16 NFC=     4 NFV=     0
 NROrb=    228 NOA=    12 NOB=    12 NVA=   216 NVB=   216

 **** Warning!!: The largest alpha MO coefficient is  0.11630803D+02


 **** Warning!!: The largest beta MO coefficient is  0.11630803D+02

 DoSCS=T DFT=T ScalE2(SS,OS)=  0.270000  0.270000
 Fully direct method using O(ONN) memory.
 JobTyp=2 Pass  1:  I=   5 to  16 NPSUse= 40 ParTrn=T ParDer=T DoDerP=T.
 JobTyp=3 Pass  1:  I=   5 to  16 NPSUse= 40 ParTrn=T ParDer=T DoDerP=T.
 Spin components of T(2) and E(2):
     alpha-alpha T2 =       0.3979125974D-01 E2=     -0.2492427000D-01
     alpha-beta  T2 =       0.2583402721D+00 E2=     -0.1736025599D+00
     beta-beta   T2 =       0.3979125974D-01 E2=     -0.2492427000D-01
 (S**2,0)=  0.00000D+00           (S**2,1)=  0.00000D+00
 E(PUHF)=      -0.15690183279D+03        E(PMP2)=      -0.15712528389D+03
 E2(B2PLYPD3) =    -0.2234510999D+00 E(B2PLYPD3) =    -0.15712528389063D+03
          IDoAtm=111111111111
          Differentiating once with respect to electric field.
                with respect to dipole field.
          Differentiating once with respect to nuclear coordinates.
 Keep R1 and R2 ints in memory in canonical form, NReq=774248262.
          There are     1 degrees of freedom in the 1st order CPHF.  IDoFFX=0 NUNeed=     1.
 LinEq1:  Iter=  0 NonCon=     1 RMS=5.51D-04 Max=7.11D-03 NDo=     1
 AX will form     1 AO Fock derivatives at one time.
 LinEq1:  Iter=  1 NonCon=     1 RMS=2.20D-04 Max=2.80D-03 NDo=     1
 LinEq1:  Iter=  2 NonCon=     1 RMS=5.90D-05 Max=1.63D-03 NDo=     1
 LinEq1:  Iter=  3 NonCon=     1 RMS=3.32D-05 Max=8.38D-04 NDo=     1
 LinEq1:  Iter=  4 NonCon=     1 RMS=8.90D-06 Max=1.28D-04 NDo=     1
 LinEq1:  Iter=  5 NonCon=     1 RMS=2.42D-06 Max=2.25D-05 NDo=     1
 LinEq1:  Iter=  6 NonCon=     1 RMS=8.85D-07 Max=1.33D-05 NDo=     1
 LinEq1:  Iter=  7 NonCon=     1 RMS=3.09D-07 Max=4.54D-06 NDo=     1
 LinEq1:  Iter=  8 NonCon=     1 RMS=1.08D-07 Max=1.29D-06 NDo=     1
 LinEq1:  Iter=  9 NonCon=     1 RMS=1.56D-08 Max=1.40D-07 NDo=     1
 LinEq1:  Iter= 10 NonCon=     1 RMS=5.86D-09 Max=6.14D-08 NDo=     1
 LinEq1:  Iter= 11 NonCon=     1 RMS=1.72D-09 Max=1.58D-08 NDo=     1
 LinEq1:  Iter= 12 NonCon=     1 RMS=3.18D-10 Max=3.95D-09 NDo=     1
 LinEq1:  Iter= 13 NonCon=     0 RMS=5.39D-11 Max=7.76D-10 NDo=     1
 Linear equations converged to 1.000D-10 1.000D-09 after    13 iterations.
 End of Minotr F.D. properties file   721 does not exist.
 End of Minotr F.D. properties file   722 does not exist.
 End of Minotr F.D. properties file   788 does not exist.
 Calling FoFJK, ICntrl=  10002127 FMM=F ISym2X=0 I1Cent= 0 IOpClX= 1 NMat=1 NMatS=1 NMatT=0.
 ***** Axes restored to original set *****
 -------------------------------------------------------------------
 Center     Atomic                   Forces (Hartrees/Bohr)
 Number     Number              X              Y              Z
 -------------------------------------------------------------------
      1        6          -0.000005074    0.000017259    0.000035054
      2        6           0.000417667   -0.000280967   -0.000107471
      3        1           0.000044927    0.000047496    0.000024070
      4        1          -0.000055844   -0.000022590   -0.000038227
      5        1          -0.000029344   -0.000044258   -0.000000638
      6        6          -0.000421233    0.000223787    0.000074002
      7        1          -0.000093186    0.000085196   -0.000019979
      8        1          -0.000025615    0.000037294    0.000044119
      9        6           0.000091432    0.000105201   -0.000010797
     10        1           0.000106347   -0.000093078   -0.000041031
     11        1          -0.000013094   -0.000002656   -0.000041764
     12        1          -0.000016980   -0.000072683    0.000082662
 -------------------------------------------------------------------
 Cartesian Forces:  Max     0.000421233 RMS     0.000127814

 GradGradGradGradGradGradGradGradGradGradGradGradGradGradGradGradGradGrad
 Berny optimization.
 Using GEDIIS/GDIIS optimizer.
 FormGI is forming the generalized inverse of G from B-inverse, IUseBI=4.
 Internal  Forces:  Max     0.000297057 RMS     0.000076881
 Search for a local minimum.
 Step number   2 out of a maximum of  100
 All quantities printed in internal units (Hartrees-Bohrs-Radians)
 Mixed Optimization -- En-DIIS/RFO-DIIS
 Swapping is turned off.
 Update second derivatives using D2CorX and points    1    2
 DE= -6.52D-05 DEPred=-6.37D-05 R= 1.02D+00
 TightC=F SS=  1.41D+00  RLast= 2.43D-02 DXNew= 5.0454D-01 7.2943D-02
 Trust test= 1.02D+00 RLast= 2.43D-02 DXMaxT set to 3.00D-01
 ITU=  1  0
     Eigenvalues ---    0.00344   0.00751   0.01698   0.03036   0.03041
     Eigenvalues ---    0.04158   0.05384   0.05491   0.05551   0.09312
     Eigenvalues ---    0.12815   0.15783   0.15999   0.16000   0.16000
     Eigenvalues ---    0.16000   0.16101   0.21505   0.21992   0.29274
     Eigenvalues ---    0.31465   0.34231   0.34431   0.34525   0.34599
     Eigenvalues ---    0.34738   0.35124   0.35457   0.36954   0.59890
 En-DIIS/RFO-DIIS/Sim-DIIS IScMMF=       -3 using points:     2    1
 RFO step:  Lambda=-2.29445439D-06.
 DidBck=F Rises=F RFO-DIIS coefs:    1.21471   -0.21471
 Iteration  1 RMS(Cart)=  0.00231653 RMS(Int)=  0.00000238
 Iteration  2 RMS(Cart)=  0.00000290 RMS(Int)=  0.00000071
 Iteration  3 RMS(Cart)=  0.00000000 RMS(Int)=  0.00000071
 Variable       Old X    -DE/DX   Delta X   Delta X   Delta X     New X
                                 (Linear)    (Quad)   (Total)
    R1        2.89286   0.00003  -0.00043   0.00049   0.00006   2.89293
    R2        2.05818  -0.00001  -0.00104   0.00092  -0.00012   2.05806
    R3        2.05790   0.00003  -0.00121   0.00120  -0.00001   2.05789
    R4        2.05968   0.00004  -0.00120   0.00123   0.00003   2.05971
    R5        2.83091  -0.00030  -0.00110   0.00007  -0.00103   2.82988
    R6        2.06105   0.00007  -0.00117   0.00127   0.00010   2.06115
    R7        2.06525   0.00006  -0.00103   0.00112   0.00009   2.06534
    R8        2.51211   0.00004   0.00048  -0.00037   0.00011   2.51223
    R9        2.05131   0.00005  -0.00155   0.00157   0.00002   2.05133
   R10        2.04495   0.00002  -0.00150   0.00144  -0.00006   2.04489
   R11        2.04109   0.00003  -0.00139   0.00138  -0.00001   2.04107
    A1        1.94070  -0.00013   0.00021  -0.00119  -0.00097   1.93972
    A2        1.93162   0.00010   0.00044   0.00033   0.00076   1.93238
    A3        1.93595   0.00005   0.00005   0.00038   0.00043   1.93639
    A4        1.88994  -0.00000  -0.00033   0.00015  -0.00018   1.88975
    A5        1.88265   0.00002  -0.00022   0.00020  -0.00002   1.88263
    A6        1.88090  -0.00005  -0.00019   0.00016  -0.00003   1.88087
    A7        1.95736   0.00017   0.00114  -0.00007   0.00107   1.95843
    A8        1.92127  -0.00009  -0.00036   0.00006  -0.00030   1.92096
    A9        1.90145  -0.00007  -0.00060  -0.00025  -0.00085   1.90060
   A10        1.90902   0.00003   0.00010   0.00094   0.00105   1.91006
   A11        1.90689  -0.00006   0.00011  -0.00058  -0.00047   1.90642
   A12        1.86552   0.00001  -0.00047  -0.00012  -0.00059   1.86493
   A13        2.18220   0.00007   0.00064  -0.00025   0.00039   2.18259
   A14        2.02341   0.00010  -0.00031   0.00098   0.00066   2.02407
   A15        2.07741  -0.00017  -0.00031  -0.00072  -0.00104   2.07637
   A16        2.11548   0.00007   0.00039   0.00007   0.00046   2.11594
   A17        2.12427  -0.00014  -0.00012  -0.00078  -0.00090   2.12337
   A18        2.04342   0.00007  -0.00027   0.00071   0.00044   2.04387
    D1        3.11079  -0.00004  -0.00071  -0.00118  -0.00189   3.10890
    D2       -1.04273   0.00006  -0.00005   0.00002  -0.00003  -1.04276
    D3        0.99760  -0.00003  -0.00117  -0.00023  -0.00140   0.99619
    D4       -1.07107  -0.00006  -0.00069  -0.00157  -0.00226  -1.07333
    D5        1.05859   0.00004  -0.00003  -0.00037  -0.00039   1.05820
    D6        3.09892  -0.00005  -0.00115  -0.00062  -0.00177   3.09715
    D7        1.01576  -0.00002  -0.00060  -0.00090  -0.00151   1.01426
    D8       -3.13776   0.00008   0.00005   0.00030   0.00035  -3.13740
    D9       -1.09743  -0.00001  -0.00107   0.00005  -0.00102  -1.09845
   D10        2.06169   0.00004   0.00109   0.00300   0.00409   2.06578
   D11       -1.05990   0.00003   0.00051   0.00281   0.00331  -1.05659
   D12       -0.07495   0.00002   0.00071   0.00230   0.00301  -0.07193
   D13        3.08665   0.00000   0.00012   0.00211   0.00223   3.08888
   D14       -2.11144   0.00003   0.00115   0.00224   0.00339  -2.10805
   D15        1.05015   0.00001   0.00056   0.00205   0.00261   1.05277
   D16        0.01782  -0.00004  -0.00023  -0.00130  -0.00153   0.01629
   D17       -3.12678  -0.00003  -0.00056  -0.00050  -0.00106  -3.12784
   D18        3.13884  -0.00003   0.00037  -0.00108  -0.00071   3.13813
   D19       -0.00575  -0.00001   0.00004  -0.00029  -0.00024  -0.00600
         Item               Value     Threshold  Converged?
 Maximum Force            0.000297     0.000450     YES
 RMS     Force            0.000077     0.000300     YES
 Maximum Displacement     0.007378     0.001800     NO 
 RMS     Displacement     0.002317     0.001200     NO 
 Predicted change in Energy=-1.147427D-06
 GradGradGradGradGradGradGradGradGradGradGradGradGradGradGradGradGradGrad

                          Input orientation:                          
 ---------------------------------------------------------------------
 Center     Atomic      Atomic             Coordinates (Angstroms)
 Number     Number       Type             X           Y           Z
 ---------------------------------------------------------------------
      1          6           0       -1.710592   -0.260220   -0.293325
      2          6           0       -0.539470    0.530303    0.295837
      3          1           0       -2.622891    0.334570   -0.298440
      4          1           0       -1.494751   -0.563224   -1.316798
      5          1           0       -1.902899   -1.162496    0.287110
      6          6           0        0.717870   -0.280886    0.355797
      7          1           0       -0.362421    1.431312   -0.292798
      8          1           0       -0.805060    0.857689    1.304191
      9          6           0        1.845931    0.010756   -0.284329
     10          1           0        0.674605   -1.180726    0.961407
     11          1           0        1.928596    0.896490   -0.900451
     12          1           0        2.718672   -0.621419   -0.211739
 ---------------------------------------------------------------------
                    Distance matrix (angstroms):
                    1          2          3          4          5
     1  C    0.000000
     2  C    1.530870   0.000000
     3  H    1.089078   2.175344   0.000000
     4  H    1.088989   2.170013   1.765160   0.000000
     5  H    1.089949   2.173611   1.761382   1.760180   0.000000
     6  C    2.513804   1.497507   3.459407   2.788007   2.765933
     7  H    2.163064   1.090713   2.512489   2.511757   3.072004
     8  H    2.149829   1.092930   2.479232   3.060106   2.514130
     9  C    3.566842   2.509314   4.480561   3.543388   3.969482
    10  H    2.847955   2.201041   3.841461   3.205875   2.664308
    11  H    3.866557   2.767047   4.625387   3.744785   4.508888
    12  H    4.444716   3.492791   5.427129   4.356314   4.679801
                    6          7          8          9         10
     6  C    0.000000
     7  H    2.125870   0.000000
     8  H    2.124880   1.753666   0.000000
     9  C    1.329413   2.625808   3.204441   0.000000
    10  H    1.085517   3.077531   2.542055   2.084104   0.000000
    11  H    2.104811   2.429822   3.512096   1.082110   3.058403
    12  H    2.107432   3.703162   4.111264   1.080089   2.422252
                   11         12
    11  H    0.000000
    12  H    1.844612   0.000000
 Stoichiometry    C4H8
 Framework group  C1[X(C4H8)]
 Deg. of freedom    30
 Full point group                 C1      NOp   1
 Largest Abelian subgroup         C1      NOp   1
 Largest concise Abelian subgroup C1      NOp   1
                         Standard orientation:                         
 ---------------------------------------------------------------------
 Center     Atomic      Atomic             Coordinates (Angstroms)
 Number     Number       Type             X           Y           Z
 ---------------------------------------------------------------------
      1          6           0       -1.711592   -0.254501   -0.294513
      2          6           0       -0.539140    0.527867    0.302834
      3          1           0       -2.623139    0.341460   -0.292417
      4          1           0       -1.496706   -0.546246   -1.321453
      5          1           0       -1.904719   -1.163006    0.275846
      6          6           0        0.717203   -0.285531    0.352946
      7          1           0       -0.361277    1.435216   -0.275732
      8          1           0       -0.803752    0.844224    1.314957
      9          6           0        1.845276    0.011870   -0.284504
     10          1           0        0.673135   -1.192070    0.948422
     11          1           0        1.928720    0.904373   -0.890671
     12          1           0        2.717255   -0.622183   -0.219528
 ---------------------------------------------------------------------
 Rotational constants (GHZ):          22.5396692           4.1854061           4.0933709
 Standard basis: CC-pVTZ (5D, 7F)
 There are   260 symmetry adapted cartesian basis functions of A   symmetry.
 There are   232 symmetry adapted basis functions of A   symmetry.
   232 basis functions,   344 primitive gaussians,   260 cartesian basis functions
    16 alpha electrons       16 beta electrons
       nuclear repulsion energy       117.4765759408 Hartrees.
 NAtoms=   12 NActive=   12 NUniq=   12 SFac= 1.00D+00 NAtFMM=   60 NAOKFM=F Big=F
 Integral buffers will be    131072 words long.
 Raffenetti 2 integral format.
 Two-electron integral symmetry is turned on.
 Nuclear repulsion after empirical dispersion term =      117.4709139031 Hartrees.
 One-electron integrals computed using PRISM.
 NBasis=   232 RedAO= T EigKep=  4.53D-04  NBF=   232
 NBsUse=   232 1.00D-06 EigRej= -1.00D+00 NBFU=   232
 Initial guess from the checkpoint file:  "/localscratch/339542/Gau-25684.chk"
 B after Tr=     0.000000    0.000000   -0.000000
         Rot=    0.999997   -0.002374   -0.000093    0.000136 Ang=  -0.27 deg.
 Initial guess <Sx>= 0.0000 <Sy>= 0.0000 <Sz>= 0.0000 <S**2>=-0.0000 S=-0.0000
 Keep R1 and R2 ints in memory in canonical form, NReq=774239228.
 Requested convergence on RMS density matrix=1.00D-08 within 128 cycles.
 Requested convergence on MAX density matrix=1.00D-06.
 Requested convergence on             energy=1.00D-06.
 No special actions if energy rises.
 SCF Done:  E(UB2PLYPD3) =  -156.901837302     A.U. after    7 cycles
            NFock=  7  Conv=0.62D-08     -V/T= 2.0047
 <Sx>= 0.0000 <Sy>= 0.0000 <Sz>= 0.0000 <S**2>=-0.0000 S=-0.0000
 <L.S>=  0.00000000000    
 Annihilation of the first spin contaminant:
 S**2 before annihilation    -0.0000,   after    -0.0000
 DoSCS=T DFT=T ScalE2(SS,OS)=  0.270000  0.270000
 ExpMin= 1.03D-01 ExpMax= 8.24D+03 ExpMxC= 2.81D+02 IAcc=3 IRadAn=         5 AccDes= 0.00D+00
 HarFok:  IExCor=  205 AccDes= 0.00D+00 IRadAn=         5 IDoV=-2 UseB2=F ITyADJ=14
 ICtDFT= 12500011 ScaDFX=  1.000000  1.000000  1.000000  1.000000
 Range of M.O.s used for correlation:     5   232
 NBasis=   232 NAE=    16 NBE=    16 NFC=     4 NFV=     0
 NROrb=    228 NOA=    12 NOB=    12 NVA=   216 NVB=   216

 **** Warning!!: The largest alpha MO coefficient is  0.11632081D+02


 **** Warning!!: The largest beta MO coefficient is  0.11632081D+02

 DoSCS=T DFT=T ScalE2(SS,OS)=  0.270000  0.270000
 Fully direct method using O(ONN) memory.
 JobTyp=2 Pass  1:  I=   5 to  16 NPSUse= 40 ParTrn=T ParDer=T DoDerP=T.
 JobTyp=3 Pass  1:  I=   5 to  16 NPSUse= 40 ParTrn=T ParDer=T DoDerP=T.
 Spin components of T(2) and E(2):
     alpha-alpha T2 =       0.3978906765D-01 E2=     -0.2492410836D-01
     alpha-beta  T2 =       0.2583275443D+00 E2=     -0.1735998668D+00
     beta-beta   T2 =       0.3978906765D-01 E2=     -0.2492410836D-01
 (S**2,0)=  0.00000D+00           (S**2,1)=  0.00000D+00
 E(PUHF)=      -0.15690183730D+03        E(PMP2)=      -0.15712528539D+03
 E2(B2PLYPD3) =    -0.2234480836D+00 E(B2PLYPD3) =    -0.15712528538547D+03
          IDoAtm=111111111111
          Differentiating once with respect to electric field.
                with respect to dipole field.
          Differentiating once with respect to nuclear coordinates.
 Keep R1 and R2 ints in memory in canonical form, NReq=774248262.
          There are     1 degrees of freedom in the 1st order CPHF.  IDoFFX=0 NUNeed=     1.
 LinEq1:  Iter=  0 NonCon=     1 RMS=5.51D-04 Max=7.12D-03 NDo=     1
 AX will form     1 AO Fock derivatives at one time.
 LinEq1:  Iter=  1 NonCon=     1 RMS=2.20D-04 Max=2.80D-03 NDo=     1
 LinEq1:  Iter=  2 NonCon=     1 RMS=5.90D-05 Max=1.63D-03 NDo=     1
 LinEq1:  Iter=  3 NonCon=     1 RMS=3.32D-05 Max=8.38D-04 NDo=     1
 LinEq1:  Iter=  4 NonCon=     1 RMS=8.89D-06 Max=1.28D-04 NDo=     1
 LinEq1:  Iter=  5 NonCon=     1 RMS=2.42D-06 Max=2.24D-05 NDo=     1
 LinEq1:  Iter=  6 NonCon=     1 RMS=8.84D-07 Max=1.33D-05 NDo=     1
 LinEq1:  Iter=  7 NonCon=     1 RMS=3.08D-07 Max=4.54D-06 NDo=     1
 LinEq1:  Iter=  8 NonCon=     1 RMS=1.08D-07 Max=1.29D-06 NDo=     1
 LinEq1:  Iter=  9 NonCon=     1 RMS=1.56D-08 Max=1.41D-07 NDo=     1
 LinEq1:  Iter= 10 NonCon=     1 RMS=5.90D-09 Max=6.15D-08 NDo=     1
 LinEq1:  Iter= 11 NonCon=     1 RMS=1.72D-09 Max=1.57D-08 NDo=     1
 LinEq1:  Iter= 12 NonCon=     1 RMS=3.17D-10 Max=3.93D-09 NDo=     1
 LinEq1:  Iter= 13 NonCon=     0 RMS=5.37D-11 Max=7.74D-10 NDo=     1
 Linear equations converged to 1.000D-10 1.000D-09 after    13 iterations.
 End of Minotr F.D. properties file   721 does not exist.
 End of Minotr F.D. properties file   722 does not exist.
 End of Minotr F.D. properties file   788 does not exist.
 Calling FoFJK, ICntrl=  10002127 FMM=F ISym2X=0 I1Cent= 0 IOpClX= 1 NMat=1 NMatS=1 NMatT=0.
 ***** Axes restored to original set *****
 -------------------------------------------------------------------
 Center     Atomic                   Forces (Hartrees/Bohr)
 Number     Number              X              Y              Z
 -------------------------------------------------------------------
      1        6          -0.000006056    0.000025828    0.000023959
      2        6           0.000099908   -0.000150073   -0.000019502
      3        1          -0.000020802    0.000031384    0.000001473
      4        1          -0.000003121   -0.000015315   -0.000033601
      5        1          -0.000002011   -0.000024679    0.000013816
      6        6          -0.000107025    0.000121832   -0.000026235
      7        1          -0.000011937    0.000023241   -0.000027388
      8        1          -0.000018526    0.000041232    0.000051796
      9        6           0.000031208    0.000023456    0.000010042
     10        1           0.000022187   -0.000059426   -0.000002953
     11        1          -0.000004638    0.000021030   -0.000022684
     12        1           0.000020813   -0.000038509    0.000031278
 -------------------------------------------------------------------
 Cartesian Forces:  Max     0.000150073 RMS     0.000047268

 GradGradGradGradGradGradGradGradGradGradGradGradGradGradGradGradGradGrad
 Berny optimization.
 Using GEDIIS/GDIIS optimizer.
 FormGI is forming the generalized inverse of G from B-inverse, IUseBI=4.
 Internal  Forces:  Max     0.000083530 RMS     0.000029606
 Search for a local minimum.
 Step number   3 out of a maximum of  100
 All quantities printed in internal units (Hartrees-Bohrs-Radians)
 Mixed Optimization -- En-DIIS/RFO-DIIS
 Swapping is turned off.
 Update second derivatives using D2CorX and points    1    2    3
 DE= -1.49D-06 DEPred=-1.15D-06 R= 1.30D+00
 TightC=F SS=  1.41D+00  RLast= 9.53D-03 DXNew= 5.0454D-01 2.8601D-02
 Trust test= 1.30D+00 RLast= 9.53D-03 DXMaxT set to 3.00D-01
 ITU=  1  1  0
     Eigenvalues ---    0.00346   0.00559   0.01683   0.02993   0.03048
     Eigenvalues ---    0.04310   0.05229   0.05495   0.05581   0.09306
     Eigenvalues ---    0.12905   0.14760   0.15999   0.16000   0.16000
     Eigenvalues ---    0.16017   0.16111   0.20490   0.22029   0.29264
     Eigenvalues ---    0.31472   0.34274   0.34438   0.34543   0.34651
     Eigenvalues ---    0.34788   0.35115   0.35454   0.37002   0.59818
 En-DIIS/RFO-DIIS/Sim-DIIS IScMMF=       -3 using points:     3    2    1
 RFO step:  Lambda=-7.20587546D-07.
 DidBck=F Rises=F RFO-DIIS coefs:    1.80855   -0.76678   -0.04178
 Iteration  1 RMS(Cart)=  0.00219186 RMS(Int)=  0.00000178
 Iteration  2 RMS(Cart)=  0.00000251 RMS(Int)=  0.00000043
 Iteration  3 RMS(Cart)=  0.00000000 RMS(Int)=  0.00000043
 Variable       Old X    -DE/DX   Delta X   Delta X   Delta X     New X
                                 (Linear)    (Quad)   (Total)
    R1        2.89293   0.00001  -0.00003   0.00008   0.00005   2.89298
    R2        2.05806   0.00003  -0.00030   0.00037   0.00007   2.05813
    R3        2.05789   0.00004  -0.00024   0.00032   0.00008   2.05797
    R4        2.05971   0.00003  -0.00021   0.00027   0.00006   2.05976
    R5        2.82988  -0.00007  -0.00105   0.00052  -0.00052   2.82936
    R6        2.06115   0.00003  -0.00015   0.00023   0.00009   2.06124
    R7        2.06534   0.00006  -0.00013   0.00035   0.00023   2.06557
    R8        2.51223   0.00003   0.00019  -0.00007   0.00012   2.51234
    R9        2.05133   0.00005  -0.00028   0.00040   0.00011   2.05144
   R10        2.04489   0.00003  -0.00034   0.00037   0.00003   2.04493
   R11        2.04107   0.00004  -0.00028   0.00037   0.00009   2.04116
    A1        1.93972  -0.00002  -0.00074   0.00036  -0.00039   1.93934
    A2        1.93238   0.00002   0.00070  -0.00037   0.00034   1.93272
    A3        1.93639   0.00000   0.00036  -0.00027   0.00009   1.93647
    A4        1.88975   0.00000  -0.00021   0.00015  -0.00006   1.88969
    A5        1.88263   0.00001  -0.00006   0.00011   0.00006   1.88269
    A6        1.88087  -0.00001  -0.00006   0.00003  -0.00003   1.88085
    A7        1.95843   0.00008   0.00109  -0.00024   0.00084   1.95927
    A8        1.92096  -0.00003  -0.00031   0.00004  -0.00028   1.92068
    A9        1.90060  -0.00003  -0.00081   0.00039  -0.00042   1.90018
   A10        1.91006  -0.00002   0.00087  -0.00068   0.00019   1.91025
   A11        1.90642  -0.00002  -0.00036   0.00031  -0.00005   1.90637
   A12        1.86493   0.00001  -0.00056   0.00022  -0.00034   1.86459
   A13        2.18259   0.00005   0.00044  -0.00001   0.00043   2.18302
   A14        2.02407   0.00001   0.00048  -0.00024   0.00023   2.02430
   A15        2.07637  -0.00006  -0.00090   0.00025  -0.00065   2.07571
   A16        2.11594   0.00002   0.00045  -0.00021   0.00023   2.11618
   A17        2.12337  -0.00004  -0.00075   0.00024  -0.00051   2.12286
   A18        2.04387   0.00003   0.00031  -0.00003   0.00028   2.04414
    D1        3.10890   0.00000  -0.00166   0.00139  -0.00027   3.10863
    D2       -1.04276   0.00001  -0.00003   0.00038   0.00035  -1.04241
    D3        0.99619  -0.00001  -0.00136   0.00090  -0.00047   0.99573
    D4       -1.07333  -0.00000  -0.00196   0.00157  -0.00039  -1.07372
    D5        1.05820   0.00001  -0.00032   0.00056   0.00024   1.05843
    D6        3.09715  -0.00001  -0.00166   0.00107  -0.00058   3.09657
    D7        1.01426   0.00000  -0.00134   0.00119  -0.00014   1.01411
    D8       -3.13740   0.00002   0.00030   0.00018   0.00048  -3.13692
    D9       -1.09845  -0.00001  -0.00104   0.00070  -0.00034  -1.09879
   D10        2.06578   0.00002   0.00352   0.00052   0.00405   2.06983
   D11       -1.05659   0.00001   0.00278   0.00058   0.00335  -1.05324
   D12       -0.07193   0.00001   0.00257   0.00112   0.00370  -0.06824
   D13        3.08888   0.00001   0.00183   0.00118   0.00300   3.09188
   D14       -2.10805   0.00002   0.00297   0.00107   0.00403  -2.10401
   D15        1.05277   0.00002   0.00222   0.00112   0.00334   1.05610
   D16        0.01629  -0.00001  -0.00129   0.00041  -0.00088   0.01541
   D17       -3.12784  -0.00001  -0.00097   0.00006  -0.00091  -3.12875
   D18        3.13813  -0.00000  -0.00051   0.00035  -0.00015   3.13797
   D19       -0.00600  -0.00001  -0.00019   0.00000  -0.00019  -0.00618
         Item               Value     Threshold  Converged?
 Maximum Force            0.000084     0.000450     YES
 RMS     Force            0.000030     0.000300     YES
 Maximum Displacement     0.005897     0.001800     NO 
[...]
    D7        1.01468  -0.00000   0.00000  -0.00003  -0.00003   1.01466
    D8       -3.13648  -0.00000   0.00000  -0.00005  -0.00005  -3.13653
    D9       -1.09823   0.00000   0.00000  -0.00000  -0.00000  -1.09823
   D10        2.07375  -0.00000   0.00000  -0.00001  -0.00001   2.07374
   D11       -1.04961   0.00000   0.00000   0.00003   0.00003  -1.04958
   D12       -0.06436  -0.00000   0.00000  -0.00000  -0.00000  -0.06437
   D13        3.09547   0.00000   0.00000   0.00004   0.00004   3.09550
   D14       -2.09995  -0.00000   0.00000  -0.00001  -0.00001  -2.09996
   D15        1.05988   0.00000   0.00000   0.00003   0.00003   1.05991
   D16        0.01497  -0.00000   0.00000   0.00001   0.00001   0.01498
   D17       -3.12913   0.00000   0.00000   0.00005   0.00005  -3.12908
   D18        3.13783  -0.00000   0.00000  -0.00003  -0.00003   3.13780
   D19       -0.00627   0.00000   0.00000   0.00001   0.00001  -0.00626
         Item               Value     Threshold  Converged?
 Maximum Force            0.000007     0.000450     YES
 RMS     Force            0.000002     0.000300     YES
 Maximum Displacement     0.000127     0.001800     YES
 RMS     Displacement     0.000038     0.001200     YES
 Predicted change in Energy=-1.084409D-09
 Optimization completed.
    -- Stationary point found.
                           ----------------------------
                           !   Optimized Parameters   !
                           ! (Angstroms and Degrees)  !
 --------------------------                            --------------------------
 ! Name  Definition              Value          Derivative Info.                !
 --------------------------------------------------------------------------------
 ! R1    R(1,2)                  1.5308         -DE/DX =    0.0                 !
 ! R2    R(1,3)                  1.0891         -DE/DX =    0.0                 !
 ! R3    R(1,4)                  1.0891         -DE/DX =    0.0                 !
 ! R4    R(1,5)                  1.09           -DE/DX =    0.0                 !
 ! R5    R(2,6)                  1.4973         -DE/DX =    0.0                 !
 ! R6    R(2,7)                  1.0908         -DE/DX =    0.0                 !
 ! R7    R(2,8)                  1.0931         -DE/DX =    0.0                 !
 ! R8    R(6,9)                  1.3295         -DE/DX =    0.0                 !
 ! R9    R(6,10)                 1.0856         -DE/DX =    0.0                 !
 ! R10   R(9,11)                 1.0821         -DE/DX =    0.0                 !
 ! R11   R(9,12)                 1.0802         -DE/DX =    0.0                 !
 ! A1    A(2,1,3)              111.1207         -DE/DX =    0.0                 !
 ! A2    A(2,1,4)              110.7339         -DE/DX =    0.0                 !
 ! A3    A(2,1,5)              110.9487         -DE/DX =    0.0                 !
 ! A4    A(3,1,4)              108.2704         -DE/DX =    0.0                 !
 ! A5    A(3,1,5)              107.871          -DE/DX =    0.0                 !
 ! A6    A(4,1,5)              107.7652         -DE/DX =    0.0                 !
 ! A7    A(1,2,6)              112.2587         -DE/DX =    0.0                 !
 ! A8    A(1,2,7)              110.0542         -DE/DX =    0.0                 !
 ! A9    A(1,2,8)              108.8813         -DE/DX =    0.0                 !
 ! A10   A(6,2,7)              109.4394         -DE/DX =    0.0                 !
 ! A11   A(6,2,8)              109.222          -DE/DX =    0.0                 !
 ! A12   A(7,2,8)              106.831          -DE/DX =    0.0                 !
 ! A13   A(2,6,9)              125.0807         -DE/DX =    0.0                 !
 ! A14   A(2,6,10)             115.9783         -DE/DX =    0.0                 !
 ! A15   A(9,6,10)             118.933          -DE/DX =    0.0                 !
 ! A16   A(6,9,11)             121.2462         -DE/DX =    0.0                 !
 ! A17   A(6,9,12)             121.6334         -DE/DX =    0.0                 !
 ! A18   A(11,9,12)            117.1203         -DE/DX =    0.0                 !
 ! D1    D(3,1,2,6)            178.1465         -DE/DX =    0.0                 !
 ! D2    D(3,1,2,7)            -59.6977         -DE/DX =    0.0                 !
 ! D3    D(3,1,2,8)             57.0855         -DE/DX =    0.0                 !
 ! D4    D(4,1,2,6)            -61.4838         -DE/DX =    0.0                 !
 ! D5    D(4,1,2,7)             60.6721         -DE/DX =    0.0                 !
 ! D6    D(4,1,2,8)            177.4553         -DE/DX =    0.0                 !
 ! D7    D(5,1,2,6)             58.1371         -DE/DX =    0.0                 !
 ! D8    D(5,1,2,7)           -179.7071         -DE/DX =    0.0                 !
 ! D9    D(5,1,2,8)            -62.9238         -DE/DX =    0.0                 !
 ! D10   D(1,2,6,9)            118.8169         -DE/DX =    0.0                 !
 ! D11   D(1,2,6,10)           -60.1382         -DE/DX =    0.0                 !
 ! D12   D(7,2,6,9)             -3.6877         -DE/DX =    0.0                 !
 ! D13   D(7,2,6,10)           177.3573         -DE/DX =    0.0                 !
 ! D14   D(8,2,6,9)           -120.3183         -DE/DX =    0.0                 !
 ! D15   D(8,2,6,10)            60.7267         -DE/DX =    0.0                 !
 ! D16   D(2,6,9,11)             0.8577         -DE/DX =    0.0                 !
 ! D17   D(2,6,9,12)          -179.2859         -DE/DX =    0.0                 !
 ! D18   D(10,6,9,11)          179.7843         -DE/DX =    0.0                 !
 ! D19   D(10,6,9,12)           -0.3593         -DE/DX =    0.0                 !
 --------------------------------------------------------------------------------
 GradGradGradGradGradGradGradGradGradGradGradGradGradGradGradGradGradGrad


 ----------------------------------------------------------------------

 Electric dipole moment (input orientation):
 (Debye = 10**-18 statcoulomb cm , SI units = C m)
                  (au)            (Debye)         (10**-30 SI)
   Tot        0.144427D+00      0.367096D+00      0.122450D+01
   x         -0.138063D+00     -0.350920D+00     -0.117054D+01
   y          0.186299D-01      0.473524D-01      0.157951D+00
   z          0.380878D-01      0.968095D-01      0.322922D+00

 Dipole polarizability, Alpha (input orientation).
 (esu units = cm**3 , SI units = C**2 m**2 J**-1)
 Alpha(0;0):
               (au)            (10**-24 esu)      (10**-40 SI)
   iso        0.488243D+02      0.723501D+01      0.805004D+01
   aniso      0.223495D+02      0.331185D+01      0.368493D+01
   xx         0.619764D+02      0.918396D+01      0.102185D+02
   yx         0.541092D+00      0.801816D-01      0.892141D-01
   yy         0.429852D+02      0.636974D+01      0.708730D+01
   zx        -0.521862D+01     -0.773319D+00     -0.860433D+00
   zy        -0.294878D+01     -0.436964D+00     -0.486188D+00
   zz         0.415112D+02      0.615133D+01      0.684427D+01

 ----------------------------------------------------------------------

 Dipole orientation:
     6         -1.47148533         -0.73054948          2.88410167
     6          0.34585863          0.81658885          1.24936862
     1         -1.84667903          0.21431801          4.67362891
     1         -3.26481776         -1.01114655          1.91422569
     1         -0.68594053         -2.58810503          3.30260856
     6          0.96129075         -0.47923533         -1.18948937
     1         -0.46224149          2.67157022          0.85574484
     1          2.09017332          1.13660288          2.30848988
     6          0.45885897          0.43261339         -3.47592307
     1          1.85905617         -2.31690001         -1.02910283
     1         -0.44011647          2.25339056         -3.71778371
     1          0.93140668         -0.60411027         -5.16954388

 Electric dipole moment (dipole orientation):
 (Debye = 10**-18 statcoulomb cm , SI units = C m)
                  (au)            (Debye)         (10**-30 SI)
   Tot        0.144427D+00      0.367096D+00      0.122450D+01
   x          0.000000D+00      0.000000D+00      0.000000D+00
   y          0.000000D+00      0.000000D+00      0.000000D+00
   z          0.144427D+00      0.367096D+00      0.122450D+01

 Dipole polarizability, Alpha (dipole orientation).
 (esu units = cm**3 , SI units = C**2 m**2 J**-1)
 Alpha(0;0):
               (au)            (10**-24 esu)      (10**-40 SI)
   iso        0.488243D+02      0.723501D+01      0.805004D+01
   aniso      0.223495D+02      0.331185D+01      0.368493D+01
   xx         0.398108D+02      0.589935D+01      0.656391D+01
   yx        -0.219716D+01     -0.325586D+00     -0.362263D+00
   yy         0.441277D+02      0.653906D+01      0.727568D+01
   zx        -0.148111D+01     -0.219478D+00     -0.244202D+00
   zy        -0.372105D+01     -0.551403D+00     -0.613519D+00
   zz         0.625343D+02      0.926663D+01      0.103105D+02

 ----------------------------------------------------------------------
 1\1\GINC-N68\Freq\UB2PLYPD3-FC\CC-pVTZ\C4H8\ROOT\31-May-2019\0\\#N Geo
 m=AllCheck Guess=TCheck SCRF=Check GenChk UB2PLYPD3(FC)/CC-pVTZ Freq\\
 Title Card Required\\0,1\C,-1.7122757815,-0.2606121213,-0.2920121892\C
 ,-0.5391652608,0.5295705079,0.2935693167\H,-2.6237110066,0.3355863386,
 -0.2965695385\H,-1.4989036959,-0.5659445937,-1.3153826636\H,-1.9047975
 832,-1.1615169788,0.2905634253\C,0.717818523,-0.281819371,0.3529935565
 \H,-0.3626685617,1.4296649774,-0.2967679003\H,-0.802829762,0.859047732
 3,1.3019075724\C,1.8478996621,0.0123426064,-0.2824882446\H,0.673339114
 5,-1.1841617427,0.9549577757\H,1.9325442548,0.9002422769,-0.8952818096
 \H,2.7203410971,-0.6202506322,-0.2090293006\\Version=ES64L-G16RevB.01\
 State=1-A\HF=-156.9018378\MP2=-157.1252859\PUHF=-156.9018378\PMP2-0=-1
 57.1252859\S2=0.\S2-1=0.\S2A=0.\RMSD=2.127e-09\RMSF=4.288e-06\ZeroPoin
 t=0.1089345\Thermal=0.1141827\Dipole=-0.1380625,0.0186299,0.0380878\Di
 poleDeriv=0.0531991,-0.0220809,-0.013307,0.0597238,0.0943594,-0.039718
 8,-0.0110144,-0.0200623,0.1006079,0.0317286,0.0369067,0.0227549,0.0056
 071,0.0989839,0.0428727,0.0182305,0.0252583,0.1625973,-0.1613952,0.067
 2336,-0.012587,0.0941041,-0.0091406,-0.0013307,-0.0180048,-0.0104056,0
 .0648994,0.0330751,0.0054183,0.0548595,-0.0234358,0.0305154,-0.0500073
 ,-0.002901,-0.0647477,-0.1189758,0.0431746,-0.0187149,-0.015018,-0.065
 1635,-0.0953487,0.0726118,0.0195631,0.1018915,-0.0133437,0.1920767,-0.
 0724397,-0.1266628,-0.1636909,0.0231262,-0.1387703,-0.1014803,-0.13866
 38,-0.0917778,-0.0121687,-0.0602658,0.0197124,-0.0152419,-0.1018677,0.
 0614526,-0.0061973,0.1006241,-0.0033372,-0.0377524,0.0170825,0.0365881
 ,0.0492747,0.0308878,-0.0637022,0.0273997,-0.0828613,-0.1209294,-0.162
 8716,-0.0754101,-0.0287784,-0.070155,0.0003819,-0.152931,-0.0112575,-0
 .1685199,-0.1939461,0.0206836,0.0097687,0.0328944,0.0295733,-0.0581399
 ,0.1139791,0.0355136,0.1071681,0.0443865,0.0537603,0.044184,0.0043684,
 -0.0063323,-0.0374658,0.1136714,0.0363893,0.0952562,0.0600041,-0.05351
 01,0.0683177,0.0251754,0.1057362,0.0237081,0.0418725,0.0137591,0.05506
 23,0.1098147\Polar=61.9764474,0.5410925,42.9851573,-5.2186153,-2.94877
 96,41.5112123\PG=C01 [X(C4H8)]\NImag=0\\0.51266373,-0.04675966,0.54282
 613,-0.03245627,-0.02026662,0.55746912,-0.13572379,-0.04168183,-0.0321
 6319,0.46639708,-0.04601657,-0.11121304,-0.02140799,-0.00700347,0.5473
 0795,-0.03385896,-0.01913774,-0.09432092,-0.04170940,-0.03831070,0.563
 57787,-0.22986743,0.12330677,0.00057067,-0.02019740,0.01475575,0.00006
 950,0.25157304,0.12437521,-0.13056971,0.00009119,-0.01770751,0.0106913
 5,-0.00074032,-0.13384774,0.13974173,0.00123489,-0.00051189,-0.0485482
 0,-0.01127097,0.00818374,-0.00126951,0.00116122,0.00143948,0.04791460,
 -0.05931150,0.01648426,0.05379255,0.00373959,-0.00734078,-0.02627261,-
 0.00519656,0.00593499,0.02609516,0.06334262,0.01599933,-0.06775202,-0.
 06685739,0.00307291,-0.00554430,-0.01761889,0.00303340,-0.00538196,-0.
 01765067,-0.01430677,0.07094953,0.05212641,-0.06721952,-0.28262047,0.0
 0192232,-0.00318961,-0.01160300,-0.00011236,0.00071996,0.00152674,-0.0
 5566443,0.07605979,0.30666659,-0.05473730,-0.03481676,0.02386530,-0.00
 566014,-0.02203333,0.01481139,0.00555669,0.02247981,-0.01596895,-0.002
 12924,-0.00590270,0.00369513,0.05852270,-0.03543220,-0.22524596,0.1177
 9773,-0.00329252,-0.01519323,0.00931646,-0.00355042,-0.01469461,0.0097
 6364,0.00181821,0.00849305,-0.00517173,0.04219525,0.24557887,0.0244780
 3,0.11834544,-0.12658088,-0.00257740,-0.01248375,0.00775291,-0.0003858
 2,-0.00140198,-0.00038243,0.00426459,0.02631219,-0.01613642,-0.0245436
 6,-0.12902023,0.13415803,-0.03384923,0.01098901,-0.00291027,-0.1712443
 5,0.06742755,-0.00311143,-0.00302098,-0.00166245,-0.00178820,0.0025074
 1,0.00109179,0.00116909,0.00172480,0.00132405,0.00047867,0.70548557,-0
 .01293983,0.01432631,0.00079698,0.06396479,-0.13202964,0.01289454,-0.0
 0514467,-0.00229381,-0.00226711,-0.00021768,0.00013242,0.00006729,-0.0
 0106866,0.00055757,-0.00008181,0.00564344,0.49560958,-0.01069852,0.007
 33190,-0.00030695,-0.00000898,0.01071948,-0.08093399,-0.00180820,-0.00
 136332,-0.00027405,-0.00088090,0.00087561,0.00050397,0.00136467,-0.000
 00239,0.00044354,-0.21371468,-0.22381012,0.38334870,-0.00554356,-0.022
 17598,0.01451721,-0.05449464,-0.03471014,0.02487502,0.00052862,0.00068
 270,0.00060357,0.00118795,0.00080996,-0.00009728,-0.00382462,-0.002741
 55,-0.00275979,0.00281982,0.02520649,-0.01701269,0.06361131,-0.0034845
 6,-0.01382030,0.00879922,-0.03275140,-0.22110027,0.11544871,-0.0000278
 1,0.00073329,-0.00005414,0.00072108,0.00018263,-0.00013428,-0.00271827
 ,-0.00059490,-0.00175844,-0.00207153,-0.01762695,0.01178664,0.03697367
 ,0.24237887,-0.00313269,-0.01257137,0.00780194,0.02400014,0.11726290,-
 0.12900868,0.00077940,0.00052908,0.00030570,0.00076162,0.00013551,0.00
 084171,-0.00259148,-0.00215489,-0.00007983,0.00006465,0.00159224,-0.00
 169502,-0.02409916,-0.12812202,0.13602244,0.00461682,-0.00954474,-0.02
 703911,-0.05822856,0.02004155,0.06022261,0.00121511,0.00095912,0.00039
 924,-0.00404941,-0.00339936,-0.00226405,0.00106065,0.00053626,0.000777
 68,-0.01183586,0.00794540,0.02853225,-0.00190305,0.00152359,0.00443582
 ,0.07153495,0.00227102,-0.00627583,-0.01790294,0.01948532,-0.07155372,
 -0.06610843,0.00033497,0.00075493,0.00072988,-0.00300091,-0.00114477,-
 0.00139280,0.00082784,0.00020602,0.00009070,0.00573745,-0.00459406,-0.
 01790918,-0.00670723,0.00847152,0.02480083,-0.02029528,0.07444765,0.00
 217932,-0.00436955,-0.01283068,0.05707146,-0.06519734,-0.26462292,-0.0
 0019606,0.00056173,0.00021782,-0.00265570,-0.00142716,0.00064470,0.000
 05343,-0.00018005,0.00086007,0.00148381,0.00092182,0.00296000,0.004233
 96,-0.00490998,-0.01642473,-0.06210953,0.07621813,0.28840589,-0.000146
 25,0.00313221,0.00154146,-0.02773286,-0.00327190,0.01548609,-0.0006413
 0,-0.00078986,-0.00063940,0.00000913,-0.00020658,-0.00052369,-0.000201
 48,-0.00021351,0.00002677,-0.41957158,-0.07539896,0.19353846,0.0015065
 1,-0.00185506,0.00032182,-0.00214324,0.00115771,-0.00045920,0.74210248
 ,0.00174999,-0.00254097,-0.00057767,0.01753559,0.00877684,-0.00794138,
 0.00087960,0.00076736,0.00048995,0.00001828,0.00021651,0.00032053,0.00
 031275,0.00036761,-0.00016938,-0.07408792,-0.11875134,0.07459447,0.000
 50602,0.00111006,-0.00135657,0.00304968,-0.00147117,-0.00080620,-0.054
 33108,0.50811637,-0.00177693,-0.00029518,-0.00040080,0.00266736,-0.000
 10228,0.00571638,-0.00054882,0.00018672,0.00031166,0.00069859,0.000164
 24,0.00041903,-0.00007646,-0.00016334,0.00004586,0.19289034,0.07512348
 ,-0.17372644,-0.00113871,-0.00032772,0.00021193,-0.00142169,0.00076088
 ,0.00066079,-0.21274821,-0.24192868,0.34710869,0.00206931,0.00064563,0
 .00008725,0.00217909,0.02189183,-0.01486201,0.00017176,-0.00028005,0.0
 0030422,-0.00007801,-0.00010576,-0.00012203,-0.00034084,-0.00071834,0.
 00026291,-0.05585908,-0.00336157,0.00766550,-0.00417611,0.00307982,-0.
 00005228,0.00081154,-0.00046746,0.00062677,0.00091352,-0.02455830,0.01
 809171,0.05675999,-0.00031197,0.00034624,-0.00026830,-0.00234327,-0.01
 261690,0.01041061,0.00017186,0.00026377,-0.00012162,0.00001550,-0.0000
 0010,0.00000574,0.00057096,0.00054288,0.00011217,-0.00700619,-0.238431
 16,0.13138578,0.00320141,-0.00072268,0.00009975,-0.00028942,0.00038110
 ,-0.00043748,0.00245505,-0.00308214,0.00511440,0.00448984,0.25039701,0
 .00059903,0.00006515,0.00021087,0.00136590,0.00067972,0.00197741,0.000
 00076,-0.00024682,-0.00002152,-0.00007535,0.00001668,-0.00016752,-0.00
 037437,-0.00006725,-0.00000279,0.01016085,0.12949377,-0.12976293,0.000
 24702,0.00017295,0.00166269,-0.00087866,0.00047106,0.00031881,0.000667
 52,0.01589357,-0.00431569,-0.01493656,-0.14741026,0.12786152,-0.000407
 43,0.00023160,0.00003596,0.00094745,-0.00333901,-0.00156759,-0.0001004
 3,-0.00006427,-0.00004016,-0.00002082,0.00001075,-0.00000728,0.0000771
 5,0.00012371,-0.00003076,0.00132189,-0.02317979,0.01697238,-0.00000059
 ,0.00080040,-0.00039336,0.00048999,0.00004778,-0.00025603,-0.05695244,
 -0.00877696,0.01416161,-0.00276428,0.00073747,0.00533902,0.05292173,-0
 .00047911,0.00047602,0.00017118,-0.00013082,-0.00127751,-0.00459426,-0
 .00018590,-0.00017346,-0.00008670,-0.00008948,-0.00002015,0.00000880,0
 .00008625,-0.00007072,0.00005497,0.00146718,-0.00396231,0.00573405,-0.
 00077181,0.00060537,0.00001130,0.00079125,0.00001751,-0.00028308,-0.01
 264004,-0.24061696,0.13916635,0.00061300,0.00404804,0.00486813,0.01465
 789,0.25075792,-0.00072887,0.00028118,0.00041997,-0.00326443,-0.003437
 92,-0.00501395,-0.00019276,-0.00021233,-0.00005259,-0.00003130,0.00007
 629,0.00001567,-0.00019893,-0.00016445,-0.00000836,0.00073319,0.015427
 47,-0.00438927,0.00062718,-0.00055230,0.00033498,0.00102394,-0.0001995
 0,-0.00014047,0.01652211,0.13754824,-0.13156649,0.00532757,0.00482576,
 0.00672520,-0.02099848,-0.15397065,0.13243729,0.00023663,0.00018951,0.
 00015845,0.00001853,-0.00040147,0.00591740,-0.00002112,-0.00007994,-0.
 00009062,-0.00000117,-0.00009696,-0.00012182,-0.00004838,-0.00004894,0
 .00000878,-0.01847843,0.01855106,-0.00394929,0.00028836,-0.00018992,-0
 .00009448,-0.00156894,0.00060878,0.00002776,-0.23714250,0.13770235,-0.
 01079879,0.00031310,-0.00169125,-0.00211515,0.00448778,-0.00331841,0.0
 0118079,0.25191614,0.00102836,-0.00055688,-0.00037541,0.00085223,0.003
 75247,0.00638140,0.00027419,0.00016112,0.00008544,-0.00003669,-0.00013
 084,-0.00007418,0.00006686,0.00005342,0.00000011,-0.00885239,0.0070634
 0,0.00065707,-0.00027352,0.00038336,-0.00022675,-0.00131805,0.00076082
 ,-0.00009082,0.14196202,-0.15289217,0.02230113,-0.00122863,-0.00112607
 ,-0.00393670,0.01875043,-0.00978374,0.00037819,-0.15122480,0.15231510,
 0.00203457,-0.00165181,-0.00029301,0.00396717,0.00728376,0.00774840,0.
 00066247,0.00043661,0.00027176,-0.00003222,-0.00008621,-0.00009100,-0.
 00003606,0.00004651,-0.00006970,0.01454400,-0.01015856,0.00383244,0.00
 000369,-0.00034866,0.00002688,-0.00167851,0.00044138,-0.00004928,-0.01
 373373,0.02393310,-0.04446492,-0.00239304,-0.00371656,-0.00448605,-0.0
 1321530,0.00891991,0.00123803,0.00987696,-0.02509947,0.03633645\\-0.00
 000314,0.00000015,-0.00000035,0.00001096,-0.00000975,0.00000117,0.0000
 0054,0.00000340,0.00000131,0.00000065,-0.00000073,-0.00000279,-0.00000
 003,-0.00000204,0.00000079,-0.00001278,0.00000948,-0.00000362,-0.00000
 087,0.00000422,-0.00000166,-0.00000254,0.00000175,0.00000367,0.0000021
 3,-0.00000104,-0.00000298,0.00000455,-0.00000523,0.00000211,-0.0000004
 1,0.00000303,-0.00000074,0.00000094,-0.00000324,0.00000308\\\@


 A HARD FALL SHOULD MEAN A HIGH BOUNCE 
 IF ONE IS MADE OF THE RIGHT MATERIAL.

                -- THE CHEMIST ANALYST, MARCH 1950
 Job cpu time:       0 days  9 hours 51 minutes  7.3 seconds.
 Elapsed time:       0 days  0 hours 15 minutes 10.0 seconds.
 File lengths (MBytes):  RWF=  17119 Int=      0 D2E=      0 Chk=     10 Scr=      1
 Normal termination of Gaussian 16 at Fri May 31 18:30:25 2019.
