 Entering Gaussian System, Link 0=g16
 Initial command:
 /ichec/packages/gaussian/16b01/l1.exe "/localscratch/339542/Gau-28824.inp" -scrdir="/localscratch/339542/"
 Entering Link 1 = /ichec/packages/gaussian/16b01/l1.exe PID=     28889.
  
 Copyright (c) 1988-2017, Gaussian, Inc.  All Rights Reserved.
  
 This is part of the Gaussian(R) 16 program.  It is based on
 the Gaussian(R) 09 system (copyright 2009, Gaussian, Inc.),
 the Gaussian(R) 03 system (copyright 2003, Gaussian, Inc.),
 the Gaussian(R) 98 system (copyright 1998, Gaussian, Inc.),
 the Gaussian(R) 94 system (copyright 1995, Gaussian, Inc.),
 the Gaussian 92(TM) system (copyright 1992, Gaussian, Inc.),
 the Gaussian 90(TM) system (copyright 1990, Gaussian, Inc.),
 the Gaussian 88(TM) system (copyright 1988, Gaussian, Inc.),
 the Gaussian 86(TM) system (copyright 1986, Carnegie Mellon
 University), and the Gaussian 82(TM) system (copyright 1983,
 Carnegie Mellon University). Gaussian is a federally registered
 trademark of Gaussian, Inc.
  
 This software contains proprietary and confidential information,
 including trade secrets, belonging to Gaussian, Inc.
  
 This software is provided under written license and may be
 used, copied, transmitted, or stored only in accord with that
 written license.
  
 The following legend is applicable only to US Government
 contracts under FAR:
  
                    RESTRICTED RIGHTS LEGEND
  
 Use, reproduction and disclosure by the US Government is
 subject to restrictions as set forth in subparagraphs (a)
 and (c) of the Commercial Computer Software - Restricted
 Rights clause in FAR 52.227-19.
  
 Gaussian, Inc.
 340 Quinnipiac St., Bldg. 40, Wallingford CT 06492
  
  
 ---------------------------------------------------------------
 Warning -- This program may not be used in any manner that
 competes with the business of Gaussian, Inc. or will provide
 assistance to any competitor of Gaussian, Inc.  The licensee
 of this program is prohibited from giving any competitor of
 Gaussian, Inc. access to this program.  By using this program,
 the user acknowledges that Gaussian, Inc. is engaged in the
 business of creating and licensing software in the field of
 computational chemistry and represents and warrants to the
 licensee that it is not a competitor of Gaussian, Inc. and that
 it will not use this program in any manner prohibited above.
 ---------------------------------------------------------------
  

 Cite this work as:
 Gaussian 16, Revision B.01,
 M. J. Frisch, G. W. Trucks, H. B. Schlegel, G. E. Scuseria, 
 M. A. Robb, J. R. Cheeseman, G. Scalmani, V. Barone, 
 G. A. Petersson, H. Nakatsuji, X. Li, M. Caricato, A. V. Marenich, 
 J. Bloino, B. G. Janesko, R. Gomperts, B. Mennucci, H. P. Hratchian, 
 J. V. Ortiz, A. F. Izmaylov, J. L. Sonnenberg, D. Williams-Young, 
 F. Ding, F. Lipparini, F. Egidi, J. Goings, B. Peng, A. Petrone, 
 T. Henderson, D. Ranasinghe, V. G. Zakrzewski, J. Gao, N. Rega, 
 G. Zheng, W. Liang, M. Hada, M. Ehara, K. Toyota, R. Fukuda, 
 J. Hasegawa, M. Ishida, T. Nakajima, Y. Honda, O. Kitao, H. Nakai, 
 T. Vreven, K. Throssell, J. A. Montgomery, Jr., J. E. Peralta, 
 F. Ogliaro, M. J. Bearpark, J. J. Heyd, E. N. Brothers, K. N. Kudin, 
 V. N. Staroverov, T. A. Keith, R. Kobayashi, J. Normand, 
 K. Raghavachari, A. P. Rendell, J. C. Burant, S. S. Iyengar, 
 J. Tomasi, M. Cossi, J. M. Millam, M. Klene, C. Adamo, R. Cammi, 
 J. W. Ochterski, R. L. Martin, K. Morokuma, O. Farkas, 
 J. B. Foresman, and D. J. Fox, Gaussian, Inc., Wallingford CT, 2016.
 
 ******************************************
 Gaussian 16:  ES64L-G16RevB.01 20-Dec-2017
                31-May-2019 
 ******************************************
 %mem=80GB
 %nproc=40
 Will use up to   40 processors via shared memory.
 -----------------------------------------------
 # opt=maxcyc=500 freq=noraman uB2PLYPD3/cc-pvtz
 -----------------------------------------------
 1/6=500,18=20,19=15,38=1/1,3;
 2/9=110,12=2,17=6,18=5,40=1/2;
 3/5=16,6=1,11=2,25=1,30=1,71=1,74=-60,116=2/1,2,3;
 4//1;
 5/5=2,38=5/2;
 8/6=4,10=1/1;
 9/15=2,16=-3/6;
 10/5=1/2;
 6/7=2,8=2,9=2,10=2/1;
 7/12=2/1,2,3,16;
 1/6=500,18=20,19=15/3(2);
 2/9=110/2;
 99//99;
 2/9=110/2;
 3/5=16,6=1,11=2,25=1,30=1,71=1,74=-60,116=2/1,2,3;
 4/5=5,16=3,69=1/1;
 5/5=2,38=5/2;
 8/6=4,10=1/1;
 9/15=2,16=-3/6;
 10/5=1/2;
 7/12=2/1,2,3,16;
 1/6=500,18=20,19=15/3(-8);
 2/9=110/2;
 6/7=2,8=2,9=2,10=2/1;
 99/9=10/99;
 -------------------
 Title Card Required
 -------------------
 Symbolic Z-matrix:
 Charge =  0 Multiplicity = 2
 C                    -1.70747  -0.26021  -0.29476 
 C                    -0.54081   0.5344    0.30039 
 H                    -2.62306   0.33425  -0.30692 
 H                    -1.48118  -0.56473  -1.3187 
 H                    -1.90108  -1.1643    0.28797 
 C                     0.71761  -0.28114   0.35972 
 H                    -0.35989   1.43748  -0.28917 
 H                    -0.80769   0.86001   1.31168 
 C                     1.84115   0.00852  -0.28664 
 H                     0.67402  -1.18337   0.9686 
 H                     1.91899   0.89715  -0.90577 
 

 GradGradGradGradGradGradGradGradGradGradGradGradGradGradGradGradGradGrad
 Berny optimization.
 Initialization pass.
                           ----------------------------
                           !    Initial Parameters    !
                           ! (Angstroms and Degrees)  !
 --------------------------                            --------------------------
 ! Name  Definition              Value          Derivative Info.                !
 --------------------------------------------------------------------------------
 ! R1    R(1,2)                  1.5319         estimate D2E/DX2                !
 ! R2    R(1,3)                  1.0917         estimate D2E/DX2                !
 ! R3    R(1,4)                  1.092          estimate D2E/DX2                !
 ! R4    R(1,5)                  1.0929         estimate D2E/DX2                !
 ! R5    R(2,6)                  1.5008         estimate D2E/DX2                !
 ! R6    R(2,7)                  1.0935         estimate D2E/DX2                !
 ! R7    R(2,8)                  1.0954         estimate D2E/DX2                !
 ! R8    R(6,9)                  1.3282         estimate D2E/DX2                !
 ! R9    R(6,10)                 1.0893         estimate D2E/DX2                !
 ! R10   R(9,11)                 1.0858         estimate D2E/DX2                !
 ! A1    A(2,1,3)              111.1365         estimate D2E/DX2                !
 ! A2    A(2,1,4)              110.557          estimate D2E/DX2                !
 ! A3    A(2,1,5)              110.9077         estimate D2E/DX2                !
 ! A4    A(3,1,4)              108.3732         estimate D2E/DX2                !
 ! A5    A(3,1,5)              107.9273         estimate D2E/DX2                !
 ! A6    A(4,1,5)              107.8182         estimate D2E/DX2                !
 ! A7    A(1,2,6)              111.8439         estimate D2E/DX2                !
 ! A8    A(1,2,7)              110.1762         estimate D2E/DX2                !
 ! A9    A(1,2,8)              109.1056         estimate D2E/DX2                !
 ! A10   A(6,2,7)              109.3509         estimate D2E/DX2                !
 ! A11   A(6,2,8)              109.2275         estimate D2E/DX2                !
 ! A12   A(7,2,8)              107.0111         estimate D2E/DX2                !
 ! A13   A(2,6,9)              124.8603         estimate D2E/DX2                !
 ! A14   A(2,6,10)             116.0166         estimate D2E/DX2                !
 ! A15   A(9,6,10)             119.1106         estimate D2E/DX2                !
 ! A16   A(6,9,11)             121.1051         estimate D2E/DX2                !
 ! D1    D(3,1,2,6)            178.4238         estimate D2E/DX2                !
 ! D2    D(3,1,2,7)            -59.7313         estimate D2E/DX2                !
 ! D3    D(3,1,2,8)             57.471          estimate D2E/DX2                !
 ! D4    D(4,1,2,6)            -61.1848         estimate D2E/DX2                !
 ! D5    D(4,1,2,7)             60.6601         estimate D2E/DX2                !
 ! D6    D(4,1,2,8)            177.8625         estimate D2E/DX2                !
 ! D7    D(5,1,2,6)             58.3602         estimate D2E/DX2                !
 ! D8    D(5,1,2,7)           -179.7949         estimate D2E/DX2                !
 ! D9    D(5,1,2,8)            -62.5925         estimate D2E/DX2                !
 ! D10   D(1,2,6,9)            117.8348         estimate D2E/DX2                !
 ! D11   D(1,2,6,10)           -60.8628         estimate D2E/DX2                !
 ! D12   D(7,2,6,9)             -4.4831         estimate D2E/DX2                !
 ! D13   D(7,2,6,10)           176.8192         estimate D2E/DX2                !
 ! D14   D(8,2,6,9)           -121.2832         estimate D2E/DX2                !
 ! D15   D(8,2,6,10)            60.0191         estimate D2E/DX2                !
 ! D16   D(2,6,9,11)             1.0835         estimate D2E/DX2                !
 ! D17   D(10,6,9,11)          179.7439         estimate D2E/DX2                !
 --------------------------------------------------------------------------------
 Trust Radius=3.00D-01 FncErr=1.00D-07 GrdErr=1.00D-07 EigMax=2.50D+02 EigMin=1.00D-04
 Number of steps in this run=    100 maximum allowed number of steps=    100.
 GradGradGradGradGradGradGradGradGradGradGradGradGradGradGradGradGradGrad

                          Input orientation:                          
 ---------------------------------------------------------------------
 Center     Atomic      Atomic             Coordinates (Angstroms)
 Number     Number       Type             X           Y           Z
 ---------------------------------------------------------------------
      1          6           0       -1.707467   -0.260212   -0.294762
      2          6           0       -0.540811    0.534404    0.300391
      3          1           0       -2.623057    0.334247   -0.306921
      4          1           0       -1.481181   -0.564732   -1.318701
      5          1           0       -1.901079   -1.164298    0.287970
      6          6           0        0.717611   -0.281143    0.359723
      7          1           0       -0.359888    1.437476   -0.289167
      8          1           0       -0.807688    0.860010    1.311681
      9          6           0        1.841149    0.008521   -0.286643
     10          1           0        0.674023   -1.183372    0.968596
     11          1           0        1.918986    0.897148   -0.905768
 ---------------------------------------------------------------------
                    Distance matrix (angstroms):
                    1          2          3          4          5
     1  C    0.000000
     2  C    1.531897   0.000000
     3  H    1.091712   2.178219   0.000000
     4  H    1.091966   2.171141   1.770803   0.000000
     5  H    1.092901   2.176252   1.766574   1.765555   0.000000
     6  C    2.511930   1.500754   3.461673   2.780686   2.764534
     7  H    2.167520   1.093550   2.517809   2.515169   3.078569
     8  H    2.155263   1.095422   2.488346   3.066332   2.518196
     9  C    3.558786   2.508963   4.476119   3.525853   3.963579
    10  H    2.849525   2.207504   3.847187   3.203022   2.663600
    11  H    3.855382   2.763513   4.615802   3.724076   4.501940
                    6          7          8          9         10
     6  C    0.000000
     7  H    2.129721   0.000000
     8  H    2.129552   1.759746   0.000000
     9  C    1.328169   2.624211   3.208740   0.000000
    10  H    1.089332   3.085415   2.547270   2.087682   0.000000
    11  H    2.105502   2.421862   3.514713   1.085833   3.064594
                   11
    11  H    0.000000
 Stoichiometry    C4H7(2)
 Framework group  C1[X(C4H7)]
 Deg. of freedom    27
 Full point group                 C1      NOp   1
 Largest Abelian subgroup         C1      NOp   1
 Largest concise Abelian subgroup C1      NOp   1
                         Standard orientation:                         
 ---------------------------------------------------------------------
 Center     Atomic      Atomic             Coordinates (Angstroms)
 Number     Number       Type             X           Y           Z
 ---------------------------------------------------------------------
      1          6           0       -1.631960   -0.193066   -0.304956
      2          6           0       -0.431672    0.494988    0.352766
      3          1           0       -2.526548    0.429331   -0.240381
      4          1           0       -1.428316   -0.394772   -1.358632
      5          1           0       -1.849862   -1.146865    0.182096
      6          6           0        0.798434   -0.363480    0.306548
      7          1           0       -0.226566    1.448923   -0.140986
      8          1           0       -0.675300    0.720334    1.396708
      9          6           0        1.923673   -0.044366   -0.322764
     10          1           0        0.730826   -1.323170    0.817496
     11          1           0        2.024917    0.901758   -0.845863
 ---------------------------------------------------------------------
 Rotational constants (GHZ):          22.7941130           4.4687915           4.3823029
 Standard basis: CC-pVTZ (5D, 7F)
 There are   245 symmetry adapted cartesian basis functions of A   symmetry.
 There are   218 symmetry adapted basis functions of A   symmetry.
   218 basis functions,   327 primitive gaussians,   245 cartesian basis functions
    16 alpha electrons       15 beta electrons
       nuclear repulsion energy       110.2186861269 Hartrees.
 NAtoms=   11 NActive=   11 NUniq=   11 SFac= 1.00D+00 NAtFMM=   60 NAOKFM=F Big=F
 Integral buffers will be    131072 words long.
 Raffenetti 2 integral format.
 Two-electron integral symmetry is turned on.
 Nuclear repulsion after empirical dispersion term =      110.2134060114 Hartrees.
 One-electron integrals computed using PRISM.
 NBasis=   218 RedAO= T EigKep=  5.45D-04  NBF=   218
 NBsUse=   218 1.00D-06 EigRej= -1.00D+00 NBFU=   218
 ExpMin= 1.03D-01 ExpMax= 8.24D+03 ExpMxC= 2.81D+02 IAcc=3 IRadAn=         5 AccDes= 0.00D+00
 Harris functional with IExCor=  419 and IRadAn=       5 diagonalized for initial guess.
 HarFok:  IExCor=  419 AccDes= 0.00D+00 IRadAn=         5 IDoV= 1 UseB2=F ITyADJ=14
 ICtDFT=  3500011 ScaDFX=  1.000000  1.000000  1.000000  1.000000
 FoFCou: FMM=F IPFlag=           0 FMFlag=      100000 FMFlg1=           0
         NFxFlg=           0 DoJE=T BraDBF=F KetDBF=T FulRan=T
         wScrn=  0.000000 ICntrl=       500 IOpCl=  0 I1Cent=   200000004 NGrid=           0
         NMat0=    1 NMatS0=      1 NMatT0=    0 NMatD0=    1 NMtDS0=    0 NMtDT0=    0
 Petite list used in FoFCou.
 Initial guess <Sx>= 0.0000 <Sy>= 0.0000 <Sz>= 0.5000 <S**2>= 0.7500 S= 0.5000
 Keep R1 and R2 ints in memory in canonical form, NReq=612885869.
 Requested convergence on RMS density matrix=1.00D-08 within 128 cycles.
 Requested convergence on MAX density matrix=1.00D-06.
 Requested convergence on             energy=1.00D-06.
 No special actions if energy rises.
 Integral accuracy reduced to 1.0D-05 until final iterations.
 Initial convergence to 1.0D-05 achieved.  Increase integral accuracy.
 SCF Done:  E(UB2PLYPD3) =  -156.223045526     A.U. after   20 cycles
            NFock= 20  Conv=0.54D-08     -V/T= 2.0049
 <Sx>= 0.0000 <Sy>= 0.0000 <Sz>= 0.5000 <S**2>= 0.7833 S= 0.5165
 <L.S>=  0.00000000000    
 Annihilation of the first spin contaminant:
 S**2 before annihilation     0.7833,   after     0.7502
 DoSCS=T DFT=T ScalE2(SS,OS)=  0.270000  0.270000
 ExpMin= 1.03D-01 ExpMax= 8.24D+03 ExpMxC= 2.81D+02 IAcc=3 IRadAn=         5 AccDes= 0.00D+00
 HarFok:  IExCor=  205 AccDes= 0.00D+00 IRadAn=         5 IDoV=-2 UseB2=F ITyADJ=14
 ICtDFT= 12500011 ScaDFX=  1.000000  1.000000  1.000000  1.000000
 Range of M.O.s used for correlation:     5   218
 NBasis=   218 NAE=    16 NBE=    15 NFC=     4 NFV=     0
 NROrb=    214 NOA=    12 NOB=    11 NVA=   202 NVB=   203

 **** Warning!!: The largest alpha MO coefficient is  0.11703502D+02


 **** Warning!!: The largest beta MO coefficient is  0.11700944D+02

 DoSCS=T DFT=T ScalE2(SS,OS)=  0.270000  0.270000
 Fully direct method using O(ONN) memory.
 JobTyp=2 Pass  1:  I=   5 to  16 NPSUse= 40 ParTrn=T ParDer=T DoDerP=T.
 JobTyp=3 Pass  1:  I=   5 to  15 NPSUse= 40 ParTrn=T ParDer=T DoDerP=T.
 Spin components of T(2) and E(2):
     alpha-alpha T2 =       0.4139571247D-01 E2=     -0.2583535220D-01
     alpha-beta  T2 =       0.2465329109D+00 E2=     -0.1633387295D+00
     beta-beta   T2 =       0.3712368580D-01 E2=     -0.2250646076D-01
 (S**2,0)=  0.78334D+00           (S**2,1)=  0.76290D+00
 Scaling Projection term by:   0.270000
 E(PUHF)=      -0.15622670246D+03        E(PMP2)=      -0.15643541204D+03
 E2(B2PLYPD3) =    -0.2116805425D+00 E(B2PLYPD3) =    -0.15643472606803D+03
          IDoAtm=11111111111
          Differentiating once with respect to electric field.
                with respect to dipole field.
          Differentiating once with respect to nuclear coordinates.
 Keep R1 and R2 ints in memory in canonical form, NReq=612894013.
          There are     1 degrees of freedom in the 1st order CPHF.  IDoFFX=0 NUNeed=     1.
 LinEq1:  Iter=  0 NonCon=     1 RMS=8.41D-04 Max=2.31D-02 NDo=     1
 AX will form     1 AO Fock derivatives at one time.
 LinEq1:  Iter=  1 NonCon=     1 RMS=3.28D-04 Max=8.64D-03 NDo=     1
 LinEq1:  Iter=  2 NonCon=     1 RMS=2.35D-04 Max=8.77D-03 NDo=     1
 LinEq1:  Iter=  3 NonCon=     1 RMS=1.06D-04 Max=4.14D-03 NDo=     1
 LinEq1:  Iter=  4 NonCon=     1 RMS=5.47D-05 Max=1.46D-03 NDo=     1
 LinEq1:  Iter=  5 NonCon=     1 RMS=1.49D-05 Max=1.89D-04 NDo=     1
 LinEq1:  Iter=  6 NonCon=     1 RMS=6.10D-06 Max=8.60D-05 NDo=     1
 LinEq1:  Iter=  7 NonCon=     1 RMS=2.33D-06 Max=2.61D-05 NDo=     1
 LinEq1:  Iter=  8 NonCon=     1 RMS=8.48D-07 Max=1.70D-05 NDo=     1
 LinEq1:  Iter=  9 NonCon=     1 RMS=2.91D-07 Max=7.93D-06 NDo=     1
 LinEq1:  Iter= 10 NonCon=     1 RMS=9.13D-08 Max=3.79D-06 NDo=     1
 LinEq1:  Iter= 11 NonCon=     1 RMS=3.61D-08 Max=1.18D-06 NDo=     1
 LinEq1:  Iter= 12 NonCon=     1 RMS=1.80D-08 Max=5.19D-07 NDo=     1
 LinEq1:  Iter= 13 NonCon=     1 RMS=5.22D-09 Max=9.69D-08 NDo=     1
 LinEq1:  Iter= 14 NonCon=     1 RMS=1.49D-09 Max=1.69D-08 NDo=     1
 LinEq1:  Iter= 15 NonCon=     1 RMS=3.76D-10 Max=4.28D-09 NDo=     1
 LinEq1:  Iter= 16 NonCon=     1 RMS=1.20D-10 Max=1.38D-09 NDo=     1
 LinEq1:  Iter= 17 NonCon=     0 RMS=2.87D-11 Max=3.30D-10 NDo=     1
 Linear equations converged to 1.000D-10 1.000D-09 after    17 iterations.
 End of Minotr F.D. properties file   721 does not exist.
 End of Minotr F.D. properties file   722 does not exist.
 End of Minotr F.D. properties file   788 does not exist.

 **********************************************************************

            Population analysis using the SCF Density.

 **********************************************************************

 Orbital symmetries:
 Alpha Orbitals:
       Occupied  (A) (A) (A) (A) (A) (A) (A) (A) (A) (A) (A) (A)
                 (A) (A) (A) (A)
       Virtual   (A) (A) (A) (A) (A) (A) (A) (A) (A) (A) (A) (A)
                 (A) (A) (A) (A) (A) (A) (A) (A) (A) (A) (A) (A)
                 (A) (A) (A) (A) (A) (A) (A) (A) (A) (A) (A) (A)
                 (A) (A) (A) (A) (A) (A) (A) (A) (A) (A) (A) (A)
                 (A) (A) (A) (A) (A) (A) (A) (A) (A) (A) (A) (A)
                 (A) (A) (A) (A) (A) (A) (A) (A) (A) (A) (A) (A)
                 (A) (A) (A) (A) (A) (A) (A) (A) (A) (A) (A) (A)
                 (A) (A) (A) (A) (A) (A) (A) (A) (A) (A) (A) (A)
                 (A) (A) (A) (A) (A) (A) (A) (A) (A) (A) (A) (A)
                 (A) (A) (A) (A) (A) (A) (A) (A) (A) (A) (A) (A)
                 (A) (A) (A) (A) (A) (A) (A) (A) (A) (A) (A) (A)
                 (A) (A) (A) (A) (A) (A) (A) (A) (A) (A) (A) (A)
                 (A) (A) (A) (A) (A) (A) (A) (A) (A) (A) (A) (A)
                 (A) (A) (A) (A) (A) (A) (A) (A) (A) (A) (A) (A)
                 (A) (A) (A) (A) (A) (A) (A) (A) (A) (A) (A) (A)
                 (A) (A) (A) (A) (A) (A) (A) (A) (A) (A) (A) (A)
                 (A) (A) (A) (A) (A) (A) (A) (A) (A) (A)
 Beta  Orbitals:
       Occupied  (A) (A) (A) (A) (A) (A) (A) (A) (A) (A) (A) (A)
                 (A) (A) (A)
       Virtual   (A) (A) (A) (A) (A) (A) (A) (A) (A) (A) (A) (A)
                 (A) (A) (A) (A) (A) (A) (A) (A) (A) (A) (A) (A)
                 (A) (A) (A) (A) (A) (A) (A) (A) (A) (A) (A) (A)
                 (A) (A) (A) (A) (A) (A) (A) (A) (A) (A) (A) (A)
                 (A) (A) (A) (A) (A) (A) (A) (A) (A) (A) (A) (A)
                 (A) (A) (A) (A) (A) (A) (A) (A) (A) (A) (A) (A)
                 (A) (A) (A) (A) (A) (A) (A) (A) (A) (A) (A) (A)
                 (A) (A) (A) (A) (A) (A) (A) (A) (A) (A) (A) (A)
                 (A) (A) (A) (A) (A) (A) (A) (A) (A) (A) (A) (A)
                 (A) (A) (A) (A) (A) (A) (A) (A) (A) (A) (A) (A)
                 (A) (A) (A) (A) (A) (A) (A) (A) (A) (A) (A) (A)
                 (A) (A) (A) (A) (A) (A) (A) (A) (A) (A) (A) (A)
                 (A) (A) (A) (A) (A) (A) (A) (A) (A) (A) (A) (A)
                 (A) (A) (A) (A) (A) (A) (A) (A) (A) (A) (A) (A)
                 (A) (A) (A) (A) (A) (A) (A) (A) (A) (A) (A) (A)
                 (A) (A) (A) (A) (A) (A) (A) (A) (A) (A) (A) (A)
                 (A) (A) (A) (A) (A) (A) (A) (A) (A) (A) (A)
 The electronic state is 2-A.
 Alpha  occ. eigenvalues --  -10.63899 -10.62499 -10.62032 -10.60837  -0.92626
 Alpha  occ. eigenvalues --   -0.84302  -0.72515  -0.64169  -0.53094  -0.52172
 Alpha  occ. eigenvalues --   -0.47273  -0.45263  -0.43118  -0.40918  -0.32316
 Alpha  occ. eigenvalues --   -0.31526
 Alpha virt. eigenvalues --    0.06419   0.08864   0.10465   0.12396   0.13384
 Alpha virt. eigenvalues --    0.16440   0.16650   0.17106   0.22356   0.25210
 Alpha virt. eigenvalues --    0.29594   0.31303   0.31605   0.33410   0.35766
 Alpha virt. eigenvalues --    0.38692   0.40114   0.42507   0.45444   0.48202
 Alpha virt. eigenvalues --    0.48996   0.49762   0.51696   0.52416   0.52673
 Alpha virt. eigenvalues --    0.53316   0.54077   0.56723   0.57412   0.59277
 Alpha virt. eigenvalues --    0.62409   0.66471   0.69492   0.73455   0.74037
 Alpha virt. eigenvalues --    0.77510   0.78374   0.81134   0.87541   0.91731
 Alpha virt. eigenvalues --    0.93758   0.98055   1.02367   1.05222   1.07937
 Alpha virt. eigenvalues --    1.08937   1.10266   1.14667   1.14981   1.16541
 Alpha virt. eigenvalues --    1.17325   1.18638   1.19375   1.20727   1.24545
 Alpha virt. eigenvalues --    1.25150   1.25870   1.28776   1.32343   1.35260
 Alpha virt. eigenvalues --    1.38378   1.38836   1.41797   1.44564   1.46394
 Alpha virt. eigenvalues --    1.48790   1.52472   1.53522   1.54633   1.59069
 Alpha virt. eigenvalues --    1.64449   1.66653   1.69044   1.77771   1.86602
 Alpha virt. eigenvalues --    2.16767   2.25898   2.33597   2.35513   2.38342
 Alpha virt. eigenvalues --    2.38703   2.42027   2.44532   2.46987   2.52464
 Alpha virt. eigenvalues --    2.56376   2.59221   2.60474   2.62867   2.66157
 Alpha virt. eigenvalues --    2.67452   2.69305   2.73092   2.78472   2.82383
 Alpha virt. eigenvalues --    2.84253   2.87643   2.91645   2.92016   2.93490
 Alpha virt. eigenvalues --    2.94955   2.98972   3.02013   3.04417   3.04912
 Alpha virt. eigenvalues --    3.07574   3.08756   3.10790   3.11524   3.13556
 Alpha virt. eigenvalues --    3.16310   3.19224   3.20411   3.21271   3.24173
 Alpha virt. eigenvalues --    3.27091   3.28075   3.29524   3.30639   3.35444
 Alpha virt. eigenvalues --    3.37671   3.39418   3.44659   3.45538   3.47812
 Alpha virt. eigenvalues --    3.48613   3.55183   3.56271   3.57123   3.60675
 Alpha virt. eigenvalues --    3.61611   3.66215   3.68784   3.71699   3.78222
 Alpha virt. eigenvalues --    3.79870   3.82355   3.84509   3.86922   3.90861
 Alpha virt. eigenvalues --    3.92749   3.94354   3.95522   3.96475   4.02813
 Alpha virt. eigenvalues --    4.03336   4.05359   4.07218   4.11870   4.13391
 Alpha virt. eigenvalues --    4.16137   4.16796   4.19822   4.21243   4.23512
 Alpha virt. eigenvalues --    4.24638   4.29275   4.34222   4.37239   4.39344
 Alpha virt. eigenvalues --    4.41271   4.44242   4.48052   4.49690   4.52784
 Alpha virt. eigenvalues --    4.57752   4.64026   4.65658   4.69625   4.77127
 Alpha virt. eigenvalues --    4.88232   4.93634   4.95543   4.98495   5.00284
 Alpha virt. eigenvalues --    5.01228   5.06950   5.08341   5.11800   5.14365
 Alpha virt. eigenvalues --    5.16077   5.26981   5.27669   5.35966   5.45731
 Alpha virt. eigenvalues --    5.47517   5.48821   5.51665   5.52390   5.58608
 Alpha virt. eigenvalues --    5.62264   5.63770   5.78374   5.81699   5.98308
 Alpha virt. eigenvalues --    6.04844   6.05578   6.14524  10.12514  12.76560
 Alpha virt. eigenvalues --   13.50855  13.59560
  Beta  occ. eigenvalues --  -10.62366 -10.62286 -10.61720 -10.60859  -0.91904
  Beta  occ. eigenvalues --   -0.82608  -0.71099  -0.62677  -0.52319  -0.51308
  Beta  occ. eigenvalues --   -0.45896  -0.44781  -0.42383  -0.40693  -0.30163
  Beta virt. eigenvalues --   -0.01598   0.07570   0.09100   0.10771   0.12398
  Beta virt. eigenvalues --    0.13644   0.16529   0.16944   0.17212   0.22521
  Beta virt. eigenvalues --    0.25964   0.29694   0.31394   0.32654   0.34129
  Beta virt. eigenvalues --    0.36791   0.39326   0.42181   0.43886   0.46355
  Beta virt. eigenvalues --    0.48581   0.49102   0.50168   0.51837   0.52716
  Beta virt. eigenvalues --    0.53195   0.53414   0.54499   0.57027   0.58287
  Beta virt. eigenvalues --    0.60584   0.62899   0.66969   0.70278   0.75278
  Beta virt. eigenvalues --    0.76125   0.77667   0.78795   0.81553   0.87739
  Beta virt. eigenvalues --    0.92523   0.94146   0.98238   1.03185   1.05565
  Beta virt. eigenvalues --    1.08666   1.09566   1.11280   1.15091   1.15720
  Beta virt. eigenvalues --    1.17024   1.17742   1.19116   1.19611   1.21245
  Beta virt. eigenvalues --    1.25080   1.25717   1.26417   1.29863   1.32643
  Beta virt. eigenvalues --    1.35633   1.38679   1.39241   1.42376   1.45135
  Beta virt. eigenvalues --    1.46735   1.48934   1.52875   1.53798   1.55125
  Beta virt. eigenvalues --    1.59393   1.64571   1.66840   1.69701   1.78179
  Beta virt. eigenvalues --    1.88476   2.17767   2.27408   2.33813   2.35874
  Beta virt. eigenvalues --    2.38616   2.38947   2.43124   2.45035   2.48842
  Beta virt. eigenvalues --    2.53622   2.56741   2.59464   2.61733   2.63413
  Beta virt. eigenvalues --    2.66767   2.68677   2.70528   2.74673   2.79110
  Beta virt. eigenvalues --    2.82968   2.84772   2.88085   2.92123   2.92744
  Beta virt. eigenvalues --    2.94655   2.95521   2.99485   3.02912   3.04966
  Beta virt. eigenvalues --    3.05934   3.08589   3.09773   3.11760   3.12338
  Beta virt. eigenvalues --    3.14158   3.17503   3.20094   3.20827   3.22089
  Beta virt. eigenvalues --    3.25345   3.28229   3.28512   3.30692   3.31632
  Beta virt. eigenvalues --    3.36395   3.39533   3.40119   3.45353   3.46563
  Beta virt. eigenvalues --    3.48853   3.49532   3.55780   3.56827   3.57480
  Beta virt. eigenvalues --    3.61132   3.61813   3.66509   3.68967   3.72460
  Beta virt. eigenvalues --    3.78665   3.80386   3.83224   3.85008   3.87183
  Beta virt. eigenvalues --    3.91056   3.92938   3.94816   3.95847   3.96985
  Beta virt. eigenvalues --    4.03252   4.03499   4.05609   4.07538   4.12153
  Beta virt. eigenvalues --    4.14061   4.16228   4.16913   4.20258   4.21418
  Beta virt. eigenvalues --    4.23647   4.24719   4.29713   4.34715   4.37439
  Beta virt. eigenvalues --    4.39754   4.41435   4.44535   4.48231   4.50180
  Beta virt. eigenvalues --    4.53491   4.57838   4.64425   4.66321   4.69847
  Beta virt. eigenvalues --    4.77544   4.88613   4.93728   4.95741   4.98620
  Beta virt. eigenvalues --    5.00417   5.01389   5.07522   5.09069   5.12153
  Beta virt. eigenvalues --    5.15795   5.16263   5.27221   5.27908   5.36103
  Beta virt. eigenvalues --    5.46267   5.47538   5.48882   5.51799   5.52852
  Beta virt. eigenvalues --    5.58872   5.62388   5.63839   5.78800   5.82345
  Beta virt. eigenvalues --    5.99413   6.04867   6.05591   6.14831  10.13271
  Beta virt. eigenvalues --   12.76818  13.51543  13.59560
          Condensed to atoms (all electrons):
               1          2          3          4          5          6
     1  C    4.869727   0.342134   0.404366   0.401327   0.407536  -0.059182
     2  C    0.342134   4.809055  -0.034309  -0.034557  -0.035657   0.368235
     3  H    0.404366  -0.034309   0.590083  -0.027977  -0.031395   0.008403
     4  H    0.401327  -0.034557  -0.027977   0.586226  -0.030796   0.000003
     5  H    0.407536  -0.035657  -0.031395  -0.030796   0.595527  -0.003406
     6  C   -0.059182   0.368235   0.008403   0.000003  -0.003406   4.914287
     7  H   -0.032369   0.415096  -0.005255  -0.005027   0.006967  -0.041206
     8  H   -0.043320   0.419597  -0.003449   0.008043  -0.004914  -0.040677
     9  C   -0.000787  -0.067506  -0.000282   0.002774   0.000430   0.638458
    10  H   -0.001683  -0.039199  -0.000225   0.000142   0.002711   0.394891
    11  H   -0.000277  -0.002521  -0.000020   0.000138   0.000021  -0.073241
               7          8          9         10         11
     1  C   -0.032369  -0.043320  -0.000787  -0.001683  -0.000277
     2  C    0.415096   0.419597  -0.067506  -0.039199  -0.002521
     3  H   -0.005255  -0.003449  -0.000282  -0.000225  -0.000020
     4  H   -0.005027   0.008043   0.002774   0.000142   0.000138
     5  H    0.006967  -0.004914   0.000430   0.002711   0.000021
     6  C   -0.041206  -0.040677   0.638458   0.394891  -0.073241
     7  H    0.598216  -0.034142  -0.003811   0.005952   0.004335
     8  H   -0.034142   0.599236   0.002096  -0.003438   0.000009
     9  C   -0.003811   0.002096   5.279524  -0.037307   0.402593
    10  H    0.005952  -0.003438  -0.037307   0.539629   0.006049
    11  H    0.004335   0.000009   0.402593   0.006049   0.529749
          Atomic-Atomic Spin Densities.
               1          2          3          4          5          6
     1  C   -0.015507  -0.004836   0.002150   0.001751   0.000149   0.006786
     2  C   -0.004836   0.093944  -0.000113  -0.000405  -0.000314   0.030135
     3  H    0.002150  -0.000113   0.001886  -0.001204  -0.000159  -0.000274
     4  H    0.001751  -0.000405  -0.001204   0.000985  -0.000064  -0.001811
     5  H    0.000149  -0.000314  -0.000159  -0.000064   0.000314  -0.000038
     6  C    0.006786   0.030135  -0.000274  -0.001811  -0.000038  -0.233791
     7  H    0.000558  -0.000979  -0.000079   0.000128  -0.000054   0.001025
     8  H    0.003817  -0.005854  -0.001280  -0.000086   0.000076   0.002501
     9  C    0.001615  -0.027926  -0.000410   0.000653   0.000071  -0.032592
    10  H    0.000484  -0.009363  -0.000122   0.000137   0.000074   0.004256
    11  H    0.000263  -0.007038  -0.000060   0.000106   0.000007  -0.001871
               7          8          9         10         11
     1  C    0.000558   0.003817   0.001615   0.000484   0.000263
     2  C   -0.000979  -0.005854  -0.027926  -0.009363  -0.007038
     3  H   -0.000079  -0.001280  -0.000410  -0.000122  -0.000060
     4  H    0.000128  -0.000086   0.000653   0.000137   0.000106
     5  H   -0.000054   0.000076   0.000071   0.000074   0.000007
     6  C    0.001025   0.002501  -0.032592   0.004256  -0.001871
     7  H   -0.005824   0.001043   0.000574   0.000091   0.000368
     8  H    0.001043  -0.006762   0.002692   0.001060   0.000474
     9  C    0.000574   0.002692   1.164175  -0.004494   0.001367
    10  H    0.000091   0.001060  -0.004494   0.034362   0.001124
    11  H    0.000368   0.000474   0.001367   0.001124   0.038003
 Mulliken charges and spin densities:
               1          2
     1  C   -0.287471  -0.002771
     2  C   -0.140369   0.067251
     3  H    0.100062   0.000334
     4  H    0.099702   0.000190
     5  H    0.092976   0.000063
     6  C   -0.106567  -0.225675
     7  H    0.091245  -0.003149
     8  H    0.100960  -0.002320
     9  C   -0.216183   1.105724
    10  H    0.132479   0.027609
    11  H    0.133167   0.032744
 Sum of Mulliken charges =  -0.00000   1.00000
 Mulliken charges and spin densities with hydrogens summed into heavy atoms:
               1          2
     1  C    0.005268  -0.002184
     2  C    0.051836   0.061781
     6  C    0.025912  -0.198066
     9  C   -0.083016   1.138469
 Electronic spatial extent (au):  <R**2>=            336.2285
 Charge=             -0.0000 electrons
 Dipole moment (field-independent basis, Debye):
    X=             -1.0907    Y=              0.4745    Z=              0.1542  Tot=              1.1994
 Quadrupole moment (field-independent basis, Debye-Ang):
   XX=            -28.8380   YY=            -25.6722   ZZ=            -26.7584
   XY=              0.8053   XZ=             -0.7619   YZ=             -1.4389
 Traceless Quadrupole moment (field-independent basis, Debye-Ang):
   XX=             -1.7485   YY=              1.4173   ZZ=              0.3312
   XY=              0.8053   XZ=             -0.7619   YZ=             -1.4389
 Octapole moment (field-independent basis, Debye-Ang**2):
  XXX=             -9.7976  YYY=              0.6979  ZZZ=              0.8265  XYY=             -0.6694
  XXY=              3.0340  XXZ=             -0.9691  XZZ=             -2.3470  YZZ=              0.6694
  YYZ=              0.6460  XYZ=             -1.8962
 Hexadecapole moment (field-independent basis, Debye-Ang**3):
 XXXX=           -363.2473 YYYY=            -71.5685 ZZZZ=            -66.3969 XXXY=              3.0318
 XXXZ=             -3.4240 YYYX=              2.1461 YYYZ=             -4.3711 ZZZX=             -0.2194
 ZZZY=             -0.7723 XXYY=            -68.3431 XXZZ=            -71.4841 YYZZ=            -22.8702
 XXYZ=             -3.8673 YYXZ=             -0.7478 ZZXY=              1.4082
 N-N= 1.102134060114D+02 E-N=-5.822524797997D+02  KE= 1.554553703678D+02
                          Isotropic Fermi Contact Couplings
        Atom                 a.u.       MegaHertz       Gauss      10(-4) cm-1
     1  C(13)             -0.00328      -3.68763      -1.31584      -1.23006
     2  C(13)              0.05533      62.20301      22.19558      20.74869
     3  H(1)               0.00101       4.50021       1.60579       1.50111
     4  H(1)               0.00029       1.30845       0.46689       0.43645
     5  H(1)              -0.00005      -0.23810      -0.08496      -0.07942
     6  C(13)              0.00721       8.10790       2.89310       2.70450
     7  H(1)              -0.00048      -2.15489      -0.76892      -0.71879
     8  H(1)               0.00014       0.61504       0.21946       0.20516
     9  C(13)              0.37644     423.18838     151.00414     141.16045
    10  H(1)               0.01424      63.65852      22.71494      21.23420
    11  H(1)               0.02224      99.39182      35.46547      33.15354
 --------------------------------------------------------
       Center         ----  Spin Dipole Couplings  ----
                      3XX-RR        3YY-RR        3ZZ-RR
 --------------------------------------------------------
     1   Atom        0.007795     -0.003888     -0.003907
     2   Atom        0.071771     -0.026180     -0.045591
     3   Atom        0.003008     -0.001157     -0.001851
     4   Atom        0.004136     -0.002712     -0.001424
     5   Atom        0.003516     -0.001103     -0.002414
     6   Atom        0.085296     -0.026719     -0.058576
     7   Atom        0.002567      0.006082     -0.008649
     8   Atom        0.001902     -0.005804      0.003902
     9   Atom        0.376366      0.081741     -0.458107
    10   Atom        0.004631     -0.002506     -0.002125
    11   Atom       -0.018431      0.039245     -0.020814
 --------------------------------------------------------
                        XY            XZ            YZ
 --------------------------------------------------------
     1   Atom        0.002815      0.001750      0.000780
     2   Atom       -0.048476     -0.024923      0.006680
     3   Atom       -0.000594      0.000338      0.000263
     4   Atom        0.000884      0.002547      0.000730
     5   Atom        0.001731     -0.000222     -0.000188
     6   Atom       -0.009558     -0.074825     -0.037366
     7   Atom       -0.009287     -0.001267     -0.003916
     8   Atom       -0.003078     -0.004858      0.003115
     9   Atom       -0.707745      0.027172      0.031141
    10   Atom        0.011932     -0.013174     -0.010085
    11   Atom        0.010332     -0.020821     -0.052888
 --------------------------------------------------------


 ---------------------------------------------------------------------------------
              Anisotropic Spin Dipole Couplings in Principal Axis System
 ---------------------------------------------------------------------------------

       Atom             a.u.   MegaHertz   Gauss  10(-4) cm-1        Axes

              Baa    -0.0048    -0.639    -0.228    -0.213 -0.1142  0.8397 -0.5309
     1 C(13)  Bbb    -0.0040    -0.531    -0.189    -0.177 -0.2428  0.4946  0.8345
              Bcc     0.0087     1.170     0.417     0.390  0.9633  0.2242  0.1474
 
              Baa    -0.0520    -6.978    -2.490    -2.328  0.3258  0.3886  0.8619
     2 C(13)  Bbb    -0.0443    -5.948    -2.122    -1.984  0.2503  0.8436 -0.4750
              Bcc     0.0963    12.926     4.612     4.311  0.9117 -0.3705 -0.1776
 
              Baa    -0.0020    -1.064    -0.380    -0.355 -0.1059 -0.3657  0.9247
     3 H(1)   Bbb    -0.0011    -0.595    -0.212    -0.199  0.1019  0.9210  0.3759
              Bcc     0.0031     1.659     0.592     0.553  0.9891 -0.1340  0.0603
 
              Baa    -0.0031    -1.631    -0.582    -0.544  0.0681  0.8671 -0.4934
     4 H(1)   Bbb    -0.0022    -1.183    -0.422    -0.395 -0.3833  0.4793  0.7895
              Bcc     0.0053     2.814     1.004     0.939  0.9211  0.1353  0.3650
 
              Baa    -0.0024    -1.302    -0.465    -0.434 -0.0059  0.1468  0.9891
     5 H(1)   Bbb    -0.0017    -0.888    -0.317    -0.296 -0.3192  0.9371 -0.1410
              Bcc     0.0041     2.190     0.781     0.730  0.9477  0.3165 -0.0414
 
              Baa    -0.1083   -14.531    -5.185    -4.847  0.3447  0.4240  0.8375
     6 C(13)  Bbb    -0.0091    -1.223    -0.437    -0.408 -0.2047  0.9046 -0.3738
              Bcc     0.1174    15.755     5.622     5.255  0.9161  0.0426 -0.3986
 
              Baa    -0.0109    -5.830    -2.080    -1.945  0.3458  0.3857  0.8554
     7 H(1)   Bbb    -0.0031    -1.638    -0.585    -0.546  0.7036  0.4965 -0.5084
              Bcc     0.0140     7.468     2.665     2.491 -0.6207  0.7776 -0.0997
 
              Baa    -0.0071    -3.792    -1.353    -1.265  0.2374  0.9571 -0.1660
     8 H(1)   Bbb    -0.0020    -1.082    -0.386    -0.361  0.7523 -0.0731  0.6547
              Bcc     0.0091     4.874     1.739     1.626 -0.6145  0.2803  0.7374
 
              Baa    -0.5210   -69.912   -24.946   -23.320  0.5278  0.6481 -0.5490
     9 C(13)  Bbb    -0.4310   -57.833   -20.636   -19.291  0.3457  0.4265  0.8358
              Bcc     0.9520   127.745    45.583    42.611  0.7758 -0.6309  0.0010
 
              Baa    -0.0127    -6.761    -2.412    -2.255  0.3390  0.4315  0.8360
    10 H(1)   Bbb    -0.0114    -6.064    -2.164    -2.023 -0.6550  0.7461 -0.1195
              Bcc     0.0240    12.825     4.576     4.278  0.6753  0.5071 -0.5355
 
              Baa    -0.0563   -30.038   -10.718   -10.019  0.3439  0.4260  0.8368
    11 H(1)   Bbb    -0.0179    -9.530    -3.401    -3.179  0.9157 -0.3494 -0.1984
              Bcc     0.0742    39.568    14.119    13.198  0.2079  0.8345 -0.5103
 

 ---------------------------------------------------------------------------------

 Calling FoFJK, ICntrl=  10002127 FMM=F ISym2X=0 I1Cent= 0 IOpClX= 1 NMat=1 NMatS=1 NMatT=0.
 ***** Axes restored to original set *****
 -------------------------------------------------------------------
 Center     Atomic                   Forces (Hartrees/Bohr)
 Number     Number              X              Y              Z
 -------------------------------------------------------------------
      1        6          -0.000076826   -0.001179444   -0.000880476
      2        6          -0.003687591    0.004778305   -0.001757460
      3        1           0.001630032   -0.000650383    0.000135430
      4        1          -0.000699060    0.000510907    0.001903625
      5        1           0.000405226    0.001715343   -0.001112603
      6        6           0.024175906   -0.013257697   -0.000411864
      7        1          -0.001084195   -0.001429966    0.001315543
      8        1           0.001500691   -0.000624322   -0.001570112
      9        6          -0.035808620    0.012529684    0.006184401
     10        1          -0.001073966    0.001188143   -0.000281097
     11        1           0.014718403   -0.003580570   -0.003525388
 -------------------------------------------------------------------
 Cartesian Forces:  Max     0.035808620 RMS     0.008783590

 GradGradGradGradGradGradGradGradGradGradGradGradGradGradGradGradGradGrad
 Berny optimization.
 FormGI is forming the generalized inverse of G from B-inverse, IUseBI=4.
 Internal  Forces:  Max     0.031911359 RMS     0.005655608
 Search for a local minimum.
 Step number   1 out of a maximum of  100
 All quantities printed in internal units (Hartrees-Bohrs-Radians)
 Mixed Optimization -- RFO/linear search
 Second derivative matrix not updated -- first step.
 ITU=  0
     Eigenvalues ---    0.00344   0.00756   0.01352   0.03039   0.04203
     Eigenvalues ---    0.05440   0.05500   0.05565   0.09301   0.12775
     Eigenvalues ---    0.15999   0.16000   0.16000   0.16000   0.16000
     Eigenvalues ---    0.21938   0.22001   0.29249   0.32298   0.34193
     Eigenvalues ---    0.34406   0.34479   0.34586   0.34616   0.34890
     Eigenvalues ---    0.35299   0.59940
 RFO step:  Lambda=-6.83683587D-03 EMin= 3.44013592D-03
 Linear search not attempted -- first point.
 Iteration  1 RMS(Cart)=  0.04650466 RMS(Int)=  0.00440502
 Iteration  2 RMS(Cart)=  0.00385771 RMS(Int)=  0.00000945
 Iteration  3 RMS(Cart)=  0.00001269 RMS(Int)=  0.00000563
 Iteration  4 RMS(Cart)=  0.00000000 RMS(Int)=  0.00000563
 Variable       Old X    -DE/DX   Delta X   Delta X   Delta X     New X
                                 (Linear)    (Quad)   (Total)
    R1        2.89487  -0.00118   0.00000  -0.00395  -0.00395   2.89091
    R2        2.06304  -0.00172   0.00000  -0.00488  -0.00488   2.05816
    R3        2.06352  -0.00207   0.00000  -0.00588  -0.00588   2.05764
    R4        2.06528  -0.00208   0.00000  -0.00593  -0.00593   2.05936
    R5        2.83601   0.00346   0.00000   0.01049   0.01049   2.84651
    R6        2.06651  -0.00207   0.00000  -0.00590  -0.00590   2.06061
    R7        2.07005  -0.00200   0.00000  -0.00574  -0.00574   2.06431
    R8        2.50987  -0.01718   0.00000  -0.02834  -0.02834   2.48153
    R9        2.05854  -0.00110   0.00000  -0.00309  -0.00309   2.05545
   R10        2.05193   0.00013   0.00000   0.00037   0.00037   2.05230
    A1        1.93970  -0.00061   0.00000  -0.00419  -0.00419   1.93551
    A2        1.92958   0.00050   0.00000   0.00338   0.00338   1.93297
    A3        1.93570   0.00000   0.00000   0.00017   0.00017   1.93587
    A4        1.89147   0.00002   0.00000  -0.00020  -0.00019   1.89128
    A5        1.88369   0.00023   0.00000   0.00068   0.00068   1.88436
    A6        1.88178  -0.00013   0.00000   0.00021   0.00021   1.88199
    A7        1.95204  -0.00005   0.00000   0.00016   0.00015   1.95219
    A8        1.92294  -0.00048   0.00000  -0.00129  -0.00131   1.92163
    A9        1.90425   0.00085   0.00000   0.00472   0.00471   1.90896
   A10        1.90853   0.00080   0.00000   0.00801   0.00801   1.91654
   A11        1.90638  -0.00096   0.00000  -0.00971  -0.00970   1.89668
   A12        1.86770  -0.00017   0.00000  -0.00210  -0.00209   1.86561
   A13        2.17922  -0.00364   0.00000  -0.01606  -0.01606   2.16317
   A14        2.02487   0.00059   0.00000   0.00066   0.00066   2.02553
   A15        2.07887   0.00306   0.00000   0.01544   0.01544   2.09432
   A16        2.11368   0.03191   0.00000   0.19127   0.19127   2.30496
    D1        3.11408  -0.00047   0.00000  -0.00767  -0.00767   3.10641
    D2       -1.04251   0.00018   0.00000   0.00174   0.00174  -1.04077
    D3        1.00306   0.00020   0.00000   0.00123   0.00124   1.00430
    D4       -1.06788  -0.00052   0.00000  -0.00843  -0.00843  -1.07631
    D5        1.05872   0.00013   0.00000   0.00098   0.00098   1.05969
    D6        3.10429   0.00015   0.00000   0.00047   0.00047   3.10476
    D7        1.01858  -0.00036   0.00000  -0.00585  -0.00585   1.01272
    D8       -3.13801   0.00029   0.00000   0.00355   0.00355  -3.13446
    D9       -1.09244   0.00031   0.00000   0.00305   0.00305  -1.08939
   D10        2.05661  -0.00011   0.00000   0.00429   0.00429   2.06089
   D11       -1.06226  -0.00016   0.00000   0.00166   0.00167  -1.06059
   D12       -0.07825  -0.00002   0.00000   0.00025   0.00023  -0.07801
   D13        3.08608  -0.00008   0.00000  -0.00238  -0.00239   3.08369
   D14       -2.11679   0.00027   0.00000   0.00376   0.00377  -2.11303
   D15        1.04753   0.00022   0.00000   0.00113   0.00115   1.04868
   D16        0.01891   0.00003   0.00000  -0.00005  -0.00005   0.01886
   D17        3.13712   0.00006   0.00000   0.00246   0.00247   3.13959
         Item               Value     Threshold  Converged?
 Maximum Force            0.031911     0.000450     NO 
 RMS     Force            0.005656     0.000300     NO 
 Maximum Displacement     0.267439     0.001800     NO 
 RMS     Displacement     0.046601     0.001200     NO 
 Predicted change in Energy=-3.550517D-03
 GradGradGradGradGradGradGradGradGradGradGradGradGradGradGradGradGradGrad

                          Input orientation:                          
 ---------------------------------------------------------------------
 Center     Atomic      Atomic             Coordinates (Angstroms)
 Number     Number       Type             X           Y           Z
 ---------------------------------------------------------------------
      1          6           0       -1.719014   -0.265122   -0.291687
      2          6           0       -0.558582    0.535456    0.302265
      3          1           0       -2.635994    0.322542   -0.292803
      4          1           0       -1.499465   -0.560202   -1.316545
      5          1           0       -1.901498   -1.171751    0.284778
      6          6           0        0.710203   -0.274428    0.359105
      7          1           0       -0.392307    1.442413   -0.279816
      8          1           0       -0.817415    0.851513    1.315389
      9          6           0        1.810283    0.040111   -0.285335
     10          1           0        0.673876   -1.177409    0.964409
     11          1           0        2.060508    0.874925   -0.933360
 ---------------------------------------------------------------------
                    Distance matrix (angstroms):
                    1          2          3          4          5
     1  C    0.000000
     2  C    1.529806   0.000000
     3  H    1.089129   2.171423   0.000000
     4  H    1.088856   2.169395   1.766064   0.000000
     5  H    1.089765   2.172162   1.762384   1.760641   0.000000
     6  C    2.514898   1.506306   3.460981   2.787849   2.762552
     7  H    2.162399   1.090429   2.507670   2.512185   3.070876
     8  H    2.154635   1.092387   2.484617   3.063529   2.516147
     9  C    3.542477   2.490414   4.455244   3.518267   3.946005
    10  H    2.852362   2.211627   3.845214   3.210468   2.663546
    11  H    3.999530   2.915757   4.772062   3.857438   4.622795
                    6          7          8          9         10
     6  C    0.000000
     7  H    2.138057   0.000000
     8  H    2.125050   1.753442   0.000000
     9  C    1.313170   2.611108   3.182057   0.000000
    10  H    1.087698   3.090033   2.542373   2.082219   0.000000
    11  H    2.194266   2.601051   3.652378   1.086031   3.120313
                   11
    11  H    0.000000
 Stoichiometry    C4H7(2)
 Framework group  C1[X(C4H7)]
 Deg. of freedom    27
 Full point group                 C1      NOp   1
 Largest Abelian subgroup         C1      NOp   1
 Largest concise Abelian subgroup C1      NOp   1
                         Standard orientation:                         
 ---------------------------------------------------------------------
 Center     Atomic      Atomic             Coordinates (Angstroms)
 Number     Number       Type             X           Y           Z
 ---------------------------------------------------------------------
      1          6           0       -1.633972   -0.182650   -0.311620
      2          6           0       -0.434874    0.489140    0.360071
      3          1           0       -2.524206    0.439363   -0.229245
      4          1           0       -1.435591   -0.359493   -1.367546
      5          1           0       -1.851653   -1.144257    0.152617
      6          6           0        0.797476   -0.375049    0.301368
      7          1           0       -0.233415    1.452449   -0.109487
      8          1           0       -0.671669    0.689894    1.407418
      9          6           0        1.905275   -0.031435   -0.314364
     10          1           0        0.726190   -1.342800    0.792758
     11          1           0        2.186916    0.864805   -0.859245
 ---------------------------------------------------------------------
 Rotational constants (GHZ):          22.8662717           4.4689844           4.3875744
 Standard basis: CC-pVTZ (5D, 7F)
 There are   245 symmetry adapted cartesian basis functions of A   symmetry.
 There are   218 symmetry adapted basis functions of A   symmetry.
   218 basis functions,   327 primitive gaussians,   245 cartesian basis functions
    16 alpha electrons       15 beta electrons
       nuclear repulsion energy       110.3191677601 Hartrees.
 NAtoms=   11 NActive=   11 NUniq=   11 SFac= 1.00D+00 NAtFMM=   60 NAOKFM=F Big=F
 Integral buffers will be    131072 words long.
 Raffenetti 2 integral format.
 Two-electron integral symmetry is turned on.
 Nuclear repulsion after empirical dispersion term =      110.3139063959 Hartrees.
 One-electron integrals computed using PRISM.
 NBasis=   218 RedAO= T EigKep=  5.28D-04  NBF=   218
 NBsUse=   218 1.00D-06 EigRej= -1.00D+00 NBFU=   218
 Initial guess from the checkpoint file:  "/localscratch/339542/Gau-28889.chk"
 B after Tr=    -0.000000    0.000000    0.000000
         Rot=    0.999956   -0.009072    0.001418    0.002111 Ang=  -1.08 deg.
 Initial guess <Sx>= 0.0000 <Sy>= 0.0000 <Sz>= 0.5000 <S**2>= 0.7828 S= 0.5163
 ExpMin= 1.03D-01 ExpMax= 8.24D+03 ExpMxC= 2.81D+02 IAcc=3 IRadAn=         5 AccDes= 0.00D+00
 Harris functional with IExCor=  419 and IRadAn=       5 diagonalized for initial guess.
 HarFok:  IExCor=  419 AccDes= 0.00D+00 IRadAn=         5 IDoV= 1 UseB2=F ITyADJ=14
 ICtDFT=  3500011 ScaDFX=  1.000000  1.000000  1.000000  1.000000
 FoFCou: FMM=F IPFlag=           0 FMFlag=      100000 FMFlg1=           0
         NFxFlg=           0 DoJE=T BraDBF=F KetDBF=T FulRan=T
         wScrn=  0.000000 ICntrl=       500 IOpCl=  0 I1Cent=   200000004 NGrid=           0
         NMat0=    1 NMatS0=      1 NMatT0=    0 NMatD0=    1 NMtDS0=    0 NMtDT0=    0
 Petite list used in FoFCou.
 Keep R1 and R2 ints in memory in canonical form, NReq=612885869.
 Requested convergence on RMS density matrix=1.00D-08 within 128 cycles.
 Requested convergence on MAX density matrix=1.00D-06.
 Requested convergence on             energy=1.00D-06.
 No special actions if energy rises.
 Integral accuracy reduced to 1.0D-05 until final iterations.
 Initial convergence to 1.0D-05 achieved.  Increase integral accuracy.
 SCF Done:  E(UB2PLYPD3) =  -156.227446127     A.U. after   14 cycles
            NFock= 14  Conv=0.88D-08     -V/T= 2.0047
 <Sx>= 0.0000 <Sy>= 0.0000 <Sz>= 0.5000 <S**2>= 0.7779 S= 0.5138
 <L.S>=  0.00000000000    
 Annihilation of the first spin contaminant:
 S**2 before annihilation     0.7779,   after     0.7502
 DoSCS=T DFT=T ScalE2(SS,OS)=  0.270000  0.270000
 ExpMin= 1.03D-01 ExpMax= 8.24D+03 ExpMxC= 2.81D+02 IAcc=3 IRadAn=         5 AccDes= 0.00D+00
 HarFok:  IExCor=  205 AccDes= 0.00D+00 IRadAn=         5 IDoV=-2 UseB2=F ITyADJ=14
 ICtDFT= 12500011 ScaDFX=  1.000000  1.000000  1.000000  1.000000
 Range of M.O.s used for correlation:     5   218
 NBasis=   218 NAE=    16 NBE=    15 NFC=     4 NFV=     0
 NROrb=    214 NOA=    12 NOB=    11 NVA=   202 NVB=   203

 **** Warning!!: The largest alpha MO coefficient is  0.11817237D+02


 **** Warning!!: The largest beta MO coefficient is  0.11817651D+02

 DoSCS=T DFT=T ScalE2(SS,OS)=  0.270000  0.270000
 Fully direct method using O(ONN) memory.
 JobTyp=2 Pass  1:  I=   5 to  16 NPSUse= 40 ParTrn=T ParDer=T DoDerP=T.
 JobTyp=3 Pass  1:  I=   5 to  15 NPSUse= 40 ParTrn=T ParDer=T DoDerP=T.
 Spin components of T(2) and E(2):
     alpha-alpha T2 =       0.4134271524D-01 E2=     -0.2587183190D-01
     alpha-beta  T2 =       0.2449914549D+00 E2=     -0.1631795072D+00
     beta-beta   T2 =       0.3671404409D-01 E2=     -0.2237842677D-01
 (S**2,0)=  0.77786D+00           (S**2,1)=  0.75961D+00
 Scaling Projection term by:   0.270000
 E(PUHF)=      -0.15623087689D+03        E(PMP2)=      -0.15643950017D+03
 E2(B2PLYPD3) =    -0.2114297659D+00 E(B2PLYPD3) =    -0.15643887589246D+03
          IDoAtm=11111111111
          Differentiating once with respect to electric field.
                with respect to dipole field.
          Differentiating once with respect to nuclear coordinates.
 Keep R1 and R2 ints in memory in canonical form, NReq=612894013.
          There are     1 degrees of freedom in the 1st order CPHF.  IDoFFX=0 NUNeed=     1.
 LinEq1:  Iter=  0 NonCon=     1 RMS=8.08D-04 Max=2.28D-02 NDo=     1
 AX will form     1 AO Fock derivatives at one time.
 LinEq1:  Iter=  1 NonCon=     1 RMS=3.11D-04 Max=7.90D-03 NDo=     1
 LinEq1:  Iter=  2 NonCon=     1 RMS=2.21D-04 Max=8.42D-03 NDo=     1
 LinEq1:  Iter=  3 NonCon=     1 RMS=9.94D-05 Max=3.82D-03 NDo=     1
 LinEq1:  Iter=  4 NonCon=     1 RMS=5.21D-05 Max=1.44D-03 NDo=     1
 LinEq1:  Iter=  5 NonCon=     1 RMS=1.40D-05 Max=1.81D-04 NDo=     1
 LinEq1:  Iter=  6 NonCon=     1 RMS=5.64D-06 Max=7.27D-05 NDo=     1
 LinEq1:  Iter=  7 NonCon=     1 RMS=2.21D-06 Max=2.50D-05 NDo=     1
 LinEq1:  Iter=  8 NonCon=     1 RMS=7.95D-07 Max=1.32D-05 NDo=     1
 LinEq1:  Iter=  9 NonCon=     1 RMS=2.69D-07 Max=6.04D-06 NDo=     1
 LinEq1:  Iter= 10 NonCon=     1 RMS=7.91D-08 Max=2.91D-06 NDo=     1
 LinEq1:  Iter= 11 NonCon=     1 RMS=3.09D-08 Max=9.83D-07 NDo=     1
 LinEq1:  Iter= 12 NonCon=     1 RMS=1.54D-08 Max=4.98D-07 NDo=     1
 LinEq1:  Iter= 13 NonCon=     1 RMS=4.30D-09 Max=9.73D-08 NDo=     1
 LinEq1:  Iter= 14 NonCon=     1 RMS=1.21D-09 Max=1.67D-08 NDo=     1
 LinEq1:  Iter= 15 NonCon=     1 RMS=2.89D-10 Max=2.81D-09 NDo=     1
 LinEq1:  Iter= 16 NonCon=     1 RMS=9.00D-11 Max=1.04D-09 NDo=     1
 LinEq1:  Iter= 17 NonCon=     0 RMS=2.29D-11 Max=2.79D-10 NDo=     1
 Linear equations converged to 1.000D-10 1.000D-09 after    17 iterations.
 End of Minotr F.D. properties file   721 does not exist.
 End of Minotr F.D. properties file   722 does not exist.
 End of Minotr F.D. properties file   788 does not exist.
 Calling FoFJK, ICntrl=  10002127 FMM=F ISym2X=0 I1Cent= 0 IOpClX= 1 NMat=1 NMatS=1 NMatT=0.
 ***** Axes restored to original set *****
 -------------------------------------------------------------------
 Center     Atomic                   Forces (Hartrees/Bohr)
 Number     Number              X              Y              Z
 -------------------------------------------------------------------
      1        6           0.000154908    0.000084340    0.000252474
      2        6          -0.003384790    0.001347056   -0.000072121
      3        1          -0.000099706   -0.000041472   -0.000057522
      4        1          -0.000017598    0.000058160    0.000030098
      5        1          -0.000077785   -0.000018540   -0.000044873
      6        6           0.008491837   -0.001863431   -0.002034187
      7        1           0.000261206   -0.000534317    0.000270516
      8        1          -0.000026850    0.000011231    0.000113850
      9        6          -0.008124281    0.005050599   -0.000010654
     10        1           0.000164111    0.000504847   -0.000406459
     11        1           0.002658949   -0.004598474    0.001958877
 -------------------------------------------------------------------
 Cartesian Forces:  Max     0.008491837 RMS     0.002567716

 GradGradGradGradGradGradGradGradGradGradGradGradGradGradGradGradGradGrad
 Berny optimization.
 Using GEDIIS/GDIIS optimizer.
 FormGI is forming the generalized inverse of G from B-inverse, IUseBI=4.
 Internal  Forces:  Max     0.008032211 RMS     0.001715787
 Search for a local minimum.
 Step number   2 out of a maximum of  100
 All quantities printed in internal units (Hartrees-Bohrs-Radians)
 Mixed Optimization -- RFO/linear search
 Update second derivatives using D2CorX and points    1    2
 DE= -4.15D-03 DEPred=-3.55D-03 R= 1.17D+00
 TightC=F SS=  1.41D+00  RLast= 1.97D-01 DXNew= 5.0454D-01 5.8970D-01
 Trust test= 1.17D+00 RLast= 1.97D-01 DXMaxT set to 5.05D-01
 ITU=  1  0
 Use linear search instead of GDIIS.
     Eigenvalues ---    0.00344   0.00756   0.01359   0.03039   0.04199
     Eigenvalues ---    0.05433   0.05523   0.05547   0.09306   0.12238
     Eigenvalues ---    0.12861   0.16000   0.16000   0.16000   0.16040
     Eigenvalues ---    0.21934   0.22639   0.29251   0.32204   0.34205
     Eigenvalues ---    0.34382   0.34483   0.34584   0.34617   0.34883
     Eigenvalues ---    0.35910   0.58418
 RFO step:  Lambda=-2.50203338D-04 EMin= 3.44021180D-03
 Quartic linear search produced a step of  0.38936.
 Iteration  1 RMS(Cart)=  0.02762277 RMS(Int)=  0.00110459
 Iteration  2 RMS(Cart)=  0.00099752 RMS(Int)=  0.00000144
 Iteration  3 RMS(Cart)=  0.00000066 RMS(Int)=  0.00000137
 Variable       Old X    -DE/DX   Delta X   Delta X   Delta X     New X
                                 (Linear)    (Quad)   (Total)
    R1        2.89091  -0.00008  -0.00154   0.00093  -0.00061   2.89030
    R2        2.05816   0.00006  -0.00190   0.00189  -0.00001   2.05815
    R3        2.05764  -0.00005  -0.00229   0.00179  -0.00050   2.05714
    R4        2.05936   0.00000  -0.00231   0.00202  -0.00029   2.05907
    R5        2.84651   0.00316   0.00408   0.01004   0.01413   2.86064
    R6        2.06061  -0.00055  -0.00230  -0.00023  -0.00252   2.05809
    R7        2.06431   0.00012  -0.00223   0.00240   0.00016   2.06448
    R8        2.48153  -0.00543  -0.01104  -0.00281  -0.01385   2.46768
    R9        2.05545  -0.00065  -0.00120  -0.00155  -0.00275   2.05270
   R10        2.05230  -0.00409   0.00015  -0.01622  -0.01607   2.03623
    A1        1.93551   0.00013  -0.00163   0.00235   0.00071   1.93622
    A2        1.93297  -0.00007   0.00132  -0.00181  -0.00050   1.93247
    A3        1.93587   0.00012   0.00006   0.00122   0.00128   1.93715
    A4        1.89128  -0.00006  -0.00008  -0.00091  -0.00099   1.89029
    A5        1.88436  -0.00010   0.00026  -0.00085  -0.00059   1.88377
    A6        1.88199  -0.00002   0.00008  -0.00007   0.00001   1.88200
    A7        1.95219   0.00032   0.00006   0.00193   0.00199   1.95418
    A8        1.92163   0.00014  -0.00051   0.00268   0.00217   1.92380
    A9        1.90896  -0.00013   0.00184  -0.00179   0.00004   1.90901
   A10        1.91654  -0.00038   0.00312  -0.00679  -0.00367   1.91287
   A11        1.89668  -0.00005  -0.00378   0.00266  -0.00111   1.89556
   A12        1.86561   0.00007  -0.00081   0.00130   0.00049   1.86610
   A13        2.16317   0.00177  -0.00625   0.01644   0.01019   2.17336
   A14        2.02553  -0.00073   0.00026  -0.00450  -0.00425   2.02128
   A15        2.09432  -0.00104   0.00601  -0.01190  -0.00589   2.08843
   A16        2.30496   0.00803   0.07447   0.00909   0.08356   2.38851
    D1        3.10641   0.00010  -0.00299   0.00079  -0.00219   3.10422
    D2       -1.04077  -0.00006   0.00068  -0.00466  -0.00399  -1.04476
    D3        1.00430   0.00003   0.00048  -0.00258  -0.00210   1.00220
    D4       -1.07631   0.00006  -0.00328  -0.00001  -0.00329  -1.07960
    D5        1.05969  -0.00010   0.00038  -0.00546  -0.00508   1.05461
    D6        3.10476  -0.00001   0.00018  -0.00338  -0.00320   3.10156
    D7        1.01272   0.00006  -0.00228  -0.00049  -0.00277   1.00996
    D8       -3.13446  -0.00010   0.00138  -0.00594  -0.00456  -3.13902
    D9       -1.08939  -0.00000   0.00119  -0.00387  -0.00268  -1.09207
   D10        2.06089   0.00007   0.00167   0.00387   0.00554   2.06644
   D11       -1.06059   0.00005   0.00065   0.00179   0.00244  -1.05815
   D12       -0.07801  -0.00007   0.00009   0.00393   0.00402  -0.07400
   D13        3.08369  -0.00009  -0.00093   0.00184   0.00091   3.08460
   D14       -2.11303   0.00008   0.00147   0.00464   0.00611  -2.10692
   D15        1.04868   0.00006   0.00045   0.00255   0.00300   1.05168
   D16        0.01886  -0.00002  -0.00002  -0.00144  -0.00146   0.01740
   D17        3.13959   0.00001   0.00096   0.00083   0.00179   3.14138
         Item               Value     Threshold  Converged?
 Maximum Force            0.008032     0.000450     NO 
 RMS     Force            0.001716     0.000300     NO 
 Maximum Displacement     0.146853     0.001800     NO 
 RMS     Displacement     0.027432     0.001200     NO 
 Predicted change in Energy=-3.754667D-04
 GradGradGradGradGradGradGradGradGradGradGradGradGradGradGradGradGradGrad

                          Input orientation:                          
 ---------------------------------------------------------------------
 Center     Atomic      Atomic             Coordinates (Angstroms)
 Number     Number       Type             X           Y           Z
 ---------------------------------------------------------------------
      1          6           0       -1.729103   -0.267831   -0.288303
      2          6           0       -0.571610    0.539125    0.301909
      3          1           0       -2.651191    0.311729   -0.280912
      4          1           0       -1.513902   -0.554864   -1.316084
      5          1           0       -1.901092   -1.179207    0.283593
      6          6           0        0.711086   -0.263272    0.350795
      7          1           0       -0.412312    1.447724   -0.277052
      8          1           0       -0.827244    0.850005    1.317538
      9          6           0        1.806984    0.053662   -0.284640
     10          1           0        0.680762   -1.167369    0.952136
     11          1           0        2.138220    0.848346   -0.932579
 ---------------------------------------------------------------------
                    Distance matrix (angstroms):
                    1          2          3          4          5
     1  C    0.000000
     2  C    1.529483   0.000000
     3  H    1.089124   2.171646   0.000000
     4  H    1.088592   2.168554   1.765217   0.000000
     5  H    1.089611   2.172676   1.761875   1.760308   0.000000
     6  C    2.522496   1.513783   3.469090   2.795368   2.768921
     7  H    2.162681   1.089093   2.510593   2.510666   3.071083
     8  H    2.154445   1.092474   2.484264   3.062862   2.517914
     9  C    3.550673   2.497484   4.465640   3.530222   3.948757
    10  H    2.855749   2.214351   3.848382   3.215047   2.667032
    11  H    4.076410   2.993786   4.863237   3.931166   4.680393
                    6          7          8          9         10
     6  C    0.000000
     7  H    2.140963   0.000000
     8  H    2.130830   1.752757   0.000000
     9  C    1.305840   2.620829   3.184384   0.000000
    10  H    1.086242   3.089405   2.545073   2.070968   0.000000
    11  H    2.217984   2.700774   3.722500   1.077527   3.120807
                   11
    11  H    0.000000
 Stoichiometry    C4H7(2)
 Framework group  C1[X(C4H7)]
 Deg. of freedom    27
 Full point group                 C1      NOp   1
 Largest Abelian subgroup         C1      NOp   1
 Largest concise Abelian subgroup C1      NOp   1
                         Standard orientation:                         
 ---------------------------------------------------------------------
 Center     Atomic      Atomic             Coordinates (Angstroms)
 Number     Number       Type             X           Y           Z
 ---------------------------------------------------------------------
      1          6           0       -1.640132   -0.199517   -0.302413
      2          6           0       -0.442871    0.508539    0.333621
      3          1           0       -2.533711    0.420643   -0.246644
      4          1           0       -1.443791   -0.422904   -1.349590
      5          1           0       -1.852261   -1.139997    0.205278
      6          6           0        0.800636   -0.354534    0.315329
      7          1           0       -0.243585    1.447346   -0.181209
      8          1           0       -0.678531    0.758441    1.370690
      9          6           0        1.907183   -0.045157   -0.305202
     10          1           0        0.730501   -1.296483    0.851738
     11          1           0        2.272482    0.776967   -0.898272
 ---------------------------------------------------------------------
 Rotational constants (GHZ):          23.0796963           4.4381312           4.3524579
 Standard basis: CC-pVTZ (5D, 7F)
 There are   245 symmetry adapted cartesian basis functions of A   symmetry.
 There are   218 symmetry adapted basis functions of A   symmetry.
   218 basis functions,   327 primitive gaussians,   245 cartesian basis functions
    16 alpha electrons       15 beta electrons
       nuclear repulsion energy       110.2203562642 Hartrees.
 NAtoms=   11 NActive=   11 NUniq=   11 SFac= 1.00D+00 NAtFMM=   60 NAOKFM=F Big=F
 Integral buffers will be    131072 words long.
 Raffenetti 2 integral format.
 Two-electron integral symmetry is turned on.
 Nuclear repulsion after empirical dispersion term =      110.2151136166 Hartrees.
 One-electron integrals computed using PRISM.
 NBasis=   218 RedAO= T EigKep=  5.10D-04  NBF=   218
 NBsUse=   218 1.00D-06 EigRej= -1.00D+00 NBFU=   218
 Initial guess from the checkpoint file:  "/localscratch/339542/Gau-28889.chk"
 B after Tr=     0.000000   -0.000000   -0.000000
         Rot=    0.999667    0.025772    0.001013    0.000292 Ang=   2.96 deg.
 Initial guess <Sx>= 0.0000 <Sy>= 0.0000 <Sz>= 0.5000 <S**2>= 0.7777 S= 0.5137
 ExpMin= 1.03D-01 ExpMax= 8.24D+03 ExpMxC= 2.81D+02 IAcc=3 IRadAn=         5 AccDes= 0.00D+00
 Harris functional with IExCor=  419 and IRadAn=       5 diagonalized for initial guess.
 HarFok:  IExCor=  419 AccDes= 0.00D+00 IRadAn=         5 IDoV= 1 UseB2=F ITyADJ=14
 ICtDFT=  3500011 ScaDFX=  1.000000  1.000000  1.000000  1.000000
 FoFCou: FMM=F IPFlag=           0 FMFlag=      100000 FMFlg1=           0
         NFxFlg=           0 DoJE=T BraDBF=F KetDBF=T FulRan=T
         wScrn=  0.000000 ICntrl=       500 IOpCl=  0 I1Cent=   200000004 NGrid=           0
         NMat0=    1 NMatS0=      1 NMatT0=    0 NMatD0=    1 NMtDS0=    0 NMtDT0=    0
 Petite list used in FoFCou.
 Keep R1 and R2 ints in memory in canonical form, NReq=612885869.
 Requested convergence on RMS density matrix=1.00D-08 within 128 cycles.
 Requested convergence on MAX density matrix=1.00D-06.
 Requested convergence on             energy=1.00D-06.
 No special actions if energy rises.
 Integral accuracy reduced to 1.0D-05 until final iterations.
 Initial convergence to 1.0D-05 achieved.  Increase integral accuracy.
 SCF Done:  E(UB2PLYPD3) =  -156.227995708     A.U. after   13 cycles
            NFock= 13  Conv=0.98D-08     -V/T= 2.0045
 <Sx>= 0.0000 <Sy>= 0.0000 <Sz>= 0.5000 <S**2>= 0.7760 S= 0.5129
 <L.S>=  0.00000000000    
 Annihilation of the first spin contaminant:
 S**2 before annihilation     0.7760,   after     0.7502
 DoSCS=T DFT=T ScalE2(SS,OS)=  0.270000  0.270000
 ExpMin= 1.03D-01 ExpMax= 8.24D+03 ExpMxC= 2.81D+02 IAcc=3 IRadAn=         5 AccDes= 0.00D+00
 HarFok:  IExCor=  205 AccDes= 0.00D+00 IRadAn=         5 IDoV=-2 UseB2=F ITyADJ=14
 ICtDFT= 12500011 ScaDFX=  1.000000  1.000000  1.000000  1.000000
 Range of M.O.s used for correlation:     5   218
 NBasis=   218 NAE=    16 NBE=    15 NFC=     4 NFV=     0
 NROrb=    214 NOA=    12 NOB=    11 NVA=   202 NVB=   203

 **** Warning!!: The largest alpha MO coefficient is  0.11838497D+02


 **** Warning!!: The largest beta MO coefficient is  0.11838170D+02

 DoSCS=T DFT=T ScalE2(SS,OS)=  0.270000  0.270000
 Fully direct method using O(ONN) memory.
 JobTyp=2 Pass  1:  I=   5 to  16 NPSUse= 40 ParTrn=T ParDer=T DoDerP=T.
 JobTyp=3 Pass  1:  I=   5 to  15 NPSUse= 40 ParTrn=T ParDer=T DoDerP=T.
 Spin components of T(2) and E(2):
     alpha-alpha T2 =       0.4134774396D-01 E2=     -0.2589388488D-01
     alpha-beta  T2 =       0.2444219384D+00 E2=     -0.1631326735D+00
     beta-beta   T2 =       0.3656637058D-01 E2=     -0.2232393364D-01
 (S**2,0)=  0.77597D+00           (S**2,1)=  0.75836D+00
 Scaling Projection term by:   0.270000
 E(PUHF)=      -0.15623138666D+03        E(PMP2)=      -0.15643995284D+03
 E2(B2PLYPD3) =    -0.2113504920D+00 E(B2PLYPD3) =    -0.15643934619955D+03
          IDoAtm=11111111111
          Differentiating once with respect to electric field.
                with respect to dipole field.
          Differentiating once with respect to nuclear coordinates.
 Keep R1 and R2 ints in memory in canonical form, NReq=612894013.
          There are     1 degrees of freedom in the 1st order CPHF.  IDoFFX=0 NUNeed=     1.
 LinEq1:  Iter=  0 NonCon=     1 RMS=7.97D-04 Max=2.24D-02 NDo=     1
 AX will form     1 AO Fock derivatives at one time.
 LinEq1:  Iter=  1 NonCon=     1 RMS=3.04D-04 Max=7.48D-03 NDo=     1
 LinEq1:  Iter=  2 NonCon=     1 RMS=2.15D-04 Max=8.24D-03 NDo=     1
 LinEq1:  Iter=  3 NonCon=     1 RMS=9.75D-05 Max=3.70D-03 NDo=     1
 LinEq1:  Iter=  4 NonCon=     1 RMS=5.13D-05 Max=1.40D-03 NDo=     1
 LinEq1:  Iter=  5 NonCon=     1 RMS=1.37D-05 Max=1.78D-04 NDo=     1
 LinEq1:  Iter=  6 NonCon=     1 RMS=5.56D-06 Max=6.75D-05 NDo=     1
 LinEq1:  Iter=  7 NonCon=     1 RMS=2.18D-06 Max=2.45D-05 NDo=     1
 LinEq1:  Iter=  8 NonCon=     1 RMS=7.81D-07 Max=1.17D-05 NDo=     1
 LinEq1:  Iter=  9 NonCon=     1 RMS=2.63D-07 Max=5.25D-06 NDo=     1
 LinEq1:  Iter= 10 NonCon=     1 RMS=7.72D-08 Max=2.60D-06 NDo=     1
 LinEq1:  Iter= 11 NonCon=     1 RMS=3.25D-08 Max=1.00D-06 NDo=     1
 LinEq1:  Iter= 12 NonCon=     1 RMS=1.51D-08 Max=5.22D-07 NDo=     1
 LinEq1:  Iter= 13 NonCon=     1 RMS=4.00D-09 Max=9.71D-08 NDo=     1
 LinEq1:  Iter= 14 NonCon=     1 RMS=1.11D-09 Max=1.72D-08 NDo=     1
 LinEq1:  Iter= 15 NonCon=     1 RMS=2.65D-10 Max=2.52D-09 NDo=     1
 LinEq1:  Iter= 16 NonCon=     0 RMS=8.23D-11 Max=9.47D-10 NDo=     1
 Linear equations converged to 1.000D-10 1.000D-09 after    16 iterations.
 End of Minotr F.D. properties file   721 does not exist.
 End of Minotr F.D. properties file   722 does not exist.
 End of Minotr F.D. properties file   788 does not exist.
 Calling FoFJK, ICntrl=  10002127 FMM=F ISym2X=0 I1Cent= 0 IOpClX= 1 NMat=1 NMatS=1 NMatT=0.
 ***** Axes restored to original set *****
 -------------------------------------------------------------------
 Center     Atomic                   Forces (Hartrees/Bohr)
 Number     Number              X              Y              Z
 -------------------------------------------------------------------
      1        6           0.000443984    0.000116338    0.000117850
      2        6          -0.000989161   -0.000480850    0.000612699
      3        1          -0.000051103    0.000049321   -0.000002459
      4        1          -0.000017724   -0.000080888   -0.000159261
      5        1          -0.000007963   -0.000085040    0.000064838
      6        6          -0.000733069    0.001323198   -0.000555611
      7        1           0.000218883    0.000063826   -0.000191868
      8        1           0.000167782   -0.000106204    0.000054417
      9        6           0.000697495   -0.000065578   -0.000184929
     10        1          -0.000054395   -0.000576655    0.000301777
     11        1           0.000325270   -0.000157469   -0.000057454
 -------------------------------------------------------------------
 Cartesian Forces:  Max     0.001323198 RMS     0.000414581

 GradGradGradGradGradGradGradGradGradGradGradGradGradGradGradGradGradGrad
 Berny optimization.
 Using GEDIIS/GDIIS optimizer.
 FormGI is forming the generalized inverse of G from B-inverse, IUseBI=4.
 Internal  Forces:  Max     0.001412185 RMS     0.000346932
 Search for a local minimum.
 Step number   3 out of a maximum of  100
 All quantities printed in internal units (Hartrees-Bohrs-Radians)
 Mixed Optimization -- En-DIIS/RFO-DIIS
 Update second derivatives using D2CorX and points    1    2    3
 DE= -4.70D-04 DEPred=-3.75D-04 R= 1.25D+00
 TightC=F SS=  1.41D+00  RLast= 8.97D-02 DXNew= 8.4853D-01 2.6905D-01
 Trust test= 1.25D+00 RLast= 8.97D-02 DXMaxT set to 5.05D-01
 ITU=  1  1  0
 Use linear search instead of GDIIS.
     Eigenvalues ---    0.00344   0.00755   0.01358   0.03039   0.04188
     Eigenvalues ---    0.05410   0.05518   0.05542   0.08908   0.09689
     Eigenvalues ---    0.12832   0.16000   0.16000   0.16002   0.16040
     Eigenvalues ---    0.21964   0.22999   0.29248   0.32390   0.34205
     Eigenvalues ---    0.34416   0.34492   0.34600   0.34632   0.35002
     Eigenvalues ---    0.36273   0.60179
 RFO step:  Lambda=-2.25493759D-05 EMin= 3.43928603D-03
 Quartic linear search produced a step of  0.08847.
 Iteration  1 RMS(Cart)=  0.00621273 RMS(Int)=  0.00003501
 Iteration  2 RMS(Cart)=  0.00003510 RMS(Int)=  0.00000096
 Iteration  3 RMS(Cart)=  0.00000000 RMS(Int)=  0.00000096
 Variable       Old X    -DE/DX   Delta X   Delta X   Delta X     New X
                                 (Linear)    (Quad)   (Total)
    R1        2.89030  -0.00029  -0.00005  -0.00106  -0.00112   2.88919
    R2        2.05815   0.00007  -0.00000   0.00018   0.00018   2.05832
    R3        2.05714   0.00017  -0.00004   0.00050   0.00046   2.05760
    R4        2.05907   0.00011  -0.00003   0.00030   0.00027   2.05934
    R5        2.86064  -0.00009   0.00125  -0.00091   0.00034   2.86097
    R6        2.05809   0.00019  -0.00022   0.00066   0.00044   2.05853
    R7        2.06448  -0.00002   0.00001  -0.00012  -0.00010   2.06437
    R8        2.46768   0.00092  -0.00123   0.00212   0.00090   2.46858
    R9        2.05270   0.00065  -0.00024   0.00212   0.00188   2.05458
   R10        2.03623   0.00002  -0.00142   0.00084  -0.00058   2.03565
    A1        1.93622  -0.00003   0.00006  -0.00032  -0.00025   1.93597
    A2        1.93247   0.00010  -0.00004   0.00081   0.00076   1.93323
    A3        1.93715  -0.00003   0.00011  -0.00032  -0.00021   1.93694
    A4        1.89029  -0.00003  -0.00009  -0.00005  -0.00014   1.89015
    A5        1.88377   0.00002  -0.00005  -0.00001  -0.00006   1.88371
    A6        1.88200  -0.00003   0.00000  -0.00012  -0.00012   1.88188
    A7        1.95418  -0.00022   0.00018  -0.00165  -0.00148   1.95270
    A8        1.92380   0.00014   0.00019   0.00092   0.00111   1.92490
    A9        1.90901   0.00016   0.00000   0.00166   0.00166   1.91067
   A10        1.91287  -0.00006  -0.00032  -0.00140  -0.00172   1.91115
   A11        1.89556  -0.00004  -0.00010  -0.00108  -0.00118   1.89439
   A12        1.86610   0.00003   0.00004   0.00169   0.00173   1.86783
   A13        2.17336   0.00141   0.00090   0.00631   0.00721   2.18056
   A14        2.02128  -0.00072  -0.00038  -0.00338  -0.00376   2.01752
   A15        2.08843  -0.00069  -0.00052  -0.00296  -0.00348   2.08494
   A16        2.38851   0.00074   0.00739   0.00308   0.01047   2.39898
    D1        3.10422   0.00001  -0.00019   0.00080   0.00060   3.10482
    D2       -1.04476  -0.00012  -0.00035  -0.00149  -0.00184  -1.04659
    D3        1.00220   0.00009  -0.00019   0.00210   0.00191   1.00411
    D4       -1.07960   0.00002  -0.00029   0.00106   0.00077  -1.07883
    D5        1.05461  -0.00011  -0.00045  -0.00123  -0.00168   1.05293
    D6        3.10156   0.00011  -0.00028   0.00236   0.00208   3.10364
    D7        1.00996   0.00003  -0.00024   0.00123   0.00098   1.01094
    D8       -3.13902  -0.00010  -0.00040  -0.00105  -0.00146  -3.14048
    D9       -1.09207   0.00011  -0.00024   0.00253   0.00229  -1.08977
   D10        2.06644  -0.00002   0.00049   0.00020   0.00069   2.06712
   D11       -1.05815   0.00001   0.00022   0.00305   0.00327  -1.05488
   D12       -0.07400  -0.00000   0.00036   0.00114   0.00150  -0.07250
   D13        3.08460   0.00003   0.00008   0.00400   0.00408   3.08868
   D14       -2.10692   0.00001   0.00054   0.00050   0.00104  -2.10588
   D15        1.05168   0.00005   0.00027   0.00336   0.00363   1.05530
   D16        0.01740  -0.00000  -0.00013   0.00085   0.00072   0.01812
   D17        3.14138  -0.00004   0.00016  -0.00211  -0.00195   3.13943
         Item               Value     Threshold  Converged?
 Maximum Force            0.001412     0.000450     NO 
 RMS     Force            0.000347     0.000300     NO 
 Maximum Displacement     0.030715     0.001800     NO 
 RMS     Displacement     0.006206     0.001200     NO 
 Predicted change in Energy=-1.383233D-05
 GradGradGradGradGradGradGradGradGradGradGradGradGradGradGradGradGradGrad

                          Input orientation:                          
 ---------------------------------------------------------------------
 Center     Atomic      Atomic             Coordinates (Angstroms)
 Number     Number       Type             X           Y           Z
 ---------------------------------------------------------------------
      1          6           0       -1.730075   -0.268691   -0.287227
      2          6           0       -0.575136    0.541221    0.302405
      3          1           0       -2.653947    0.308178   -0.278567
      4          1           0       -1.515401   -0.554897   -1.315604
      5          1           0       -1.898794   -1.180893    0.284601
      6          6           0        0.709448   -0.258682    0.348018
      7          1           0       -0.417056    1.450323   -0.276536
      8          1           0       -0.828525    0.849727    1.319262
      9          6           0        1.808526    0.054363   -0.284825
     10          1           0        0.677086   -1.165490    0.946961
     11          1           0        2.154473    0.842889   -0.932090
 ---------------------------------------------------------------------
                    Distance matrix (angstroms):
                    1          2          3          4          5
     1  C    0.000000
     2  C    1.528891   0.000000
     3  H    1.089217   2.171012   0.000000
     4  H    1.088833   2.168761   1.765398   0.000000
     5  H    1.089755   2.172111   1.762029   1.760545   0.000000
     6  C    2.520894   1.513963   3.467905   2.793803   2.767204
     7  H    2.163133   1.089325   2.511610   2.511360   3.071436
     8  H    2.155101   1.092419   2.485659   3.063868   2.517820
     9  C    3.553318   2.502741   4.469690   3.533015   3.948965
[...]
    A8        1.92526  -0.00001   0.00000  -0.00011  -0.00011   1.92515
    A9        1.91089  -0.00000   0.00000  -0.00009  -0.00009   1.91080
   A10        1.91196   0.00001   0.00000   0.00014   0.00014   1.91210
   A11        1.89361   0.00001   0.00000   0.00011   0.00011   1.89372
   A12        1.86815  -0.00000   0.00000  -0.00017  -0.00017   1.86798
   A13        2.18597  -0.00000   0.00000  -0.00001  -0.00001   2.18596
   A14        2.01567   0.00000   0.00000   0.00003   0.00003   2.01570
   A15        2.08139  -0.00000   0.00000  -0.00001  -0.00001   2.08139
   A16        2.40004  -0.00003   0.00000  -0.00039  -0.00039   2.39965
    D1        3.10471  -0.00000   0.00000   0.00016   0.00016   3.10486
    D2       -1.04605   0.00001   0.00000   0.00034   0.00034  -1.04571
    D3        1.00540  -0.00001   0.00000   0.00001   0.00001   1.00541
    D4       -1.07876  -0.00000   0.00000   0.00012   0.00012  -1.07864
    D5        1.05368   0.00001   0.00000   0.00030   0.00030   1.05398
    D6        3.10512  -0.00001   0.00000  -0.00003  -0.00003   3.10509
    D7        1.01072   0.00000   0.00000   0.00016   0.00016   1.01089
    D8       -3.14003   0.00001   0.00000   0.00034   0.00034  -3.13969
    D9       -1.08859  -0.00001   0.00000   0.00002   0.00002  -1.08857
   D10        2.07132   0.00001   0.00000   0.00278   0.00278   2.07410
   D11       -1.05149   0.00000   0.00000   0.00220   0.00220  -1.04929
   D12       -0.06872   0.00001   0.00000   0.00275   0.00275  -0.06597
   D13        3.09166   0.00000   0.00000   0.00216   0.00216   3.09382
   D14       -2.10249   0.00001   0.00000   0.00281   0.00281  -2.09968
   D15        1.05788  -0.00000   0.00000   0.00223   0.00223   1.06011
   D16        0.01742  -0.00001   0.00000  -0.00067  -0.00067   0.01674
   D17        3.13957   0.00000   0.00000  -0.00007  -0.00007   3.13950
         Item               Value     Threshold  Converged?
 Maximum Force            0.000041     0.000450     YES
 RMS     Force            0.000011     0.000300     YES
 Maximum Displacement     0.003993     0.001800     NO 
 RMS     Displacement     0.001398     0.001200     NO 
 Predicted change in Energy=-6.438170D-08
                           ----------------------------
                           ! Non-Optimized Parameters !
                           ! (Angstroms and Degrees)  !
 --------------------------                            --------------------------
 ! Name  Definition              Value          Derivative Info.                !
 --------------------------------------------------------------------------------
 ! R1    R(1,2)                  1.5287         -DE/DX =    0.0                 !
 ! R2    R(1,3)                  1.0892         -DE/DX =    0.0                 !
 ! R3    R(1,4)                  1.0888         -DE/DX =    0.0                 !
 ! R4    R(1,5)                  1.0898         -DE/DX =    0.0                 !
 ! R5    R(2,6)                  1.5134         -DE/DX =    0.0                 !
 ! R6    R(2,7)                  1.0894         -DE/DX =    0.0                 !
 ! R7    R(2,8)                  1.0923         -DE/DX =    0.0                 !
 ! R8    R(6,9)                  1.3062         -DE/DX =    0.0                 !
 ! R9    R(6,10)                 1.0877         -DE/DX =    0.0                 !
 ! R10   R(9,11)                 1.0773         -DE/DX =    0.0                 !
 ! A1    A(2,1,3)              110.952          -DE/DX =    0.0                 !
 ! A2    A(2,1,4)              110.7661         -DE/DX =    0.0                 !
 ! A3    A(2,1,5)              110.9686         -DE/DX =    0.0                 !
 ! A4    A(3,1,4)              108.2894         -DE/DX =    0.0                 !
 ! A5    A(3,1,5)              107.923          -DE/DX =    0.0                 !
 ! A6    A(4,1,5)              107.8175         -DE/DX =    0.0                 !
 ! A7    A(1,2,6)              111.8364         -DE/DX =    0.0                 !
 ! A8    A(1,2,7)              110.303          -DE/DX =    0.0                 !
 ! A9    A(1,2,8)              109.481          -DE/DX =    0.0                 !
 ! A10   A(6,2,7)              109.5552         -DE/DX =    0.0                 !
 ! A11   A(6,2,8)              108.502          -DE/DX =    0.0                 !
 ! A12   A(7,2,8)              107.0275         -DE/DX =    0.0                 !
 ! A13   A(2,6,9)              125.2464         -DE/DX =    0.0                 !
 ! A14   A(2,6,10)             115.4909         -DE/DX =    0.0                 !
 ! A15   A(9,6,10)             119.2547         -DE/DX =    0.0                 !
 ! A16   A(6,9,11)             137.49           -DE/DX =    0.0                 !
 ! D1    D(3,1,2,6)            177.8955         -DE/DX =    0.0                 !
 ! D2    D(3,1,2,7)            -59.9148         -DE/DX =    0.0                 !
 ! D3    D(3,1,2,8)             57.6056         -DE/DX =    0.0                 !
 ! D4    D(4,1,2,6)            -61.8013         -DE/DX =    0.0                 !
 ! D5    D(4,1,2,7)             60.3884         -DE/DX =    0.0                 !
 ! D6    D(4,1,2,8)            177.9088         -DE/DX =    0.0                 !
 ! D7    D(5,1,2,6)             57.9195         -DE/DX =    0.0                 !
 ! D8    D(5,1,2,7)           -179.8909         -DE/DX =    0.0                 !
 ! D9    D(5,1,2,8)            -62.3704         -DE/DX =    0.0                 !
 ! D10   D(1,2,6,9)            118.8371         -DE/DX =    0.0                 !
 ! D11   D(1,2,6,10)           -60.1202         -DE/DX =    0.0                 !
 ! D12   D(7,2,6,9)             -3.7798         -DE/DX =    0.0                 !
 ! D13   D(7,2,6,10)           177.263          -DE/DX =    0.0                 !
 ! D14   D(8,2,6,9)           -120.3027         -DE/DX =    0.0                 !
 ! D15   D(8,2,6,10)            60.7401         -DE/DX =    0.0                 !
 ! D16   D(2,6,9,11)             0.9592         -DE/DX =    0.0                 !
 ! D17   D(10,6,9,11)          179.8804         -DE/DX =    0.0                 !
 --------------------------------------------------------------------------------
 GradGradGradGradGradGradGradGradGradGradGradGradGradGradGradGradGradGrad


 ----------------------------------------------------------------------

 Electric dipole moment (input orientation):
 (Debye = 10**-18 statcoulomb cm , SI units = C m)
                  (au)            (Debye)         (10**-30 SI)
   Tot        0.423457D+00      0.107632D+01      0.359022D+01
   x         -0.376657D+00     -0.957367D+00     -0.319343D+01
   y          0.193506D+00      0.491842D+00      0.164061D+01
   z          0.688716D-03      0.175054D-02      0.583918D-02

 Dipole polarizability, Alpha (input orientation).
 (esu units = cm**3 , SI units = C**2 m**2 J**-1)
 Alpha(0;0):
               (au)            (10**-24 esu)      (10**-40 SI)
   iso        0.475549D+02      0.704692D+01      0.784075D+01
   aniso      0.217968D+02      0.322995D+01      0.359381D+01
   xx         0.599454D+02      0.888299D+01      0.988366D+01
   yx         0.220095D+01      0.326147D+00      0.362887D+00
   yy         0.416228D+02      0.616786D+01      0.686267D+01
   zx        -0.549233D+01     -0.813880D+00     -0.905564D+00
   zy        -0.285402D+01     -0.422922D+00     -0.470564D+00
   zz         0.410966D+02      0.608989D+01      0.677592D+01

 ----------------------------------------------------------------------

 Dipole orientation:
     6         -1.37464741         -1.48268377          2.67602229
     6          0.69382750          0.10925561          1.43809691
     1         -1.28481071         -1.34003305          4.72751094
     1         -3.23828982         -0.85905800          2.06637406
     1         -1.17809541         -3.46920176          2.16970918
     6          0.66448688         -0.13828206         -1.41114811
     1          0.48007710          2.08928870          1.95971396
     1          2.54006431         -0.50242685          2.12956536
     6          0.28347939          1.71352724         -2.99801107
     1          0.95833138         -2.03876394         -2.13700585
     1         -0.05740423          3.71871532         -2.91130636

 Electric dipole moment (dipole orientation):
 (Debye = 10**-18 statcoulomb cm , SI units = C m)
                  (au)            (Debye)         (10**-30 SI)
   Tot        0.423457D+00      0.107632D+01      0.359022D+01
   x          0.000000D+00      0.000000D+00      0.000000D+00
   y          0.000000D+00      0.000000D+00      0.000000D+00
   z          0.423457D+00      0.107632D+01      0.359022D+01

 Dipole polarizability, Alpha (dipole orientation).
 (esu units = cm**3 , SI units = C**2 m**2 J**-1)
 Alpha(0;0):
               (au)            (10**-24 esu)      (10**-40 SI)
   iso        0.475549D+02      0.704692D+01      0.784075D+01
   aniso      0.217968D+02      0.322995D+01      0.359381D+01
   xx         0.382774D+02      0.567213D+01      0.631110D+01
   yx        -0.430723D+00     -0.638265D-01     -0.710166D-01
   yy         0.500457D+02      0.741601D+01      0.825142D+01
   zx        -0.826512D+00     -0.122476D+00     -0.136273D+00
   zy        -0.939843D+01     -0.139270D+01     -0.154959D+01
   zz         0.543417D+02      0.805261D+01      0.895973D+01

 ----------------------------------------------------------------------
 1\1\GINC-N68\Freq\UB2PLYPD3-FC\CC-pVTZ\C4H7(2)\ROOT\31-May-2019\0\\#N 
 Geom=AllCheck Guess=TCheck SCRF=Check GenChk UB2PLYPD3(FC)/CC-pVTZ Fre
 q\\Title Card Required\\0,2\C,-1.7308194708,-0.2691176041,-0.286197590
 5\C,-0.57629945,0.542511602,0.3013981957\H,-2.6558209204,0.3060075901,
 -0.2766416575\H,-1.517148985,-0.555534554,-1.3147300716\H,-1.897236860
 6,-1.1814066102,0.2862550392\C,0.7084034538,-0.2564654789,0.3449941782
 \H,-0.420390287,1.4520919007,-0.2775682847\H,-0.8278526814,0.849978814
 3,1.3189203012\C,1.8106297668,0.0536255491,-0.2835072471\H,0.674617229
 6,-1.1649145519,0.9422478809\H,2.162516205,0.841272343,-0.9287717438\\
 Version=ES64L-G16RevB.01\State=2-A\HF=-156.2279985\MP2=-156.4393669\PU
 HF=-156.2314041\PMP2-0=-156.439976\S2=0.77605\S2-1=0.758375\S2A=0.7502
 17\RMSD=1.530e-09\RMSF=2.048e-05\ZeroPoint=0.0952375\Thermal=0.1005048
 \Dipole=-0.3766573,0.1935057,0.0006887\DipoleDeriv=0.0266327,-0.021508
 6,-0.0161278,0.071485,0.0939227,-0.0345419,-0.0019261,-0.0202593,0.096
 3759,0.1541916,0.0094961,0.0046624,-0.0703504,0.1083676,0.0351156,0.02
 5109,0.0061304,0.1455528,-0.1614569,0.0626627,-0.0111952,0.078288,-0.0
 031739,-0.004719,-0.0176425,-0.0119063,0.0661015,0.0369935,0.0037975,0
 .0547031,-0.0233343,0.0340206,-0.0449806,-0.0024169,-0.0607027,-0.1152
 54,0.0447376,-0.0132739,-0.0178512,-0.0603685,-0.0952325,0.0705699,0.0
 145489,0.0999856,-0.0096343,0.0295564,-0.059318,-0.0810717,-0.1161373,
 0.0051848,-0.1079177,-0.0539781,-0.1101195,-0.0982252,-0.0092346,-0.05
 28134,0.0160288,-0.0093971,-0.096547,0.0561911,-0.0082251,0.0945288,0.
 0048495,-0.0499144,0.0202623,0.0401837,0.0434533,0.0325997,-0.0605742,
 0.0239696,-0.0764851,-0.1152988,-0.2877572,0.0119109,-0.0261764,0.1265
 578,-0.1099953,-0.1331917,-0.0786819,-0.106899,-0.175688,0.0511273,0.0
 012813,0.0397125,0.0235055,-0.0225214,0.105897,0.0394181,0.1024168,0.0
 71861,0.165124,0.037503,-0.0028683,-0.063702,0.0533747,0.1181516,0.059
 8249,0.0833102,0.1293596\Polar=59.9453806,2.2009465,41.6227927,-5.4923
 347,-2.8540187,41.0966466\PG=C01 [X(C4H7)]\NImag=0\\0.51384114,-0.0457
 6865,0.54280169,-0.03200761,-0.02076557,0.55866932,-0.13423737,-0.0444
 9929,-0.03193598,0.43526975,-0.04941132,-0.11257914,-0.02246087,0.0073
 8377,0.53658624,-0.03528372,-0.02010058,-0.09557211,-0.04021480,-0.042
 53809,0.55843694,-0.23549509,0.12082097,0.00347225,-0.02029326,0.01361
 069,0.00003317,0.25759855,0.12147562,-0.12474680,-0.00174696,-0.017722
 81,0.00997649,-0.00051421,-0.13102420,0.13330615,0.00401111,-0.0021684
 6,-0.04845233,-0.01140578,0.00760912,-0.00124611,-0.00204926,0.0034221
 5,0.04781471,-0.05927623,0.01549994,0.05431925,0.00368220,-0.00689022,
 -0.02631418,-0.00519015,0.00562786,0.02659679,0.06323154,0.01487661,-0
 .06533344,-0.06294419,0.00342813,-0.00543712,-0.01818607,0.00290130,-0
 .00495293,-0.01708429,-0.01316303,0.06840589,0.05244577,-0.06336498,-0
 .28567362,0.00199169,-0.00308569,-0.01168910,-0.00004811,0.00061123,0.
 00117253,-0.05605623,0.07183551,0.30993637,-0.05291370,-0.02997814,0.0
 2008299,-0.00523320,-0.02218803,0.01448631,0.00498913,0.02310459,-0.01
 591131,-0.00194905,-0.00597557,0.00361885,0.05638852,-0.03084183,-0.23
 020171,0.11750408,-0.00288157,-0.01594176,0.00943050,-0.00301950,-0.01
 425870,0.00916630,0.00148942,0.00811465,-0.00479366,0.03707831,0.25111
 132,0.02076170,0.11816972,-0.12418924,-0.00235417,-0.01274487,0.007738
 59,-0.00042559,-0.00176578,-0.00015626,0.00353902,0.02674993,-0.015854
 16,-0.02038937,-0.12857866,0.13139721,-0.03509285,0.01208813,-0.002487
 26,-0.13781071,0.04833894,-0.00033569,-0.00323556,-0.00245485,-0.00197
 445,0.00244744,0.00092037,0.00108611,0.00171525,0.00115089,0.00055267,
 0.66542525,-0.01169890,0.01180302,0.00021112,0.05690753,-0.11372146,0.
 00709302,-0.00461003,-0.00171581,-0.00188826,-0.00019299,0.00024782,0.
 00020381,-0.00087089,0.00077392,-0.00009716,0.04933214,0.44873281,-0.0
 1055079,0.00693670,0.00017786,-0.00560176,0.01019583,-0.07162371,-0.00
 176820,-0.00130167,-0.00029839,-0.00080494,0.00084965,0.00049368,0.001
 25997,-0.00002704,0.00043584,-0.23048916,-0.21778592,0.36921428,-0.004
 79137,-0.02222796,0.01406931,-0.05237767,-0.03204126,0.02220240,0.0005
 3865,0.00068250,0.00059486,0.00113588,0.00083095,-0.00008682,-0.003672
 91,-0.00276409,-0.00273102,0.00103609,0.02503139,-0.01606593,0.0621908
 1,-0.00317695,-0.01440054,0.00902754,-0.03084116,-0.22783106,0.1170517
 5,-0.00005373,0.00075511,0.00000273,0.00075720,0.00024807,-0.00012989,
 -0.00285887,-0.00063033,-0.00183605,-0.00012260,-0.01506919,0.00920954
 ,0.03384675,0.24868800,-0.00284058,-0.01292279,0.00770687,0.02163209,0
 .11856241,-0.12764021,0.00077844,0.00056907,0.00030364,0.00075487,0.00
 011733,0.00083056,-0.00252509,-0.00221069,-0.00011036,-0.00042151,0.00
 002316,-0.00068589,-0.02128101,-0.12852190,0.13402080,0.00502595,-0.00
 890542,-0.02680695,-0.05569906,0.01798585,0.06041681,0.00123189,0.0009
 9154,0.00044874,-0.00394654,-0.00346924,-0.00222057,0.00097063,0.00052
 739,0.00077216,-0.01372937,0.00932174,0.02710015,-0.00155901,0.0010108
 6,0.00392043,0.06911421,0.00244148,-0.00574260,-0.01816083,0.01594711,
 -0.06892288,-0.06351509,0.00028166,0.00071557,0.00068497,-0.00305599,-
 0.00124637,-0.00144810,0.00084024,0.00023874,0.00009045,0.00680285,-0.
 00452684,-0.01692167,-0.00656700,0.00805607,0.02548068,-0.01770631,0.0
 7130873,0.00226599,-0.00372628,-0.01232558,0.05526915,-0.06218345,-0.2
 7159811,-0.00025045,0.00048031,0.00019719,-0.00255719,-0.00142679,0.00
 066629,0.00003451,-0.00019012,0.00083131,0.00102610,0.00106627,0.00239
 828,0.00392409,-0.00455990,-0.01618748,-0.05986912,0.07206548,0.294921
 31,0.00010146,0.00312556,0.00155676,-0.03644865,-0.00092365,0.01993319
 ,-0.00060861,-0.00068800,-0.00075496,0.00003179,-0.00022869,-0.0006482
 6,-0.00003269,-0.00012116,0.00005893,-0.43761649,-0.09324361,0.2151271
 4,0.00201999,-0.00195847,0.00016349,-0.00272038,0.00143272,-0.00005776
 ,0.54693691,0.00220005,-0.00188019,-0.00059262,0.01359189,0.00984352,-
 0.00139546,0.00088645,0.00075315,0.00039916,-0.00002975,0.00003255,0.0
 0027657,0.00034105,0.00040434,-0.00015922,-0.12253071,-0.09787956,0.08
 711057,0.00040850,0.00085084,-0.00114625,0.00159495,-0.00070736,-0.000
 87892,0.19219413,0.29826352,-0.00031146,-0.00115853,-0.00040514,0.0111
 3213,0.00384345,0.00797337,-0.00001917,0.00035910,0.00054420,0.0006810
 0,0.00013233,0.00035201,-0.00013999,-0.00015539,-0.00005639,0.23446393
 ,0.07580223,-0.17647595,-0.00122155,-0.00015116,0.00020831,-0.00221223
 ,0.00072671,0.00124266,-0.31751151,-0.23698782,0.32311972,0.00261249,0
 .00020393,-0.00009856,0.00038145,0.02450954,-0.01313813,0.00036228,-0.
 00011060,0.00038776,-0.00009005,-0.00012077,-0.00012227,-0.00031754,-0
 .00071968,0.00024429,-0.04442992,-0.00710140,0.00680330,-0.00426531,0.
 00274711,0.00006798,0.00075444,-0.00045757,0.00058193,-0.00501295,-0.0
 2193548,0.01557692,0.05189846,0.00005806,0.00017843,-0.00036248,-0.000
 07086,-0.01147663,0.01337632,0.00029851,0.00031532,-0.00008240,0.00001
 877,-0.00005532,-0.00003807,0.00052359,0.00048720,0.00014121,-0.002149
 59,-0.23206090,0.12629230,0.00303765,-0.00075007,-0.00002504,-0.001232
 16,0.00065396,-0.00045557,-0.00553895,-0.00503755,0.00452440,0.0031844
 0,0.24580603,0.00147598,-0.00060779,-0.00006593,0.00281069,0.00376922,
 0.00653967,0.00029226,-0.00007242,0.00008634,-0.00010257,-0.00005581,-
 0.00022308,-0.00036810,-0.00003338,-0.00002594,0.00385411,0.12776554,-
 0.12250869,0.00026948,0.00013194,0.00139222,-0.00179961,0.00075626,0.0
 0024724,0.00515585,0.01092907,-0.01040092,-0.01449357,-0.14697458,0.12
 022866,0.00022556,-0.00035907,-0.00016421,0.00276654,-0.00037432,-0.00
 178536,0.00010217,0.00011836,0.00005651,-0.00007684,-0.00000007,0.0000
 3985,0.00005556,0.00010183,-0.00002861,0.00129085,-0.02287498,0.014990
 22,-0.00025514,0.00064987,-0.00024911,0.00055723,0.00004080,-0.0003672
 7,-0.06665038,-0.06672109,0.05956193,-0.00189336,0.00187058,0.00290549
 ,0.06387780,-0.00015417,0.00010129,0.00029080,-0.00124274,-0.00049620,
 -0.00070210,-0.00009213,-0.00014754,-0.00006102,-0.00006122,-0.0000238
 0,-0.00006674,-0.00001628,-0.00009767,0.00003042,0.00862443,0.00341619
 ,-0.00455829,-0.00023743,0.00008310,0.00007402,-0.00011919,0.00017299,
 -0.00019102,-0.09404987,-0.20464326,0.15306469,-0.00019948,0.00193953,
 0.00439194,0.08754808,0.19969536,0.00003360,-0.00029143,0.00012991,-0.
 00132324,-0.00096706,-0.00131921,-0.00001534,-0.00004083,0.00003449,-0
 .00005583,0.00001240,-0.00001147,-0.00014876,-0.00011194,-0.00001059,-
 0.00527485,0.00760618,-0.00112731,0.00032619,-0.00022459,0.00016155,0.
 00025019,0.00024114,-0.00039312,0.07697713,0.14244493,-0.14610187,0.00
 419036,0.00360391,0.00473043,-0.07495944,-0.15227271,0.14390719\\0.000
 03040,0.00001283,0.00000605,-0.00008584,0.00001910,-0.00000076,-0.0000
 0964,0.00000197,-0.00000046,-0.00000018,-0.00000183,-0.00000346,-0.000
 00183,-0.00000527,0.00000129,0.00004351,-0.00000623,0.00002543,0.00001
 846,0.00000557,-0.00000601,0.00000848,-0.00001832,-0.00000381,-0.00001
 472,0.00001052,-0.00002576,-0.00000304,-0.00001142,0.00000665,0.000014
 41,-0.00000692,0.00000085\\\@


 A ROPE OVER THE TOP OF A FENCE HAS THE SAME LENGTH ON EACH SIDE.
 WEIGHS 1/3 POUND PER FOOT.  ON ONE END HANGS A MONKEY HOLDING A
 BANANA, AND ON THE OTHER END A WEIGHT EQUAL TO THE WEIGHT
 OF THE MONKEY.  THE BANANA WEIGHS TWO OUNCES PER INCH.
 THE ROPE IS AS LONG AS THE AGE OF THE MONKEY, 
 AND THE WEIGHT OF THE MONKEY (IN OUNCES) IS AS MUCH
 AS THE AGE OF THE MONKEY'S MOTHER.  THE COMBINED AGES OF MONKEY
 AND MOTHER ARE THIRTY YEARS.  HALF THE WEIGHT OF THE MONKEY,
  PLUS THE WEIGHT OF THE BANANA, IS ONE FOURTH AS MUCH AS THE WEIGHT
 OF THE WEIGHT AND THE ROPE.
 THE MONKEY'S MOTHER IS HALF AS OLD AS THE MONKEY WILL BE
 WHEN IT IS 3 TIMES AS OLD AS ITS MOTHER WAS WHEN
 SHE WAS HALF AS OLD AS THE MONKEY WILL BE WHEN IT IS
 AS OLD AS ITS MOTHER WILL BE WHEN SHE IS 4 TIMES AS
 OLD AS THE MONKEY WAS WHEN IT WAS TWICE AS OLD AS 
 ITS MOTHER WAS WHEN SHE WAS ONE THIRD AS OLD AS THE
 MONKEY WAS WHEN IT WAS AS OLD AS ITS MOTHER WAS WHEN 
 SHE WAS 3 TIMES AS OLD AS THE MONKEY WAS WHEN IT WAS AS OLD AS ITS
 MOTHER WAS WHEN SHE WAS 3 TIMES AS OLD AS THE MONKEY 
 WAS WHEN IT WAS ONE FOURTH WAS OLD AS IT IS NOW.

 HOW LONG IS THE BANANA?
 Job cpu time:       0 days  8 hours  0 minutes  9.2 seconds.
 Elapsed time:       0 days  0 hours 12 minutes 19.8 seconds.
 File lengths (MBytes):  RWF=  14059 Int=      0 D2E=      0 Chk=      9 Scr=      1
 Normal termination of Gaussian 16 at Fri May 31 19:09:00 2019.
