 Entering Gaussian System, Link 0=g16
 Initial command:
 /ichec/packages/gaussian/16b01/l1.exe "/localscratch/339542/Gau-64360.inp" -scrdir="/localscratch/339542/"
 Entering Link 1 = /ichec/packages/gaussian/16b01/l1.exe PID=     64365.
  
 Copyright (c) 1988-2017, Gaussian, Inc.  All Rights Reserved.
  
 This is part of the Gaussian(R) 16 program.  It is based on
 the Gaussian(R) 09 system (copyright 2009, Gaussian, Inc.),
 the Gaussian(R) 03 system (copyright 2003, Gaussian, Inc.),
 the Gaussian(R) 98 system (copyright 1998, Gaussian, Inc.),
 the Gaussian(R) 94 system (copyright 1995, Gaussian, Inc.),
 the Gaussian 92(TM) system (copyright 1992, Gaussian, Inc.),
 the Gaussian 90(TM) system (copyright 1990, Gaussian, Inc.),
 the Gaussian 88(TM) system (copyright 1988, Gaussian, Inc.),
 the Gaussian 86(TM) system (copyright 1986, Carnegie Mellon
 University), and the Gaussian 82(TM) system (copyright 1983,
 Carnegie Mellon University). Gaussian is a federally registered
 trademark of Gaussian, Inc.
  
 This software contains proprietary and confidential information,
 including trade secrets, belonging to Gaussian, Inc.
  
 This software is provided under written license and may be
 used, copied, transmitted, or stored only in accord with that
 written license.
  
 The following legend is applicable only to US Government
 contracts under FAR:
  
                    RESTRICTED RIGHTS LEGEND
  
 Use, reproduction and disclosure by the US Government is
 subject to restrictions as set forth in subparagraphs (a)
 and (c) of the Commercial Computer Software - Restricted
 Rights clause in FAR 52.227-19.
  
 Gaussian, Inc.
 340 Quinnipiac St., Bldg. 40, Wallingford CT 06492
  
  
 ---------------------------------------------------------------
 Warning -- This program may not be used in any manner that
 competes with the business of Gaussian, Inc. or will provide
 assistance to any competitor of Gaussian, Inc.  The licensee
 of this program is prohibited from giving any competitor of
 Gaussian, Inc. access to this program.  By using this program,
 the user acknowledges that Gaussian, Inc. is engaged in the
 business of creating and licensing software in the field of
 computational chemistry and represents and warrants to the
 licensee that it is not a competitor of Gaussian, Inc. and that
 it will not use this program in any manner prohibited above.
 ---------------------------------------------------------------
  

 Cite this work as:
 Gaussian 16, Revision B.01,
 M. J. Frisch, G. W. Trucks, H. B. Schlegel, G. E. Scuseria, 
 M. A. Robb, J. R. Cheeseman, G. Scalmani, V. Barone, 
 G. A. Petersson, H. Nakatsuji, X. Li, M. Caricato, A. V. Marenich, 
 J. Bloino, B. G. Janesko, R. Gomperts, B. Mennucci, H. P. Hratchian, 
 J. V. Ortiz, A. F. Izmaylov, J. L. Sonnenberg, D. Williams-Young, 
 F. Ding, F. Lipparini, F. Egidi, J. Goings, B. Peng, A. Petrone, 
 T. Henderson, D. Ranasinghe, V. G. Zakrzewski, J. Gao, N. Rega, 
 G. Zheng, W. Liang, M. Hada, M. Ehara, K. Toyota, R. Fukuda, 
 J. Hasegawa, M. Ishida, T. Nakajima, Y. Honda, O. Kitao, H. Nakai, 
 T. Vreven, K. Throssell, J. A. Montgomery, Jr., J. E. Peralta, 
 F. Ogliaro, M. J. Bearpark, J. J. Heyd, E. N. Brothers, K. N. Kudin, 
 V. N. Staroverov, T. A. Keith, R. Kobayashi, J. Normand, 
 K. Raghavachari, A. P. Rendell, J. C. Burant, S. S. Iyengar, 
 J. Tomasi, M. Cossi, J. M. Millam, M. Klene, C. Adamo, R. Cammi, 
 J. W. Ochterski, R. L. Martin, K. Morokuma, O. Farkas, 
 J. B. Foresman, and D. J. Fox, Gaussian, Inc., Wallingford CT, 2016.
 
 ******************************************
 Gaussian 16:  ES64L-G16RevB.01 20-Dec-2017
                31-May-2019 
 ******************************************
 %mem=80GB
 %nproc=40
 Will use up to   40 processors via shared memory.
 -----------------------------------------------
 # opt=maxcyc=500 freq=noraman uB2PLYPD3/cc-pvtz
 -----------------------------------------------
 1/6=500,18=20,19=15,38=1/1,3;
 2/9=110,12=2,17=6,18=5,40=1/2;
 3/5=16,6=1,11=2,25=1,30=1,71=1,74=-60,116=2/1,2,3;
 4//1;
 5/5=2,38=5/2;
 8/6=4,10=1/1;
 9/15=2,16=-3/6;
 10/5=1/2;
 6/7=2,8=2,9=2,10=2/1;
 7/12=2/1,2,3,16;
 1/6=500,18=20,19=15/3(2);
 2/9=110/2;
 99//99;
 2/9=110/2;
 3/5=16,6=1,11=2,25=1,30=1,71=1,74=-60,116=2/1,2,3;
 4/5=5,16=3,69=1/1;
 5/5=2,38=5/2;
 8/6=4,10=1/1;
 9/15=2,16=-3/6;
 10/5=1/2;
 7/12=2/1,2,3,16;
 1/6=500,18=20,19=15/3(-8);
 2/9=110/2;
 6/7=2,8=2,9=2,10=2/1;
 99/9=10/99;
 -------------------
 Title Card Required
 -------------------
 Symbolic Z-matrix:
 Charge =  0 Multiplicity = 2
 C                    -1.70747  -0.26021  -0.29476 
 C                    -0.54081   0.5344    0.30039 
 H                    -2.62306   0.33425  -0.30692 
 H                    -1.90108  -1.1643    0.28797 
 C                     0.71761  -0.28114   0.35972 
 H                    -0.80086   0.8458    1.29049 
 C                     1.84115   0.00852  -0.28664 
 H                     2.6891   -0.63856  -0.20201 
 H                     1.89834   0.88896  -0.892 
 H                     0.70905  -1.16141   0.96797 
 H                    -0.36609   1.40077  -0.30275 
 

 GradGradGradGradGradGradGradGradGradGradGradGradGradGradGradGradGradGrad
 Berny optimization.
 Initialization pass.
                           ----------------------------
                           !    Initial Parameters    !
                           ! (Angstroms and Degrees)  !
 --------------------------                            --------------------------
 ! Name  Definition              Value          Derivative Info.                !
 --------------------------------------------------------------------------------
 ! R1    R(1,2)                  1.5319         estimate D2E/DX2                !
 ! R2    R(1,3)                  1.0917         estimate D2E/DX2                !
 ! R3    R(1,4)                  1.0929         estimate D2E/DX2                !
 ! R4    R(2,5)                  1.5008         estimate D2E/DX2                !
 ! R5    R(2,6)                  1.07           estimate D2E/DX2                !
 ! R6    R(2,11)                 1.07           estimate D2E/DX2                !
 ! R7    R(5,7)                  1.3282         estimate D2E/DX2                !
 ! R8    R(5,10)                 1.07           estimate D2E/DX2                !
 ! R9    R(7,8)                  1.07           estimate D2E/DX2                !
 ! R10   R(7,9)                  1.07           estimate D2E/DX2                !
 ! A1    A(2,1,3)              111.1365         estimate D2E/DX2                !
 ! A2    A(2,1,4)              110.9077         estimate D2E/DX2                !
 ! A3    A(3,1,4)              107.9273         estimate D2E/DX2                !
 ! A4    A(1,2,5)              111.8439         estimate D2E/DX2                !
 ! A5    A(1,2,6)              108.9875         estimate D2E/DX2                !
 ! A6    A(1,2,11)             108.9875         estimate D2E/DX2                !
 ! A7    A(5,2,6)              108.9875         estimate D2E/DX2                !
 ! A8    A(5,2,11)             108.9875         estimate D2E/DX2                !
 ! A9    A(6,2,11)             109.0045         estimate D2E/DX2                !
 ! A10   A(2,5,7)              124.8603         estimate D2E/DX2                !
 ! A11   A(2,5,10)             117.5698         estimate D2E/DX2                !
 ! A12   A(7,5,10)             117.5698         estimate D2E/DX2                !
 ! A13   A(5,7,8)              120.0            estimate D2E/DX2                !
 ! A14   A(5,7,9)              120.0            estimate D2E/DX2                !
 ! A15   A(8,7,9)              120.0            estimate D2E/DX2                !
 ! D1    D(3,1,2,5)            178.4238         estimate D2E/DX2                !
 ! D2    D(3,1,2,6)             57.8512         estimate D2E/DX2                !
 ! D3    D(3,1,2,11)           -61.0036         estimate D2E/DX2                !
 ! D4    D(4,1,2,5)             58.3602         estimate D2E/DX2                !
 ! D5    D(4,1,2,6)            -62.2124         estimate D2E/DX2                !
 ! D6    D(4,1,2,11)           178.9329         estimate D2E/DX2                !
 ! D7    D(1,2,5,7)            117.8348         estimate D2E/DX2                !
 ! D8    D(1,2,5,10)           -62.1652         estimate D2E/DX2                !
 ! D9    D(6,2,5,7)           -121.5926         estimate D2E/DX2                !
 ! D10   D(6,2,5,10)            58.4074         estimate D2E/DX2                !
 ! D11   D(11,2,5,7)            -2.7378         estimate D2E/DX2                !
 ! D12   D(11,2,5,10)          177.2622         estimate D2E/DX2                !
 ! D13   D(2,5,7,8)           -178.9165         estimate D2E/DX2                !
 ! D14   D(2,5,7,9)              1.0835         estimate D2E/DX2                !
 ! D15   D(10,5,7,8)             1.0835         estimate D2E/DX2                !
 ! D16   D(10,5,7,9)          -178.9165         estimate D2E/DX2                !
 --------------------------------------------------------------------------------
 Trust Radius=3.00D-01 FncErr=1.00D-07 GrdErr=1.00D-07 EigMax=2.50D+02 EigMin=1.00D-04
 Number of steps in this run=    100 maximum allowed number of steps=    100.
 GradGradGradGradGradGradGradGradGradGradGradGradGradGradGradGradGradGrad

                          Input orientation:                          
 ---------------------------------------------------------------------
 Center     Atomic      Atomic             Coordinates (Angstroms)
 Number     Number       Type             X           Y           Z
 ---------------------------------------------------------------------
      1          6           0       -1.707467   -0.260212   -0.294762
      2          6           0       -0.540811    0.534404    0.300391
      3          1           0       -2.623057    0.334247   -0.306921
      4          1           0       -1.901079   -1.164298    0.287970
      5          6           0        0.717611   -0.281143    0.359723
      6          1           0       -0.800864    0.845800    1.290495
      7          6           0        1.841149    0.008521   -0.286643
      8          1           0        2.689102   -0.638560   -0.202014
      9          1           0        1.898341    0.888961   -0.891997
     10          1           0        0.709053   -1.161407    0.967969
     11          1           0       -0.366085    1.400770   -0.302751
 ---------------------------------------------------------------------
                    Distance matrix (angstroms):
                    1          2          3          4          5
     1  C    0.000000
     2  C    1.531897   0.000000
     3  H    1.091712   2.178219   0.000000
     4  H    1.092901   2.176252   1.766574   0.000000
     5  C    2.511930   1.500754   3.461673   2.764534   0.000000
     6  H    2.135001   1.070000   2.476653   2.501204   2.107629
     7  C    3.558786   2.508963   4.476119   3.963579   1.328169
     8  H    4.413793   3.472836   5.401517   4.646100   2.080883
     9  H    3.831337   2.738059   4.592719   4.477029   2.080883
    10  H    2.871621   2.209885   3.868498   2.697257   1.070000
    11  H    2.135001   1.070000   2.496279   3.047086   2.107629
                    6          7          8          9         10
     6  H    0.000000
     7  C    3.188829   0.000000
     8  H    4.075631   1.070000   0.000000
     9  H    3.471432   1.070000   1.853294   0.000000
    10  H    2.532340   2.055340   2.358564   3.012954   0.000000
    11  H    1.742256   2.609694   3.674668   2.395159   3.055389
                   11
    11  H    0.000000
 Stoichiometry    C4H7(2)
 Framework group  C1[X(C4H7)]
 Deg. of freedom    27
 Full point group                 C1      NOp   1
 Largest Abelian subgroup         C1      NOp   1
 Largest concise Abelian subgroup C1      NOp   1
                         Standard orientation:                         
 ---------------------------------------------------------------------
 Center     Atomic      Atomic             Coordinates (Angstroms)
 Number     Number       Type             X           Y           Z
 ---------------------------------------------------------------------
      1          6           0       -1.738921   -0.209466   -0.449481
      2          6           0       -0.604045    0.441927    0.347044
      3          1           0       -2.663036    0.364777   -0.359529
      4          1           0       -1.936082   -1.222594   -0.090130
      5          6           0        0.664749   -0.355404    0.265266
      6          1           0       -0.899559    0.521791    1.372321
      7          6           0        1.803017    0.081096   -0.261846
      8          1           0        2.658128   -0.561221   -0.295227
      9          1           0        1.864918    1.075065   -0.653117
     10          1           0        0.651361   -1.349430    0.661034
     11          1           0       -0.424527    1.422693   -0.041248
 ---------------------------------------------------------------------
 Rotational constants (GHZ):          24.9751893           4.3458049           4.2154933
 Standard basis: CC-pVTZ (5D, 7F)
 There are   245 symmetry adapted cartesian basis functions of A   symmetry.
 There are   218 symmetry adapted basis functions of A   symmetry.
   218 basis functions,   327 primitive gaussians,   245 cartesian basis functions
    16 alpha electrons       15 beta electrons
       nuclear repulsion energy       110.0135954134 Hartrees.
 NAtoms=   11 NActive=   11 NUniq=   11 SFac= 1.00D+00 NAtFMM=   60 NAOKFM=F Big=F
 Integral buffers will be    131072 words long.
 Raffenetti 2 integral format.
 Two-electron integral symmetry is turned on.
 Nuclear repulsion after empirical dispersion term =      110.0083165020 Hartrees.
 One-electron integrals computed using PRISM.
 NBasis=   218 RedAO= T EigKep=  4.57D-04  NBF=   218
 NBsUse=   218 1.00D-06 EigRej= -1.00D+00 NBFU=   218
 ExpMin= 1.03D-01 ExpMax= 8.24D+03 ExpMxC= 2.81D+02 IAcc=3 IRadAn=         5 AccDes= 0.00D+00
 Harris functional with IExCor=  419 and IRadAn=       5 diagonalized for initial guess.
 HarFok:  IExCor=  419 AccDes= 0.00D+00 IRadAn=         5 IDoV= 1 UseB2=F ITyADJ=14
 ICtDFT=  3500011 ScaDFX=  1.000000  1.000000  1.000000  1.000000
 FoFCou: FMM=F IPFlag=           0 FMFlag=      100000 FMFlg1=           0
         NFxFlg=           0 DoJE=T BraDBF=F KetDBF=T FulRan=T
         wScrn=  0.000000 ICntrl=       500 IOpCl=  0 I1Cent=   200000004 NGrid=           0
         NMat0=    1 NMatS0=      1 NMatT0=    0 NMatD0=    1 NMtDS0=    0 NMtDT0=    0
 Petite list used in FoFCou.
 Initial guess <Sx>= 0.0000 <Sy>= 0.0000 <Sz>= 0.5000 <S**2>= 0.7500 S= 0.5000
 Keep R1 and R2 ints in memory in canonical form, NReq=612885869.
 Requested convergence on RMS density matrix=1.00D-08 within 128 cycles.
 Requested convergence on MAX density matrix=1.00D-06.
 Requested convergence on             energy=1.00D-06.
 No special actions if energy rises.
 Integral accuracy reduced to 1.0D-05 until final iterations.
 Initial convergence to 1.0D-05 achieved.  Increase integral accuracy.
 SCF Done:  E(UB2PLYPD3) =  -156.231112471     A.U. after   16 cycles
            NFock= 16  Conv=0.67D-08     -V/T= 2.0041
 <Sx>= 0.0000 <Sy>= 0.0000 <Sz>= 0.5000 <S**2>= 0.7547 S= 0.5023
 <L.S>=  0.00000000000    
 Annihilation of the first spin contaminant:
 S**2 before annihilation     0.7547,   after     0.7500
 DoSCS=T DFT=T ScalE2(SS,OS)=  0.270000  0.270000
 ExpMin= 1.03D-01 ExpMax= 8.24D+03 ExpMxC= 2.81D+02 IAcc=3 IRadAn=         5 AccDes= 0.00D+00
 HarFok:  IExCor=  205 AccDes= 0.00D+00 IRadAn=         5 IDoV=-2 UseB2=F ITyADJ=14
 ICtDFT= 12500011 ScaDFX=  1.000000  1.000000  1.000000  1.000000
 Range of M.O.s used for correlation:     5   218
 NBasis=   218 NAE=    16 NBE=    15 NFC=     4 NFV=     0
 NROrb=    214 NOA=    12 NOB=    11 NVA=   202 NVB=   203

 **** Warning!!: The largest alpha MO coefficient is  0.12493550D+02


 **** Warning!!: The largest beta MO coefficient is  0.12636798D+02

 DoSCS=T DFT=T ScalE2(SS,OS)=  0.270000  0.270000
 Fully direct method using O(ONN) memory.
 JobTyp=2 Pass  1:  I=   5 to  16 NPSUse= 40 ParTrn=T ParDer=T DoDerP=T.
 JobTyp=3 Pass  1:  I=   5 to  15 NPSUse= 40 ParTrn=T ParDer=T DoDerP=T.
 Spin components of T(2) and E(2):
     alpha-alpha T2 =       0.4122354122D-01 E2=     -0.2592199368D-01
     alpha-beta  T2 =       0.2432651293D+00 E2=     -0.1629218211D+00
     beta-beta   T2 =       0.3515045289D-01 E2=     -0.2181981685D-01
 (S**2,0)=  0.75467D+00           (S**2,1)=  0.74826D+00
 Scaling Projection term by:   0.270000
 E(PUHF)=      -0.15623286997D+03        E(PMP2)=      -0.15644192566D+03
 E2(B2PLYPD3) =    -0.2106636317D+00 E(B2PLYPD3) =    -0.15644177610240D+03
          IDoAtm=11111111111
          Differentiating once with respect to electric field.
                with respect to dipole field.
          Differentiating once with respect to nuclear coordinates.
 Keep R1 and R2 ints in memory in canonical form, NReq=612894013.
          There are     1 degrees of freedom in the 1st order CPHF.  IDoFFX=0 NUNeed=     1.
 LinEq1:  Iter=  0 NonCon=     1 RMS=6.30D-04 Max=1.44D-02 NDo=     1
 AX will form     1 AO Fock derivatives at one time.
 LinEq1:  Iter=  1 NonCon=     1 RMS=2.21D-04 Max=2.95D-03 NDo=     1
 LinEq1:  Iter=  2 NonCon=     1 RMS=7.96D-05 Max=2.55D-03 NDo=     1
 LinEq1:  Iter=  3 NonCon=     1 RMS=4.77D-05 Max=1.64D-03 NDo=     1
 LinEq1:  Iter=  4 NonCon=     1 RMS=2.76D-05 Max=1.26D-03 NDo=     1
 LinEq1:  Iter=  5 NonCon=     1 RMS=1.14D-05 Max=2.69D-04 NDo=     1
 LinEq1:  Iter=  6 NonCon=     1 RMS=4.46D-06 Max=7.25D-05 NDo=     1
 LinEq1:  Iter=  7 NonCon=     1 RMS=1.74D-06 Max=2.05D-05 NDo=     1
 LinEq1:  Iter=  8 NonCon=     1 RMS=7.29D-07 Max=1.21D-05 NDo=     1
 LinEq1:  Iter=  9 NonCon=     1 RMS=2.46D-07 Max=2.76D-06 NDo=     1
 LinEq1:  Iter= 10 NonCon=     1 RMS=5.42D-08 Max=8.48D-07 NDo=     1
 LinEq1:  Iter= 11 NonCon=     1 RMS=1.11D-08 Max=1.41D-07 NDo=     1
 LinEq1:  Iter= 12 NonCon=     1 RMS=5.48D-09 Max=7.33D-08 NDo=     1
 LinEq1:  Iter= 13 NonCon=     1 RMS=1.78D-09 Max=2.86D-08 NDo=     1
 LinEq1:  Iter= 14 NonCon=     1 RMS=4.23D-10 Max=4.05D-09 NDo=     1
 LinEq1:  Iter= 15 NonCon=     1 RMS=1.02D-10 Max=1.36D-09 NDo=     1
 LinEq1:  Iter= 16 NonCon=     0 RMS=3.24D-11 Max=3.14D-10 NDo=     1
 Linear equations converged to 1.000D-10 1.000D-09 after    16 iterations.
 End of Minotr F.D. properties file   721 does not exist.
 End of Minotr F.D. properties file   722 does not exist.
 End of Minotr F.D. properties file   788 does not exist.

 **********************************************************************

            Population analysis using the SCF Density.

 **********************************************************************

 Orbital symmetries:
 Alpha Orbitals:
       Occupied  (A) (A) (A) (A) (A) (A) (A) (A) (A) (A) (A) (A)
                 (A) (A) (A) (A)
       Virtual   (A) (A) (A) (A) (A) (A) (A) (A) (A) (A) (A) (A)
                 (A) (A) (A) (A) (A) (A) (A) (A) (A) (A) (A) (A)
                 (A) (A) (A) (A) (A) (A) (A) (A) (A) (A) (A) (A)
                 (A) (A) (A) (A) (A) (A) (A) (A) (A) (A) (A) (A)
                 (A) (A) (A) (A) (A) (A) (A) (A) (A) (A) (A) (A)
                 (A) (A) (A) (A) (A) (A) (A) (A) (A) (A) (A) (A)
                 (A) (A) (A) (A) (A) (A) (A) (A) (A) (A) (A) (A)
                 (A) (A) (A) (A) (A) (A) (A) (A) (A) (A) (A) (A)
                 (A) (A) (A) (A) (A) (A) (A) (A) (A) (A) (A) (A)
                 (A) (A) (A) (A) (A) (A) (A) (A) (A) (A) (A) (A)
                 (A) (A) (A) (A) (A) (A) (A) (A) (A) (A) (A) (A)
                 (A) (A) (A) (A) (A) (A) (A) (A) (A) (A) (A) (A)
                 (A) (A) (A) (A) (A) (A) (A) (A) (A) (A) (A) (A)
                 (A) (A) (A) (A) (A) (A) (A) (A) (A) (A) (A) (A)
                 (A) (A) (A) (A) (A) (A) (A) (A) (A) (A) (A) (A)
                 (A) (A) (A) (A) (A) (A) (A) (A) (A) (A) (A) (A)
                 (A) (A) (A) (A) (A) (A) (A) (A) (A) (A)
 Beta  Orbitals:
       Occupied  (A) (A) (A) (A) (A) (A) (A) (A) (A) (A) (A) (A)
                 (A) (A) (A)
       Virtual   (A) (A) (A) (A) (A) (A) (A) (A) (A) (A) (A) (A)
                 (A) (A) (A) (A) (A) (A) (A) (A) (A) (A) (A) (A)
                 (A) (A) (A) (A) (A) (A) (A) (A) (A) (A) (A) (A)
                 (A) (A) (A) (A) (A) (A) (A) (A) (A) (A) (A) (A)
                 (A) (A) (A) (A) (A) (A) (A) (A) (A) (A) (A) (A)
                 (A) (A) (A) (A) (A) (A) (A) (A) (A) (A) (A) (A)
                 (A) (A) (A) (A) (A) (A) (A) (A) (A) (A) (A) (A)
                 (A) (A) (A) (A) (A) (A) (A) (A) (A) (A) (A) (A)
                 (A) (A) (A) (A) (A) (A) (A) (A) (A) (A) (A) (A)
                 (A) (A) (A) (A) (A) (A) (A) (A) (A) (A) (A) (A)
                 (A) (A) (A) (A) (A) (A) (A) (A) (A) (A) (A) (A)
                 (A) (A) (A) (A) (A) (A) (A) (A) (A) (A) (A) (A)
                 (A) (A) (A) (A) (A) (A) (A) (A) (A) (A) (A) (A)
                 (A) (A) (A) (A) (A) (A) (A) (A) (A) (A) (A) (A)
                 (A) (A) (A) (A) (A) (A) (A) (A) (A) (A) (A) (A)
                 (A) (A) (A) (A) (A) (A) (A) (A) (A) (A) (A) (A)
                 (A) (A) (A) (A) (A) (A) (A) (A) (A) (A) (A)
 The electronic state is 2-A.
 Alpha  occ. eigenvalues --  -10.63292 -10.61668 -10.61493 -10.60018  -0.92396
 Alpha  occ. eigenvalues --   -0.84121  -0.72109  -0.64350  -0.54639  -0.51918
 Alpha  occ. eigenvalues --   -0.49279  -0.45287  -0.42864  -0.40151  -0.31148
 Alpha  occ. eigenvalues --   -0.29997
 Alpha virt. eigenvalues --    0.06831   0.09008   0.11107   0.11566   0.13974
 Alpha virt. eigenvalues --    0.15563   0.16946   0.18577   0.22676   0.26011
 Alpha virt. eigenvalues --    0.30676   0.32243   0.33905   0.34206   0.36691
 Alpha virt. eigenvalues --    0.37827   0.40149   0.42444   0.44543   0.48223
 Alpha virt. eigenvalues --    0.49221   0.51305   0.51876   0.52221   0.53580
 Alpha virt. eigenvalues --    0.53851   0.56558   0.57201   0.57902   0.60289
 Alpha virt. eigenvalues --    0.63229   0.66976   0.70875   0.71642   0.73633
 Alpha virt. eigenvalues --    0.79536   0.80071   0.83766   0.89110   0.90904
 Alpha virt. eigenvalues --    0.96026   0.96907   0.98737   1.00761   1.04254
 Alpha virt. eigenvalues --    1.07748   1.09583   1.13561   1.14941   1.15798
 Alpha virt. eigenvalues --    1.16400   1.18875   1.20432   1.21708   1.25051
 Alpha virt. eigenvalues --    1.26064   1.29744   1.31031   1.33460   1.37323
 Alpha virt. eigenvalues --    1.39382   1.39745   1.44115   1.46290   1.49068
 Alpha virt. eigenvalues --    1.51008   1.52221   1.55830   1.59388   1.60682
 Alpha virt. eigenvalues --    1.61389   1.64384   1.71222   1.79730   1.98206
 Alpha virt. eigenvalues --    2.18491   2.20375   2.28021   2.32665   2.36552
 Alpha virt. eigenvalues --    2.39202   2.42161   2.44497   2.46289   2.48851
 Alpha virt. eigenvalues --    2.55897   2.58413   2.62854   2.64789   2.66856
 Alpha virt. eigenvalues --    2.68570   2.74746   2.77079   2.82114   2.82438
 Alpha virt. eigenvalues --    2.85873   2.87662   2.90513   2.92892   2.94192
 Alpha virt. eigenvalues --    2.97891   2.99726   3.00618   3.01370   3.03185
 Alpha virt. eigenvalues --    3.06203   3.09498   3.10077   3.12112   3.13809
 Alpha virt. eigenvalues --    3.16719   3.19456   3.20163   3.22459   3.25310
 Alpha virt. eigenvalues --    3.26755   3.28945   3.30291   3.32418   3.37954
 Alpha virt. eigenvalues --    3.39427   3.39646   3.43224   3.44642   3.46550
 Alpha virt. eigenvalues --    3.50974   3.51563   3.54795   3.56879   3.60982
 Alpha virt. eigenvalues --    3.66837   3.70208   3.71844   3.74530   3.77052
 Alpha virt. eigenvalues --    3.83123   3.84514   3.85703   3.87628   3.88255
 Alpha virt. eigenvalues --    3.90705   3.94294   3.95942   3.98029   4.01190
 Alpha virt. eigenvalues --    4.03150   4.06190   4.07113   4.11222   4.13611
 Alpha virt. eigenvalues --    4.17000   4.17688   4.18995   4.22435   4.23323
 Alpha virt. eigenvalues --    4.26036   4.28259   4.33439   4.36136   4.41861
 Alpha virt. eigenvalues --    4.43306   4.44713   4.49426   4.53996   4.57522
 Alpha virt. eigenvalues --    4.64005   4.66776   4.69141   4.71001   4.83668
 Alpha virt. eigenvalues --    4.85868   4.89716   4.95779   4.99532   5.01911
 Alpha virt. eigenvalues --    5.04880   5.09486   5.11965   5.16445   5.17144
 Alpha virt. eigenvalues --    5.20276   5.21691   5.28170   5.32737   5.36722
 Alpha virt. eigenvalues --    5.40228   5.48374   5.56891   5.58514   5.59155
 Alpha virt. eigenvalues --    5.65164   5.67486   5.83252   5.99767   6.03270
 Alpha virt. eigenvalues --    6.09472   6.20570   6.47668  11.42669  11.77526
 Alpha virt. eigenvalues --   13.31188  14.47466
  Beta  occ. eigenvalues --  -10.61722 -10.61453 -10.61429 -10.60042  -0.91722
  Beta  occ. eigenvalues --   -0.82575  -0.69318  -0.64043  -0.53936  -0.51430
  Beta  occ. eigenvalues --   -0.47841  -0.44677  -0.42056  -0.39856  -0.30351
  Beta virt. eigenvalues --    0.00044   0.06992   0.09208   0.11179   0.11683
  Beta virt. eigenvalues --    0.14229   0.15895   0.17079   0.18772   0.23046
  Beta virt. eigenvalues --    0.26437   0.31257   0.32325   0.34474   0.35824
  Beta virt. eigenvalues --    0.38068   0.38581   0.41966   0.44046   0.46082
  Beta virt. eigenvalues --    0.48376   0.49665   0.51714   0.52179   0.52849
  Beta virt. eigenvalues --    0.54031   0.54815   0.57370   0.57609   0.58258
  Beta virt. eigenvalues --    0.61176   0.63855   0.67664   0.70998   0.72375
  Beta virt. eigenvalues --    0.74069   0.79741   0.80346   0.83974   0.90578
  Beta virt. eigenvalues --    0.91523   0.96192   0.97043   0.99719   1.01414
  Beta virt. eigenvalues --    1.04566   1.08407   1.09785   1.13932   1.15821
  Beta virt. eigenvalues --    1.16317   1.17517   1.19217   1.21342   1.22133
  Beta virt. eigenvalues --    1.25260   1.26437   1.30542   1.31538   1.34430
  Beta virt. eigenvalues --    1.37835   1.39614   1.40225   1.44791   1.46743
  Beta virt. eigenvalues --    1.49804   1.51504   1.52564   1.56141   1.59815
  Beta virt. eigenvalues --    1.60863   1.62334   1.65265   1.71689   1.79952
  Beta virt. eigenvalues --    1.98604   2.18580   2.20988   2.30989   2.33821
  Beta virt. eigenvalues --    2.37913   2.39444   2.42529   2.45135   2.47228
  Beta virt. eigenvalues --    2.49307   2.56407   2.59337   2.63352   2.65418
  Beta virt. eigenvalues --    2.67078   2.69892   2.76132   2.77810   2.82772
  Beta virt. eigenvalues --    2.83142   2.86235   2.88525   2.91099   2.93467
  Beta virt. eigenvalues --    2.95359   2.98112   3.00055   3.01530   3.01884
  Beta virt. eigenvalues --    3.04231   3.07309   3.10079   3.11274   3.12718
  Beta virt. eigenvalues --    3.14548   3.17560   3.21068   3.21734   3.22963
  Beta virt. eigenvalues --    3.25908   3.28389   3.29544   3.31027   3.33679
  Beta virt. eigenvalues --    3.38453   3.40148   3.40492   3.44099   3.45224
  Beta virt. eigenvalues --    3.47034   3.51307   3.52206   3.55460   3.57215
  Beta virt. eigenvalues --    3.61289   3.67106   3.70770   3.72176   3.74650
  Beta virt. eigenvalues --    3.77188   3.83567   3.84856   3.85990   3.87900
  Beta virt. eigenvalues --    3.88826   3.90971   3.94638   3.96435   3.98233
  Beta virt. eigenvalues --    4.01384   4.03325   4.06381   4.07481   4.11626
  Beta virt. eigenvalues --    4.13931   4.17575   4.18172   4.19230   4.22965
  Beta virt. eigenvalues --    4.23627   4.26356   4.28626   4.33619   4.36464
  Beta virt. eigenvalues --    4.42079   4.43643   4.45077   4.49765   4.54281
  Beta virt. eigenvalues --    4.57693   4.64644   4.67021   4.69272   4.71477
  Beta virt. eigenvalues --    4.83908   4.86152   4.90182   4.96272   5.00537
  Beta virt. eigenvalues --    5.02501   5.05259   5.09961   5.12364   5.16620
  Beta virt. eigenvalues --    5.17685   5.20618   5.22108   5.28504   5.32989
  Beta virt. eigenvalues --    5.37092   5.40491   5.48933   5.57292   5.58906
  Beta virt. eigenvalues --    5.59548   5.65351   5.67668   5.83426   6.00432
  Beta virt. eigenvalues --    6.03608   6.09600   6.20602   6.47691  11.42702
  Beta virt. eigenvalues --   11.79034  13.31314  14.47461
          Condensed to atoms (all electrons):
               1          2          3          4          5          6
     1  C    5.235514   0.331051   0.401883   0.402318  -0.054676  -0.046256
     2  C    0.331051   4.813714  -0.041970  -0.043811   0.348682   0.428358
     3  H    0.401883  -0.041970   0.579396  -0.046281   0.008439  -0.000666
     4  H    0.402318  -0.043811  -0.046281   0.585705  -0.004879  -0.001354
     5  C   -0.054676   0.348682   0.008439  -0.004879   4.938862  -0.043976
     6  H   -0.046256   0.428358  -0.000666  -0.001354  -0.043976   0.579489
     7  C    0.001614  -0.057646  -0.000196   0.000662   0.631190   0.000967
     8  H   -0.000371   0.006611   0.000027  -0.000031  -0.049135  -0.000335
     9  H    0.000056  -0.006286  -0.000041   0.000039  -0.052632   0.000073
    10  H   -0.002134  -0.037928  -0.000235   0.003021   0.410994  -0.002802
    11  H   -0.033970   0.415677  -0.006796   0.006942  -0.040875  -0.029748
               7          8          9         10         11
     1  C    0.001614  -0.000371   0.000056  -0.002134  -0.033970
     2  C   -0.057646   0.006611  -0.006286  -0.037928   0.415677
     3  H   -0.000196   0.000027  -0.000041  -0.000235  -0.006796
     4  H    0.000662  -0.000031   0.000039   0.003021   0.006942
     5  C    0.631190  -0.049135  -0.052632   0.410994  -0.040875
     6  H    0.000967  -0.000335   0.000073  -0.002802  -0.029748
     7  C    4.956417   0.423823   0.411616  -0.044841  -0.002690
     8  H    0.423823   0.534421  -0.033559  -0.008411  -0.000060
     9  H    0.411616  -0.033559   0.546659   0.007033   0.004666
    10  H   -0.044841  -0.008411   0.007033   0.536356   0.005929
    11  H   -0.002690  -0.000060   0.004666   0.005929   0.579308
          Atomic-Atomic Spin Densities.
               1          2          3          4          5          6
     1  C    1.096084  -0.040271   0.003466   0.003010  -0.006810  -0.021795
     2  C   -0.040271  -0.032035   0.002630   0.003398   0.003746   0.016207
     3  H    0.003466   0.002630  -0.031410   0.007162   0.000338  -0.002580
     4  H    0.003010   0.003398   0.007162  -0.032551   0.001146  -0.002423
     5  C   -0.006810   0.003746   0.000338   0.001146   0.020257  -0.005802
     6  H   -0.021795   0.016207  -0.002580  -0.002423  -0.005802   0.063248
     7  C    0.000902   0.000944  -0.000000  -0.000151   0.000370   0.000538
     8  H   -0.000078  -0.000004  -0.000000   0.000006  -0.000457  -0.000051
     9  H    0.000050   0.000089   0.000001  -0.000002   0.000040   0.000020
    10  H    0.000263   0.000209   0.000014   0.000068   0.000355  -0.000506
    11  H   -0.004371   0.001882   0.001100   0.000079   0.002674  -0.004614
               7          8          9         10         11
     1  C    0.000902  -0.000078   0.000050   0.000263  -0.004371
     2  C    0.000944  -0.000004   0.000089   0.000209   0.001882
     3  H   -0.000000  -0.000000   0.000001   0.000014   0.001100
     4  H   -0.000151   0.000006  -0.000002   0.000068   0.000079
     5  C    0.000370  -0.000457   0.000040   0.000355   0.002674
     6  H    0.000538  -0.000051   0.000020  -0.000506  -0.004614
     7  C   -0.015761   0.000294  -0.000353  -0.000100  -0.000349
     8  H    0.000294   0.001268  -0.000071   0.000001   0.000012
     9  H   -0.000353  -0.000071   0.000768  -0.000000   0.000038
    10  H   -0.000100   0.000001  -0.000000  -0.000548   0.000058
    11  H   -0.000349   0.000012   0.000038   0.000058   0.010035
 Mulliken charges and spin densities:
               1          2
     1  C   -0.235028   1.030450
     2  C   -0.156451  -0.043204
     3  H    0.106439  -0.019280
     4  H    0.097669  -0.020258
     5  C   -0.091994   0.015858
     6  H    0.116251   0.042243
     7  C   -0.320915  -0.013667
     8  H    0.127020   0.000919
     9  H    0.122376   0.000580
    10  H    0.133019  -0.000186
    11  H    0.101616   0.006545
 Sum of Mulliken charges =  -0.00000   1.00000
 Mulliken charges and spin densities with hydrogens summed into heavy atoms:
               1          2
     1  C   -0.030921   0.990912
     2  C    0.061415   0.005585
     5  C    0.041024   0.015672
     7  C   -0.071519  -0.012168
 Electronic spatial extent (au):  <R**2>=            346.1956
 Charge=             -0.0000 electrons
 Dipole moment (field-independent basis, Debye):
    X=             -0.3391    Y=              0.1228    Z=              0.7487  Tot=              0.8310
 Quadrupole moment (field-independent basis, Debye-Ang):
   XX=            -25.7194   YY=            -25.1764   ZZ=            -28.2067
   XY=             -0.5083   XZ=             -1.7972   YZ=             -1.2382
 Traceless Quadrupole moment (field-independent basis, Debye-Ang):
   XX=              0.6481   YY=              1.1911   ZZ=             -1.8392
   XY=             -0.5083   XZ=             -1.7972   YZ=             -1.2382
 Octapole moment (field-independent basis, Debye-Ang**2):
  XXX=              1.1326  YYY=              0.1479  ZZZ=              3.6253  XYY=              0.7623
  XXY=             -0.4980  XXZ=              0.1759  XZZ=             -0.3767  YZZ=              0.8201
  YYZ=              0.6022  XYZ=             -0.6487
 Hexadecapole moment (field-independent basis, Debye-Ang**3):
 XXXX=           -348.0334 YYYY=            -69.6994 ZZZZ=            -61.3429 XXXY=             -8.4388
 XXXZ=             -9.0711 YYYX=              0.3682 YYYZ=             -3.7430 ZZZX=             -4.9692
 ZZZY=             -1.1227 XXYY=            -69.1118 XXZZ=            -76.3827 YYZZ=            -22.4481
 XXYZ=             -2.3284 YYXZ=             -1.4820 ZZXY=             -0.4322
 N-N= 1.100083165020D+02 E-N=-5.820326714061D+02  KE= 1.555983418628D+02
                          Isotropic Fermi Contact Couplings
        Atom                 a.u.       MegaHertz       Gauss      10(-4) cm-1
     1  C(13)              0.27145     305.15799     108.88796     101.78975
     2  C(13)             -0.01238     -13.92199      -4.96771      -4.64388
     3  H(1)              -0.00284     -12.68760      -4.52725      -4.23213
     4  H(1)              -0.00293     -13.11387      -4.67936      -4.37432
     5  C(13)              0.00652       7.33124       2.61597       2.44544
     6  H(1)               0.02470     110.40301      39.39454      36.82648
     7  C(13)             -0.00055      -0.61892      -0.22085      -0.20645
     8  H(1)               0.00024       1.06808       0.38112       0.35627
     9  H(1)               0.00009       0.40607       0.14490       0.13545
    10  H(1)              -0.00019      -0.87061      -0.31066      -0.29041
    11  H(1)               0.00505      22.57859       8.05660       7.53141
 --------------------------------------------------------
       Center         ----  Spin Dipole Couplings  ----
                      3XX-RR        3YY-RR        3ZZ-RR
 --------------------------------------------------------
     1   Atom       -0.401392     -0.512103      0.913495
     2   Atom       -0.013880     -0.021325      0.035205
     3   Atom        0.031024     -0.024544     -0.006480
     4   Atom       -0.056556      0.058459     -0.001903
     5   Atom        0.017158     -0.010289     -0.006869
     6   Atom       -0.001645     -0.008827      0.010472
     7   Atom        0.007693     -0.002047     -0.005647
     8   Atom        0.003258     -0.001647     -0.001611
     9   Atom        0.004481     -0.001979     -0.002502
    10   Atom        0.004136     -0.002235     -0.001901
    11   Atom       -0.001374      0.009406     -0.008032
 --------------------------------------------------------
                        XY            XZ            YZ
 --------------------------------------------------------
     1   Atom       -0.017612     -0.404925      0.058580
     2   Atom        0.008027      0.019532      0.016346
     3   Atom       -0.060218     -0.010444     -0.002788
     4   Atom        0.016375     -0.020736     -0.022940
     5   Atom       -0.005954      0.011615     -0.001599
     6   Atom        0.004522      0.003185      0.006268
     7   Atom        0.000341      0.000059     -0.001463
     8   Atom       -0.000299      0.000377     -0.000056
     9   Atom        0.002532     -0.000056      0.000206
    10   Atom       -0.005292      0.005295     -0.002673
    11   Atom        0.013674      0.004222      0.006903
 --------------------------------------------------------


 ---------------------------------------------------------------------------------
              Anisotropic Spin Dipole Couplings in Principal Axis System
 ---------------------------------------------------------------------------------

       Atom             a.u.   MegaHertz   Gauss  10(-4) cm-1        Axes

              Baa    -0.5166   -69.317   -24.734   -23.122  0.8712  0.4344  0.2289
     1 C(13)  Bbb    -0.5141   -68.981   -24.614   -23.010 -0.4085  0.8999 -0.1528
              Bcc     1.0306   138.299    49.348    46.131 -0.2723  0.0396  0.9614
 
              Baa    -0.0268    -3.603    -1.286    -1.202 -0.3864  0.9146 -0.1193
     2 C(13)  Bbb    -0.0200    -2.681    -0.957    -0.894  0.8626  0.3126 -0.3979
              Bcc     0.0468     6.284     2.242     2.096  0.3266  0.2566  0.9097
 
              Baa    -0.0642   -34.248   -12.221   -11.424  0.5402  0.8302  0.1379
     3 H(1)   Bbb    -0.0061    -3.237    -1.155    -1.080  0.0057 -0.1675  0.9859
              Bcc     0.0703    37.486    13.376    12.504  0.8415 -0.5317 -0.0952
 
              Baa    -0.0641   -34.219   -12.210   -11.414  0.9539 -0.0730  0.2910
     4 H(1)   Bbb    -0.0060    -3.203    -1.143    -1.068 -0.2432  0.3795  0.8927
              Bcc     0.0701    37.422    13.353    12.483  0.1756  0.9223 -0.3442
 
              Baa    -0.0122    -1.641    -0.586    -0.547  0.3881  0.6594 -0.6439
     5 C(13)  Bbb    -0.0107    -1.443    -0.515    -0.481 -0.1242  0.7297  0.6724
              Bcc     0.0230     3.084     1.100     1.029  0.9132 -0.1810  0.3650
 
              Baa    -0.0119    -6.361    -2.270    -2.122 -0.3390  0.9174 -0.2085
     6 H(1)   Bbb    -0.0017    -0.897    -0.320    -0.299  0.8976  0.2490 -0.3637
              Bcc     0.0136     7.258     2.590     2.421  0.2817  0.3105  0.9079
 
              Baa    -0.0062    -0.828    -0.295    -0.276 -0.0122  0.3354  0.9420
     7 C(13)  Bbb    -0.0015    -0.206    -0.074    -0.069 -0.0326  0.9414 -0.3356
              Bcc     0.0077     1.034     0.369     0.345  0.9994  0.0348  0.0006
 
              Baa    -0.0017    -0.901    -0.321    -0.300  0.0070  0.8260  0.5636
     8 H(1)   Bbb    -0.0016    -0.863    -0.308    -0.288 -0.0980 -0.5603  0.8225
              Bcc     0.0033     1.764     0.629     0.588  0.9952 -0.0610  0.0770
 
              Baa    -0.0030    -1.576    -0.562    -0.526 -0.2945  0.8553 -0.4263
     9 H(1)   Bbb    -0.0024    -1.281    -0.457    -0.427 -0.1407  0.4024  0.9046
              Bcc     0.0054     2.857     1.020     0.953  0.9452  0.3264  0.0018
 
              Baa    -0.0053    -2.854    -1.018    -0.952  0.6059  0.6903 -0.3954
    10 H(1)   Bbb    -0.0047    -2.515    -0.897    -0.839 -0.1349  0.5790  0.8041
              Bcc     0.0101     5.369     1.916     1.791  0.7840 -0.4339  0.4439
 
              Baa    -0.0109    -5.822    -2.078    -1.942  0.6303 -0.5940  0.4998
    11 H(1)   Bbb    -0.0101    -5.365    -1.914    -1.789 -0.5585  0.1003  0.8234
              Bcc     0.0210    11.187     3.992     3.732  0.5393  0.7982  0.2685
 

 ---------------------------------------------------------------------------------

 Calling FoFJK, ICntrl=  10002127 FMM=F ISym2X=0 I1Cent= 0 IOpClX= 1 NMat=1 NMatS=1 NMatT=0.
 ***** Axes restored to original set *****
 -------------------------------------------------------------------
 Center     Atomic                   Forces (Hartrees/Bohr)
 Number     Number              X              Y              Z
 -------------------------------------------------------------------
      1        6          -0.004757838    0.015107910    0.046221732
      2        6           0.003298312   -0.027426928   -0.028046332
      3        1           0.001539009   -0.001745444   -0.015063502
      4        1           0.003792712   -0.006646684   -0.013716624
      5        6           0.002572542    0.007581587   -0.003294868
      6        1          -0.007560203    0.005966960    0.014829047
      7        6          -0.009116753   -0.001916623    0.005057937
      8        1           0.007463973   -0.001489719   -0.001528448
      9        1           0.004056153    0.005498384   -0.006045084
     10        1          -0.003762400   -0.008726920    0.006080313
     11        1           0.002474493    0.013797476   -0.004494172
 -------------------------------------------------------------------
 Cartesian Forces:  Max     0.046221732 RMS     0.012796232

 GradGradGradGradGradGradGradGradGradGradGradGradGradGradGradGradGradGrad
 Berny optimization.
 FormGI is forming the generalized inverse of G from B-inverse, IUseBI=4.
 Internal  Forces:  Max     0.017295765 RMS     0.006754804
 Search for a local minimum.
 Step number   1 out of a maximum of  100
 All quantities printed in internal units (Hartrees-Bohrs-Radians)
 Mixed Optimization -- RFO/linear search
 Second derivative matrix not updated -- first step.
 ITU=  0
     Eigenvalues ---    0.00344   0.00756   0.01669   0.03039   0.03039
     Eigenvalues ---    0.03661   0.05017   0.06474   0.09758   0.13151
     Eigenvalues ---    0.16000   0.16000   0.16000   0.16000   0.16000
     Eigenvalues ---    0.22000   0.22057   0.29249   0.32298   0.34479
     Eigenvalues ---    0.34616   0.37230   0.37230   0.37230   0.37230
     Eigenvalues ---    0.37230   0.59940
 RFO step:  Lambda=-1.63110450D-02 EMin= 3.44013592D-03
 Linear search not attempted -- first point.
 Iteration  1 RMS(Cart)=  0.05855303 RMS(Int)=  0.01123529
 Iteration  2 RMS(Cart)=  0.00803727 RMS(Int)=  0.00823181
 Iteration  3 RMS(Cart)=  0.00008688 RMS(Int)=  0.00823149
 Iteration  4 RMS(Cart)=  0.00000199 RMS(Int)=  0.00823149
 Iteration  5 RMS(Cart)=  0.00000006 RMS(Int)=  0.00823149
 Variable       Old X    -DE/DX   Delta X   Delta X   Delta X     New X
                                 (Linear)    (Quad)   (Total)
    R1        2.89487  -0.01070   0.00000  -0.03464  -0.03464   2.86023
    R2        2.06304  -0.00207   0.00000  -0.00572  -0.00572   2.05732
    R3        2.06528  -0.00249   0.00000  -0.00689  -0.00689   2.05840
    R4        2.83601   0.00051   0.00000   0.00151   0.00151   2.83753
    R5        2.02201   0.01730   0.00000   0.04451   0.04451   2.06651
    R6        2.02201   0.01411   0.00000   0.03631   0.03631   2.05831
    R7        2.50987   0.00371   0.00000   0.00603   0.00603   2.51591
    R8        2.02201   0.01067   0.00000   0.02745   0.02745   2.04945
    R9        2.02201   0.00669   0.00000   0.01723   0.01723   2.03923
   R10        2.02201   0.00816   0.00000   0.02100   0.02100   2.04301
    A1        1.93970   0.01362   0.00000   0.14058   0.11397   2.05367
    A2        1.93570   0.01459   0.00000   0.14633   0.11975   2.05545
    A3        1.88369  -0.00074   0.00000   0.11594   0.08221   1.96589
    A4        1.95204   0.00261   0.00000   0.01545   0.01515   1.96720
    A5        1.90219  -0.00441   0.00000  -0.03680  -0.03669   1.86550
    A6        1.90219   0.00203   0.00000   0.02385   0.02344   1.92563
    A7        1.90219   0.00167   0.00000   0.00788   0.00799   1.91018
    A8        1.90219  -0.00055   0.00000   0.01044   0.00990   1.91209
    A9        1.90249  -0.00144   0.00000  -0.02184  -0.02172   1.88077
   A10        2.17922  -0.00021   0.00000  -0.00091  -0.00092   2.17830
   A11        2.05198  -0.00344   0.00000  -0.01965  -0.01967   2.03231
   A12        2.05198   0.00365   0.00000   0.02056   0.02055   2.07253
   A13        2.09440   0.00255   0.00000   0.01448   0.01447   2.10887
   A14        2.09440   0.00280   0.00000   0.01588   0.01588   2.11027
   A15        2.09440  -0.00535   0.00000  -0.03036  -0.03036   2.06404
    D1        3.11408   0.00834   0.00000   0.15000   0.15592  -3.01319
    D2        1.00969   0.00754   0.00000   0.15493   0.16105   1.17074
    D3       -1.06471   0.01067   0.00000   0.18884   0.19518  -0.86954
    D4        1.01858  -0.00952   0.00000  -0.18751  -0.19384   0.82474
    D5       -1.08581  -0.01032   0.00000  -0.18258  -0.18871  -1.27452
    D6        3.12297  -0.00719   0.00000  -0.14867  -0.15458   2.96839
    D7        2.05661   0.00214   0.00000   0.02528   0.02540   2.08200
    D8       -1.08499   0.00246   0.00000   0.03496   0.03499  -1.05000
    D9       -2.12219  -0.00061   0.00000  -0.00567  -0.00562  -2.12781
   D10        1.01940  -0.00029   0.00000   0.00401   0.00398   1.02338
   D11       -0.04778  -0.00170   0.00000  -0.02137  -0.02142  -0.06920
   D12        3.09381  -0.00138   0.00000  -0.01170  -0.01183   3.08198
   D13       -3.12268  -0.00019   0.00000  -0.00269  -0.00263  -3.12531
   D14        0.01891  -0.00037   0.00000  -0.00652  -0.00646   0.01245
   D15        0.01891  -0.00051   0.00000  -0.01237  -0.01243   0.00648
   D16       -3.12268  -0.00069   0.00000  -0.01620  -0.01626  -3.13894
         Item               Value     Threshold  Converged?
 Maximum Force            0.017296     0.000450     NO 
 RMS     Force            0.006755     0.000300     NO 
 Maximum Displacement     0.181278     0.001800     NO 
 RMS     Displacement     0.055311     0.001200     NO 
 Predicted change in Energy=-1.135270D-02
 GradGradGradGradGradGradGradGradGradGradGradGradGradGradGradGradGradGrad

                          Input orientation:                          
 ---------------------------------------------------------------------
 Center     Atomic      Atomic             Coordinates (Angstroms)
 Number     Number       Type             X           Y           Z
 ---------------------------------------------------------------------
      1          6           0       -1.720612   -0.233546   -0.198834
      2          6           0       -0.532790    0.545933    0.323061
      3          1           0       -2.642565    0.314622   -0.385243
      4          1           0       -1.898817   -1.224955    0.215692
      5          6           0        0.722932   -0.275810    0.373736
      6          1           0       -0.790413    0.879704    1.332062
      7          6           0        1.839260    0.000015   -0.297272
      8          1           0        2.701610   -0.644661   -0.224892
      9          1           0        1.904686    0.873181   -0.931391
     10          1           0        0.696697   -1.159657    1.001685
     11          1           0       -0.364095    1.432257   -0.287147
 ---------------------------------------------------------------------
                    Distance matrix (angstroms):
                    1          2          3          4          5
     1  C    0.000000
     2  C    1.513567   0.000000
     3  H    1.088685   2.237488   0.000000
     4  H    1.089257   2.239107   1.812341   0.000000
     5  C    2.510086   1.501555   3.500177   2.792744   0.000000
     6  H    2.109085   1.093552   2.588228   2.627628   2.131623
     7  C    3.568884   2.511864   4.493715   3.966977   1.331360
     8  H    4.441367   3.489858   5.431956   4.657766   2.099898
     9  H    3.860605   2.760803   4.613866   4.492728   2.102399
    10  H    2.853473   2.209345   3.904835   2.712700   1.084524
    11  H    2.150079   1.089212   2.539716   3.109501   2.129763
                    6          7          8          9         10
     6  H    0.000000
     7  C    3.216173   0.000000
     8  H    4.116069   1.079117   0.000000
     9  H    3.519492   1.081113   1.854204   0.000000
    10  H    2.545513   2.082686   2.406115   3.054251   0.000000
    11  H    1.763208   2.627964   3.703513   2.423837   3.082918
                   11
    11  H    0.000000
 Stoichiometry    C4H7(2)
 Framework group  C1[X(C4H7)]
 Deg. of freedom    27
 Full point group                 C1      NOp   1
 Largest Abelian subgroup         C1      NOp   1
 Largest concise Abelian subgroup C1      NOp   1
                         Standard orientation:                         
 ---------------------------------------------------------------------
 Center     Atomic      Atomic             Coordinates (Angstroms)
 Number     Number       Type             X           Y           Z
 ---------------------------------------------------------------------
      1          6           0       -1.748365   -0.209262   -0.397149
      2          6           0       -0.601680    0.447978    0.340437
      3          1           0       -2.671673    0.357562   -0.504138
      4          1           0       -1.925350   -1.269167   -0.218946
      5          6           0        0.666719   -0.352712    0.271675
      6          1           0       -0.911966    0.549534    1.384115
      7          6           0        1.806842    0.074462   -0.266993
      8          1           0        2.677795   -0.562043   -0.295180
      9          1           0        1.883641    1.066153   -0.690616
     10          1           0        0.629559   -1.353090    0.688873
     11          1           0       -0.423103    1.448249   -0.051930
 ---------------------------------------------------------------------
 Rotational constants (GHZ):          24.9365493           4.3250023           4.1838118
 Standard basis: CC-pVTZ (5D, 7F)
 There are   245 symmetry adapted cartesian basis functions of A   symmetry.
 There are   218 symmetry adapted basis functions of A   symmetry.
   218 basis functions,   327 primitive gaussians,   245 cartesian basis functions
    16 alpha electrons       15 beta electrons
       nuclear repulsion energy       109.6389330218 Hartrees.
 NAtoms=   11 NActive=   11 NUniq=   11 SFac= 1.00D+00 NAtFMM=   60 NAOKFM=F Big=F
 Integral buffers will be    131072 words long.
 Raffenetti 2 integral format.
 Two-electron integral symmetry is turned on.
 Nuclear repulsion after empirical dispersion term =      109.6336837529 Hartrees.
 One-electron integrals computed using PRISM.
 NBasis=   218 RedAO= T EigKep=  4.68D-04  NBF=   218
 NBsUse=   218 1.00D-06 EigRej= -1.00D+00 NBFU=   218
 Initial guess from the checkpoint file:  "/localscratch/339542/Gau-64365.chk"
 B after Tr=     0.000000   -0.000000    0.000000
         Rot=    0.999987    0.005099    0.000312    0.000442 Ang=   0.59 deg.
 Initial guess <Sx>= 0.0000 <Sy>= 0.0000 <Sz>= 0.5000 <S**2>= 0.7546 S= 0.5023
 ExpMin= 1.03D-01 ExpMax= 8.24D+03 ExpMxC= 2.81D+02 IAcc=3 IRadAn=         5 AccDes= 0.00D+00
 Harris functional with IExCor=  419 and IRadAn=       5 diagonalized for initial guess.
 HarFok:  IExCor=  419 AccDes= 0.00D+00 IRadAn=         5 IDoV= 1 UseB2=F ITyADJ=14
 ICtDFT=  3500011 ScaDFX=  1.000000  1.000000  1.000000  1.000000
 FoFCou: FMM=F IPFlag=           0 FMFlag=      100000 FMFlg1=           0
         NFxFlg=           0 DoJE=T BraDBF=F KetDBF=T FulRan=T
         wScrn=  0.000000 ICntrl=       500 IOpCl=  0 I1Cent=   200000004 NGrid=           0
         NMat0=    1 NMatS0=      1 NMatT0=    0 NMatD0=    1 NMtDS0=    0 NMtDT0=    0
 Petite list used in FoFCou.
 Keep R1 and R2 ints in memory in canonical form, NReq=612885869.
 Requested convergence on RMS density matrix=1.00D-08 within 128 cycles.
 Requested convergence on MAX density matrix=1.00D-06.
 Requested convergence on             energy=1.00D-06.
 No special actions if energy rises.
 Integral accuracy reduced to 1.0D-05 until final iterations.
 Initial convergence to 1.0D-05 achieved.  Increase integral accuracy.
 SCF Done:  E(UB2PLYPD3) =  -156.240461940     A.U. after   15 cycles
            NFock= 15  Conv=0.52D-08     -V/T= 2.0049
 <Sx>= 0.0000 <Sy>= 0.0000 <Sz>= 0.5000 <S**2>= 0.7557 S= 0.5029
 <L.S>=  0.00000000000    
 Annihilation of the first spin contaminant:
 S**2 before annihilation     0.7557,   after     0.7500
 DoSCS=T DFT=T ScalE2(SS,OS)=  0.270000  0.270000
 ExpMin= 1.03D-01 ExpMax= 8.24D+03 ExpMxC= 2.81D+02 IAcc=3 IRadAn=         5 AccDes= 0.00D+00
 HarFok:  IExCor=  205 AccDes= 0.00D+00 IRadAn=         5 IDoV=-2 UseB2=F ITyADJ=14
 ICtDFT= 12500011 ScaDFX=  1.000000  1.000000  1.000000  1.000000
 Range of M.O.s used for correlation:     5   218
 NBasis=   218 NAE=    16 NBE=    15 NFC=     4 NFV=     0
 NROrb=    214 NOA=    12 NOB=    11 NVA=   202 NVB=   203

 **** Warning!!: The largest alpha MO coefficient is  0.11310863D+02


 **** Warning!!: The largest beta MO coefficient is  0.11515419D+02

 DoSCS=T DFT=T ScalE2(SS,OS)=  0.270000  0.270000
 Fully direct method using O(ONN) memory.
 JobTyp=2 Pass  1:  I=   5 to  16 NPSUse= 40 ParTrn=T ParDer=T DoDerP=T.
 JobTyp=3 Pass  1:  I=   5 to  15 NPSUse= 40 ParTrn=T ParDer=T DoDerP=T.
 Spin components of T(2) and E(2):
     alpha-alpha T2 =       0.4156749672D-01 E2=     -0.2603225494D-01
     alpha-beta  T2 =       0.2448722598D+00 E2=     -0.1631842105D+00
     beta-beta   T2 =       0.3517418901D-01 E2=     -0.2174566665D-01
 (S**2,0)=  0.75571D+00           (S**2,1)=  0.74790D+00
 Scaling Projection term by:   0.270000
 E(PUHF)=      -0.15624257919D+03        E(PMP2)=      -0.15645160600D+03
 E2(B2PLYPD3) =    -0.2109621321D+00 E(B2PLYPD3) =    -0.15645142407175D+03
          IDoAtm=11111111111
          Differentiating once with respect to electric field.
                with respect to dipole field.
          Differentiating once with respect to nuclear coordinates.
 Keep R1 and R2 ints in memory in canonical form, NReq=612894013.
          There are     1 degrees of freedom in the 1st order CPHF.  IDoFFX=0 NUNeed=     1.
 LinEq1:  Iter=  0 NonCon=     1 RMS=6.31D-04 Max=1.41D-02 NDo=     1
 AX will form     1 AO Fock derivatives at one time.
 LinEq1:  Iter=  1 NonCon=     1 RMS=2.28D-04 Max=2.62D-03 NDo=     1
 LinEq1:  Iter=  2 NonCon=     1 RMS=8.29D-05 Max=2.91D-03 NDo=     1
 LinEq1:  Iter=  3 NonCon=     1 RMS=5.11D-05 Max=2.57D-03 NDo=     1
 LinEq1:  Iter=  4 NonCon=     1 RMS=3.03D-05 Max=1.41D-03 NDo=     1
 LinEq1:  Iter=  5 NonCon=     1 RMS=1.24D-05 Max=3.40D-04 NDo=     1
 LinEq1:  Iter=  6 NonCon=     1 RMS=4.98D-06 Max=8.81D-05 NDo=     1
 LinEq1:  Iter=  7 NonCon=     1 RMS=1.94D-06 Max=2.14D-05 NDo=     1
 LinEq1:  Iter=  8 NonCon=     1 RMS=7.61D-07 Max=1.34D-05 NDo=     1
 LinEq1:  Iter=  9 NonCon=     1 RMS=2.50D-07 Max=3.35D-06 NDo=     1
 LinEq1:  Iter= 10 NonCon=     1 RMS=5.64D-08 Max=1.00D-06 NDo=     1
 LinEq1:  Iter= 11 NonCon=     1 RMS=1.51D-08 Max=1.79D-07 NDo=     1
 LinEq1:  Iter= 12 NonCon=     1 RMS=7.91D-09 Max=1.05D-07 NDo=     1
 LinEq1:  Iter= 13 NonCon=     1 RMS=1.97D-09 Max=3.42D-08 NDo=     1
 LinEq1:  Iter= 14 NonCon=     1 RMS=4.42D-10 Max=5.68D-09 NDo=     1
 LinEq1:  Iter= 15 NonCon=     1 RMS=9.81D-11 Max=1.43D-09 NDo=     1
 LinEq1:  Iter= 16 NonCon=     0 RMS=2.72D-11 Max=3.76D-10 NDo=     1
 Linear equations converged to 1.000D-10 1.000D-09 after    16 iterations.
 End of Minotr F.D. properties file   721 does not exist.
 End of Minotr F.D. properties file   722 does not exist.
 End of Minotr F.D. properties file   788 does not exist.
 Calling FoFJK, ICntrl=  10002127 FMM=F ISym2X=0 I1Cent= 0 IOpClX= 1 NMat=1 NMatS=1 NMatT=0.
 ***** Axes restored to original set *****
 -------------------------------------------------------------------
 Center     Atomic                   Forces (Hartrees/Bohr)
 Number     Number              X              Y              Z
 -------------------------------------------------------------------
      1        6          -0.004289811    0.004517333    0.015616810
      2        6          -0.004845573   -0.010652687   -0.009844735
      3        1           0.005145600   -0.000259798   -0.004715320
      4        1           0.004863031    0.000999607   -0.005400902
      5        6           0.002131971    0.001171395   -0.000582039
      6        1           0.000977928    0.003097573    0.002884691
      7        6          -0.004710164   -0.000879769    0.002629791
      8        1           0.001232843    0.000852850   -0.000723064
      9        1           0.001227341   -0.000129310   -0.000689881
     10        1          -0.001015852   -0.000324235   -0.000034528
     11        1          -0.000717315    0.001607040    0.000859176
 -------------------------------------------------------------------
 Cartesian Forces:  Max     0.015616810 RMS     0.004552441

 GradGradGradGradGradGradGradGradGradGradGradGradGradGradGradGradGradGrad
 Berny optimization.
 Using GEDIIS/GDIIS optimizer.
 FormGI is forming the generalized inverse of G from B-inverse, IUseBI=4.
 Internal  Forces:  Max     0.009092148 RMS     0.002317665
 Search for a local minimum.
 Step number   2 out of a maximum of  100
 All quantities printed in internal units (Hartrees-Bohrs-Radians)
 Mixed Optimization -- RFO/linear search
 Update second derivatives using D2CorX and points    1    2
 DE= -9.65D-03 DEPred=-1.14D-02 R= 8.50D-01
 TightC=F SS=  1.41D+00  RLast= 4.83D-01 DXNew= 5.0454D-01 1.4498D+00
 Trust test= 8.50D-01 RLast= 4.83D-01 DXMaxT set to 5.05D-01
 ITU=  1  0
 Use linear search instead of GDIIS.
     Eigenvalues ---    0.00344   0.00756   0.01692   0.02826   0.03036
     Eigenvalues ---    0.03042   0.04892   0.06361   0.09979   0.13414
     Eigenvalues ---    0.15529   0.16000   0.16000   0.16000   0.17461
     Eigenvalues ---    0.21996   0.22063   0.27382   0.32311   0.33918
     Eigenvalues ---    0.34556   0.36431   0.37230   0.37230   0.37230
     Eigenvalues ---    0.37460   0.60161
 RFO step:  Lambda=-2.61944768D-03 EMin= 3.43957743D-03
 Quartic linear search produced a step of  0.62336.
 Iteration  1 RMS(Cart)=  0.05164233 RMS(Int)=  0.01132011
 Iteration  2 RMS(Cart)=  0.00592062 RMS(Int)=  0.00964449
 Iteration  3 RMS(Cart)=  0.00004534 RMS(Int)=  0.00964440
 Iteration  4 RMS(Cart)=  0.00000056 RMS(Int)=  0.00964440
 Variable       Old X    -DE/DX   Delta X   Delta X   Delta X     New X
                                 (Linear)    (Quad)   (Total)
    R1        2.86023  -0.00909  -0.02159  -0.02969  -0.05128   2.80895
    R2        2.05732  -0.00368  -0.00357  -0.01392  -0.01749   2.03983
    R3        2.05840  -0.00376  -0.00429  -0.01365  -0.01795   2.04045
    R4        2.83753  -0.00131   0.00094  -0.00755  -0.00661   2.83092
    R5        2.06651   0.00338   0.02774  -0.01245   0.01529   2.08180
    R6        2.05831   0.00072   0.02263  -0.01914   0.00349   2.06180
    R7        2.51591  -0.00253   0.00376  -0.01067  -0.00691   2.50900
    R8        2.04945   0.00027   0.01711  -0.01567   0.00144   2.05089
    R9        2.03923   0.00043   0.01074  -0.00870   0.00204   2.04128
   R10        2.04301   0.00037   0.01309  -0.01125   0.00185   2.04485
    A1        2.05367   0.00074   0.07105  -0.00314   0.03332   2.08700
    A2        2.05545   0.00039   0.07465  -0.00997   0.03009   2.08554
    A3        1.96589   0.00261   0.05124   0.07883   0.09339   2.05928
    A4        1.96720  -0.00022   0.00945  -0.00473   0.00446   1.97165
    A5        1.86550   0.00180  -0.02287   0.04732   0.02454   1.89004
    A6        1.92563  -0.00026   0.01461  -0.01369   0.00062   1.92625
    A7        1.91018  -0.00100   0.00498  -0.01679  -0.01183   1.89835
    A8        1.91209   0.00100   0.00617   0.00682   0.01260   1.92469
    A9        1.88077  -0.00140  -0.01354  -0.01919  -0.03262   1.84815
   A10        2.17830  -0.00033  -0.00057  -0.00193  -0.00252   2.17579
   A11        2.03231  -0.00074  -0.01226   0.00392  -0.00835   2.02396
   A12        2.07253   0.00107   0.01281  -0.00199   0.01081   2.08334
   A13        2.10887   0.00123   0.00902   0.00374   0.01275   2.12162
   A14        2.11027   0.00076   0.00990  -0.00182   0.00807   2.11835
   A15        2.06404  -0.00199  -0.01892  -0.00189  -0.02082   2.04321
    D1       -3.01319   0.00273   0.09719   0.03916   0.13982  -2.87337
    D2        1.17074   0.00291   0.10039   0.03142   0.13529   1.30603
    D3       -0.86954   0.00368   0.12167   0.03455   0.15992  -0.70961
    D4        0.82474  -0.00369  -0.12083  -0.08660  -0.21106   0.61367
    D5       -1.27452  -0.00352  -0.11763  -0.09433  -0.21559  -1.49011
    D6        2.96839  -0.00275  -0.09636  -0.09120  -0.19096   2.77743
    D7        2.08200  -0.00029   0.01583   0.00049   0.01647   2.09847
    D8       -1.05000  -0.00024   0.02181   0.00017   0.02205  -1.02795
    D9       -2.12781   0.00116  -0.00350   0.04562   0.04213  -2.08568
   D10        1.02338   0.00121   0.00248   0.04530   0.04771   1.07109
   D11       -0.06920  -0.00053  -0.01335   0.01645   0.00306  -0.06614
   D12        3.08198  -0.00049  -0.00737   0.01613   0.00864   3.09063
   D13       -3.12531  -0.00024  -0.00164  -0.00977  -0.01135  -3.13666
   D14        0.01245  -0.00014  -0.00403  -0.00253  -0.00650   0.00595
   D15        0.00648  -0.00030  -0.00775  -0.00940  -0.01721  -0.01072
   D16       -3.13894  -0.00020  -0.01014  -0.00216  -0.01236   3.13189
         Item               Value     Threshold  Converged?
 Maximum Force            0.009092     0.000450     NO 
 RMS     Force            0.002318     0.000300     NO 
 Maximum Displacement     0.146882     0.001800     NO 
 RMS     Displacement     0.051972     0.001200     NO 
 Predicted change in Energy=-1.627411D-03
 GradGradGradGradGradGradGradGradGradGradGradGradGradGradGradGradGradGrad

                          Input orientation:                          
 ---------------------------------------------------------------------
 Center     Atomic      Atomic             Coordinates (Angstroms)
 Number     Number       Type             X           Y           Z
 ---------------------------------------------------------------------
      1          6           0       -1.726006   -0.215728   -0.125513
      2          6           0       -0.540673    0.548650    0.343726
      3          1           0       -2.613676    0.314746   -0.435044
      4          1           0       -1.824677   -1.258188    0.137966
      5          6           0        0.708321   -0.277425    0.386039
      6          1           0       -0.751149    0.925084    1.357439
      7          6           0        1.813128   -0.011590   -0.300643
      8          1           0        2.685418   -0.645405   -0.235719
      9          1           0        1.878861    0.851543   -0.949950
     10          1           0        0.674888   -1.157138    1.020730
     11          1           0       -0.388542    1.432536   -0.277572
 ---------------------------------------------------------------------
                    Distance matrix (angstroms):
                    1          2          3          4          5
     1  C    0.000000
     2  C    1.486430   0.000000
     3  H    1.079430   2.226777   0.000000
     4  H    1.079759   2.226133   1.850671   0.000000
     5  C    2.488261   1.498058   3.472824   2.727547   0.000000
     6  H    2.109727   1.101643   2.656034   2.721444   2.125959
     7  C    3.549340   2.503889   4.440851   3.870402   1.327704
     8  H    4.433670   3.488436   5.389064   4.566847   2.104971
     9  H    3.848873   2.760341   4.553698   4.398945   2.104661
    10  H    2.822130   2.201280   3.885919   2.652792   1.085286
    11  H    2.128075   1.091058   2.495089   3.078173   2.137161
                    6          7          8          9         10
     6  H    0.000000
     7  C    3.194074   0.000000
     8  H    4.100559   1.080197   0.000000
     9  H    3.499486   1.082090   1.844319   0.000000
    10  H    2.546096   2.086600   2.425442   3.060707   0.000000
    11  H    1.749929   2.633132   3.710636   2.435315   3.085917
                   11
    11  H    0.000000
 Stoichiometry    C4H7(2)
 Framework group  C1[X(C4H7)]
 Deg. of freedom    27
 Full point group                 C1      NOp   1
 Largest Abelian subgroup         C1      NOp   1
 Largest concise Abelian subgroup C1      NOp   1
                         Standard orientation:                         
 ---------------------------------------------------------------------
 Center     Atomic      Atomic             Coordinates (Angstroms)
 Number     Number       Type             X           Y           Z
 ---------------------------------------------------------------------
      1          6           0       -1.742863   -0.221242   -0.354168
      2          6           0       -0.607355    0.451627    0.329457
      3          1           0       -2.626242    0.346501   -0.604127
      4          1           0       -1.827081   -1.296863   -0.311418
      5          6           0        0.659812   -0.345924    0.280693
      6          1           0       -0.884594    0.612431    1.383448
      7          6           0        1.793476    0.070591   -0.270777
      8          1           0        2.678061   -0.549261   -0.281647
      9          1           0        1.871389    1.047894   -0.728738
     10          1           0        0.615413   -1.335999    0.722989
     11          1           0       -0.445357    1.444985   -0.091738
 ---------------------------------------------------------------------
 Rotational constants (GHZ):          25.0060988           4.3867732           4.2366111
 Standard basis: CC-pVTZ (5D, 7F)
 There are   245 symmetry adapted cartesian basis functions of A   symmetry.
 There are   218 symmetry adapted basis functions of A   symmetry.
   218 basis functions,   327 primitive gaussians,   245 cartesian basis functions
    16 alpha electrons       15 beta electrons
       nuclear repulsion energy       110.1851611953 Hartrees.
 NAtoms=   11 NActive=   11 NUniq=   11 SFac= 1.00D+00 NAtFMM=   60 NAOKFM=F Big=F
 Integral buffers will be    131072 words long.
 Raffenetti 2 integral format.
 Two-electron integral symmetry is turned on.
 Nuclear repulsion after empirical dispersion term =      110.1798902726 Hartrees.
 One-electron integrals computed using PRISM.
 NBasis=   218 RedAO= T EigKep=  4.66D-04  NBF=   218
 NBsUse=   218 1.00D-06 EigRej= -1.00D+00 NBFU=   218
 Initial guess from the checkpoint file:  "/localscratch/339542/Gau-64365.chk"
 B after Tr=    -0.000000   -0.000000   -0.000000
         Rot=    0.999935    0.011237    0.000378   -0.001792 Ang=   1.30 deg.
 Initial guess <Sx>= 0.0000 <Sy>= 0.0000 <Sz>= 0.5000 <S**2>= 0.7557 S= 0.5028
 ExpMin= 1.03D-01 ExpMax= 8.24D+03 ExpMxC= 2.81D+02 IAcc=3 IRadAn=         5 AccDes= 0.00D+00
 Harris functional with IExCor=  419 and IRadAn=       5 diagonalized for initial guess.
 HarFok:  IExCor=  419 AccDes= 0.00D+00 IRadAn=         5 IDoV= 1 UseB2=F ITyADJ=14
 ICtDFT=  3500011 ScaDFX=  1.000000  1.000000  1.000000  1.000000
 FoFCou: FMM=F IPFlag=           0 FMFlag=      100000 FMFlg1=           0
         NFxFlg=           0 DoJE=T BraDBF=F KetDBF=T FulRan=T
         wScrn=  0.000000 ICntrl=       500 IOpCl=  0 I1Cent=   200000004 NGrid=           0
         NMat0=    1 NMatS0=      1 NMatT0=    0 NMatD0=    1 NMtDS0=    0 NMtDT0=    0
 Petite list used in FoFCou.
 Keep R1 and R2 ints in memory in canonical form, NReq=612885869.
 Requested convergence on RMS density matrix=1.00D-08 within 128 cycles.
 Requested convergence on MAX density matrix=1.00D-06.
 Requested convergence on             energy=1.00D-06.
 No special actions if energy rises.
 Integral accuracy reduced to 1.0D-05 until final iterations.
 Initial convergence to 1.0D-05 achieved.  Increase integral accuracy.
 SCF Done:  E(UB2PLYPD3) =  -156.242987010     A.U. after   16 cycles
            NFock= 16  Conv=0.26D-08     -V/T= 2.0045
 <Sx>= 0.0000 <Sy>= 0.0000 <Sz>= 0.5000 <S**2>= 0.7565 S= 0.5033
 <L.S>=  0.00000000000    
 Annihilation of the first spin contaminant:
 S**2 before annihilation     0.7565,   after     0.7500
 DoSCS=T DFT=T ScalE2(SS,OS)=  0.270000  0.270000
 ExpMin= 1.03D-01 ExpMax= 8.24D+03 ExpMxC= 2.81D+02 IAcc=3 IRadAn=         5 AccDes= 0.00D+00
 HarFok:  IExCor=  205 AccDes= 0.00D+00 IRadAn=         5 IDoV=-2 UseB2=F ITyADJ=14
 ICtDFT= 12500011 ScaDFX=  1.000000  1.000000  1.000000  1.000000
 Range of M.O.s used for correlation:     5   218
 NBasis=   218 NAE=    16 NBE=    15 NFC=     4 NFV=     0
 NROrb=    214 NOA=    12 NOB=    11 NVA=   202 NVB=   203

 **** Warning!!: The largest alpha MO coefficient is  0.11766956D+02


 **** Warning!!: The largest beta MO coefficient is  0.10562515D+02

 DoSCS=T DFT=T ScalE2(SS,OS)=  0.270000  0.270000
 Fully direct method using O(ONN) memory.
 JobTyp=2 Pass  1:  I=   5 to  16 NPSUse= 40 ParTrn=T ParDer=T DoDerP=T.
 JobTyp=3 Pass  1:  I=   5 to  15 NPSUse= 40 ParTrn=T ParDer=T DoDerP=T.
 Spin components of T(2) and E(2):
     alpha-alpha T2 =       0.4151770281D-01 E2=     -0.2611634991D-01
     alpha-beta  T2 =       0.2436882251D+00 E2=     -0.1631227404D+00
     beta-beta   T2 =       0.3503055263D-01 E2=     -0.2174212583D-01
 (S**2,0)=  0.75651D+00           (S**2,1)=  0.74756D+00
 Scaling Projection term by:   0.270000
 E(PUHF)=      -0.15624539086D+03        E(PMP2)=      -0.15645417253D+03
 E2(B2PLYPD3) =    -0.2109812162D+00 E(B2PLYPD3) =    -0.15645396822591D+03
          IDoAtm=11111111111
          Differentiating once with respect to electric field.
                with respect to dipole field.
          Differentiating once with respect to nuclear coordinates.
 Keep R1 and R2 ints in memory in canonical form, NReq=612894013.
          There are     1 degrees of freedom in the 1st order CPHF.  IDoFFX=0 NUNeed=     1.
 LinEq1:  Iter=  0 NonCon=     1 RMS=6.30D-04 Max=1.39D-02 NDo=     1
 AX will form     1 AO Fock derivatives at one time.
 LinEq1:  Iter=  1 NonCon=     1 RMS=2.28D-04 Max=2.72D-03 NDo=     1
 LinEq1:  Iter=  2 NonCon=     1 RMS=8.36D-05 Max=2.90D-03 NDo=     1
 LinEq1:  Iter=  3 NonCon=     1 RMS=5.07D-05 Max=2.56D-03 NDo=     1
 LinEq1:  Iter=  4 NonCon=     1 RMS=2.98D-05 Max=1.37D-03 NDo=     1
 LinEq1:  Iter=  5 NonCon=     1 RMS=1.23D-05 Max=3.60D-04 NDo=     1
 LinEq1:  Iter=  6 NonCon=     1 RMS=5.04D-06 Max=9.37D-05 NDo=     1
 LinEq1:  Iter=  7 NonCon=     1 RMS=1.93D-06 Max=2.28D-05 NDo=     1
 LinEq1:  Iter=  8 NonCon=     1 RMS=7.32D-07 Max=1.32D-05 NDo=     1
 LinEq1:  Iter=  9 NonCon=     1 RMS=2.40D-07 Max=3.65D-06 NDo=     1
 LinEq1:  Iter= 10 NonCon=     1 RMS=5.53D-08 Max=7.55D-07 NDo=     1
 LinEq1:  Iter= 11 NonCon=     1 RMS=1.87D-08 Max=2.10D-07 NDo=     1
 LinEq1:  Iter= 12 NonCon=     1 RMS=8.71D-09 Max=1.12D-07 NDo=     1
 LinEq1:  Iter= 13 NonCon=     1 RMS=2.04D-09 Max=3.75D-08 NDo=     1
 LinEq1:  Iter= 14 NonCon=     1 RMS=4.81D-10 Max=6.51D-09 NDo=     1
 LinEq1:  Iter= 15 NonCon=     1 RMS=1.29D-10 Max=1.51D-09 NDo=     1
 LinEq1:  Iter= 16 NonCon=     0 RMS=3.96D-11 Max=4.84D-10 NDo=     1
 Linear equations converged to 1.000D-10 1.000D-09 after    16 iterations.
 End of Minotr F.D. properties file   721 does not exist.
 End of Minotr F.D. properties file   722 does not exist.
 End of Minotr F.D. properties file   788 does not exist.
 Calling FoFJK, ICntrl=  10002127 FMM=F ISym2X=0 I1Cent= 0 IOpClX= 1 NMat=1 NMatS=1 NMatT=0.
 ***** Axes restored to original set *****
 -------------------------------------------------------------------
 Center     Atomic                   Forces (Hartrees/Bohr)
 Number     Number              X              Y              Z
 -------------------------------------------------------------------
      1        6          -0.002559799   -0.000366049    0.002200658
      2        6          -0.000551193    0.000642163    0.000481223
      3        1          -0.000063815   -0.000936936   -0.001099083
      4        1          -0.000349602   -0.000424077   -0.001604175
      5        6           0.000509907   -0.000207197    0.000161239
      6        1           0.001252815    0.000835446   -0.000015676
      7        6           0.001176691   -0.000028324   -0.000134005
      8        1          -0.000094903   -0.000063146   -0.000081760
      9        1          -0.000095359   -0.000005295    0.000200298
     10        1           0.000100063    0.000206754   -0.000132179
     11        1           0.000675195    0.000346661    0.000023461
 -------------------------------------------------------------------
 Cartesian Forces:  Max     0.002559799 RMS     0.000819430

 GradGradGradGradGradGradGradGradGradGradGradGradGradGradGradGradGradGrad
 Berny optimization.
 Using GEDIIS/GDIIS optimizer.
 FormGI is forming the generalized inverse of G from B-inverse, IUseBI=4.
 Internal  Forces:  Max     0.003417619 RMS     0.000808777
 Search for a local minimum.
 Step number   3 out of a maximum of  100
 All quantities printed in internal units (Hartrees-Bohrs-Radians)
 Mixed Optimization -- En-DIIS/RFO-DIIS
 Update second derivatives using D2CorX and points    2    3
 DE= -2.54D-03 DEPred=-1.63D-03 R= 1.56D+00
 TightC=F SS=  1.41D+00  RLast= 4.62D-01 DXNew= 8.4853D-01 1.3865D+00
 Trust test= 1.56D+00 RLast= 4.62D-01 DXMaxT set to 8.49D-01
 ITU=  1  1  0
 Use linear search instead of GDIIS.
     Eigenvalues ---    0.00342   0.00747   0.01442   0.01706   0.03038
     Eigenvalues ---    0.03040   0.04729   0.06204   0.10118   0.13470
     Eigenvalues ---    0.15396   0.15999   0.16000   0.16002   0.17675
     Eigenvalues ---    0.21985   0.22040   0.28492   0.32473   0.33615
     Eigenvalues ---    0.34553   0.36669   0.37230   0.37230   0.37235
     Eigenvalues ---    0.37834   0.60421
 RFO step:  Lambda=-3.43558844D-04 EMin= 3.41891987D-03
 Quartic linear search produced a step of  0.22364.
 Iteration  1 RMS(Cart)=  0.02315076 RMS(Int)=  0.00207873
 Iteration  2 RMS(Cart)=  0.00100515 RMS(Int)=  0.00178255
 Iteration  3 RMS(Cart)=  0.00000073 RMS(Int)=  0.00178255
 Variable       Old X    -DE/DX   Delta X   Delta X   Delta X     New X
                                 (Linear)    (Quad)   (Total)
    R1        2.80895   0.00342  -0.01147   0.01971   0.00824   2.81718
    R2        2.03983  -0.00009  -0.00391   0.00104  -0.00287   2.03696
    R3        2.04045   0.00005  -0.00401   0.00166  -0.00235   2.03810
    R4        2.83092   0.00139  -0.00148   0.00556   0.00408   2.83500
    R5        2.08180   0.00003   0.00342  -0.00387  -0.00045   2.08135
    R6        2.06180   0.00036   0.00078  -0.00154  -0.00076   2.06104
    R7        2.50900   0.00081  -0.00155   0.00164   0.00009   2.50909
    R8        2.05089  -0.00025   0.00032  -0.00283  -0.00251   2.04839
    R9        2.04128  -0.00004   0.00046  -0.00147  -0.00101   2.04026
   R10        2.04485  -0.00013   0.00041  -0.00201  -0.00160   2.04326
    A1        2.08700   0.00090   0.00745   0.00895   0.00989   2.09688
    A2        2.08554   0.00102   0.00673   0.00970   0.00991   2.09545
    A3        2.05928  -0.00135   0.02088  -0.00187   0.01235   2.07163
    A4        1.97165   0.00032   0.00100   0.00184   0.00281   1.97446
    A5        1.89004   0.00104   0.00549   0.01614   0.02163   1.91167
    A6        1.92625   0.00028   0.00014   0.00162   0.00176   1.92801
    A7        1.89835  -0.00079  -0.00265  -0.00629  -0.00906   1.88929
    A8        1.92469  -0.00056   0.00282  -0.00979  -0.00702   1.91768
    A9        1.84815  -0.00032  -0.00730  -0.00347  -0.01087   1.83729
   A10        2.17579   0.00064  -0.00056   0.00384   0.00327   2.17906
   A11        2.02396  -0.00024  -0.00187   0.00069  -0.00119   2.02277
   A12        2.08334  -0.00040   0.00242  -0.00444  -0.00202   2.08131
   A13        2.12162   0.00005   0.00285  -0.00131   0.00154   2.12316
   A14        2.11835  -0.00016   0.00181  -0.00282  -0.00102   2.11733
   A15        2.04321   0.00011  -0.00466   0.00413  -0.00052   2.04269
    D1       -2.87337   0.00078   0.03127  -0.00009   0.03162  -2.84175
    D2        1.30603   0.00085   0.03026  -0.00444   0.02617   1.33220
    D3       -0.70961   0.00049   0.03577  -0.01035   0.02582  -0.68380
    D4        0.61367  -0.00081  -0.04720  -0.05420  -0.10175   0.51192
    D5       -1.49011  -0.00074  -0.04821  -0.05855  -0.10721  -1.59732
    D6        2.77743  -0.00109  -0.04271  -0.06445  -0.10756   2.66987
    D7        2.09847  -0.00011   0.00368   0.01524   0.01896   2.11743
    D8       -1.02795  -0.00019   0.00493   0.00840   0.01335  -1.01459
    D9       -2.08568   0.00087   0.00942   0.03244   0.04180  -2.04388
   D10        1.07109   0.00079   0.01067   0.02559   0.03619   1.10728
   D11       -0.06614  -0.00028   0.00068   0.01923   0.01995  -0.04619
   D12        3.09063  -0.00037   0.00193   0.01238   0.01435   3.10497
   D13       -3.13666   0.00007  -0.00254   0.00204  -0.00050  -3.13716
   D14        0.00595   0.00006  -0.00145   0.00174   0.00029   0.00624
   D15       -0.01072   0.00016  -0.00385   0.00915   0.00529  -0.00543
   D16        3.13189   0.00015  -0.00276   0.00885   0.00608   3.13797
         Item               Value     Threshold  Converged?
 Maximum Force            0.003418     0.000450     NO 
 RMS     Force            0.000809     0.000300     NO 
 Maximum Displacement     0.086722     0.001800     NO 
 RMS     Displacement     0.022914     0.001200     NO 
 Predicted change in Energy=-2.099590D-04
 GradGradGradGradGradGradGradGradGradGradGradGradGradGradGradGradGradGrad

                          Input orientation:                          
 ---------------------------------------------------------------------
 Center     Atomic      Atomic             Coordinates (Angstroms)
 Number     Number       Type             X           Y           Z
 ---------------------------------------------------------------------
      1          6           0       -1.742721   -0.214129   -0.097400
      2          6           0       -0.544690    0.552072    0.349937
      3          1           0       -2.625143    0.307291   -0.431093
      4          1           0       -1.807982   -1.273862    0.092074
      5          6           0        0.704923   -0.277212    0.387490
      6          1           0       -0.721416    0.955412    1.359479
      7          6           0        1.811268   -0.013724   -0.297715
      8          1           0        2.681518   -0.649636   -0.234863
      9          1           0        1.879862    0.850814   -0.943438
     10          1           0        0.671581   -1.155137    1.022394
     11          1           0       -0.391308    1.425195   -0.285406
 ---------------------------------------------------------------------
                    Distance matrix (angstroms):
                    1          2          3          4          5
     1  C    0.000000
     2  C    1.490790   0.000000
     3  H    1.077914   2.235668   0.000000
     4  H    1.078515   2.235271   1.855128   0.000000
     5  C    2.496009   1.500218   3.478658   2.719426   0.000000
     6  H    2.129176   1.101404   2.692654   2.785068   2.120982
     7  C    3.565267   2.508010   4.450009   3.852124   1.327754
     8  H    4.447747   3.492063   5.395819   4.544464   2.105457
     9  H    3.869496   2.764149   4.566507   4.380266   2.103400
    10  H    2.822816   2.201380   3.888406   2.651004   1.083959
    11  H    2.132850   1.090656   2.502190   3.071542   2.133706
                    6          7          8          9         10
     6  H    0.000000
     7  C    3.178050   0.000000
     8  H    4.086326   1.079661   0.000000
     9  H    3.475775   1.081245   1.842846   0.000000
    10  H    2.551172   2.084321   2.424061   3.057495   0.000000
    11  H    1.742215   2.630966   3.708064   2.433338   3.081912
                   11
    11  H    0.000000
 Stoichiometry    C4H7(2)
 Framework group  C1[X(C4H7)]
 Deg. of freedom    27
 Full point group                 C1      NOp   1
[...]
                                 (Linear)    (Quad)   (Total)
    R1        2.81610   0.00000   0.00000   0.00002   0.00002   2.81612
    R2        2.03807   0.00000   0.00000   0.00001   0.00001   2.03808
    R3        2.03874  -0.00000   0.00000   0.00000   0.00000   2.03874
    R4        2.83804  -0.00000   0.00000  -0.00001  -0.00001   2.83803
    R5        2.06613   0.00000   0.00000   0.00001   0.00001   2.06614
    R6        2.07579  -0.00000   0.00000  -0.00000  -0.00000   2.07578
    R7        2.51164   0.00000   0.00000   0.00000   0.00000   2.51164
    R8        2.04891   0.00000   0.00000   0.00001   0.00001   2.04892
    R9        2.04102   0.00000   0.00000   0.00001   0.00001   2.04103
   R10        2.04483   0.00000   0.00000   0.00001   0.00001   2.04484
    A1        2.11163   0.00000   0.00000   0.00002   0.00002   2.11165
    A2        2.09668   0.00000   0.00000   0.00003   0.00003   2.09671
    A3        2.06583  -0.00001   0.00000  -0.00005  -0.00005   2.06578
    A4        1.96994  -0.00000   0.00000  -0.00004  -0.00004   1.96990
    A5        1.90833  -0.00000   0.00000  -0.00005  -0.00005   1.90828
    A6        1.92708  -0.00000   0.00000  -0.00001  -0.00001   1.92707
    A7        1.91358   0.00000   0.00000   0.00004   0.00004   1.91363
    A8        1.89459   0.00000   0.00000   0.00004   0.00004   1.89463
    A9        1.84619   0.00000   0.00000   0.00003   0.00003   1.84622
   A10        2.17642  -0.00000   0.00000  -0.00001  -0.00001   2.17641
   A11        2.02319   0.00000   0.00000   0.00001   0.00001   2.02319
   A12        2.08342   0.00000   0.00000   0.00000   0.00000   2.08343
   A13        2.12160   0.00000   0.00000   0.00002   0.00002   2.12162
   A14        2.11682   0.00000   0.00000   0.00001   0.00001   2.11682
   A15        2.04477  -0.00000   0.00000  -0.00003  -0.00003   2.04474
    D1        2.65043   0.00000   0.00000  -0.00003  -0.00003   2.65040
    D2        0.51556  -0.00000   0.00000  -0.00002  -0.00002   0.51554
    D3       -1.50874   0.00000   0.00000  -0.00002  -0.00002  -1.50876
    D4       -0.63761  -0.00000   0.00000  -0.00012  -0.00012  -0.63773
    D5       -2.77249  -0.00000   0.00000  -0.00011  -0.00011  -2.77259
    D6        1.48640   0.00000   0.00000  -0.00010  -0.00010   1.48630
    D7        2.05769  -0.00000   0.00000  -0.00040  -0.00040   2.05728
    D8       -1.06465   0.00000   0.00000  -0.00032  -0.00032  -1.06497
    D9       -2.09357  -0.00000   0.00000  -0.00047  -0.00047  -2.09404
   D10        1.06728  -0.00000   0.00000  -0.00039  -0.00039   1.06689
   D11       -0.08456   0.00000   0.00000  -0.00039  -0.00039  -0.08496
   D12        3.07629   0.00000   0.00000  -0.00031  -0.00031   3.07598
   D13       -3.13118   0.00000   0.00000   0.00011   0.00011  -3.13107
   D14        0.01262   0.00000   0.00000   0.00008   0.00008   0.01269
   D15       -0.00946   0.00000   0.00000   0.00003   0.00003  -0.00944
   D16        3.13433  -0.00000   0.00000  -0.00001  -0.00001   3.13432
         Item               Value     Threshold  Converged?
 Maximum Force            0.000006     0.000450     YES
 RMS     Force            0.000002     0.000300     YES
 Maximum Displacement     0.000510     0.001800     YES
 RMS     Displacement     0.000227     0.001200     YES
 Predicted change in Energy=-2.127311D-09
 Optimization completed.
    -- Stationary point found.
                           ----------------------------
                           !   Optimized Parameters   !
                           ! (Angstroms and Degrees)  !
 --------------------------                            --------------------------
 ! Name  Definition              Value          Derivative Info.                !
 --------------------------------------------------------------------------------
 ! R1    R(1,2)                  1.4902         -DE/DX =    0.0                 !
 ! R2    R(1,3)                  1.0785         -DE/DX =    0.0                 !
 ! R3    R(1,4)                  1.0789         -DE/DX =    0.0                 !
 ! R4    R(2,5)                  1.5018         -DE/DX =    0.0                 !
 ! R5    R(2,6)                  1.0934         -DE/DX =    0.0                 !
 ! R6    R(2,11)                 1.0985         -DE/DX =    0.0                 !
 ! R7    R(5,7)                  1.3291         -DE/DX =    0.0                 !
 ! R8    R(5,10)                 1.0842         -DE/DX =    0.0                 !
 ! R9    R(7,8)                  1.0801         -DE/DX =    0.0                 !
 ! R10   R(7,9)                  1.0821         -DE/DX =    0.0                 !
 ! A1    A(2,1,3)              120.9873         -DE/DX =    0.0                 !
 ! A2    A(2,1,4)              120.1311         -DE/DX =    0.0                 !
 ! A3    A(3,1,4)              118.3635         -DE/DX =    0.0                 !
 ! A4    A(1,2,5)              112.8693         -DE/DX =    0.0                 !
 ! A5    A(1,2,6)              109.3394         -DE/DX =    0.0                 !
 ! A6    A(1,2,11)             110.4138         -DE/DX =    0.0                 !
 ! A7    A(5,2,6)              109.6402         -DE/DX =    0.0                 !
 ! A8    A(5,2,11)             108.5522         -DE/DX =    0.0                 !
 ! A9    A(6,2,11)             105.779          -DE/DX =    0.0                 !
 ! A10   A(2,5,7)              124.6997         -DE/DX =    0.0                 !
 ! A11   A(2,5,10)             115.9201         -DE/DX =    0.0                 !
 ! A12   A(7,5,10)             119.3712         -DE/DX =    0.0                 !
 ! A13   A(5,7,8)              121.5585         -DE/DX =    0.0                 !
 ! A14   A(5,7,9)              121.2847         -DE/DX =    0.0                 !
 ! A15   A(8,7,9)              117.1567         -DE/DX =    0.0                 !
 ! D1    D(3,1,2,5)            151.8584         -DE/DX =    0.0                 !
 ! D2    D(3,1,2,6)             29.5393         -DE/DX =    0.0                 !
 ! D3    D(3,1,2,11)           -86.4446         -DE/DX =    0.0                 !
 ! D4    D(4,1,2,5)            -36.5326         -DE/DX =    0.0                 !
 ! D5    D(4,1,2,6)           -158.8517         -DE/DX =    0.0                 !
 ! D6    D(4,1,2,11)            85.1644         -DE/DX =    0.0                 !
 ! D7    D(1,2,5,7)            117.8969         -DE/DX =    0.0                 !
 ! D8    D(1,2,5,10)           -60.9997         -DE/DX =    0.0                 !
 ! D9    D(6,2,5,7)           -119.9528         -DE/DX =    0.0                 !
 ! D10   D(6,2,5,10)            61.1505         -DE/DX =    0.0                 !
 ! D11   D(11,2,5,7)            -4.8452         -DE/DX =    0.0                 !
 ! D12   D(11,2,5,10)          176.2582         -DE/DX =    0.0                 !
 ! D13   D(2,5,7,8)           -179.4035         -DE/DX =    0.0                 !
 ! D14   D(2,5,7,9)              0.7228         -DE/DX =    0.0                 !
 ! D15   D(10,5,7,8)            -0.5422         -DE/DX =    0.0                 !
 ! D16   D(10,5,7,9)           179.5841         -DE/DX =    0.0                 !
 --------------------------------------------------------------------------------
 GradGradGradGradGradGradGradGradGradGradGradGradGradGradGradGradGradGrad


 ----------------------------------------------------------------------

 Electric dipole moment (input orientation):
 (Debye = 10**-18 statcoulomb cm , SI units = C m)
                  (au)            (Debye)         (10**-30 SI)
   Tot        0.109815D+00      0.279122D+00      0.931050D+00
   x         -0.558085D-01     -0.141851D+00     -0.473164D+00
   y          0.906130D-01      0.230315D+00      0.768249D+00
   z          0.270932D-01      0.688640D-01      0.229706D+00

 Dipole polarizability, Alpha (input orientation).
 (esu units = cm**3 , SI units = C**2 m**2 J**-1)
 Alpha(0;0):
               (au)            (10**-24 esu)      (10**-40 SI)
   iso        0.469806D+02      0.696181D+01      0.774605D+01
   aniso      0.233138D+02      0.345474D+01      0.384392D+01
   xx         0.606023D+02      0.898034D+01      0.999197D+01
   yx        -0.578231D+00     -0.856850D-01     -0.953374D-01
   yy         0.401640D+02      0.595169D+01      0.662215D+01
   zx        -0.630496D+01     -0.934298D+00     -0.103955D+01
   zy        -0.138806D+01     -0.205690D+00     -0.228861D+00
   zz         0.401755D+02      0.595339D+01      0.662404D+01

 ----------------------------------------------------------------------

 Dipole orientation:
     6         -2.79236428         -1.22730441          1.28947084
     6         -0.13013830         -0.36253239          1.59791278
     1         -3.81774722         -2.04420715          2.84991917
     1         -3.81023222         -0.81389875         -0.42793932
     6          1.35806481         -0.49160275         -0.81518971
     1          0.79708960         -1.50595371          3.04765055
     6          2.37812672          1.48974428         -1.97367629
     1          3.41687679          1.28855982         -3.71904329
     1          2.20482500          3.37575645         -1.20279928
     1          1.55667060         -2.35375722         -1.64643033
     1         -0.07993403          1.58984101          2.30119862

 Electric dipole moment (dipole orientation):
 (Debye = 10**-18 statcoulomb cm , SI units = C m)
                  (au)            (Debye)         (10**-30 SI)
   Tot        0.109815D+00      0.279122D+00      0.931050D+00
   x          0.000000D+00      0.000000D+00      0.000000D+00
   y          0.000000D+00      0.000000D+00      0.000000D+00
   z          0.109815D+00      0.279122D+00      0.931050D+00

 Dipole polarizability, Alpha (dipole orientation).
 (esu units = cm**3 , SI units = C**2 m**2 J**-1)
 Alpha(0;0):
               (au)            (10**-24 esu)      (10**-40 SI)
   iso        0.469806D+02      0.696181D+01      0.774605D+01
   aniso      0.233138D+02      0.345474D+01      0.384392D+01
   xx         0.471506D+02      0.698699D+01      0.777408D+01
   yx         0.828415D+01      0.122758D+01      0.136587D+01
   yy         0.468470D+02      0.694201D+01      0.772403D+01
   zx        -0.881525D+01     -0.130629D+01     -0.145344D+01
   zy        -0.590062D+01     -0.874382D+00     -0.972881D+00
   zz         0.469442D+02      0.695641D+01      0.774005D+01

 ----------------------------------------------------------------------
 1\1\GINC-N68\Freq\UB2PLYPD3-FC\CC-pVTZ\C4H7(2)\ROOT\31-May-2019\0\\#N 
 Geom=AllCheck Guess=TCheck SCRF=Check GenChk UB2PLYPD3(FC)/CC-pVTZ Fre
 q\\Title Card Required\\0,2\C,-1.7367702119,-0.228751862,-0.0467035557
 \C,-0.5488544578,0.5874855563,0.3319187038\H,-2.7320254229,0.073897118
 9,0.2379648698\H,-1.6283727523,-1.0605325545,-0.7251704892\C,0.7015066
 898,-0.2322990825,0.4734524899\H,-0.7532319042,1.1109183557,1.26982205
 6\C,1.7936915696,-0.0807016296,-0.2686184669\H,2.6630738521,-0.7062415
 098,-0.129290369\H,1.8493654438,0.6780386171,-1.0381016763\H,0.6769292
 61,-1.0071627722,1.2314424631\H,-0.3694191074,1.3724333927,-0.41525789
 56\\Version=ES64L-G16RevB.01\State=2-A\HF=-156.2437557\MP2=-156.454851
 6\PUHF=-156.2462255\PMP2-0=-156.4550548\S2=0.756599\S2-1=0.747399\S2A=
 0.750028\RMSD=3.285e-09\RMSF=3.842e-06\ZeroPoint=0.09381\Thermal=0.099
 4099\Dipole=-0.0558085,0.090613,0.0270932\DipoleDeriv=0.0885181,0.0269
 552,-0.0423983,0.0866271,-0.0533025,0.2012832,-0.0394545,0.2134844,-0.
 1823571,0.0015246,0.044885,0.0321617,-0.0068283,0.0808984,-0.0057889,0
 .0462132,0.0006443,0.1788165,-0.1303865,0.0077766,0.0220138,0.0217941,
 0.0580825,-0.0610498,0.0225806,-0.0609007,0.0918766,0.0120604,0.014056
 8,0.0233022,-0.0343948,0.0016992,-0.0997125,-0.0059175,-0.1040883,0.04
 66573,0.1871807,-0.1094322,-0.1156028,-0.1885882,-0.0204671,-0.1364787
 ,-0.0975772,-0.1402694,-0.0330635,-0.0332767,0.01646,0.0278596,0.05795
 09,0.012226,-0.0824028,0.0103985,-0.1035899,-0.0712001,-0.1567579,-0.0
 829165,-0.0178606,-0.0755811,-0.0612446,-0.1725825,0.0025104,-0.185422
 ,-0.1246017,-0.0456782,0.076193,0.0201738,0.1074291,0.0416741,0.046742
 8,0.0024247,0.0611564,0.0887135,0.0601549,0.0504485,-0.0035585,0.00716
 28,0.0035919,0.124538,0.0359367,0.1005148,0.0199855,0.0250889,0.024714
 ,0.0301529,0.04789,-0.0066265,0.1189669,0.0237063,0.1086942,0.0076535,
 -0.0084282,-0.0691404,0.0237563,-0.0234617,-0.0565312,0.0664843,-0.000
 8212,0.1097762,-0.0224806\Polar=60.6023211,-0.5782307,40.1639862,-6.30
 49569,-1.3880643,40.1754678\PG=C01 [X(C4H7)]\NImag=0\\0.57604034,-0.01
 135828,0.41144325,-0.06784189,0.25942265,0.25595085,-0.17093837,-0.063
 94811,-0.02381004,0.46671333,-0.06507585,-0.11505198,-0.03865057,-0.00
 975890,0.49863994,-0.02940657,-0.04125629,-0.06799673,-0.02572009,0.01
 238809,0.53525816,-0.30472058,0.07515397,0.07749251,-0.01264709,0.0097
 8363,0.00552196,0.31861573,0.07826248,-0.06593756,-0.04716360,-0.01699
 263,0.00961358,0.00391768,-0.08018041,0.06007685,0.07540301,-0.0444071
 1,-0.04761239,-0.00776614,0.00015976,0.00310545,-0.08074989,0.04703821
 ,0.04365233,-0.06001850,0.02389156,0.02479813,0.00445282,-0.01681531,-
 0.01568048,0.00148746,0.01962309,0.01612195,0.05507841,0.02175714,-0.2
 1340862,-0.16204900,0.00500081,-0.00762003,-0.01106565,-0.00182289,-0.
 00159257,-0.00401487,-0.02254024,0.22202166,0.02495988,-0.16672604,-0.
 14438594,0.00102604,-0.00200119,-0.00012948,-0.00164738,-0.00429960,-0
 .00059776,-0.02373490,0.17517273,0.14581780,-0.03612908,0.00925699,-0.
 00234070,-0.16216347,0.06973950,-0.01330282,-0.00237838,-0.00097414,-0
 .00132860,0.00301208,0.00094203,0.00117964,0.67261268,-0.01402865,0.01
 343415,0.00166356,0.06252737,-0.12432344,0.01423372,-0.00409756,-0.002
 83160,-0.00100142,-0.00062335,0.00085896,-0.00064623,-0.04916749,0.413
 46191,-0.00590916,0.00392775,0.00056363,-0.00798006,0.01254418,-0.0844
 9238,-0.00008648,-0.00008576,0.00013112,-0.00054072,0.00086747,0.00044
 471,-0.22852797,-0.22516720,0.49343138,0.00423814,-0.01707524,-0.02329
 854,-0.05402996,0.02651256,0.04098387,0.00117571,0.00106132,0.00018674
 ,-0.00348552,-0.00255234,-0.00093595,-0.00909570,0.01228289,0.02629516
 ,0.06458555,0.00042320,-0.01372016,-0.01747142,0.02564174,-0.10046486,
 -0.10236935,0.00034389,0.00071608,0.00139576,-0.00325900,-0.00058249,-
 0.00144628,0.00438591,-0.00761339,-0.01618398,-0.02454408,0.11184836,0
 .00141553,-0.00492700,-0.00609885,0.03907705,-0.10146896,-0.23561965,-
 0.00025697,0.00012458,0.00086777,-0.00148262,0.00043925,0.00019828,0.0
 0147040,0.00236551,0.00497575,-0.04480125,0.11445087,0.25580269,-0.000
 67336,0.00265944,0.00142318,-0.02620713,0.00085464,0.01740780,-0.00070
 113,-0.00066893,-0.00081799,-0.00013976,-0.00040795,-0.00029466,-0.397
 34231,-0.02899064,0.21663325,-0.00229107,0.00099546,-0.00057699,0.7153
 5221,0.00149205,-0.00216248,-0.00109094,0.01829456,0.00622105,-0.00940
 728,0.00075500,0.00077031,0.00051998,0.00024089,0.00039610,0.00037567,
 -0.02849452,-0.09266412,0.05810893,0.00274789,-0.00150226,-0.00041132,
 -0.11277648,0.42021142,-0.00128200,0.00002953,0.00027457,0.00007641,0.
 00012368,0.00584818,-0.00053394,-0.00010317,0.00052327,0.00060388,0.00
 026117,-0.00010154,0.21680948,0.05807256,-0.22332608,-0.00170225,0.001
 14788,0.00059707,-0.22010013,-0.24502620,0.46483297,0.00046057,0.00017
 866,0.00013702,0.00041285,0.00125785,0.00622705,-0.00000144,-0.0000913
 9,-0.00008289,-0.00004039,-0.00012598,-0.00007798,-0.01747257,0.017263
 42,-0.00587673,-0.00163465,0.00066489,-0.00005352,-0.23576012,0.137489
 75,-0.02503024,0.24981489,0.00149959,-0.00076126,-0.00051576,0.0019176
 6,0.00620331,0.00645332,0.00032423,0.00021979,0.00012624,0.00000219,-0
 .00012124,-0.00001591,-0.00547133,0.00499313,0.00097430,-0.00154790,0.
 00081515,-0.00019395,0.14102556,-0.14660675,0.03292307,-0.15140034,0.1
 4539640,0.00180050,-0.00123933,-0.00044089,0.00434351,0.00702708,0.004
 79087,0.00047054,0.00036251,0.00015301,-0.00001004,-0.00006646,0.00001
 242,0.01689652,-0.01167462,0.00527405,-0.00127221,0.00029669,-0.000007
 95,-0.02862883,0.03484918,-0.05295628,0.02529179,-0.03647960,0.0457582
 0,-0.00046813,0.00031817,-0.00003154,0.00061672,-0.00377255,-0.0013427
 1,-0.00007258,-0.00010688,0.00001258,-0.00000215,0.00000120,0.00003621
 ,0.00205178,-0.01886101,0.02048108,0.00052085,-0.00003678,-0.00027931,
 -0.05550555,-0.00020055,0.01093196,0.00396032,0.01584044,-0.01646436,0
 .05089876,-0.00059946,0.00039169,0.00030925,-0.00114321,-0.00270906,-0
 .00487658,-0.00017973,-0.00018072,-0.00005549,-0.00008379,-0.00002962,
 0.00000251,0.00187709,0.00024237,0.00434773,0.00093554,-0.00011723,-0.
 00033724,-0.00348826,-0.18685058,0.14972528,-0.00267851,-0.00792060,0.
 01108908,0.00391709,0.19088122,-0.00071949,0.00015838,0.00050826,-0.00
 340706,-0.00371347,-0.00304397,-0.00018459,-0.00014124,-0.00009924,-0.
 00007463,0.00003299,-0.00005524,0.00000951,0.01590511,-0.00943538,0.00
 081404,-0.00021581,-0.00006514,0.01413048,0.14788942,-0.18727952,0.001
 55887,0.00111019,0.00008186,-0.01845369,-0.16504561,0.19464412,0.00224
 620,0.00056902,0.00072526,0.00079192,0.01822117,-0.01809016,-0.0000044
 0,-0.00013803,0.00001837,-0.00016343,-0.00022234,-0.00033706,-0.054659
 36,0.00136440,0.00581612,0.00082126,-0.00029696,0.00059011,0.00188957,
 -0.01981455,0.02148418,-0.00000247,-0.00190458,-0.00235713,-0.00205340
 ,0.00204038,0.00556421,0.05520982,-0.00072478,0.00040644,-0.00072236,-
 0.00074133,-0.00936292,0.01225578,0.00015940,0.00011942,-0.00000374,0.
 00012831,-0.00000302,0.00023217,-0.00121814,-0.18969039,0.14478136,-0.
 00046894,0.00024486,-0.00035642,0.00276867,0.00134591,0.00312202,-0.00
 230373,-0.00252934,-0.00382030,0.00220499,0.00579719,0.00466983,-0.002
 90648,0.19471163,0.00048302,0.00010733,0.00042749,0.00156623,0.0012777
 2,0.00084174,-0.00005463,-0.00015494,-0.00008741,-0.00018204,-0.000090
 16,-0.00028809,0.00833729,0.14233406,-0.18341634,-0.00080705,0.0005115
 3,0.00026903,0.00005423,0.01583588,-0.00901607,-0.00203228,-0.00414182
 ,-0.00278403,0.00557147,0.00482125,0.00435986,-0.01296130,-0.16081311,
 0.18826410,-0.01003723,-0.01964617,0.01274660,-0.04700162,-0.03094675,
 0.03340215,-0.00075329,0.00020553,-0.00099714,-0.00018102,-0.00002944,
 -0.00017385,0.00156435,0.02233064,-0.02030449,-0.00080461,-0.00431827,
 0.00489756,0.00137865,0.00026596,-0.00125735,0.00026300,-0.00028552,-0
 .00007027,0.00005337,-0.00059713,0.00076235,-0.00407571,0.00310202,0.0
 0002505,0.05959411,-0.01164743,-0.01463348,0.00626818,-0.02079796,-0.1
 6114560,0.11972657,-0.00023953,-0.00097359,0.00024267,-0.00056436,0.00
 008087,-0.00064784,-0.00087590,-0.01586758,0.01588522,0.00264832,0.010
 37593,-0.00968533,-0.00197150,0.00084139,-0.00027582,-0.00025462,0.000
 31141,-0.00034423,0.00069590,0.00049533,-0.00064980,0.00308796,-0.0010
 3980,0.00031227,0.02991912,0.18155510,0.00109717,-0.00508987,0.0088100
 1,0.02259415,0.11231368,-0.15856221,0.00002887,0.00050531,-0.00003615,
 0.00018145,0.00051253,-0.00091516,0.00079725,0.00391496,-0.00415044,0.
 00453744,0.01988411,-0.02091900,0.00076967,-0.00164334,0.00060343,-0.0
 0006110,-0.00024008,0.00011872,-0.00046170,0.00001983,0.00038439,-0.00
 045260,0.00065476,0.00142973,-0.02903061,-0.13083189,0.17323668\\-0.00
 000414,0.00000108,-0.00000282,-0.00001526,-0.00000354,0.00000506,0.000
 00296,0.00000204,0.00000196,0.00000483,0.00000016,-0.00000007,0.000004
 45,-0.00000249,-0.00000047,0.00000558,-0.00000010,-0.00000373,0.000003
 87,0.00000144,-0.00000365,-0.00000245,0.00000133,0.00000299,-0.0000018
 2,-0.00000129,0.00000330,-0.00000016,0.00000165,-0.00000285,0.00000214
 ,-0.00000029,0.00000025\\\@


 ROSE IS A RED
 TY COBB IS BLUE
 'CAUSE PETE JUST HIT
 NO. 4592.
 Job cpu time:       0 days  8 hours  1 minutes 14.0 seconds.
 Elapsed time:       0 days  0 hours 12 minutes 22.0 seconds.
 File lengths (MBytes):  RWF=  14059 Int=      0 D2E=      0 Chk=      9 Scr=      1
 Normal termination of Gaussian 16 at Fri May 31 20:50:20 2019.
