 Entering Gaussian System, Link 0=g16
 Initial command:
 /ichec/packages/gaussian/16b01/l1.exe "/localscratch/339542/Gau-21159.inp" -scrdir="/localscratch/339542/"
 Entering Link 1 = /ichec/packages/gaussian/16b01/l1.exe PID=     21170.
  
 Copyright (c) 1988-2017, Gaussian, Inc.  All Rights Reserved.
  
 This is part of the Gaussian(R) 16 program.  It is based on
 the Gaussian(R) 09 system (copyright 2009, Gaussian, Inc.),
 the Gaussian(R) 03 system (copyright 2003, Gaussian, Inc.),
 the Gaussian(R) 98 system (copyright 1998, Gaussian, Inc.),
 the Gaussian(R) 94 system (copyright 1995, Gaussian, Inc.),
 the Gaussian 92(TM) system (copyright 1992, Gaussian, Inc.),
 the Gaussian 90(TM) system (copyright 1990, Gaussian, Inc.),
 the Gaussian 88(TM) system (copyright 1988, Gaussian, Inc.),
 the Gaussian 86(TM) system (copyright 1986, Carnegie Mellon
 University), and the Gaussian 82(TM) system (copyright 1983,
 Carnegie Mellon University). Gaussian is a federally registered
 trademark of Gaussian, Inc.
  
 This software contains proprietary and confidential information,
 including trade secrets, belonging to Gaussian, Inc.
  
 This software is provided under written license and may be
 used, copied, transmitted, or stored only in accord with that
 written license.
  
 The following legend is applicable only to US Government
 contracts under FAR:
  
                    RESTRICTED RIGHTS LEGEND
  
 Use, reproduction and disclosure by the US Government is
 subject to restrictions as set forth in subparagraphs (a)
 and (c) of the Commercial Computer Software - Restricted
 Rights clause in FAR 52.227-19.
  
 Gaussian, Inc.
 340 Quinnipiac St., Bldg. 40, Wallingford CT 06492
  
  
 ---------------------------------------------------------------
 Warning -- This program may not be used in any manner that
 competes with the business of Gaussian, Inc. or will provide
 assistance to any competitor of Gaussian, Inc.  The licensee
 of this program is prohibited from giving any competitor of
 Gaussian, Inc. access to this program.  By using this program,
 the user acknowledges that Gaussian, Inc. is engaged in the
 business of creating and licensing software in the field of
 computational chemistry and represents and warrants to the
 licensee that it is not a competitor of Gaussian, Inc. and that
 it will not use this program in any manner prohibited above.
 ---------------------------------------------------------------
  

 Cite this work as:
 Gaussian 16, Revision B.01,
 M. J. Frisch, G. W. Trucks, H. B. Schlegel, G. E. Scuseria, 
 M. A. Robb, J. R. Cheeseman, G. Scalmani, V. Barone, 
 G. A. Petersson, H. Nakatsuji, X. Li, M. Caricato, A. V. Marenich, 
 J. Bloino, B. G. Janesko, R. Gomperts, B. Mennucci, H. P. Hratchian, 
 J. V. Ortiz, A. F. Izmaylov, J. L. Sonnenberg, D. Williams-Young, 
 F. Ding, F. Lipparini, F. Egidi, J. Goings, B. Peng, A. Petrone, 
 T. Henderson, D. Ranasinghe, V. G. Zakrzewski, J. Gao, N. Rega, 
 G. Zheng, W. Liang, M. Hada, M. Ehara, K. Toyota, R. Fukuda, 
 J. Hasegawa, M. Ishida, T. Nakajima, Y. Honda, O. Kitao, H. Nakai, 
 T. Vreven, K. Throssell, J. A. Montgomery, Jr., J. E. Peralta, 
 F. Ogliaro, M. J. Bearpark, J. J. Heyd, E. N. Brothers, K. N. Kudin, 
 V. N. Staroverov, T. A. Keith, R. Kobayashi, J. Normand, 
 K. Raghavachari, A. P. Rendell, J. C. Burant, S. S. Iyengar, 
 J. Tomasi, M. Cossi, J. M. Millam, M. Klene, C. Adamo, R. Cammi, 
 J. W. Ochterski, R. L. Martin, K. Morokuma, O. Farkas, 
 J. B. Foresman, and D. J. Fox, Gaussian, Inc., Wallingford CT, 2016.
 
 ******************************************
 Gaussian 16:  ES64L-G16RevB.01 20-Dec-2017
                31-May-2019 
 ******************************************
 %mem=80GB
 %nproc=40
 Will use up to   40 processors via shared memory.
 -----------------------------------------------
 # opt=maxcyc=500 freq=noraman uB2PLYPD3/cc-pvtz
 -----------------------------------------------
 1/6=500,18=20,19=15,38=1/1,3;
 2/9=110,12=2,17=6,18=5,40=1/2;
 3/5=16,6=1,11=2,25=1,30=1,71=1,74=-60,116=2/1,2,3;
 4//1;
 5/5=2,38=5/2;
 8/6=4,10=1/1;
 9/15=2,16=-3/6;
 10/5=1/2;
 6/7=2,8=2,9=2,10=2/1;
 7/12=2/1,2,3,16;
 1/6=500,18=20,19=15/3(2);
 2/9=110/2;
 99//99;
 2/9=110/2;
 3/5=16,6=1,11=2,25=1,30=1,71=1,74=-60,116=2/1,2,3;
 4/5=5,16=3,69=1/1;
 5/5=2,38=5/2;
 8/6=4,10=1/1;
 9/15=2,16=-3/6;
 10/5=1/2;
 7/12=2/1,2,3,16;
 1/6=500,18=20,19=15/3(-8);
 2/9=110/2;
 6/7=2,8=2,9=2,10=2/1;
 99/9=10/99;
 -------------------
 Title Card Required
 -------------------
 Symbolic Z-matrix:
 Charge =  0 Multiplicity = 2
 C                    -1.70747  -0.26021  -0.29476 
 C                    -0.54081   0.5344    0.30039 
 H                    -2.62306   0.33425  -0.30692 
 H                    -1.48118  -0.56473  -1.3187 
 H                    -1.90108  -1.1643    0.28797 
 C                     0.71761  -0.28114   0.35972 
 H                    -0.80769   0.86001   1.31168 
 C                     1.84115   0.00852  -0.28664 
 H                     2.6891   -0.63856  -0.20201 
 H                     1.89834   0.88896  -0.892 
 H                     0.70905  -1.16141   0.96797 
 

 GradGradGradGradGradGradGradGradGradGradGradGradGradGradGradGradGradGrad
 Berny optimization.
 Initialization pass.
                           ----------------------------
                           !    Initial Parameters    !
                           ! (Angstroms and Degrees)  !
 --------------------------                            --------------------------
 ! Name  Definition              Value          Derivative Info.                !
 --------------------------------------------------------------------------------
 ! R1    R(1,2)                  1.5319         estimate D2E/DX2                !
 ! R2    R(1,3)                  1.0917         estimate D2E/DX2                !
 ! R3    R(1,4)                  1.092          estimate D2E/DX2                !
 ! R4    R(1,5)                  1.0929         estimate D2E/DX2                !
 ! R5    R(2,6)                  1.5008         estimate D2E/DX2                !
 ! R6    R(2,7)                  1.0954         estimate D2E/DX2                !
 ! R7    R(6,8)                  1.3282         estimate D2E/DX2                !
 ! R8    R(6,11)                 1.07           estimate D2E/DX2                !
 ! R9    R(8,9)                  1.07           estimate D2E/DX2                !
 ! R10   R(8,10)                 1.07           estimate D2E/DX2                !
 ! A1    A(2,1,3)              111.1365         estimate D2E/DX2                !
 ! A2    A(2,1,4)              110.557          estimate D2E/DX2                !
 ! A3    A(2,1,5)              110.9077         estimate D2E/DX2                !
 ! A4    A(3,1,4)              108.3732         estimate D2E/DX2                !
 ! A5    A(3,1,5)              107.9273         estimate D2E/DX2                !
 ! A6    A(4,1,5)              107.8182         estimate D2E/DX2                !
 ! A7    A(1,2,6)              111.8439         estimate D2E/DX2                !
 ! A8    A(1,2,7)              109.1056         estimate D2E/DX2                !
 ! A9    A(6,2,7)              109.2275         estimate D2E/DX2                !
 ! A10   A(2,6,8)              124.8603         estimate D2E/DX2                !
 ! A11   A(2,6,11)             117.5698         estimate D2E/DX2                !
 ! A12   A(8,6,11)             117.5698         estimate D2E/DX2                !
 ! A13   A(6,8,9)              120.0            estimate D2E/DX2                !
 ! A14   A(6,8,10)             120.0            estimate D2E/DX2                !
 ! A15   A(9,8,10)             120.0            estimate D2E/DX2                !
 ! D1    D(3,1,2,6)            178.4238         estimate D2E/DX2                !
 ! D2    D(3,1,2,7)             57.471          estimate D2E/DX2                !
 ! D3    D(4,1,2,6)            -61.1848         estimate D2E/DX2                !
 ! D4    D(4,1,2,7)            177.8625         estimate D2E/DX2                !
 ! D5    D(5,1,2,6)             58.3602         estimate D2E/DX2                !
 ! D6    D(5,1,2,7)            -62.5925         estimate D2E/DX2                !
 ! D7    D(1,2,6,8)            117.8348         estimate D2E/DX2                !
 ! D8    D(1,2,6,11)           -62.1652         estimate D2E/DX2                !
 ! D9    D(7,2,6,8)           -121.2832         estimate D2E/DX2                !
 ! D10   D(7,2,6,11)            58.7168         estimate D2E/DX2                !
 ! D11   D(2,6,8,9)           -178.9165         estimate D2E/DX2                !
 ! D12   D(2,6,8,10)             1.0835         estimate D2E/DX2                !
 ! D13   D(11,6,8,9)             1.0835         estimate D2E/DX2                !
 ! D14   D(11,6,8,10)         -178.9165         estimate D2E/DX2                !
 --------------------------------------------------------------------------------
 Trust Radius=3.00D-01 FncErr=1.00D-07 GrdErr=1.00D-07 EigMax=2.50D+02 EigMin=1.00D-04
 Number of steps in this run=    100 maximum allowed number of steps=    100.
 GradGradGradGradGradGradGradGradGradGradGradGradGradGradGradGradGradGrad

                          Input orientation:                          
 ---------------------------------------------------------------------
 Center     Atomic      Atomic             Coordinates (Angstroms)
 Number     Number       Type             X           Y           Z
 ---------------------------------------------------------------------
      1          6           0       -1.707467   -0.260212   -0.294762
      2          6           0       -0.540811    0.534404    0.300391
      3          1           0       -2.623057    0.334247   -0.306921
      4          1           0       -1.481181   -0.564732   -1.318701
      5          1           0       -1.901079   -1.164298    0.287970
      6          6           0        0.717611   -0.281143    0.359723
      7          1           0       -0.807688    0.860010    1.311681
      8          6           0        1.841149    0.008521   -0.286643
      9          1           0        2.689102   -0.638560   -0.202014
     10          1           0        1.898341    0.888961   -0.891997
     11          1           0        0.709053   -1.161407    0.967969
 ---------------------------------------------------------------------
                    Distance matrix (angstroms):
                    1          2          3          4          5
     1  C    0.000000
     2  C    1.531897   0.000000
     3  H    1.091712   2.178219   0.000000
     4  H    1.091966   2.171141   1.770803   0.000000
     5  H    1.092901   2.176252   1.766574   1.765555   0.000000
     6  C    2.511930   1.500754   3.461673   2.780686   2.764534
     7  H    2.155263   1.095422   2.488346   3.066332   2.518196
     8  C    3.558786   2.508963   4.476119   3.525853   3.963579
     9  H    4.413793   3.472836   5.401517   4.317835   4.646100
    10  H    3.831337   2.738059   4.592719   3.703576   4.477029
    11  H    2.871621   2.209885   3.868498   3.222111   2.697257
                    6          7          8          9         10
     6  C    0.000000
     7  H    2.129552   0.000000
     8  C    1.328169   3.208740   0.000000
     9  H    2.080883   4.094451   1.070000   0.000000
    10  H    2.080883   3.489933   1.070000   1.853294   0.000000
    11  H    1.070000   2.550444   2.055340   2.358564   3.012954
                   11
    11  H    0.000000
 Stoichiometry    C4H7(2)
 Framework group  C1[X(C4H7)]
 Deg. of freedom    27
 Full point group                 C1      NOp   1
 Largest Abelian subgroup         C1      NOp   1
 Largest concise Abelian subgroup C1      NOp   1
                         Standard orientation:                         
 ---------------------------------------------------------------------
 Center     Atomic      Atomic             Coordinates (Angstroms)
 Number     Number       Type             X           Y           Z
 ---------------------------------------------------------------------
      1          6           0       -1.720372   -0.361606   -0.045943
      2          6           0       -0.547387    0.601339   -0.254633
      3          1           0       -2.631394    0.021333   -0.509873
      4          1           0       -1.496913   -1.338023   -0.480760
      5          1           0       -1.920615   -0.507454    1.018512
      6          6           0        0.704788    0.108324    0.409639
      7          1           0       -0.811282    1.582113    0.155724
      8          6           0        1.830199   -0.199350   -0.225041
      9          1           0        2.673218   -0.561229    0.325652
     10          1           0        1.893834   -0.085340   -1.287045
     11          1           0        0.689788   -0.003637    1.473659
 ---------------------------------------------------------------------
 Rotational constants (GHZ):          24.8146231           4.2450002           4.1563487
 Standard basis: CC-pVTZ (5D, 7F)
 There are   245 symmetry adapted cartesian basis functions of A   symmetry.
 There are   218 symmetry adapted basis functions of A   symmetry.
   218 basis functions,   327 primitive gaussians,   245 cartesian basis functions
    16 alpha electrons       15 beta electrons
       nuclear repulsion energy       109.1118148248 Hartrees.
 NAtoms=   11 NActive=   11 NUniq=   11 SFac= 1.00D+00 NAtFMM=   60 NAOKFM=F Big=F
 Integral buffers will be    131072 words long.
 Raffenetti 2 integral format.
 Two-electron integral symmetry is turned on.
 Nuclear repulsion after empirical dispersion term =      109.1066122685 Hartrees.
 One-electron integrals computed using PRISM.
 NBasis=   218 RedAO= T EigKep=  5.14D-04  NBF=   218
 NBsUse=   218 1.00D-06 EigRej= -1.00D+00 NBFU=   218
 ExpMin= 1.03D-01 ExpMax= 8.24D+03 ExpMxC= 2.81D+02 IAcc=3 IRadAn=         5 AccDes= 0.00D+00
 Harris functional with IExCor=  419 and IRadAn=       5 diagonalized for initial guess.
 HarFok:  IExCor=  419 AccDes= 0.00D+00 IRadAn=         5 IDoV= 1 UseB2=F ITyADJ=14
 ICtDFT=  3500011 ScaDFX=  1.000000  1.000000  1.000000  1.000000
 FoFCou: FMM=F IPFlag=           0 FMFlag=      100000 FMFlg1=           0
         NFxFlg=           0 DoJE=T BraDBF=F KetDBF=T FulRan=T
         wScrn=  0.000000 ICntrl=       500 IOpCl=  0 I1Cent=   200000004 NGrid=           0
         NMat0=    1 NMatS0=      1 NMatT0=    0 NMatD0=    1 NMtDS0=    0 NMtDT0=    0
 Petite list used in FoFCou.
 Initial guess <Sx>= 0.0000 <Sy>= 0.0000 <Sz>= 0.5000 <S**2>= 0.7500 S= 0.5000
 Keep R1 and R2 ints in memory in canonical form, NReq=612885869.
 Requested convergence on RMS density matrix=1.00D-08 within 128 cycles.
 Requested convergence on MAX density matrix=1.00D-06.
 Requested convergence on             energy=1.00D-06.
 No special actions if energy rises.
 Integral accuracy reduced to 1.0D-05 until final iterations.
 Initial convergence to 1.0D-05 achieved.  Increase integral accuracy.
 SCF Done:  E(UB2PLYPD3) =  -156.235297973     A.U. after   16 cycles
            NFock= 16  Conv=0.61D-08     -V/T= 2.0047
 <Sx>= 0.0000 <Sy>= 0.0000 <Sz>= 0.5000 <S**2>= 0.7548 S= 0.5024
 <L.S>=  0.00000000000    
 Annihilation of the first spin contaminant:
 S**2 before annihilation     0.7548,   after     0.7500
 DoSCS=T DFT=T ScalE2(SS,OS)=  0.270000  0.270000
 ExpMin= 1.03D-01 ExpMax= 8.24D+03 ExpMxC= 2.81D+02 IAcc=3 IRadAn=         5 AccDes= 0.00D+00
 HarFok:  IExCor=  205 AccDes= 0.00D+00 IRadAn=         5 IDoV=-2 UseB2=F ITyADJ=14
 ICtDFT= 12500011 ScaDFX=  1.000000  1.000000  1.000000  1.000000
 Range of M.O.s used for correlation:     5   218
 NBasis=   218 NAE=    16 NBE=    15 NFC=     4 NFV=     0
 NROrb=    214 NOA=    12 NOB=    11 NVA=   202 NVB=   203

 **** Warning!!: The largest alpha MO coefficient is  0.11949467D+02


 **** Warning!!: The largest beta MO coefficient is  0.11947102D+02

 DoSCS=T DFT=T ScalE2(SS,OS)=  0.270000  0.270000
 Fully direct method using O(ONN) memory.
 JobTyp=2 Pass  1:  I=   5 to  16 NPSUse= 40 ParTrn=T ParDer=T DoDerP=T.
 JobTyp=3 Pass  1:  I=   5 to  15 NPSUse= 40 ParTrn=T ParDer=T DoDerP=T.
 Spin components of T(2) and E(2):
     alpha-alpha T2 =       0.4138071902D-01 E2=     -0.2592428165D-01
     alpha-beta  T2 =       0.2452529993D+00 E2=     -0.1632365120D+00
     beta-beta   T2 =       0.3574603980D-01 E2=     -0.2195642808D-01
 (S**2,0)=  0.75485D+00           (S**2,1)=  0.74809D+00
 Scaling Projection term by:   0.270000
 E(PUHF)=      -0.15623713186D+03        E(PMP2)=      -0.15644656592D+03
 E2(B2PLYPD3) =    -0.2111172217D+00 E(B2PLYPD3) =    -0.15644641519509D+03
          IDoAtm=11111111111
          Differentiating once with respect to electric field.
                with respect to dipole field.
          Differentiating once with respect to nuclear coordinates.
 Keep R1 and R2 ints in memory in canonical form, NReq=612894013.
          There are     1 degrees of freedom in the 1st order CPHF.  IDoFFX=0 NUNeed=     1.
 LinEq1:  Iter=  0 NonCon=     1 RMS=6.69D-04 Max=1.80D-02 NDo=     1
 AX will form     1 AO Fock derivatives at one time.
 LinEq1:  Iter=  1 NonCon=     1 RMS=2.32D-04 Max=2.70D-03 NDo=     1
 LinEq1:  Iter=  2 NonCon=     1 RMS=8.32D-05 Max=2.85D-03 NDo=     1
 LinEq1:  Iter=  3 NonCon=     1 RMS=4.65D-05 Max=2.51D-03 NDo=     1
 LinEq1:  Iter=  4 NonCon=     1 RMS=3.20D-05 Max=1.54D-03 NDo=     1
 LinEq1:  Iter=  5 NonCon=     1 RMS=1.22D-05 Max=2.94D-04 NDo=     1
 LinEq1:  Iter=  6 NonCon=     1 RMS=4.39D-06 Max=5.89D-05 NDo=     1
 LinEq1:  Iter=  7 NonCon=     1 RMS=1.60D-06 Max=1.81D-05 NDo=     1
 LinEq1:  Iter=  8 NonCon=     1 RMS=6.81D-07 Max=1.37D-05 NDo=     1
 LinEq1:  Iter=  9 NonCon=     1 RMS=2.51D-07 Max=3.27D-06 NDo=     1
 LinEq1:  Iter= 10 NonCon=     1 RMS=6.47D-08 Max=1.16D-06 NDo=     1
 LinEq1:  Iter= 11 NonCon=     1 RMS=2.03D-08 Max=2.95D-07 NDo=     1
 LinEq1:  Iter= 12 NonCon=     1 RMS=9.89D-09 Max=9.67D-08 NDo=     1
 LinEq1:  Iter= 13 NonCon=     1 RMS=2.66D-09 Max=3.43D-08 NDo=     1
 LinEq1:  Iter= 14 NonCon=     1 RMS=6.64D-10 Max=1.19D-08 NDo=     1
 LinEq1:  Iter= 15 NonCon=     1 RMS=2.00D-10 Max=2.51D-09 NDo=     1
 LinEq1:  Iter= 16 NonCon=     0 RMS=5.38D-11 Max=9.45D-10 NDo=     1
 Linear equations converged to 1.000D-10 1.000D-09 after    16 iterations.
 End of Minotr F.D. properties file   721 does not exist.
 End of Minotr F.D. properties file   722 does not exist.
 End of Minotr F.D. properties file   788 does not exist.

 **********************************************************************

            Population analysis using the SCF Density.

 **********************************************************************

 Orbital symmetries:
 Alpha Orbitals:
       Occupied  (A) (A) (A) (A) (A) (A) (A) (A) (A) (A) (A) (A)
                 (A) (A) (A) (A)
       Virtual   (A) (A) (A) (A) (A) (A) (A) (A) (A) (A) (A) (A)
                 (A) (A) (A) (A) (A) (A) (A) (A) (A) (A) (A) (A)
                 (A) (A) (A) (A) (A) (A) (A) (A) (A) (A) (A) (A)
                 (A) (A) (A) (A) (A) (A) (A) (A) (A) (A) (A) (A)
                 (A) (A) (A) (A) (A) (A) (A) (A) (A) (A) (A) (A)
                 (A) (A) (A) (A) (A) (A) (A) (A) (A) (A) (A) (A)
                 (A) (A) (A) (A) (A) (A) (A) (A) (A) (A) (A) (A)
                 (A) (A) (A) (A) (A) (A) (A) (A) (A) (A) (A) (A)
                 (A) (A) (A) (A) (A) (A) (A) (A) (A) (A) (A) (A)
                 (A) (A) (A) (A) (A) (A) (A) (A) (A) (A) (A) (A)
                 (A) (A) (A) (A) (A) (A) (A) (A) (A) (A) (A) (A)
                 (A) (A) (A) (A) (A) (A) (A) (A) (A) (A) (A) (A)
                 (A) (A) (A) (A) (A) (A) (A) (A) (A) (A) (A) (A)
                 (A) (A) (A) (A) (A) (A) (A) (A) (A) (A) (A) (A)
                 (A) (A) (A) (A) (A) (A) (A) (A) (A) (A) (A) (A)
                 (A) (A) (A) (A) (A) (A) (A) (A) (A) (A) (A) (A)
                 (A) (A) (A) (A) (A) (A) (A) (A) (A) (A)
 Beta  Orbitals:
       Occupied  (A) (A) (A) (A) (A) (A) (A) (A) (A) (A) (A) (A)
                 (A) (A) (A)
       Virtual   (A) (A) (A) (A) (A) (A) (A) (A) (A) (A) (A) (A)
                 (A) (A) (A) (A) (A) (A) (A) (A) (A) (A) (A) (A)
                 (A) (A) (A) (A) (A) (A) (A) (A) (A) (A) (A) (A)
                 (A) (A) (A) (A) (A) (A) (A) (A) (A) (A) (A) (A)
                 (A) (A) (A) (A) (A) (A) (A) (A) (A) (A) (A) (A)
                 (A) (A) (A) (A) (A) (A) (A) (A) (A) (A) (A) (A)
                 (A) (A) (A) (A) (A) (A) (A) (A) (A) (A) (A) (A)
                 (A) (A) (A) (A) (A) (A) (A) (A) (A) (A) (A) (A)
                 (A) (A) (A) (A) (A) (A) (A) (A) (A) (A) (A) (A)
                 (A) (A) (A) (A) (A) (A) (A) (A) (A) (A) (A) (A)
                 (A) (A) (A) (A) (A) (A) (A) (A) (A) (A) (A) (A)
                 (A) (A) (A) (A) (A) (A) (A) (A) (A) (A) (A) (A)
                 (A) (A) (A) (A) (A) (A) (A) (A) (A) (A) (A) (A)
                 (A) (A) (A) (A) (A) (A) (A) (A) (A) (A) (A) (A)
                 (A) (A) (A) (A) (A) (A) (A) (A) (A) (A) (A) (A)
                 (A) (A) (A) (A) (A) (A) (A) (A) (A) (A) (A) (A)
                 (A) (A) (A) (A) (A) (A) (A) (A) (A) (A) (A)
 The electronic state is 2-A.
 Alpha  occ. eigenvalues --  -10.63992 -10.61733 -10.61050 -10.60179  -0.92077
 Alpha  occ. eigenvalues --   -0.84276  -0.72380  -0.63031  -0.54915  -0.50481
 Alpha  occ. eigenvalues --   -0.49357  -0.45378  -0.43884  -0.40374  -0.30499
 Alpha  occ. eigenvalues --   -0.29642
 Alpha virt. eigenvalues --    0.06740   0.09035   0.11612   0.12586   0.12996
 Alpha virt. eigenvalues --    0.15877   0.17014   0.17759   0.21976   0.25559
 Alpha virt. eigenvalues --    0.29307   0.30454   0.31803   0.34797   0.35786
 Alpha virt. eigenvalues --    0.39356   0.41409   0.41845   0.44252   0.48188
 Alpha virt. eigenvalues --    0.49958   0.51228   0.51742   0.52888   0.53252
 Alpha virt. eigenvalues --    0.54240   0.55211   0.56601   0.58544   0.61518
 Alpha virt. eigenvalues --    0.63777   0.65858   0.68798   0.70828   0.73205
 Alpha virt. eigenvalues --    0.78341   0.82326   0.85028   0.91296   0.92073
 Alpha virt. eigenvalues --    0.94817   0.96319   0.98908   1.01329   1.02753
 Alpha virt. eigenvalues --    1.05149   1.09086   1.10976   1.13473   1.17105
 Alpha virt. eigenvalues --    1.17373   1.18886   1.21068   1.21933   1.24973
 Alpha virt. eigenvalues --    1.27218   1.29277   1.32072   1.34430   1.38058
 Alpha virt. eigenvalues --    1.38914   1.40608   1.41086   1.44559   1.45641
 Alpha virt. eigenvalues --    1.49202   1.50141   1.55228   1.56560   1.59033
 Alpha virt. eigenvalues --    1.62525   1.65436   1.69452   1.75033   1.97593
 Alpha virt. eigenvalues --    2.17249   2.18425   2.26128   2.36631   2.38043
 Alpha virt. eigenvalues --    2.39781   2.41517   2.46544   2.50863   2.53291
 Alpha virt. eigenvalues --    2.54977   2.56161   2.60866   2.65127   2.67219
 Alpha virt. eigenvalues --    2.67618   2.73872   2.77927   2.79167   2.82955
 Alpha virt. eigenvalues --    2.84773   2.87629   2.92417   2.94320   2.94559
 Alpha virt. eigenvalues --    2.97369   2.98874   3.00878   3.02106   3.03594
 Alpha virt. eigenvalues --    3.04151   3.06910   3.10919   3.11381   3.12227
 Alpha virt. eigenvalues --    3.13934   3.15622   3.19330   3.21396   3.22869
 Alpha virt. eigenvalues --    3.24345   3.27518   3.29961   3.33460   3.36177
 Alpha virt. eigenvalues --    3.37617   3.40787   3.42879   3.45635   3.46861
 Alpha virt. eigenvalues --    3.51151   3.53297   3.57214   3.58102   3.60689
 Alpha virt. eigenvalues --    3.61247   3.64899   3.68131   3.73279   3.74595
 Alpha virt. eigenvalues --    3.79969   3.82633   3.84633   3.88255   3.90036
 Alpha virt. eigenvalues --    3.91033   3.93135   3.94967   3.97256   3.99593
 Alpha virt. eigenvalues --    4.01671   4.04399   4.05941   4.07330   4.08681
 Alpha virt. eigenvalues --    4.14248   4.16361   4.18458   4.20603   4.21968
 Alpha virt. eigenvalues --    4.24522   4.29189   4.30312   4.36045   4.38956
 Alpha virt. eigenvalues --    4.42982   4.44734   4.46525   4.51691   4.52757
 Alpha virt. eigenvalues --    4.63057   4.63502   4.69361   4.70551   4.85490
 Alpha virt. eigenvalues --    4.87289   4.92857   4.95031   4.96076   4.99588
 Alpha virt. eigenvalues --    5.02133   5.03148   5.11079   5.16681   5.19268
 Alpha virt. eigenvalues --    5.21643   5.24834   5.30534   5.32836   5.36806
 Alpha virt. eigenvalues --    5.39732   5.40482   5.44276   5.48356   5.54692
 Alpha virt. eigenvalues --    5.57953   5.67588   5.86977   6.00765   6.03029
 Alpha virt. eigenvalues --    6.05660   6.15337   6.44662  10.96304  11.53872
 Alpha virt. eigenvalues --   13.47975  14.33243
  Beta  occ. eigenvalues --  -10.62138 -10.61807 -10.61111 -10.60108  -0.90457
  Beta  occ. eigenvalues --   -0.83416  -0.70830  -0.61341  -0.54118  -0.49774
  Beta  occ. eigenvalues --   -0.47656  -0.44953  -0.43118  -0.39658  -0.30407
  Beta virt. eigenvalues --   -0.00070   0.06750   0.09429   0.11865   0.12739
  Beta virt. eigenvalues --    0.13344   0.15961   0.17236   0.18009   0.22927
  Beta virt. eigenvalues --    0.25963   0.30331   0.30862   0.32134   0.35213
  Beta virt. eigenvalues --    0.36429   0.39744   0.43140   0.43407   0.46931
  Beta virt. eigenvalues --    0.48519   0.50347   0.51703   0.52339   0.53450
  Beta virt. eigenvalues --    0.54189   0.54587   0.55505   0.57349   0.58726
  Beta virt. eigenvalues --    0.62286   0.64614   0.66461   0.69213   0.71244
  Beta virt. eigenvalues --    0.73579   0.78638   0.82967   0.85656   0.91974
  Beta virt. eigenvalues --    0.92549   0.95710   0.96790   0.99135   1.01790
  Beta virt. eigenvalues --    1.03395   1.05451   1.09263   1.11277   1.13747
  Beta virt. eigenvalues --    1.17782   1.17934   1.20075   1.21498   1.22642
  Beta virt. eigenvalues --    1.25431   1.28122   1.29885   1.32729   1.35857
  Beta virt. eigenvalues --    1.38615   1.39185   1.40982   1.41359   1.45135
  Beta virt. eigenvalues --    1.46486   1.49631   1.50785   1.56276   1.56961
  Beta virt. eigenvalues --    1.59508   1.63047   1.66356   1.69985   1.75930
  Beta virt. eigenvalues --    1.98088   2.17748   2.19711   2.27411   2.36918
  Beta virt. eigenvalues --    2.38336   2.40061   2.42937   2.47200   2.52152
  Beta virt. eigenvalues --    2.53722   2.55399   2.57162   2.61943   2.66037
  Beta virt. eigenvalues --    2.67901   2.68618   2.74533   2.78365   2.79998
  Beta virt. eigenvalues --    2.84296   2.85677   2.87800   2.92562   2.94614
  Beta virt. eigenvalues --    2.94758   2.97700   2.99380   3.01107   3.02843
  Beta virt. eigenvalues --    3.04417   3.04990   3.07591   3.11653   3.12251
  Beta virt. eigenvalues --    3.12699   3.14609   3.16146   3.20308   3.21952
  Beta virt. eigenvalues --    3.23470   3.25887   3.28682   3.30442   3.34820
  Beta virt. eigenvalues --    3.37151   3.39888   3.41895   3.43578   3.46245
  Beta virt. eigenvalues --    3.47557   3.51590   3.53832   3.57570   3.58533
  Beta virt. eigenvalues --    3.61354   3.61644   3.65498   3.68752   3.73585
  Beta virt. eigenvalues --    3.74802   3.80420   3.83261   3.84976   3.88800
  Beta virt. eigenvalues --    3.90478   3.91363   3.93700   3.95323   3.97670
  Beta virt. eigenvalues --    4.00284   4.02023   4.04829   4.06307   4.07942
  Beta virt. eigenvalues --    4.08973   4.14887   4.16868   4.18906   4.21043
  Beta virt. eigenvalues --    4.22446   4.24861   4.29807   4.30738   4.36443
  Beta virt. eigenvalues --    4.39217   4.43447   4.45184   4.46902   4.52641
  Beta virt. eigenvalues --    4.53119   4.63301   4.64112   4.69855   4.71136
  Beta virt. eigenvalues --    4.85736   4.87521   4.93361   4.95510   4.96741
  Beta virt. eigenvalues --    4.99852   5.02472   5.03932   5.11482   5.16813
  Beta virt. eigenvalues --    5.19407   5.21843   5.25124   5.30911   5.33275
  Beta virt. eigenvalues --    5.37089   5.40019   5.40889   5.44527   5.48640
  Beta virt. eigenvalues --    5.55084   5.58294   5.67969   5.87745   6.01043
  Beta virt. eigenvalues --    6.03155   6.05753   6.15508   6.44921  10.97202
  Beta virt. eigenvalues --   11.54620  13.48071  14.33315
          Condensed to atoms (all electrons):
               1          2          3          4          5          6
     1  C    4.842780   0.346546   0.405641   0.398432   0.401955  -0.064006
     2  C    0.346546   5.205703  -0.035970  -0.034816  -0.044977   0.349552
     3  H    0.405641  -0.035970   0.585723  -0.026534  -0.032741   0.007511
     4  H    0.398432  -0.034816  -0.026534   0.585524  -0.032552  -0.000989
     5  H    0.401955  -0.044977  -0.032741  -0.032552   0.607311   0.000434
     6  C   -0.064006   0.349552   0.007511  -0.000989   0.000434   4.929829
     7  H   -0.050427   0.419848  -0.004974   0.007661  -0.002146  -0.052965
     8  C    0.000054  -0.062610  -0.000261   0.002447   0.000914   0.629621
     9  H   -0.000393   0.006611   0.000027  -0.000102   0.000011  -0.051289
    10  H    0.000168  -0.000832  -0.000079   0.000133   0.000150  -0.053156
    11  H   -0.000050  -0.046938  -0.000284   0.000272   0.003511   0.405717
               7          8          9         10         11
     1  C   -0.050427   0.000054  -0.000393   0.000168  -0.000050
     2  C    0.419848  -0.062610   0.006611  -0.000832  -0.046938
     3  H   -0.004974  -0.000261   0.000027  -0.000079  -0.000284
     4  H    0.007661   0.002447  -0.000102   0.000133   0.000272
     5  H   -0.002146   0.000914   0.000011   0.000150   0.003511
     6  C   -0.052965   0.629621  -0.051289  -0.053156   0.405717
     7  H    0.579662   0.001553  -0.000408   0.000182  -0.001223
     8  C    0.001553   4.955090   0.424261   0.409328  -0.042149
     9  H   -0.000408   0.424261   0.534760  -0.032780  -0.007756
    10  H    0.000182   0.409328  -0.032780   0.538878   0.007875
    11  H   -0.001223  -0.042149  -0.007756   0.007875   0.540722
          Atomic-Atomic Spin Densities.
               1          2          3          4          5          6
     1  C   -0.045843  -0.028041   0.004178   0.005070   0.007195   0.005337
     2  C   -0.028041   1.095849  -0.003539  -0.004619  -0.028797  -0.028998
     3  H    0.004178  -0.003539   0.005993   0.001490  -0.004853  -0.000353
     4  H    0.005070  -0.004619   0.001490   0.013058  -0.007670   0.000748
     5  H    0.007195  -0.028797  -0.004853  -0.007670   0.082930   0.001457
     6  C    0.005337  -0.028998  -0.000353   0.000748   0.001457  -0.044727
     7  H    0.005638   0.006350   0.000988   0.000089  -0.003490   0.004682
     8  C   -0.000053  -0.006011   0.000017   0.000129  -0.000082   0.011624
     9  H   -0.000010   0.000224  -0.000002  -0.000016   0.000041  -0.001230
    10  H   -0.000264   0.007965  -0.000028  -0.000217   0.000188  -0.003745
    11  H    0.000492  -0.022097  -0.000176  -0.000858   0.005522   0.003907
               7          8          9         10         11
     1  C    0.005638  -0.000053  -0.000010  -0.000264   0.000492
     2  C    0.006350  -0.006011   0.000224   0.007965  -0.022097
     3  H    0.000988   0.000017  -0.000002  -0.000028  -0.000176
     4  H    0.000089   0.000129  -0.000016  -0.000217  -0.000858
     5  H   -0.003490  -0.000082   0.000041   0.000188   0.005522
     6  C    0.004682   0.011624  -0.001230  -0.003745   0.003907
     7  H   -0.027818   0.000470  -0.000002  -0.000310  -0.002785
     8  C    0.000470   0.025048   0.000150  -0.005801  -0.004387
     9  H   -0.000002   0.000150  -0.002799   0.001492   0.001354
    10  H   -0.000310  -0.005801   0.001492   0.002444   0.001512
    11  H   -0.002785  -0.004387   0.001354   0.001512   0.056120
 Mulliken charges and spin densities:
               1          2
     1  C   -0.280701  -0.046301
     2  C   -0.102117   0.988284
     3  H    0.101940   0.003715
     4  H    0.100522   0.007204
     5  H    0.098131   0.052439
     6  C   -0.100258  -0.051299
     7  H    0.103238  -0.016188
     8  C   -0.318248   0.021104
     9  H    0.127058  -0.000797
    10  H    0.130131   0.003236
    11  H    0.140303   0.038603
 Sum of Mulliken charges =  -0.00000   1.00000
 Mulliken charges and spin densities with hydrogens summed into heavy atoms:
               1          2
     1  C    0.019892   0.017057
     2  C    0.001122   0.972096
     6  C    0.040045  -0.012696
     8  C   -0.061059   0.023543
 Electronic spatial extent (au):  <R**2>=            353.8392
 Charge=             -0.0000 electrons
 Dipole moment (field-independent basis, Debye):
    X=             -0.4375    Y=             -0.0966    Z=              0.6255  Tot=              0.7695
 Quadrupole moment (field-independent basis, Debye-Ang):
   XX=            -25.5206   YY=            -27.6273   ZZ=            -25.5990
   XY=             -0.9041   XZ=             -0.3146   YZ=              0.2987
 Traceless Quadrupole moment (field-independent basis, Debye-Ang):
   XX=              0.7283   YY=             -1.3783   ZZ=              0.6500
   XY=             -0.9041   XZ=             -0.3146   YZ=              0.2987
 Octapole moment (field-independent basis, Debye-Ang**2):
  XXX=              0.8125  YYY=              0.4973  ZZZ=              2.1982  XYY=             -2.4346
  XXY=             -1.9012  XXZ=              0.1216  XZZ=              1.2717  YZZ=             -0.8300
  YYZ=              0.6312  XYZ=             -0.7890
 Hexadecapole moment (field-independent basis, Debye-Ang**3):
 XXXX=           -358.5556 YYYY=            -70.5515 ZZZZ=            -59.3538 XXXY=             -9.4676
 XXXZ=              3.2620 YYYX=             -0.6119 YYYZ=              2.2349 ZZZX=             -2.6611
 ZZZY=              0.3016 XXYY=            -76.4845 XXZZ=            -68.7670 YYZZ=            -23.3737
 XXYZ=             -2.0001 YYXZ=              0.0275 ZZXY=              0.0234
 N-N= 1.091066122685D+02 E-N=-5.801836679683D+02  KE= 1.555066457627D+02
                          Isotropic Fermi Contact Couplings
        Atom                 a.u.       MegaHertz       Gauss      10(-4) cm-1
     1  C(13)             -0.00854      -9.60218      -3.42630      -3.20294
     2  C(13)              0.26115     293.58803     104.75951      97.93043
     3  H(1)               0.00302      13.50383       4.81850       4.50439
     4  H(1)               0.00506      22.62997       8.07494       7.54855
     5  H(1)               0.02458     109.88190      39.20859      36.65266
     6  C(13)             -0.00715      -8.03834      -2.86828      -2.68130
     7  H(1)              -0.00148      -6.59675      -2.35388      -2.20044
     8  C(13)              0.02767      31.10862      11.10033      10.37672
     9  H(1)              -0.00014      -0.64440      -0.22994      -0.21495
    10  H(1)              -0.00035      -1.56053      -0.55684      -0.52054
    11  H(1)               0.01810      80.89075      28.86383      26.98225
 --------------------------------------------------------
       Center         ----  Spin Dipole Couplings  ----
                      3XX-RR        3YY-RR        3ZZ-RR
 --------------------------------------------------------
     1   Atom        0.006786     -0.005368     -0.001417
     2   Atom       -0.470994     -0.502775      0.973770
     3   Atom        0.017389     -0.008586     -0.008803
     4   Atom       -0.005412      0.014725     -0.009313
     5   Atom        0.000110     -0.003505      0.003395
     6   Atom        0.008813     -0.015517      0.006704
     7   Atom       -0.054276      0.052949      0.001327
     8   Atom        0.022307     -0.010713     -0.011594
     9   Atom        0.005211     -0.002755     -0.002456
    10   Atom        0.011494     -0.006716     -0.004778
    11   Atom       -0.000176     -0.006904      0.007080
 --------------------------------------------------------
                        XY            XZ            YZ
 --------------------------------------------------------
     1   Atom        0.022185     -0.022203     -0.015306
     2   Atom        0.022892     -0.265449     -0.128606
     3   Atom        0.006902      0.000175      0.000203
     4   Atom        0.011248      0.000262     -0.000149
     5   Atom        0.007607     -0.005842     -0.005099
     6   Atom       -0.013697      0.021665     -0.011623
     7   Atom       -0.026764     -0.017047      0.024069
     8   Atom       -0.013912      0.001483     -0.001034
     9   Atom       -0.003351      0.001592     -0.000774
    10   Atom       -0.006266     -0.005363      0.001378
    11   Atom       -0.003541      0.007413     -0.004314
 --------------------------------------------------------


 ---------------------------------------------------------------------------------
              Anisotropic Spin Dipole Couplings in Principal Axis System
 ---------------------------------------------------------------------------------

       Atom             a.u.   MegaHertz   Gauss  10(-4) cm-1        Axes

              Baa    -0.0226    -3.033    -1.082    -1.012  0.6903 -0.6870  0.2271
     1 C(13)  Bbb    -0.0183    -2.453    -0.875    -0.818  0.2550  0.5247  0.8122
              Bcc     0.0409     5.485     1.957     1.830  0.6771  0.5027 -0.5374
 
              Baa    -0.5182   -69.540   -24.814   -23.196  0.9846 -0.0025  0.1750
     2 C(13)  Bbb    -0.5139   -68.959   -24.606   -23.002 -0.0124  0.9964  0.0839
              Bcc     1.0321   138.500    49.420    46.199 -0.1745 -0.0848  0.9810
 
              Baa    -0.0103    -5.507    -1.965    -1.837 -0.2399  0.9655 -0.1013
     3 H(1)   Bbb    -0.0088    -4.689    -1.673    -1.564 -0.0321  0.0964  0.9948
              Bcc     0.0191    10.197     3.638     3.401  0.9703  0.2419  0.0079
 
              Baa    -0.0105    -5.610    -2.002    -1.871  0.8856 -0.3961 -0.2423
     4 H(1)   Bbb    -0.0092    -4.929    -1.759    -1.644  0.2216 -0.0980  0.9702
              Bcc     0.0198    10.539     3.761     3.515  0.4081  0.9130 -0.0010
 
              Baa    -0.0095    -5.086    -1.815    -1.696 -0.6032  0.7965  0.0416
     5 H(1)   Bbb    -0.0031    -1.650    -0.589    -0.550  0.5323  0.3632  0.7647
              Bcc     0.0126     6.736     2.404     2.247 -0.5940 -0.4834  0.6430
 
              Baa    -0.0219    -2.940    -1.049    -0.981  0.3205  0.9372  0.1380
     6 C(13)  Bbb    -0.0138    -1.854    -0.662    -0.618 -0.6510  0.1120  0.7508
              Bcc     0.0357     4.794     1.711     1.599  0.6881 -0.3304  0.6460
 
              Baa    -0.0627   -33.455   -11.937   -11.159  0.9648  0.1842  0.1876
     7 H(1)   Bbb    -0.0075    -4.028    -1.437    -1.344 -0.0993 -0.4054  0.9087
              Bcc     0.0703    37.483    13.375    12.503 -0.2435  0.8954  0.3729
 
              Baa    -0.0158    -2.126    -0.759    -0.709  0.3367  0.9351  0.1102
     8 C(13)  Bbb    -0.0116    -1.559    -0.556    -0.520 -0.0796 -0.0883  0.9929
              Bcc     0.0275     3.686     1.315     1.229  0.9382 -0.3431  0.0447
 
              Baa    -0.0040    -2.136    -0.762    -0.713  0.3162  0.9378  0.1436
     9 H(1)   Bbb    -0.0028    -1.476    -0.527    -0.492 -0.2246 -0.0731  0.9717
              Bcc     0.0068     3.612     1.289     1.205  0.9217 -0.3395  0.1875
 
              Baa    -0.0087    -4.639    -1.655    -1.547  0.3208  0.9409  0.1082
    10 H(1)   Bbb    -0.0063    -3.359    -1.199    -1.120  0.2230 -0.1861  0.9569
              Bcc     0.0150     7.998     2.854     2.668  0.9205 -0.2828 -0.2695
 
              Baa    -0.0086    -4.564    -1.629    -1.522  0.2916  0.9485  0.1235
    11 H(1)   Bbb    -0.0047    -2.494    -0.890    -0.832  0.8033 -0.1728 -0.5700
              Bcc     0.0132     7.058     2.519     2.354  0.5193 -0.2654  0.8123
 

 ---------------------------------------------------------------------------------

 Calling FoFJK, ICntrl=  10002127 FMM=F ISym2X=0 I1Cent= 0 IOpClX= 1 NMat=1 NMatS=1 NMatT=0.
 ***** Axes restored to original set *****
 -------------------------------------------------------------------
 Center     Atomic                   Forces (Hartrees/Bohr)
 Number     Number              X              Y              Z
 -------------------------------------------------------------------
      1        6           0.005890552    0.019044270   -0.010008479
      2        6          -0.007384214   -0.048604899    0.023336300
      3        1           0.000786849   -0.001740938    0.000233496
      4        1          -0.001099334   -0.000797378    0.001641149
      5        1           0.001843413    0.000097763    0.001760015
      6        6          -0.001613739    0.026052966   -0.014814957
      7        1           0.001758069    0.014751877   -0.006907815
      8        6          -0.006334891   -0.002222909    0.003511838
      9        1           0.007615372   -0.001773890   -0.001317394
     10        1           0.003781148    0.004975186   -0.005404884
     11        1          -0.005243225   -0.009782047    0.007970731
 -------------------------------------------------------------------
 Cartesian Forces:  Max     0.048604899 RMS     0.012331743

 GradGradGradGradGradGradGradGradGradGradGradGradGradGradGradGradGradGrad
 Berny optimization.
 FormGI is forming the generalized inverse of G from B-inverse, IUseBI=4.
 Internal  Forces:  Max     0.015224729 RMS     0.006084474
 Search for a local minimum.
 Step number   1 out of a maximum of  100
 All quantities printed in internal units (Hartrees-Bohrs-Radians)
 Mixed Optimization -- RFO/linear search
 Second derivative matrix not updated -- first step.
 ITU=  0
     Eigenvalues ---    0.00344   0.00756   0.01897   0.02963   0.03039
     Eigenvalues ---    0.03039   0.06985   0.07056   0.11579   0.16000
     Eigenvalues ---    0.16000   0.16000   0.16000   0.16000   0.16000
     Eigenvalues ---    0.22000   0.23448   0.29249   0.32298   0.34193
     Eigenvalues ---    0.34479   0.34586   0.34616   0.37230   0.37230
     Eigenvalues ---    0.37230   0.59940
 RFO step:  Lambda=-1.48341843D-02 EMin= 3.44013592D-03
 Linear search not attempted -- first point.
 Iteration  1 RMS(Cart)=  0.08205801 RMS(Int)=  0.00880974
 Iteration  2 RMS(Cart)=  0.00977138 RMS(Int)=  0.00617928
 Iteration  3 RMS(Cart)=  0.00002317 RMS(Int)=  0.00617923
 Iteration  4 RMS(Cart)=  0.00000036 RMS(Int)=  0.00617923
 Variable       Old X    -DE/DX   Delta X   Delta X   Delta X     New X
                                 (Linear)    (Quad)   (Total)
    R1        2.89487  -0.01179   0.00000  -0.03836  -0.03836   2.85651
    R2        2.06304  -0.00161   0.00000  -0.00446  -0.00446   2.05857
    R3        2.06352  -0.00154   0.00000  -0.00428  -0.00428   2.05923
    R4        2.06528   0.00053   0.00000   0.00148   0.00148   2.06676
    R5        2.83601  -0.01128   0.00000  -0.03338  -0.03338   2.80263
    R6        2.07005  -0.00242   0.00000  -0.00679  -0.00679   2.06326
    R7        2.50987   0.00606   0.00000   0.00986   0.00986   2.51974
    R8        2.02201   0.01262   0.00000   0.03260   0.03260   2.05461
    R9        2.02201   0.00700   0.00000   0.01809   0.01809   2.04010
   R10        2.02201   0.00735   0.00000   0.01900   0.01900   2.04100
    A1        1.93970   0.00182   0.00000   0.01248   0.01234   1.95204
    A2        1.92958   0.00242   0.00000   0.01604   0.01592   1.94550
    A3        1.93570  -0.00465   0.00000  -0.03089  -0.03085   1.90485
    A4        1.89147  -0.00053   0.00000   0.00509   0.00481   1.89628
    A5        1.88369   0.00064   0.00000  -0.00045  -0.00043   1.88326
    A6        1.88178   0.00029   0.00000  -0.00235  -0.00229   1.87949
    A7        1.95204   0.01522   0.00000   0.10488   0.08563   2.03768
    A8        1.90425   0.00329   0.00000   0.12015   0.09808   2.00234
    A9        1.90638   0.00090   0.00000   0.11872   0.09552   2.00190
   A10        2.17922   0.00382   0.00000   0.01627   0.01625   2.19548
   A11        2.05198  -0.00716   0.00000  -0.03818  -0.03820   2.01378
   A12        2.05198   0.00334   0.00000   0.02192   0.02190   2.07389
   A13        2.09440   0.00245   0.00000   0.01403   0.01403   2.10843
   A14        2.09440   0.00255   0.00000   0.01460   0.01460   2.10899
   A15        2.09440  -0.00501   0.00000  -0.02863  -0.02863   2.06576
    D1        3.11408   0.00552   0.00000   0.13713   0.14002  -3.02908
    D2        1.00306  -0.00764   0.00000  -0.16060  -0.16372   0.83934
    D3       -1.06788   0.00767   0.00000   0.16251   0.16565  -0.90223
    D4        3.10429  -0.00549   0.00000  -0.13522  -0.13810   2.96619
    D5        1.01858   0.00660   0.00000   0.15002   0.15301   1.17159
    D6       -1.09244  -0.00655   0.00000  -0.14771  -0.15074  -1.24318
    D7        2.05661  -0.00760   0.00000  -0.16097  -0.16402   1.89258
    D8       -1.08499  -0.00727   0.00000  -0.15122  -0.15442  -1.23941
    D9       -2.11679   0.00697   0.00000   0.13794   0.14114  -1.97565
   D10        1.02480   0.00730   0.00000   0.14769   0.15074   1.17554
   D11       -3.12268  -0.00024   0.00000  -0.00418  -0.00411  -3.12679
   D12        0.01891  -0.00024   0.00000  -0.00407  -0.00399   0.01492
   D13        0.01891  -0.00057   0.00000  -0.01394  -0.01401   0.00490
   D14       -3.12268  -0.00057   0.00000  -0.01382  -0.01389  -3.13658
         Item               Value     Threshold  Converged?
 Maximum Force            0.015225     0.000450     NO 
 RMS     Force            0.006084     0.000300     NO 
 Maximum Displacement     0.216608     0.001800     NO 
 RMS     Displacement     0.079891     0.001200     NO 
 Predicted change in Energy=-1.048046D-02
 GradGradGradGradGradGradGradGradGradGradGradGradGradGradGradGradGradGrad

                          Input orientation:                          
 ---------------------------------------------------------------------
 Center     Atomic      Atomic             Coordinates (Angstroms)
 Number     Number       Type             X           Y           Z
 ---------------------------------------------------------------------
      1          6           0       -1.711073   -0.256058   -0.308734
      2          6           0       -0.552024    0.419780    0.387528
      3          1           0       -2.583110    0.394104   -0.368116
      4          1           0       -1.442054   -0.571124   -1.316607
      5          1           0       -1.995664   -1.149688    0.253915
      6          6           0        0.738237   -0.311422    0.398662
      7          1           0       -0.807523    0.908676    1.329758
      8          6           0        1.825178    0.014213   -0.301654
      9          1           0        2.720982   -0.585406   -0.242733
     10          1           0        1.831332    0.884190   -0.941665
     11          1           0        0.769692   -1.191473    1.036341
 ---------------------------------------------------------------------
                    Distance matrix (angstroms):
                    1          2          3          4          5
     1  C    0.000000
     2  C    1.511599   0.000000
     3  H    1.089351   2.167248   0.000000
     4  H    1.089700   2.162896   1.770115   0.000000
     5  H    1.093683   2.136628   1.765024   1.762884   0.000000
     6  C    2.550018   1.483090   3.480957   2.786264   2.863191
     7  H    2.204011   1.091832   2.510033   3.097691   2.608828
     8  C    3.546571   2.508097   4.425126   3.470959   4.032637
     9  H    4.444765   3.481407   5.395234   4.299335   4.776173
    10  H    3.774837   2.768179   4.478441   3.601885   4.495773
    11  H    2.972949   2.182666   3.965834   3.288316   2.874219
                    6          7          8          9         10
     6  C    0.000000
     7  H    2.178292   0.000000
     8  C    1.333387   3.223769   0.000000
     9  H    2.101840   4.141903   1.079573   0.000000
    10  H    2.102575   3.481884   1.080052   1.854641   0.000000
    11  H    1.087251   2.642788   2.087573   2.410577   3.057445
                   11
    11  H    0.000000
 Stoichiometry    C4H7(2)
 Framework group  C1[X(C4H7)]
 Deg. of freedom    27
 Full point group                 C1      NOp   1
 Largest Abelian subgroup         C1      NOp   1
 Largest concise Abelian subgroup C1      NOp   1
                         Standard orientation:                         
 ---------------------------------------------------------------------
 Center     Atomic      Atomic             Coordinates (Angstroms)
 Number     Number       Type             X           Y           Z
 ---------------------------------------------------------------------
      1          6           0       -1.722279   -0.361285    0.105253
      2          6           0       -0.557255    0.450516   -0.413041
      3          1           0       -2.588810   -0.291548   -0.551213
      4          1           0       -1.456370   -1.411696    0.220899
      5          1           0       -2.014180    0.017807    1.088729
      6          6           0        0.726778    0.316858    0.316991
      7          1           0       -0.808204    1.470243   -0.711836
      8          6           0        1.816135   -0.309181   -0.129440
      9          1           0        2.706858   -0.369609    0.477551
     10          1           0        1.829373   -0.768181   -1.107017
     11          1           0        0.751061    0.771536    1.304307
 ---------------------------------------------------------------------
 Rotational constants (GHZ):          24.3325959           4.2503392           4.1360447
 Standard basis: CC-pVTZ (5D, 7F)
 There are   245 symmetry adapted cartesian basis functions of A   symmetry.
 There are   218 symmetry adapted basis functions of A   symmetry.
   218 basis functions,   327 primitive gaussians,   245 cartesian basis functions
    16 alpha electrons       15 beta electrons
       nuclear repulsion energy       109.0088341037 Hartrees.
 NAtoms=   11 NActive=   11 NUniq=   11 SFac= 1.00D+00 NAtFMM=   60 NAOKFM=F Big=F
 Integral buffers will be    131072 words long.
 Raffenetti 2 integral format.
 Two-electron integral symmetry is turned on.
 Nuclear repulsion after empirical dispersion term =      109.0036575859 Hartrees.
 One-electron integrals computed using PRISM.
 NBasis=   218 RedAO= T EigKep=  5.22D-04  NBF=   218
 NBsUse=   218 1.00D-06 EigRej= -1.00D+00 NBFU=   218
 Initial guess from the checkpoint file:  "/localscratch/339542/Gau-21170.chk"
 B after Tr=     0.000000    0.000000    0.000000
         Rot=    0.970760    0.240046   -0.001830    0.000325 Ang=  27.78 deg.
 Initial guess <Sx>= 0.0000 <Sy>= 0.0000 <Sz>= 0.5000 <S**2>= 0.7548 S= 0.5024
 ExpMin= 1.03D-01 ExpMax= 8.24D+03 ExpMxC= 2.81D+02 IAcc=3 IRadAn=         5 AccDes= 0.00D+00
 Harris functional with IExCor=  419 and IRadAn=       5 diagonalized for initial guess.
 HarFok:  IExCor=  419 AccDes= 0.00D+00 IRadAn=         5 IDoV= 1 UseB2=F ITyADJ=14
 ICtDFT=  3500011 ScaDFX=  1.000000  1.000000  1.000000  1.000000
 FoFCou: FMM=F IPFlag=           0 FMFlag=      100000 FMFlg1=           0
         NFxFlg=           0 DoJE=T BraDBF=F KetDBF=T FulRan=T
         wScrn=  0.000000 ICntrl=       500 IOpCl=  0 I1Cent=   200000004 NGrid=           0
         NMat0=    1 NMatS0=      1 NMatT0=    0 NMatD0=    1 NMtDS0=    0 NMtDT0=    0
 Petite list used in FoFCou.
 Keep R1 and R2 ints in memory in canonical form, NReq=612885869.
 Requested convergence on RMS density matrix=1.00D-08 within 128 cycles.
 Requested convergence on MAX density matrix=1.00D-06.
 Requested convergence on             energy=1.00D-06.
 No special actions if energy rises.
 Integral accuracy reduced to 1.0D-05 until final iterations.
 Initial convergence to 1.0D-05 achieved.  Increase integral accuracy.
 SCF Done:  E(UB2PLYPD3) =  -156.244318147     A.U. after   15 cycles
            NFock= 15  Conv=0.32D-08     -V/T= 2.0049
 <Sx>= 0.0000 <Sy>= 0.0000 <Sz>= 0.5000 <S**2>= 0.7559 S= 0.5030
 <L.S>=  0.00000000000    
 Annihilation of the first spin contaminant:
 S**2 before annihilation     0.7559,   after     0.7500
 DoSCS=T DFT=T ScalE2(SS,OS)=  0.270000  0.270000
 ExpMin= 1.03D-01 ExpMax= 8.24D+03 ExpMxC= 2.81D+02 IAcc=3 IRadAn=         5 AccDes= 0.00D+00
 HarFok:  IExCor=  205 AccDes= 0.00D+00 IRadAn=         5 IDoV=-2 UseB2=F ITyADJ=14
 ICtDFT= 12500011 ScaDFX=  1.000000  1.000000  1.000000  1.000000
 Range of M.O.s used for correlation:     5   218
 NBasis=   218 NAE=    16 NBE=    15 NFC=     4 NFV=     0
 NROrb=    214 NOA=    12 NOB=    11 NVA=   202 NVB=   203

 **** Warning!!: The largest alpha MO coefficient is  0.11978479D+02


 **** Warning!!: The largest beta MO coefficient is  0.11975449D+02

 DoSCS=T DFT=T ScalE2(SS,OS)=  0.270000  0.270000
 Fully direct method using O(ONN) memory.
 JobTyp=2 Pass  1:  I=   5 to  16 NPSUse= 40 ParTrn=T ParDer=T DoDerP=T.
 JobTyp=3 Pass  1:  I=   5 to  15 NPSUse= 40 ParTrn=T ParDer=T DoDerP=T.
 Spin components of T(2) and E(2):
     alpha-alpha T2 =       0.4151349181D-01 E2=     -0.2600878811D-01
     alpha-beta  T2 =       0.2454840162D+00 E2=     -0.1632792215D+00
     beta-beta   T2 =       0.3561468196D-01 E2=     -0.2188504517D-01
 (S**2,0)=  0.75592D+00           (S**2,1)=  0.74781D+00
 Scaling Projection term by:   0.270000
 E(PUHF)=      -0.15624650082D+03        E(PMP2)=      -0.15645567813D+03
 E2(B2PLYPD3) =    -0.2111730548D+00 E(B2PLYPD3) =    -0.15645549120138D+03
          IDoAtm=11111111111
          Differentiating once with respect to electric field.
                with respect to dipole field.
          Differentiating once with respect to nuclear coordinates.
 Keep R1 and R2 ints in memory in canonical form, NReq=612894013.
          There are     1 degrees of freedom in the 1st order CPHF.  IDoFFX=0 NUNeed=     1.
 LinEq1:  Iter=  0 NonCon=     1 RMS=6.69D-04 Max=1.66D-02 NDo=     1
 AX will form     1 AO Fock derivatives at one time.
 LinEq1:  Iter=  1 NonCon=     1 RMS=2.36D-04 Max=2.89D-03 NDo=     1
 LinEq1:  Iter=  2 NonCon=     1 RMS=9.07D-05 Max=3.62D-03 NDo=     1
 LinEq1:  Iter=  3 NonCon=     1 RMS=5.08D-05 Max=2.88D-03 NDo=     1
 LinEq1:  Iter=  4 NonCon=     1 RMS=3.68D-05 Max=1.73D-03 NDo=     1
 LinEq1:  Iter=  5 NonCon=     1 RMS=1.32D-05 Max=2.69D-04 NDo=     1
 LinEq1:  Iter=  6 NonCon=     1 RMS=4.51D-06 Max=5.75D-05 NDo=     1
 LinEq1:  Iter=  7 NonCon=     1 RMS=1.42D-06 Max=1.47D-05 NDo=     1
 LinEq1:  Iter=  8 NonCon=     1 RMS=5.67D-07 Max=1.09D-05 NDo=     1
 LinEq1:  Iter=  9 NonCon=     1 RMS=2.28D-07 Max=2.79D-06 NDo=     1
 LinEq1:  Iter= 10 NonCon=     1 RMS=6.42D-08 Max=1.28D-06 NDo=     1
 LinEq1:  Iter= 11 NonCon=     1 RMS=1.83D-08 Max=2.10D-07 NDo=     1
 LinEq1:  Iter= 12 NonCon=     1 RMS=9.41D-09 Max=8.69D-08 NDo=     1
 LinEq1:  Iter= 13 NonCon=     1 RMS=2.48D-09 Max=3.19D-08 NDo=     1
 LinEq1:  Iter= 14 NonCon=     1 RMS=5.98D-10 Max=1.35D-08 NDo=     1
 LinEq1:  Iter= 15 NonCon=     1 RMS=1.58D-10 Max=2.16D-09 NDo=     1
 LinEq1:  Iter= 16 NonCon=     0 RMS=5.01D-11 Max=9.31D-10 NDo=     1
 Linear equations converged to 1.000D-10 1.000D-09 after    16 iterations.
 End of Minotr F.D. properties file   721 does not exist.
 End of Minotr F.D. properties file   722 does not exist.
 End of Minotr F.D. properties file   788 does not exist.
 Calling FoFJK, ICntrl=  10002127 FMM=F ISym2X=0 I1Cent= 0 IOpClX= 1 NMat=1 NMatS=1 NMatT=0.
 ***** Axes restored to original set *****
 -------------------------------------------------------------------
 Center     Atomic                   Forces (Hartrees/Bohr)
 Number     Number              X              Y              Z
 -------------------------------------------------------------------
      1        6           0.006559184    0.008828935    0.000149170
      2        6          -0.003201273   -0.016036298    0.006317162
      3        1           0.000225522   -0.000499835    0.000736716
      4        1           0.000279703   -0.000237098    0.000713770
      5        1          -0.001705474   -0.001956055   -0.000304120
      6        6          -0.002109027    0.008960884   -0.004210942
      7        1           0.001454647    0.003702908   -0.005600328
      8        6          -0.004109468   -0.001755677    0.002521600
      9        1           0.000846323    0.000596800   -0.000661475
     10        1           0.000985360    0.000140523   -0.000524122
     11        1           0.000774503   -0.001745085    0.000862570
 -------------------------------------------------------------------
 Cartesian Forces:  Max     0.016036298 RMS     0.004333762

 GradGradGradGradGradGradGradGradGradGradGradGradGradGradGradGradGradGrad
 Berny optimization.
 Using GEDIIS/GDIIS optimizer.
 FormGI is forming the generalized inverse of G from B-inverse, IUseBI=4.
 Internal  Forces:  Max     0.007449240 RMS     0.002333136
 Search for a local minimum.
 Step number   2 out of a maximum of  100
 All quantities printed in internal units (Hartrees-Bohrs-Radians)
 Mixed Optimization -- RFO/linear search
 Update second derivatives using D2CorX and points    1    2
 DE= -9.08D-03 DEPred=-1.05D-02 R= 8.66D-01
 TightC=F SS=  1.41D+00  RLast= 5.18D-01 DXNew= 5.0454D-01 1.5539D+00
 Trust test= 8.66D-01 RLast= 5.18D-01 DXMaxT set to 5.05D-01
 ITU=  1  0
 Use linear search instead of GDIIS.
     Eigenvalues ---    0.00344   0.00756   0.01932   0.02724   0.03039
     Eigenvalues ---    0.03047   0.06863   0.07210   0.13433   0.15642
     Eigenvalues ---    0.16000   0.16000   0.16000   0.16000   0.16616
     Eigenvalues ---    0.21983   0.22535   0.27409   0.31465   0.34140
     Eigenvalues ---    0.34479   0.34585   0.34613   0.36897   0.37230
     Eigenvalues ---    0.37268   0.60320
 RFO step:  Lambda=-1.77262747D-03 EMin= 3.43964333D-03
 Quartic linear search produced a step of  0.74648.
 Iteration  1 RMS(Cart)=  0.08593480 RMS(Int)=  0.01054411
 Iteration  2 RMS(Cart)=  0.00995492 RMS(Int)=  0.00870964
 Iteration  3 RMS(Cart)=  0.00003062 RMS(Int)=  0.00870956
 Iteration  4 RMS(Cart)=  0.00000049 RMS(Int)=  0.00870956
 Variable       Old X    -DE/DX   Delta X   Delta X   Delta X     New X
                                 (Linear)    (Quad)   (Total)
    R1        2.85651  -0.00745  -0.02863  -0.01606  -0.04470   2.81181
    R2        2.05857  -0.00052  -0.00333   0.00070  -0.00263   2.05594
    R3        2.05923  -0.00052  -0.00320   0.00054  -0.00265   2.05658
    R4        2.06676   0.00189   0.00110   0.00849   0.00959   2.07635
    R5        2.80263  -0.00621  -0.02492  -0.00885  -0.03377   2.76886
    R6        2.06326  -0.00352  -0.00506  -0.01297  -0.01803   2.04523
    R7        2.51974  -0.00281   0.00736  -0.01560  -0.00824   2.51150
    R8        2.05461   0.00194   0.02433  -0.01516   0.00917   2.06378
    R9        2.04010   0.00033   0.01350  -0.01191   0.00159   2.04169
   R10        2.04100   0.00043   0.01418  -0.01214   0.00204   2.04304
    A1        1.95204  -0.00043   0.00921  -0.01379  -0.00470   1.94733
    A2        1.94550  -0.00073   0.01188  -0.02018  -0.00837   1.93713
    A3        1.90485   0.00263  -0.02303   0.05179   0.02881   1.93367
    A4        1.89628   0.00059   0.00359   0.00251   0.00587   1.90216
    A5        1.88326  -0.00109  -0.00032  -0.01056  -0.01088   1.87238
    A6        1.87949  -0.00103  -0.00171  -0.00963  -0.01125   1.86824
    A7        2.03768   0.00426   0.06392   0.00250   0.03635   2.07403
    A8        2.00234   0.00007   0.07322   0.01674   0.05853   2.06087
    A9        2.00190  -0.00048   0.07130   0.02584   0.06539   2.06729
   A10        2.19548  -0.00037   0.01213  -0.01498  -0.00288   2.19259
   A11        2.01378   0.00099  -0.02851   0.03845   0.00991   2.02369
   A12        2.07389  -0.00062   0.01635  -0.02351  -0.00719   2.06669
   A13        2.10843   0.00089   0.01047  -0.00062   0.00985   2.11828
   A14        2.10899   0.00061   0.01090  -0.00409   0.00680   2.11579
   A15        2.06576  -0.00151  -0.02137   0.00471  -0.01666   2.04910
    D1       -3.02908   0.00227   0.10453   0.00839   0.11505  -2.91403
    D2        0.83934  -0.00238  -0.12222  -0.05968  -0.18420   0.65513
    D3       -0.90223   0.00220   0.12366  -0.01265   0.11335  -0.78887
    D4        2.96619  -0.00244  -0.10309  -0.08072  -0.18590   2.78029
    D5        1.17159   0.00217   0.11422  -0.00378   0.11263   1.28422
    D6       -1.24318  -0.00247  -0.11252  -0.07185  -0.18662  -1.42981
    D7        1.89258  -0.00262  -0.12244  -0.05308  -0.17818   1.71441
    D8       -1.23941  -0.00248  -0.11527  -0.04756  -0.16554  -1.40495
    D9       -1.97565   0.00225   0.10536   0.01125   0.11932  -1.85633
   D10        1.17554   0.00239   0.11253   0.01677   0.13195   1.30750
   D11       -3.12679  -0.00002  -0.00307   0.00397   0.00093  -3.12586
   D12        0.01492   0.00007  -0.00298   0.00874   0.00579   0.02071
   D13        0.00490  -0.00016  -0.01046  -0.00141  -0.01190  -0.00700
   D14       -3.13658  -0.00007  -0.01037   0.00336  -0.00704   3.13957
         Item               Value     Threshold  Converged?
 Maximum Force            0.007449     0.000450     NO 
 RMS     Force            0.002333     0.000300     NO 
 Maximum Displacement     0.216585     0.001800     NO 
 RMS     Displacement     0.087713     0.001200     NO 
 Predicted change in Energy=-1.068143D-03
 GradGradGradGradGradGradGradGradGradGradGradGradGradGradGradGradGradGrad

                          Input orientation:                          
 ---------------------------------------------------------------------
 Center     Atomic      Atomic             Coordinates (Angstroms)
 Number     Number       Type             X           Y           Z
 ---------------------------------------------------------------------
      1          6           0       -1.683201   -0.253023   -0.309912
      2          6           0       -0.561954    0.333316    0.473026
      3          1           0       -2.515829    0.441682   -0.398034
      4          1           0       -1.354360   -0.539834   -1.306902
      5          1           0       -2.065727   -1.160901    0.176605
      6          6           0        0.741602   -0.335319    0.449835
      7          1           0       -0.805791    0.958222    1.322372
      8          6           0        1.773056    0.005683   -0.315761
      9          1           0        2.701337   -0.546392   -0.287318
     10          1           0        1.716720    0.850146   -0.988483
     11          1           0        0.848121   -1.197788    1.111268
 ---------------------------------------------------------------------
                    Distance matrix (angstroms):
                    1          2          3          4          5
     1  C    0.000000
     2  C    1.487946   0.000000
     3  H    1.087957   2.141990   0.000000
     4  H    1.088295   2.135051   1.771561   0.000000
     5  H    1.098757   2.140534   1.760986   1.758567   0.000000
     6  C    2.542373   1.465220   3.454486   2.742446   2.938935
     7  H    2.213891   1.082290   2.480089   3.075416   2.718621
     8  C    3.465931   2.486322   4.311775   3.325760   4.042227
     9  H    4.394399   3.464256   5.311061   4.181897   4.828845
    10  H    3.638256   2.755989   4.293012   3.385996   4.439442
    11  H    3.052856   2.177141   4.035098   3.336371   3.060306
                    6          7          8          9         10
     6  C    0.000000
     7  H    2.197498   0.000000
     8  C    1.329028   3.200197   0.000000
     9  H    2.104401   4.141849   1.080417   0.000000
    10  H    2.103554   3.422688   1.081132   1.847003   0.000000
    11  H    1.092105   2.725504   2.083329   2.411383   3.058996
                   11
    11  H    0.000000
 Stoichiometry    C4H7(2)
 Framework group  C1[X(C4H7)]
 Deg. of freedom    27
 Full point group                 C1      NOp   1
 Largest Abelian subgroup         C1      NOp   1
 Largest concise Abelian subgroup C1      NOp   1
                         Standard orientation:                         
 ---------------------------------------------------------------------
 Center     Atomic      Atomic             Coordinates (Angstroms)
 Number     Number       Type             X           Y           Z
 ---------------------------------------------------------------------
      1          6           0       -1.688280   -0.366135    0.134916
      2          6           0       -0.565028    0.455219   -0.392023
      3          1           0       -2.518190   -0.406473   -0.567418
      4          1           0       -1.360228   -1.380422    0.353982
      5          1           0       -2.074468    0.056981    1.072519
      6          6           0        0.735942    0.386321    0.278498
      7          1           0       -0.806723    1.345391   -0.958177
      8          6           0        1.768952   -0.354040   -0.110182
      9          1           0        2.695084   -0.363457    0.446138
     10          1           0        1.716096   -0.967294   -0.998986
     11          1           0        0.838915    0.987082    1.184686
 ---------------------------------------------------------------------
 Rotational constants (GHZ):          23.3501189           4.4124269           4.2224815
 Standard basis: CC-pVTZ (5D, 7F)
 There are   245 symmetry adapted cartesian basis functions of A   symmetry.
 There are   218 symmetry adapted basis functions of A   symmetry.
   218 basis functions,   327 primitive gaussians,   245 cartesian basis functions
    16 alpha electrons       15 beta electrons
       nuclear repulsion energy       109.7274682758 Hartrees.
 NAtoms=   11 NActive=   11 NUniq=   11 SFac= 1.00D+00 NAtFMM=   60 NAOKFM=F Big=F
 Integral buffers will be    131072 words long.
 Raffenetti 2 integral format.
 Two-electron integral symmetry is turned on.
 Nuclear repulsion after empirical dispersion term =      109.7222604986 Hartrees.
 One-electron integrals computed using PRISM.
 NBasis=   218 RedAO= T EigKep=  5.01D-04  NBF=   218
 NBsUse=   218 1.00D-06 EigRej= -1.00D+00 NBFU=   218
 Initial guess from the checkpoint file:  "/localscratch/339542/Gau-21170.chk"
 B after Tr=     0.000000   -0.000000   -0.000000
         Rot=    0.998599    0.052817   -0.003278    0.000517 Ang=   6.07 deg.
 Initial guess <Sx>= 0.0000 <Sy>= 0.0000 <Sz>= 0.5000 <S**2>= 0.7559 S= 0.5029
 ExpMin= 1.03D-01 ExpMax= 8.24D+03 ExpMxC= 2.81D+02 IAcc=3 IRadAn=         5 AccDes= 0.00D+00
 Harris functional with IExCor=  419 and IRadAn=       5 diagonalized for initial guess.
 HarFok:  IExCor=  419 AccDes= 0.00D+00 IRadAn=         5 IDoV= 1 UseB2=F ITyADJ=14
 ICtDFT=  3500011 ScaDFX=  1.000000  1.000000  1.000000  1.000000
 FoFCou: FMM=F IPFlag=           0 FMFlag=      100000 FMFlg1=           0
         NFxFlg=           0 DoJE=T BraDBF=F KetDBF=T FulRan=T
         wScrn=  0.000000 ICntrl=       500 IOpCl=  0 I1Cent=   200000004 NGrid=           0
         NMat0=    1 NMatS0=      1 NMatT0=    0 NMatD0=    1 NMtDS0=    0 NMtDT0=    0
 Petite list used in FoFCou.
 Keep R1 and R2 ints in memory in canonical form, NReq=612885869.
 Requested convergence on RMS density matrix=1.00D-08 within 128 cycles.
 Requested convergence on MAX density matrix=1.00D-06.
 Requested convergence on             energy=1.00D-06.
 No special actions if energy rises.
 Integral accuracy reduced to 1.0D-05 until final iterations.
 Initial convergence to 1.0D-05 achieved.  Increase integral accuracy.
 SCF Done:  E(UB2PLYPD3) =  -156.246667637     A.U. after   15 cycles
            NFock= 15  Conv=0.46D-08     -V/T= 2.0044
 <Sx>= 0.0000 <Sy>= 0.0000 <Sz>= 0.5000 <S**2>= 0.7569 S= 0.5034
 <L.S>=  0.00000000000    
 Annihilation of the first spin contaminant:
 S**2 before annihilation     0.7569,   after     0.7500
 DoSCS=T DFT=T ScalE2(SS,OS)=  0.270000  0.270000
 ExpMin= 1.03D-01 ExpMax= 8.24D+03 ExpMxC= 2.81D+02 IAcc=3 IRadAn=         5 AccDes= 0.00D+00
 HarFok:  IExCor=  205 AccDes= 0.00D+00 IRadAn=         5 IDoV=-2 UseB2=F ITyADJ=14
 ICtDFT= 12500011 ScaDFX=  1.000000  1.000000  1.000000  1.000000
 Range of M.O.s used for correlation:     5   218
 NBasis=   218 NAE=    16 NBE=    15 NFC=     4 NFV=     0
 NROrb=    214 NOA=    12 NOB=    11 NVA=   202 NVB=   203

 **** Warning!!: The largest alpha MO coefficient is  0.11794371D+02


 **** Warning!!: The largest beta MO coefficient is  0.11788986D+02

 DoSCS=T DFT=T ScalE2(SS,OS)=  0.270000  0.270000
 Fully direct method using O(ONN) memory.
 JobTyp=2 Pass  1:  I=   5 to  16 NPSUse= 40 ParTrn=T ParDer=T DoDerP=T.
 JobTyp=3 Pass  1:  I=   5 to  15 NPSUse= 40 ParTrn=T ParDer=T DoDerP=T.
 Spin components of T(2) and E(2):
     alpha-alpha T2 =       0.4144700790D-01 E2=     -0.2609924669D-01
     alpha-beta  T2 =       0.2441439033D+00 E2=     -0.1632034555D+00
     beta-beta   T2 =       0.3545298367D-01 E2=     -0.2188717167D-01
 (S**2,0)=  0.75691D+00           (S**2,1)=  0.74757D+00
 Scaling Projection term by:   0.270000
 E(PUHF)=      -0.15624915853D+03        E(PMP2)=      -0.15645807682D+03
 E2(B2PLYPD3) =    -0.2111898739D+00 E(B2PLYPD3) =    -0.15645785751126D+03
          IDoAtm=11111111111
          Differentiating once with respect to electric field.
                with respect to dipole field.
          Differentiating once with respect to nuclear coordinates.
 Keep R1 and R2 ints in memory in canonical form, NReq=612894013.
          There are     1 degrees of freedom in the 1st order CPHF.  IDoFFX=0 NUNeed=     1.
 LinEq1:  Iter=  0 NonCon=     1 RMS=6.69D-04 Max=1.43D-02 NDo=     1
 AX will form     1 AO Fock derivatives at one time.
 LinEq1:  Iter=  1 NonCon=     1 RMS=2.38D-04 Max=3.37D-03 NDo=     1
 LinEq1:  Iter=  2 NonCon=     1 RMS=9.76D-05 Max=4.10D-03 NDo=     1
 LinEq1:  Iter=  3 NonCon=     1 RMS=5.35D-05 Max=3.01D-03 NDo=     1
 LinEq1:  Iter=  4 NonCon=     1 RMS=3.85D-05 Max=1.74D-03 NDo=     1
 LinEq1:  Iter=  5 NonCon=     1 RMS=1.36D-05 Max=2.50D-04 NDo=     1
 LinEq1:  Iter=  6 NonCon=     1 RMS=4.58D-06 Max=5.21D-05 NDo=     1
 LinEq1:  Iter=  7 NonCon=     1 RMS=1.36D-06 Max=1.79D-05 NDo=     1
 LinEq1:  Iter=  8 NonCon=     1 RMS=5.12D-07 Max=8.59D-06 NDo=     1
 LinEq1:  Iter=  9 NonCon=     1 RMS=2.14D-07 Max=2.62D-06 NDo=     1
 LinEq1:  Iter= 10 NonCon=     1 RMS=6.33D-08 Max=1.12D-06 NDo=     1
 LinEq1:  Iter= 11 NonCon=     1 RMS=1.79D-08 Max=2.54D-07 NDo=     1
 LinEq1:  Iter= 12 NonCon=     1 RMS=9.15D-09 Max=8.43D-08 NDo=     1
 LinEq1:  Iter= 13 NonCon=     1 RMS=2.41D-09 Max=3.07D-08 NDo=     1
 LinEq1:  Iter= 14 NonCon=     1 RMS=5.69D-10 Max=1.35D-08 NDo=     1
 LinEq1:  Iter= 15 NonCon=     1 RMS=1.26D-10 Max=1.46D-09 NDo=     1
 LinEq1:  Iter= 16 NonCon=     0 RMS=3.85D-11 Max=6.53D-10 NDo=     1
 Linear equations converged to 1.000D-10 1.000D-09 after    16 iterations.
 End of Minotr F.D. properties file   721 does not exist.
 End of Minotr F.D. properties file   722 does not exist.
 End of Minotr F.D. properties file   788 does not exist.
 Calling FoFJK, ICntrl=  10002127 FMM=F ISym2X=0 I1Cent= 0 IOpClX= 1 NMat=1 NMatS=1 NMatT=0.
 ***** Axes restored to original set *****
 -------------------------------------------------------------------
 Center     Atomic                   Forces (Hartrees/Bohr)
 Number     Number              X              Y              Z
 -------------------------------------------------------------------
      1        6          -0.001730929    0.001293504    0.000669315
      2        6          -0.000406778   -0.001848234   -0.000229896
      3        1          -0.000961716   -0.000117807   -0.000261445
      4        1          -0.000195912   -0.000450101   -0.000908140
      5        1          -0.000446659   -0.000051774   -0.001020643
      6        6          -0.000154165   -0.000945072    0.003785972
      7        1           0.000587880    0.000949295   -0.000004312
      8        6           0.002076463    0.000551615   -0.001583364
      9        1          -0.000140238   -0.000217392   -0.000146241
     10        1           0.000047156    0.000172256    0.000080000
     11        1           0.001324899    0.000663711   -0.000381246
 -------------------------------------------------------------------
 Cartesian Forces:  Max     0.003785972 RMS     0.001075293

 GradGradGradGradGradGradGradGradGradGradGradGradGradGradGradGradGradGrad
 Berny optimization.
 Using GEDIIS/GDIIS optimizer.
 FormGI is forming the generalized inverse of G from B-inverse, IUseBI=4.
 Internal  Forces:  Max     0.004120467 RMS     0.001248155
 Search for a local minimum.
 Step number   3 out of a maximum of  100
 All quantities printed in internal units (Hartrees-Bohrs-Radians)
 Mixed Optimization -- RFO/linear search
 Update second derivatives using D2CorX and points    2    3
 DE= -2.37D-03 DEPred=-1.07D-03 R= 2.22D+00
 TightC=F SS=  1.41D+00  RLast= 4.98D-01 DXNew= 8.4853D-01 1.4929D+00
 Trust test= 2.22D+00 RLast= 4.98D-01 DXMaxT set to 8.49D-01
 ITU=  1  1  0
 Use linear search instead of GDIIS.
     Eigenvalues ---    0.00340   0.00735   0.01333   0.01923   0.03040
     Eigenvalues ---    0.03047   0.06884   0.07058   0.14966   0.15556
     Eigenvalues ---    0.15999   0.16000   0.16000   0.16096   0.16638
     Eigenvalues ---    0.22015   0.22133   0.29068   0.31813   0.34162
     Eigenvalues ---    0.34505   0.34600   0.34622   0.36963   0.37230
     Eigenvalues ---    0.37377   0.61162
 RFO step:  Lambda=-4.89581014D-04 EMin= 3.39877319D-03
 Quartic linear search produced a step of  0.17311.
 Iteration  1 RMS(Cart)=  0.04893417 RMS(Int)=  0.00168624
 Iteration  2 RMS(Cart)=  0.00175754 RMS(Int)=  0.00116760
 Iteration  3 RMS(Cart)=  0.00000124 RMS(Int)=  0.00116760
 Iteration  4 RMS(Cart)=  0.00000000 RMS(Int)=  0.00116760
 Variable       Old X    -DE/DX   Delta X   Delta X   Delta X     New X
                                 (Linear)    (Quad)   (Total)
    R1        2.81181   0.00305  -0.00774   0.01466   0.00692   2.81873
    R2        2.05594   0.00068  -0.00046   0.00259   0.00214   2.05808
    R3        2.05658   0.00089  -0.00046   0.00330   0.00284   2.05942
    R4        2.07635  -0.00025   0.00166  -0.00099   0.00067   2.07702
    R5        2.76886   0.00268  -0.00585   0.01182   0.00597   2.77484
    R6        2.04523   0.00041  -0.00312   0.00188  -0.00125   2.04399
    R7        2.51150   0.00262  -0.00143   0.00464   0.00322   2.51472
    R8        2.06378  -0.00063   0.00159  -0.00388  -0.00230   2.06148
    R9        2.04169  -0.00001   0.00028  -0.00108  -0.00081   2.04089
   R10        2.04304   0.00008   0.00035  -0.00083  -0.00048   2.04257
    A1        1.94733   0.00069  -0.00081   0.00483   0.00398   1.95131
    A2        1.93713   0.00029  -0.00145   0.00067  -0.00078   1.93635
    A3        1.93367   0.00125   0.00499   0.01106   0.01602   1.94968
    A4        1.90216  -0.00056   0.00102  -0.00462  -0.00361   1.89855
    A5        1.87238  -0.00088  -0.00188  -0.00538  -0.00732   1.86507
    A6        1.86824  -0.00091  -0.00195  -0.00742  -0.00937   1.85887
    A7        2.07403   0.00412   0.00629   0.02141   0.02360   2.09762
    A8        2.06087  -0.00109   0.01013   0.00274   0.00869   2.06956
    A9        2.06729  -0.00244   0.01132  -0.00590   0.00115   2.06844
   A10        2.19259  -0.00071  -0.00050  -0.00473  -0.00524   2.18736
   A11        2.02369   0.00168   0.00172   0.01384   0.01555   2.03924
   A12        2.06669  -0.00097  -0.00124  -0.00906  -0.01031   2.05639
   A13        2.11828  -0.00011   0.00171  -0.00163   0.00008   2.11836
   A14        2.11579   0.00005   0.00118  -0.00050   0.00068   2.11647
   A15        2.04910   0.00007  -0.00288   0.00214  -0.00075   2.04835
    D1       -2.91403   0.00036   0.01992  -0.02148  -0.00126  -2.91528
    D2        0.65513  -0.00049  -0.03189  -0.06555  -0.09770   0.55743
    D3       -0.78887   0.00033   0.01962  -0.02357  -0.00366  -0.79253
    D4        2.78029  -0.00052  -0.03218  -0.06764  -0.10011   2.68018
    D5        1.28422   0.00018   0.01950  -0.02527  -0.00551   1.27871
    D6       -1.42981  -0.00067  -0.03231  -0.06934  -0.10196  -1.53176
    D7        1.71441  -0.00086  -0.03084  -0.06311  -0.09414   1.62027
    D8       -1.40495  -0.00088  -0.02866  -0.06542  -0.09425  -1.49920
    D9       -1.85633   0.00034   0.02066  -0.01673   0.00409  -1.85223
   D10        1.30750   0.00031   0.02284  -0.01903   0.00399   1.31149
   D11       -3.12586   0.00022   0.00016   0.00861   0.00877  -3.11709
   D12        0.02071   0.00013   0.00100   0.00513   0.00612   0.02683
   D13       -0.00700   0.00027  -0.00206   0.01123   0.00917   0.00218
   D14        3.13957   0.00018  -0.00122   0.00774   0.00653  -3.13709
         Item               Value     Threshold  Converged?
 Maximum Force            0.004120     0.000450     NO 
 RMS     Force            0.001248     0.000300     NO 
 Maximum Displacement     0.128232     0.001800     NO 
 RMS     Displacement     0.048849     0.001200     NO 
 Predicted change in Energy=-2.632197D-04
 GradGradGradGradGradGradGradGradGradGradGradGradGradGradGradGradGradGrad

                          Input orientation:                          
 ---------------------------------------------------------------------
 Center     Atomic      Atomic             Coordinates (Angstroms)
 Number     Number       Type             X           Y           Z
 ---------------------------------------------------------------------
      1          6           0       -1.682559   -0.247457   -0.317343
      2          6           0       -0.566070    0.305203    0.502967
      3          1           0       -2.518502    0.447500   -0.383283
      4          1           0       -1.344256   -0.485965   -1.325474
      5          1           0       -2.076762   -1.180785    0.108747
      6          6           0        0.753276   -0.339080    0.483799
      7          1           0       -0.805881    0.966432    1.324667
      8          6           0        1.759723   -0.007850   -0.321307
      9          1           0        2.698585   -0.541043   -0.296338
     10          1           0        1.670095    0.807616   -1.025070
     11          1           0        0.906323   -1.168779    1.175331
 ---------------------------------------------------------------------
                    Distance matrix (angstroms):
                    1          2          3          4          5
     1  C    0.000000
     2  C    1.491607   0.000000
     3  H    1.089089   2.148878   0.000000
     4  H    1.089800   2.138859   1.771422   0.000000
     5  H    1.099113   2.155402   1.757424   1.753948   0.000000
     6  C    2.565836   1.468380   3.474920   2.773929   2.976281
     7  H    2.222227   1.081631   2.473753   3.069618   2.775633
     8  C    3.450614   2.487316   4.302836   3.297216   4.034767
     9  H    4.391021   3.465976   5.310628   4.172136   4.835009
    10  H    3.585296   2.754587   4.252754   3.293919   4.390697
    11  H    3.127175   2.189210   4.095249   3.432983   3.168051
                    6          7          8          9         10
     6  C    0.000000
     7  H    2.200543   0.000000
     8  C    1.330731   3.200122   0.000000
     9  H    2.105619   4.145048   1.079991   0.000000
    10  H    2.105268   3.417155   1.080879   1.846002   0.000000
    11  H    1.090891   2.740999   2.077492   2.402512   3.054710
                   11
    11  H    0.000000
 Stoichiometry    C4H7(2)
 Framework group  C1[X(C4H7)]
 Deg. of freedom    27
 Full point group                 C1      NOp   1
 Largest Abelian subgroup         C1      NOp   1
 Largest concise Abelian subgroup C1      NOp   1
                         Standard orientation:                         
 ---------------------------------------------------------------------
 Center     Atomic      Atomic             Coordinates (Angstroms)
 Number     Number       Type             X           Y           Z
 ---------------------------------------------------------------------
      1          6           0       -1.687942   -0.368508    0.142017
      2          6           0       -0.568182    0.468622   -0.377831
[...]
 Linear search not attempted -- first point.
 Iteration  1 RMS(Cart)=  0.00032268 RMS(Int)=  0.00000008
 Iteration  2 RMS(Cart)=  0.00000008 RMS(Int)=  0.00000000
 Variable       Old X    -DE/DX   Delta X   Delta X   Delta X     New X
                                 (Linear)    (Quad)   (Total)
    R1        2.81636  -0.00000   0.00000  -0.00001  -0.00001   2.81634
    R2        2.06427   0.00000   0.00000   0.00001   0.00001   2.06428
    R3        2.05306  -0.00000   0.00000  -0.00000  -0.00000   2.05306
    R4        2.06429  -0.00000   0.00000  -0.00001  -0.00001   2.06428
    R5        2.61618   0.00000   0.00000  -0.00001  -0.00001   2.61617
    R6        2.04434   0.00000   0.00000   0.00001   0.00001   2.04435
    R7        2.60497   0.00001   0.00000   0.00002   0.00002   2.60499
    R8        2.04785  -0.00000   0.00000  -0.00001  -0.00001   2.04784
    R9        2.03747  -0.00000   0.00000  -0.00000  -0.00000   2.03746
   R10        2.03864  -0.00000   0.00000  -0.00000  -0.00000   2.03864
    A1        1.93477  -0.00000   0.00000  -0.00001  -0.00001   1.93476
    A2        1.96561   0.00000   0.00000   0.00004   0.00004   1.96565
    A3        1.93479  -0.00000   0.00000  -0.00003  -0.00003   1.93476
    A4        1.88313  -0.00000   0.00000  -0.00002  -0.00002   1.88311
    A5        1.85813   0.00000   0.00000   0.00000   0.00000   1.85813
    A6        1.88310  -0.00000   0.00000   0.00001   0.00001   1.88311
    A7        2.19762   0.00001   0.00000   0.00005   0.00005   2.19767
    A8        2.03394  -0.00001   0.00000  -0.00005  -0.00005   2.03389
    A9        2.05162  -0.00000   0.00000  -0.00000  -0.00000   2.05162
   A10        2.21667  -0.00000   0.00000  -0.00001  -0.00001   2.21665
   A11        2.02735   0.00000   0.00000   0.00001   0.00001   2.02736
   A12        2.03917  -0.00000   0.00000   0.00001   0.00001   2.03918
   A13        2.10523   0.00000   0.00000   0.00001   0.00001   2.10524
   A14        2.13346  -0.00000   0.00000  -0.00001  -0.00001   2.13344
   A15        2.04449   0.00000   0.00000   0.00001   0.00001   2.04450
    D1       -2.11244  -0.00000   0.00000   0.00065   0.00065  -2.11179
    D2        1.02924  -0.00000   0.00000   0.00057   0.00057   1.02981
    D3       -0.00067  -0.00000   0.00000   0.00064   0.00064  -0.00003
    D4        3.14100  -0.00000   0.00000   0.00056   0.00056   3.14156
    D5        2.11106   0.00000   0.00000   0.00066   0.00066   2.11172
    D6       -1.03045   0.00000   0.00000   0.00058   0.00058  -1.02987
    D7       -0.00003   0.00000   0.00000   0.00003   0.00003   0.00000
    D8        3.14158   0.00000   0.00000   0.00001   0.00001  -3.14159
    D9        3.14148   0.00000   0.00000   0.00011   0.00011   3.14159
   D10       -0.00010   0.00000   0.00000   0.00009   0.00009  -0.00000
   D11       -3.14155  -0.00000   0.00000  -0.00005  -0.00005   3.14159
   D12        0.00004  -0.00000   0.00000  -0.00004  -0.00004  -0.00000
   D13        0.00003  -0.00000   0.00000  -0.00003  -0.00003  -0.00000
   D14       -3.14157  -0.00000   0.00000  -0.00002  -0.00002   3.14159
         Item               Value     Threshold  Converged?
 Maximum Force            0.000009     0.000450     YES
 RMS     Force            0.000002     0.000300     YES
 Maximum Displacement     0.001088     0.001800     YES
 RMS     Displacement     0.000323     0.001200     YES
 Predicted change in Energy=-8.855646D-10
 Optimization completed.
    -- Stationary point found.
                           ----------------------------
                           !   Optimized Parameters   !
                           ! (Angstroms and Degrees)  !
 --------------------------                            --------------------------
 ! Name  Definition              Value          Derivative Info.                !
 --------------------------------------------------------------------------------
 ! R1    R(1,2)                  1.4904         -DE/DX =    0.0                 !
 ! R2    R(1,3)                  1.0924         -DE/DX =    0.0                 !
 ! R3    R(1,4)                  1.0864         -DE/DX =    0.0                 !
 ! R4    R(1,5)                  1.0924         -DE/DX =    0.0                 !
 ! R5    R(2,6)                  1.3844         -DE/DX =    0.0                 !
 ! R6    R(2,7)                  1.0818         -DE/DX =    0.0                 !
 ! R7    R(6,8)                  1.3785         -DE/DX =    0.0                 !
 ! R8    R(6,11)                 1.0837         -DE/DX =    0.0                 !
 ! R9    R(8,9)                  1.0782         -DE/DX =    0.0                 !
 ! R10   R(8,10)                 1.0788         -DE/DX =    0.0                 !
 ! A1    A(2,1,3)              110.8541         -DE/DX =    0.0                 !
 ! A2    A(2,1,4)              112.6211         -DE/DX =    0.0                 !
 ! A3    A(2,1,5)              110.8551         -DE/DX =    0.0                 !
 ! A4    A(3,1,4)              107.8954         -DE/DX =    0.0                 !
 ! A5    A(3,1,5)              106.4629         -DE/DX =    0.0                 !
 ! A6    A(4,1,5)              107.8936         -DE/DX =    0.0                 !
 ! A7    A(1,2,6)              125.9145         -DE/DX =    0.0                 !
 ! A8    A(1,2,7)              116.5361         -DE/DX =    0.0                 !
 ! A9    A(6,2,7)              117.5494         -DE/DX =    0.0                 !
 ! A10   A(2,6,8)              127.0057         -DE/DX =    0.0                 !
 ! A11   A(2,6,11)             116.1584         -DE/DX =    0.0                 !
 ! A12   A(8,6,11)             116.8359         -DE/DX =    0.0                 !
 ! A13   A(6,8,9)              120.6211         -DE/DX =    0.0                 !
 ! A14   A(6,8,10)             122.238          -DE/DX =    0.0                 !
 ! A15   A(9,8,10)             117.1409         -DE/DX =    0.0                 !
 ! D1    D(3,1,2,6)           -121.0336         -DE/DX =    0.0                 !
 ! D2    D(3,1,2,7)             58.9711         -DE/DX =    0.0                 !
 ! D3    D(4,1,2,6)             -0.0386         -DE/DX =    0.0                 !
 ! D4    D(4,1,2,7)            179.9662         -DE/DX =    0.0                 !
 ! D5    D(5,1,2,6)            120.9548         -DE/DX =    0.0                 !
 ! D6    D(5,1,2,7)            -59.0404         -DE/DX =    0.0                 !
 ! D7    D(1,2,6,8)             -0.0019         -DE/DX =    0.0                 !
 ! D8    D(1,2,6,11)          -180.0008         -DE/DX =    0.0                 !
 ! D9    D(7,2,6,8)            179.9933         -DE/DX =    0.0                 !
 ! D10   D(7,2,6,11)            -0.0056         -DE/DX =    0.0                 !
 ! D11   D(2,6,8,9)            180.0026         -DE/DX =    0.0                 !
 ! D12   D(2,6,8,10)             0.0022         -DE/DX =    0.0                 !
 ! D13   D(11,6,8,9)             0.0015         -DE/DX =    0.0                 !
 ! D14   D(11,6,8,10)          180.001          -DE/DX =    0.0                 !
 --------------------------------------------------------------------------------
 GradGradGradGradGradGradGradGradGradGradGradGradGradGradGradGradGradGrad


 ----------------------------------------------------------------------

 Electric dipole moment (input orientation):
 (Debye = 10**-18 statcoulomb cm , SI units = C m)
                  (au)            (Debye)         (10**-30 SI)
   Tot        0.179533D+00      0.456327D+00      0.152214D+01
   x         -0.179420D+00     -0.456039D+00     -0.152118D+01
   y          0.637144D-02      0.161946D-01      0.540193D-01
   z         -0.158625D-03     -0.403185D-03     -0.134488D-02

 Dipole polarizability, Alpha (input orientation).
 (esu units = cm**3 , SI units = C**2 m**2 J**-1)
 Alpha(0;0):
               (au)            (10**-24 esu)      (10**-40 SI)
   iso        0.490907D+02      0.727450D+01      0.809397D+01
   aniso      0.322467D+02      0.477847D+01      0.531677D+01
   xx         0.672341D+02      0.996306D+01      0.110854D+02
   yx        -0.142460D+01     -0.211103D+00     -0.234884D+00
   yy         0.317791D+02      0.470918D+01      0.523967D+01
   zx        -0.541898D+01     -0.803010D+00     -0.893470D+00
   zy         0.663644D+00      0.983419D-01      0.109420D+00
   zz         0.482590D+02      0.715125D+01      0.795684D+01

 ----------------------------------------------------------------------

 Dipole orientation:
     6         -0.81547647         -0.24829082          2.88782560
     6          1.39692119         -0.26459573          1.14515522
     1         -0.76553942          1.40462341          4.12337185
     1         -2.60840933         -0.23439918          1.88769981
     1         -0.79070446         -1.90249906          4.12243484
     6          1.29139441         -0.26448757         -1.46889510
     1          3.24607708         -0.27779755          2.01681210
     6         -0.85036759         -0.24955927         -2.95162508
     1         -0.70566256         -0.25117465         -4.98394609
     1         -2.72594900         -0.23590294         -2.15283800
     1          3.09153801         -0.27762033         -2.44510362

 Electric dipole moment (dipole orientation):
 (Debye = 10**-18 statcoulomb cm , SI units = C m)
                  (au)            (Debye)         (10**-30 SI)
   Tot        0.179533D+00      0.456327D+00      0.152214D+01
   x          0.000000D+00      0.000000D+00      0.000000D+00
   y          0.000000D+00      0.000000D+00      0.000000D+00
   z          0.179533D+00      0.456327D+00      0.152214D+01

 Dipole polarizability, Alpha (dipole orientation).
 (esu units = cm**3 , SI units = C**2 m**2 J**-1)
 Alpha(0;0):
               (au)            (10**-24 esu)      (10**-40 SI)
   iso        0.490907D+02      0.727450D+01      0.809397D+01
   aniso      0.322467D+02      0.477847D+01      0.531677D+01
   xx         0.482812D+02      0.715454D+01      0.796050D+01
   yx        -0.116959D+00     -0.173315D-01     -0.192839D-01
   yy         0.317101D+02      0.469896D+01      0.522830D+01
   zx         0.545828D+01      0.808834D+00      0.899949D+00
   zy        -0.306055D-01     -0.453527D-02     -0.504617D-02
   zz         0.672808D+02      0.996999D+01      0.110931D+02

 ----------------------------------------------------------------------
 1\1\GINC-N68\Freq\UB2PLYPD3-FC\CC-pVTZ\C4H7(2)\ROOT\31-May-2019\0\\#N 
 Geom=AllCheck Guess=TCheck SCRF=Check GenChk UB2PLYPD3(FC)/CC-pVTZ Fre
 q\\Title Card Required\\0,2\C,-1.5320350351,-0.0923094666,-0.427946873
 2\C,-0.6102997189,-0.0920947839,0.7431865924\H,-2.1543863381,0.8054140
 284,-0.4331573237\H,-1.0032216251,-0.1374296551,-1.3759213188\H,-2.216
 0191948,-0.9429240454,-0.3843576339\C,0.7721051932,-0.1431116702,0.688
 5995937\H,-1.0711489785,-0.0479665283,1.7209413417\C,1.5560906374,-0.2
 0329992,-0.4436447611\H,2.6308692458,-0.2396023252,-0.3661378743\H,1.1
 335394738,-0.2163134913,-1.4361640338\H,1.2884793502,-0.1345704325,1.6
 412971808\\Version=ES64L-G16RevB.01\State=2-A\HF=-156.2722228\MP2=-156
 .482477\PUHF=-156.2823204\PMP2-0=-156.4840373\S2=0.824559\S2-1=0.76030
 2\S2A=0.750939\RMSD=1.417e-09\RMSF=3.354e-06\ZeroPoint=0.0949683\Therm
 al=0.1003245\Dipole=-0.1794197,0.0063714,-0.0001586\DipoleDeriv=-0.088
 5038,0.0073927,-0.0363709,0.007862,0.1465112,-0.0034109,-0.0111822,-0.
 0043251,-0.0197463,0.2293438,-0.0161072,-0.0192255,-0.0119043,-0.20512
 89,0.0108059,0.1231387,0.0057386,0.1523399,-0.0221404,0.0802501,-0.020
 4195,0.1192416,-0.0582511,0.0106084,-0.0766173,-0.0150428,0.0596216,0.
 0123352,0.0046452,0.100584,0.0023651,0.0644577,-0.0075887,0.0170138,-0
 .0046163,-0.0796116,-0.0365736,-0.0827584,-0.0163337,-0.1247918,-0.043
 0839,-0.0031632,-0.0684014,0.0263677,0.0588261,-0.035926,-0.0011473,0.
 0786784,-0.0031016,-0.130255,0.0015799,0.0109414,0.0039971,0.024153,-0
 .0118919,0.0055183,0.0267297,0.0057673,0.1207011,-0.0074787,0.0359389,
 -0.0078068,-0.1096407,0.0274188,-0.0111215,0.0279983,-0.0087746,-0.304
 5091,0.0081668,0.1102313,0.0052313,0.018352,-0.0826479,0.0081929,0.007
 9377,0.0069608,0.1395108,-0.0029333,-0.0356242,-0.0013743,0.0464052,0.
 014202,0.00218,-0.0774699,0.0034862,0.1362385,-0.0029086,-0.0312357,-0
 .0045599,-0.0638095,-0.0056162,0.0029553,-0.0721085,0.0028892,0.133808
 6,-0.0036777,-0.0742031,-0.0036096,-0.0868896\Polar=67.23407,-1.424595
 3,31.7791143,-5.4189829,0.663644,48.2590059\PG=C01 [X(C4H7)]\NImag=0\\
 0.53006943,-0.00177319,0.51877105,-0.04753483,0.00232102,0.54137778,-0
 .13605344,0.00082975,-0.06523948,0.64138347,0.00090066,-0.06145948,-0.
 00114706,-0.01966823,0.12018836,-0.06242369,-0.00123233,-0.18416169,-0
 .03522667,0.01503808,0.60577172,-0.12372170,0.12316061,0.00478216,-0.0
 1765736,0.01528746,-0.00282781,0.13834155,0.12101378,-0.22006757,-0.00
 282961,-0.00024303,0.00381605,0.00153461,-0.13355232,0.24048189,0.0016
 5392,0.00097255,-0.04711861,-0.01816000,0.02103270,0.00003710,0.001767
 19,0.00182886,0.04858697,-0.11597314,0.00571466,0.11797752,0.01473213,
 -0.00111799,-0.01968481,-0.00942884,-0.00084257,0.01485519,0.12656125,
 0.00563243,-0.04791895,-0.00983787,-0.00017821,-0.00131604,0.00005128,
 0.01336970,-0.00033984,-0.02447245,-0.00641451,0.04588626,0.11502794,-
 0.00973592,-0.25090399,0.01397179,-0.00113453,-0.02416218,-0.00051039,
 -0.00032017,0.00058609,-0.12707304,0.01088606,0.27466715,-0.14130843,-
 0.12821703,0.01231993,-0.01865119,-0.01387931,-0.00212856,0.01156947,0
 .01476058,-0.00075398,-0.01023269,-0.01263225,0.00024092,0.15758618,-0
 .12624872,-0.20184916,0.01137452,0.00072325,0.00358525,-0.00153880,-0.
 01725242,-0.02342875,0.00209957,0.00246220,0.00181446,0.00028181,0.139
 24564,0.22043144,0.00880882,0.00779474,-0.04771068,-0.01962958,-0.0198
 6614,0.00126198,0.00003788,-0.00077945,-0.00029956,0.01645171,0.023321
 02,-0.00076841,-0.00634856,-0.01181156,0.04935857,-0.02166803,0.000716
 26,-0.00821866,-0.29284622,0.00898550,0.00900122,0.00121464,-0.0016421
 4,0.00058542,0.00015336,0.00002978,0.00156431,0.00129248,0.00154251,0.
 00048273,0.58914326,0.00025773,0.00496761,0.00037663,0.00691527,-0.048
 81773,-0.00207582,0.00033244,-0.00058271,0.00018686,0.00002058,-0.0002
 5188,-0.00002267,-0.00066894,-0.00070362,-0.00036733,-0.01526019,0.120
 96527,-0.02441988,0.00095564,0.00779036,-0.06430888,0.00055368,-0.1104
 5326,-0.00358659,0.00052611,-0.00315966,0.00122150,-0.00000854,0.00097
 695,-0.00358893,-0.00041391,-0.00311530,0.05374302,0.01355805,0.666007
 04,0.01046055,-0.00083153,-0.01944559,-0.10809324,0.00583095,0.1048084
 8,0.00058309,0.00035723,0.00088165,-0.00246533,0.00004262,-0.00376323,
 0.00060529,-0.00032083,0.00095016,-0.01102446,0.00146528,0.03082601,0.
 11525478,0.00004699,0.00250380,0.00009331,0.00594610,-0.02843311,-0.01
 107592,-0.00069008,0.00039741,-0.00073033,0.00004329,0.00172992,0.0000
 1765,0.00066663,0.00038471,0.00067362,0.00054549,0.00550372,-0.0012519
 6,-0.00675678,0.01721146,0.01154505,-0.00100992,-0.01870452,0.10901993
 ,-0.01122652,-0.28696225,-0.00008602,0.00048531,0.00051083,-0.00373236
 ,0.00001302,-0.00246844,-0.00015879,-0.00047038,0.00049534,-0.00185333
 ,-0.00008045,0.00037232,-0.11415866,0.01218666,0.30317124,0.00254757,-
 0.00012000,0.00230415,-0.06857321,0.00379044,0.03706833,-0.00034155,0.
 00015903,-0.00008552,-0.00113091,0.00003371,0.00023335,-0.00036245,-0.
 00015191,-0.00012234,-0.14596384,0.00677616,0.11244384,-0.00551670,0.0
 0037785,-0.00050675,0.66102064,-0.00027445,-0.00269020,-0.00003191,0.0
 0492486,0.00764390,-0.00153508,0.00016928,-0.00013380,0.00061029,0.000
 01990,-0.00038047,0.00000320,-0.00011528,-0.00012405,-0.00058223,0.004
 84023,-0.04627636,-0.01054324,0.00034872,0.00546253,-0.00007551,-0.020
 95489,0.08123190,-0.00303665,0.00015437,-0.00095787,0.07720840,-0.0029
 7592,0.00055436,0.00064785,-0.00040426,0.00024379,-0.00027889,0.000023
 16,0.00004052,0.00068360,0.00038165,0.00025948,0.04407320,-0.00809259,
 -0.27552543,-0.00157236,-0.00003631,0.00215788,-0.00506703,0.01648626,
 0.65487068,0.00033815,-0.00000862,0.00007988,0.00070543,0.00025613,0.0
 0273426,-0.00005698,0.00000783,0.00006493,0.00015847,-0.00000501,0.000
 15801,-0.00006280,-0.00000216,0.00006313,-0.01305980,0.00047070,-0.005
 11989,-0.00078500,0.00003099,-0.00003373,-0.34745000,0.01097542,-0.023
 37545,0.36592782,-0.00001988,0.00002547,-0.00002394,0.00024789,0.00567
 849,-0.00039265,0.00007644,-0.00003242,0.00003523,-0.00000721,-0.00010
 044,0.00001463,-0.00007767,-0.00002713,-0.00002392,0.00138768,0.004093
 27,0.00024099,0.00006935,0.00010339,-0.00000380,0.01085116,-0.02295260
 ,-0.00023818,-0.01192600,0.01494076,-0.00031106,-0.00000858,-0.0007014
 4,0.00240037,-0.00038096,-0.00470565,-0.00006684,-0.00001057,0.0002522
 3,0.00008475,0.00001670,0.00061687,-0.00006071,0.00003083,0.00025227,0
 .02727856,-0.00092095,0.00611551,0.00131193,-0.00005180,-0.00007146,-0
 .02776663,-0.00007977,-0.06043006,0.02335537,0.00033864,0.05593994,-0.
 00095115,0.00002422,0.00043019,-0.00095098,-0.00009596,-0.00016659,0.0
 0020314,0.00001901,-0.00017658,-0.00272790,0.00012949,0.00002358,0.000
 18867,-0.00003816,-0.00016001,0.01454584,0.00001632,0.01503883,0.00010
 935,-0.00002770,-0.00030241,-0.10556661,-0.00014480,-0.10624546,-0.006
 71806,-0.00038826,-0.02594455,0.10326626,0.00001146,-0.00060136,-0.000
 00652,-0.00014404,-0.00349258,0.00011896,0.00016148,0.00004601,-0.0002
 0025,0.00012657,0.00084432,0.00001168,-0.00017762,0.00007088,0.0002300
 8,-0.00078239,0.00307972,-0.00119242,-0.00001431,-0.00042418,0.0000273
 9,-0.00008412,-0.02556319,-0.00394421,0.00039761,0.00299652,0.00088454
 ,0.00007560,0.01509489,-0.00006156,0.00001359,-0.00025415,-0.00184142,
 0.00017861,0.00048128,-0.00009801,0.00003642,0.00036951,-0.00008095,0.
 00001387,0.00127025,-0.00008956,-0.00001294,0.00035782,-0.01315840,-0.
 00018163,-0.01993890,0.00017217,0.00001046,0.00015771,-0.10411136,-0.0
 0402164,-0.29871855,0.00176489,-0.00010790,0.00140974,0.11418721,0.004
 48722,0.31738228,-0.00373981,0.00050487,0.00254473,-0.01399538,-0.0002
 8965,-0.03115416,-0.00070545,-0.00003740,-0.00063222,0.00035360,-0.000
 00775,0.00012675,-0.00062452,0.00004060,-0.00053394,-0.12178724,-0.000
 32535,-0.11224902,0.00087167,-0.00018277,0.00026706,0.01133706,0.00021
 103,0.01696279,0.00100277,-0.00021350,-0.00028120,-0.00139857,0.000429
 76,0.00331698,0.12868588,0.00045318,0.00831879,-0.00028857,0.00064639,
 0.00260689,0.00110765,-0.00106258,-0.00015628,-0.00136303,-0.00000491,
 0.00003267,-0.00000174,0.00109527,-0.00015403,0.00141117,-0.00036272,-
 0.04197728,-0.00242440,-0.00019071,-0.00443964,0.00015422,-0.00067743,
 0.00378234,-0.00135398,-0.00019687,-0.00472532,0.00018192,0.00043022,0
 .00794898,-0.00041606,-0.00012984,0.02876289,0.00075193,-0.00022516,0.
 00134482,0.00180555,-0.00007194,0.00233858,-0.00005942,-0.00006725,-0.
 00000869,0.00025936,-0.00000624,0.00014518,-0.00011536,0.00007922,-0.0
 0009151,-0.11349809,-0.00238010,-0.26906963,-0.00001056,0.00016463,0.0
 0134135,-0.01439005,-0.00023039,-0.02249480,0.00030860,0.00016089,0.00
 132205,0.00331578,-0.00041647,-0.00251699,0.12163225,0.00299280,0.2876
 8966\\-0.00000158,0.00000210,-0.00000399,-0.00000250,0.00000052,0.0000
 0882,-0.00000010,-0.00000155,-0.00000032,0.00000328,-0.00000087,0.0000
 0007,-0.00000079,0.00000017,-0.00000147,0.00000192,0.00000019,-0.00001
 214,0.00000250,-0.00000125,-0.00000043,-0.00000475,-0.00000071,0.00000
 675,0.00000106,-0.00000102,0.00000090,-0.00000009,0.00000095,-0.000001
 42,0.00000104,0.00000146,0.00000323\\\@


 NOTHING PUZZLES ME MORE THAN TIME AND SPACE; AND YET NOTHING TROUBLES ME LESS
                                                          -- CHARLES LAMB (1810)
 Job cpu time:       0 days  7 hours 56 minutes 10.7 seconds.
 Elapsed time:       0 days  0 hours 12 minutes 16.5 seconds.
 File lengths (MBytes):  RWF=  14059 Int=      0 D2E=      0 Chk=      9 Scr=      1
 Normal termination of Gaussian 16 at Fri May 31 20:13:43 2019.
