 Entering Gaussian System, Link 0=g16
 Initial command:
 /ichec/packages/gaussian/16b01/l1.exe "/localscratch/339542/Gau-7648.inp" -scrdir="/localscratch/339542/"
 Entering Link 1 = /ichec/packages/gaussian/16b01/l1.exe PID=      7649.
  
 Copyright (c) 1988-2017, Gaussian, Inc.  All Rights Reserved.
  
 This is part of the Gaussian(R) 16 program.  It is based on
 the Gaussian(R) 09 system (copyright 2009, Gaussian, Inc.),
 the Gaussian(R) 03 system (copyright 2003, Gaussian, Inc.),
 the Gaussian(R) 98 system (copyright 1998, Gaussian, Inc.),
 the Gaussian(R) 94 system (copyright 1995, Gaussian, Inc.),
 the Gaussian 92(TM) system (copyright 1992, Gaussian, Inc.),
 the Gaussian 90(TM) system (copyright 1990, Gaussian, Inc.),
 the Gaussian 88(TM) system (copyright 1988, Gaussian, Inc.),
 the Gaussian 86(TM) system (copyright 1986, Carnegie Mellon
 University), and the Gaussian 82(TM) system (copyright 1983,
 Carnegie Mellon University). Gaussian is a federally registered
 trademark of Gaussian, Inc.
  
 This software contains proprietary and confidential information,
 including trade secrets, belonging to Gaussian, Inc.
  
 This software is provided under written license and may be
 used, copied, transmitted, or stored only in accord with that
 written license.
  
 The following legend is applicable only to US Government
 contracts under FAR:
  
                    RESTRICTED RIGHTS LEGEND
  
 Use, reproduction and disclosure by the US Government is
 subject to restrictions as set forth in subparagraphs (a)
 and (c) of the Commercial Computer Software - Restricted
 Rights clause in FAR 52.227-19.
  
 Gaussian, Inc.
 340 Quinnipiac St., Bldg. 40, Wallingford CT 06492
  
  
 ---------------------------------------------------------------
 Warning -- This program may not be used in any manner that
 competes with the business of Gaussian, Inc. or will provide
 assistance to any competitor of Gaussian, Inc.  The licensee
 of this program is prohibited from giving any competitor of
 Gaussian, Inc. access to this program.  By using this program,
 the user acknowledges that Gaussian, Inc. is engaged in the
 business of creating and licensing software in the field of
 computational chemistry and represents and warrants to the
 licensee that it is not a competitor of Gaussian, Inc. and that
 it will not use this program in any manner prohibited above.
 ---------------------------------------------------------------
  

 Cite this work as:
 Gaussian 16, Revision B.01,
 M. J. Frisch, G. W. Trucks, H. B. Schlegel, G. E. Scuseria, 
 M. A. Robb, J. R. Cheeseman, G. Scalmani, V. Barone, 
 G. A. Petersson, H. Nakatsuji, X. Li, M. Caricato, A. V. Marenich, 
 J. Bloino, B. G. Janesko, R. Gomperts, B. Mennucci, H. P. Hratchian, 
 J. V. Ortiz, A. F. Izmaylov, J. L. Sonnenberg, D. Williams-Young, 
 F. Ding, F. Lipparini, F. Egidi, J. Goings, B. Peng, A. Petrone, 
 T. Henderson, D. Ranasinghe, V. G. Zakrzewski, J. Gao, N. Rega, 
 G. Zheng, W. Liang, M. Hada, M. Ehara, K. Toyota, R. Fukuda, 
 J. Hasegawa, M. Ishida, T. Nakajima, Y. Honda, O. Kitao, H. Nakai, 
 T. Vreven, K. Throssell, J. A. Montgomery, Jr., J. E. Peralta, 
 F. Ogliaro, M. J. Bearpark, J. J. Heyd, E. N. Brothers, K. N. Kudin, 
 V. N. Staroverov, T. A. Keith, R. Kobayashi, J. Normand, 
 K. Raghavachari, A. P. Rendell, J. C. Burant, S. S. Iyengar, 
 J. Tomasi, M. Cossi, J. M. Millam, M. Klene, C. Adamo, R. Cammi, 
 J. W. Ochterski, R. L. Martin, K. Morokuma, O. Farkas, 
 J. B. Foresman, and D. J. Fox, Gaussian, Inc., Wallingford CT, 2016.
 
 ******************************************
 Gaussian 16:  ES64L-G16RevB.01 20-Dec-2017
                31-May-2019 
 ******************************************
 %mem=80GB
 %nproc=40
 Will use up to   40 processors via shared memory.
 -----------------------------------------------
 # opt=maxcyc=500 freq=noraman uB2PLYPD3/cc-pvtz
 -----------------------------------------------
 1/6=500,18=20,19=15,38=1/1,3;
 2/9=110,12=2,17=6,18=5,40=1/2;
 3/5=16,6=1,11=2,25=1,30=1,71=1,74=-60,116=2/1,2,3;
 4//1;
 5/5=2,38=5/2;
 8/6=4,10=1/1;
 9/15=2,16=-3/6;
 10/5=1/2;
 6/7=2,8=2,9=2,10=2/1;
 7/12=2/1,2,3,16;
 1/6=500,18=20,19=15/3(2);
 2/9=110/2;
 99//99;
 2/9=110/2;
 3/5=16,6=1,11=2,25=1,30=1,71=1,74=-60,116=2/1,2,3;
 4/5=5,16=3,69=1/1;
 5/5=2,38=5/2;
 8/6=4,10=1/1;
 9/15=2,16=-3/6;
 10/5=1/2;
 7/12=2/1,2,3,16;
 1/6=500,18=20,19=15/3(-8);
 2/9=110/2;
 6/7=2,8=2,9=2,10=2/1;
 99/9=10/99;
 -------------------
 Title Card Required
 -------------------
 Symbolic Z-matrix:
 Charge =  0 Multiplicity = 2
 C                    -1.70747  -0.26021  -0.29476 
 C                    -0.54081   0.5344    0.30039 
 H                    -2.62306   0.33425  -0.30692 
 H                    -1.48118  -0.56473  -1.3187 
 H                    -1.90108  -1.1643    0.28797 
 C                     0.71761  -0.28114   0.35972 
 H                    -0.35989   1.43748  -0.28917 
 H                    -0.80769   0.86001   1.31168 
 C                     1.84115   0.00852  -0.28664 
 H                     2.6891   -0.63856  -0.20201 
 H                     1.89834   0.88896  -0.892 
 

 GradGradGradGradGradGradGradGradGradGradGradGradGradGradGradGradGradGrad
 Berny optimization.
 Initialization pass.
                           ----------------------------
                           !    Initial Parameters    !
                           ! (Angstroms and Degrees)  !
 --------------------------                            --------------------------
 ! Name  Definition              Value          Derivative Info.                !
 --------------------------------------------------------------------------------
 ! R1    R(1,2)                  1.5319         estimate D2E/DX2                !
 ! R2    R(1,3)                  1.0917         estimate D2E/DX2                !
 ! R3    R(1,4)                  1.092          estimate D2E/DX2                !
 ! R4    R(1,5)                  1.0929         estimate D2E/DX2                !
 ! R5    R(2,6)                  1.5008         estimate D2E/DX2                !
 ! R6    R(2,7)                  1.0935         estimate D2E/DX2                !
 ! R7    R(2,8)                  1.0954         estimate D2E/DX2                !
 ! R8    R(6,9)                  1.3282         estimate D2E/DX2                !
 ! R9    R(9,10)                 1.07           estimate D2E/DX2                !
 ! R10   R(9,11)                 1.07           estimate D2E/DX2                !
 ! A1    A(2,1,3)              111.1365         estimate D2E/DX2                !
 ! A2    A(2,1,4)              110.557          estimate D2E/DX2                !
 ! A3    A(2,1,5)              110.9077         estimate D2E/DX2                !
 ! A4    A(3,1,4)              108.3732         estimate D2E/DX2                !
 ! A5    A(3,1,5)              107.9273         estimate D2E/DX2                !
 ! A6    A(4,1,5)              107.8182         estimate D2E/DX2                !
 ! A7    A(1,2,6)              111.8439         estimate D2E/DX2                !
 ! A8    A(1,2,7)              110.1762         estimate D2E/DX2                !
 ! A9    A(1,2,8)              109.1056         estimate D2E/DX2                !
 ! A10   A(6,2,7)              109.3509         estimate D2E/DX2                !
 ! A11   A(6,2,8)              109.2275         estimate D2E/DX2                !
 ! A12   A(7,2,8)              107.0111         estimate D2E/DX2                !
 ! A13   A(2,6,9)              124.8603         estimate D2E/DX2                !
 ! A14   A(6,9,10)             120.0            estimate D2E/DX2                !
 ! A15   A(6,9,11)             120.0            estimate D2E/DX2                !
 ! A16   A(10,9,11)            120.0            estimate D2E/DX2                !
 ! D1    D(3,1,2,6)            178.4238         estimate D2E/DX2                !
 ! D2    D(3,1,2,7)            -59.7313         estimate D2E/DX2                !
 ! D3    D(3,1,2,8)             57.471          estimate D2E/DX2                !
 ! D4    D(4,1,2,6)            -61.1848         estimate D2E/DX2                !
 ! D5    D(4,1,2,7)             60.6601         estimate D2E/DX2                !
 ! D6    D(4,1,2,8)            177.8625         estimate D2E/DX2                !
 ! D7    D(5,1,2,6)             58.3602         estimate D2E/DX2                !
 ! D8    D(5,1,2,7)           -179.7949         estimate D2E/DX2                !
 ! D9    D(5,1,2,8)            -62.5925         estimate D2E/DX2                !
 ! D10   D(1,2,6,9)            117.8348         estimate D2E/DX2                !
 ! D11   D(7,2,6,9)             -4.4831         estimate D2E/DX2                !
 ! D12   D(8,2,6,9)           -121.2832         estimate D2E/DX2                !
 ! D13   D(2,6,9,10)          -178.9165         estimate D2E/DX2                !
 ! D14   D(2,6,9,11)             1.0835         estimate D2E/DX2                !
 ! D15   D(6,9,10,11)          180.0            estimate D2E/DX2                !
 --------------------------------------------------------------------------------
 Trust Radius=3.00D-01 FncErr=1.00D-07 GrdErr=1.00D-07 EigMax=2.50D+02 EigMin=1.00D-04
 Number of steps in this run=    100 maximum allowed number of steps=    100.
 GradGradGradGradGradGradGradGradGradGradGradGradGradGradGradGradGradGrad

                          Input orientation:                          
 ---------------------------------------------------------------------
 Center     Atomic      Atomic             Coordinates (Angstroms)
 Number     Number       Type             X           Y           Z
 ---------------------------------------------------------------------
      1          6           0       -1.707467   -0.260212   -0.294762
      2          6           0       -0.540811    0.534404    0.300391
      3          1           0       -2.623057    0.334247   -0.306921
      4          1           0       -1.481181   -0.564732   -1.318701
      5          1           0       -1.901079   -1.164298    0.287970
      6          6           0        0.717611   -0.281143    0.359723
      7          1           0       -0.359888    1.437476   -0.289167
      8          1           0       -0.807688    0.860010    1.311681
      9          6           0        1.841149    0.008521   -0.286643
     10          1           0        2.689102   -0.638560   -0.202014
     11          1           0        1.898341    0.888961   -0.891997
 ---------------------------------------------------------------------
                    Distance matrix (angstroms):
                    1          2          3          4          5
     1  C    0.000000
     2  C    1.531897   0.000000
     3  H    1.091712   2.178219   0.000000
     4  H    1.091966   2.171141   1.770803   0.000000
     5  H    1.092901   2.176252   1.766574   1.765555   0.000000
     6  C    2.511930   1.500754   3.461673   2.780686   2.764534
     7  H    2.167520   1.093550   2.517809   2.515169   3.078569
     8  H    2.155263   1.095422   2.488346   3.066332   2.518196
     9  C    3.558786   2.508963   4.476119   3.525853   3.963579
    10  H    4.413793   3.472836   5.401517   4.317835   4.646100
    11  H    3.831337   2.738059   4.592719   3.703576   4.477029
                    6          7          8          9         10
     6  C    0.000000
     7  H    2.129721   0.000000
     8  H    2.129552   1.759746   0.000000
     9  C    1.328169   2.624211   3.208740   0.000000
    10  H    2.080883   3.689697   4.094451   1.070000   0.000000
    11  H    2.080883   2.400807   3.489933   1.070000   1.853294
                   11
    11  H    0.000000
 Stoichiometry    C4H7(2)
 Framework group  C1[X(C4H7)]
 Deg. of freedom    27
 Full point group                 C1      NOp   1
 Largest Abelian subgroup         C1      NOp   1
 Largest concise Abelian subgroup C1      NOp   1
                         Standard orientation:                         
 ---------------------------------------------------------------------
 Center     Atomic      Atomic             Coordinates (Angstroms)
 Number     Number       Type             X           Y           Z
 ---------------------------------------------------------------------
      1          6           0        1.685352   -0.377464    0.110059
      2          6           0        0.514051    0.598566   -0.038693
      3          1           0        2.592978    0.141720    0.423901
      4          1           0        1.453520   -1.144411    0.851972
      5          1           0        1.896129   -0.880959   -0.836778
      6          6           0       -0.733047   -0.092916   -0.506518
      7          1           0        0.315912    1.097932    0.913791
      8          1           0        0.786077    1.378023   -0.758693
      9          6           0       -1.866230   -0.163109    0.182686
     10          1           0       -2.704868   -0.692405   -0.219101
     11          1           0       -1.940507    0.309638    1.139709
 ---------------------------------------------------------------------
 Rotational constants (GHZ):          24.9589255           4.2902989           4.1387373
 Standard basis: CC-pVTZ (5D, 7F)
 There are   245 symmetry adapted cartesian basis functions of A   symmetry.
 There are   218 symmetry adapted basis functions of A   symmetry.
   218 basis functions,   327 primitive gaussians,   245 cartesian basis functions
    16 alpha electrons       15 beta electrons
       nuclear repulsion energy       109.2785943290 Hartrees.
 NAtoms=   11 NActive=   11 NUniq=   11 SFac= 1.00D+00 NAtFMM=   60 NAOKFM=F Big=F
 Integral buffers will be    131072 words long.
 Raffenetti 2 integral format.
 Two-electron integral symmetry is turned on.
 Nuclear repulsion after empirical dispersion term =      109.2735135389 Hartrees.
 One-electron integrals computed using PRISM.
 NBasis=   218 RedAO= T EigKep=  5.62D-04  NBF=   218
 NBsUse=   218 1.00D-06 EigRej= -1.00D+00 NBFU=   218
 ExpMin= 1.03D-01 ExpMax= 8.24D+03 ExpMxC= 2.81D+02 IAcc=3 IRadAn=         5 AccDes= 0.00D+00
 Harris functional with IExCor=  419 and IRadAn=       5 diagonalized for initial guess.
 HarFok:  IExCor=  419 AccDes= 0.00D+00 IRadAn=         5 IDoV= 1 UseB2=F ITyADJ=14
 ICtDFT=  3500011 ScaDFX=  1.000000  1.000000  1.000000  1.000000
 FoFCou: FMM=F IPFlag=           0 FMFlag=      100000 FMFlg1=           0
         NFxFlg=           0 DoJE=T BraDBF=F KetDBF=T FulRan=T
         wScrn=  0.000000 ICntrl=       500 IOpCl=  0 I1Cent=   200000004 NGrid=           0
         NMat0=    1 NMatS0=      1 NMatT0=    0 NMatD0=    1 NMtDS0=    0 NMtDT0=    0
 Petite list used in FoFCou.
 Initial guess <Sx>= 0.0000 <Sy>= 0.0000 <Sz>= 0.5000 <S**2>= 0.7500 S= 0.5000
 Keep R1 and R2 ints in memory in canonical form, NReq=612885869.
 Requested convergence on RMS density matrix=1.00D-08 within 128 cycles.
 Requested convergence on MAX density matrix=1.00D-06.
 Requested convergence on             energy=1.00D-06.
 No special actions if energy rises.
 Integral accuracy reduced to 1.0D-05 until final iterations.
 Initial convergence to 1.0D-05 achieved.  Increase integral accuracy.
 SCF Done:  E(UB2PLYPD3) =  -156.228582895     A.U. after   19 cycles
            NFock= 19  Conv=0.36D-08     -V/T= 2.0048
 <Sx>= 0.0000 <Sy>= 0.0000 <Sz>= 0.5000 <S**2>= 0.7792 S= 0.5145
 <L.S>=  0.00000000000    
 Annihilation of the first spin contaminant:
 S**2 before annihilation     0.7792,   after     0.7502
 DoSCS=T DFT=T ScalE2(SS,OS)=  0.270000  0.270000
 ExpMin= 1.03D-01 ExpMax= 8.24D+03 ExpMxC= 2.81D+02 IAcc=3 IRadAn=         5 AccDes= 0.00D+00
 HarFok:  IExCor=  205 AccDes= 0.00D+00 IRadAn=         5 IDoV=-2 UseB2=F ITyADJ=14
 ICtDFT= 12500011 ScaDFX=  1.000000  1.000000  1.000000  1.000000
 Range of M.O.s used for correlation:     5   218
 NBasis=   218 NAE=    16 NBE=    15 NFC=     4 NFV=     0
 NROrb=    214 NOA=    12 NOB=    11 NVA=   202 NVB=   203

 **** Warning!!: The largest alpha MO coefficient is  0.11920159D+02


 **** Warning!!: The largest beta MO coefficient is  0.11919293D+02

 DoSCS=T DFT=T ScalE2(SS,OS)=  0.270000  0.270000
 Fully direct method using O(ONN) memory.
 JobTyp=2 Pass  1:  I=   5 to  16 NPSUse= 40 ParTrn=T ParDer=T DoDerP=T.
 JobTyp=3 Pass  1:  I=   5 to  15 NPSUse= 40 ParTrn=T ParDer=T DoDerP=T.
 Spin components of T(2) and E(2):
     alpha-alpha T2 =       0.4152390614D-01 E2=     -0.2586955982D-01
     alpha-beta  T2 =       0.2458720481D+00 E2=     -0.1632614636D+00
     beta-beta   T2 =       0.3684151230D-01 E2=     -0.2242986916D-01
 (S**2,0)=  0.77922D+00           (S**2,1)=  0.76047D+00
 Scaling Projection term by:   0.270000
 E(PUHF)=      -0.15623201264D+03        E(PMP2)=      -0.15644077409D+03
 E2(B2PLYPD3) =    -0.2115608926D+00 E(B2PLYPD3) =    -0.15644014378753D+03
          IDoAtm=11111111111
          Differentiating once with respect to electric field.
                with respect to dipole field.
          Differentiating once with respect to nuclear coordinates.
 Keep R1 and R2 ints in memory in canonical form, NReq=612894013.
          There are     1 degrees of freedom in the 1st order CPHF.  IDoFFX=0 NUNeed=     1.
 LinEq1:  Iter=  0 NonCon=     1 RMS=8.05D-04 Max=1.99D-02 NDo=     1
 AX will form     1 AO Fock derivatives at one time.
 LinEq1:  Iter=  1 NonCon=     1 RMS=3.29D-04 Max=1.19D-02 NDo=     1
 LinEq1:  Iter=  2 NonCon=     1 RMS=2.22D-04 Max=7.21D-03 NDo=     1
 LinEq1:  Iter=  3 NonCon=     1 RMS=8.11D-05 Max=2.80D-03 NDo=     1
 LinEq1:  Iter=  4 NonCon=     1 RMS=4.82D-05 Max=1.38D-03 NDo=     1
 LinEq1:  Iter=  5 NonCon=     1 RMS=1.42D-05 Max=2.96D-04 NDo=     1
 LinEq1:  Iter=  6 NonCon=     1 RMS=6.07D-06 Max=8.65D-05 NDo=     1
 LinEq1:  Iter=  7 NonCon=     1 RMS=2.35D-06 Max=2.68D-05 NDo=     1
 LinEq1:  Iter=  8 NonCon=     1 RMS=7.75D-07 Max=1.06D-05 NDo=     1
 LinEq1:  Iter=  9 NonCon=     1 RMS=2.55D-07 Max=4.38D-06 NDo=     1
 LinEq1:  Iter= 10 NonCon=     1 RMS=6.33D-08 Max=1.77D-06 NDo=     1
 LinEq1:  Iter= 11 NonCon=     1 RMS=1.86D-08 Max=6.76D-07 NDo=     1
 LinEq1:  Iter= 12 NonCon=     1 RMS=1.01D-08 Max=3.72D-07 NDo=     1
 LinEq1:  Iter= 13 NonCon=     1 RMS=3.87D-09 Max=1.09D-07 NDo=     1
 LinEq1:  Iter= 14 NonCon=     1 RMS=1.17D-09 Max=2.41D-08 NDo=     1
 LinEq1:  Iter= 15 NonCon=     1 RMS=3.01D-10 Max=4.78D-09 NDo=     1
 LinEq1:  Iter= 16 NonCon=     1 RMS=8.53D-11 Max=1.30D-09 NDo=     1
 LinEq1:  Iter= 17 NonCon=     0 RMS=2.04D-11 Max=2.47D-10 NDo=     1
 Linear equations converged to 1.000D-10 1.000D-09 after    17 iterations.
 End of Minotr F.D. properties file   721 does not exist.
 End of Minotr F.D. properties file   722 does not exist.
 End of Minotr F.D. properties file   788 does not exist.

 **********************************************************************

            Population analysis using the SCF Density.

 **********************************************************************

 Orbital symmetries:
 Alpha Orbitals:
       Occupied  (A) (A) (A) (A) (A) (A) (A) (A) (A) (A) (A) (A)
                 (A) (A) (A) (A)
       Virtual   (A) (A) (A) (A) (A) (A) (A) (A) (A) (A) (A) (A)
                 (A) (A) (A) (A) (A) (A) (A) (A) (A) (A) (A) (A)
                 (A) (A) (A) (A) (A) (A) (A) (A) (A) (A) (A) (A)
                 (A) (A) (A) (A) (A) (A) (A) (A) (A) (A) (A) (A)
                 (A) (A) (A) (A) (A) (A) (A) (A) (A) (A) (A) (A)
                 (A) (A) (A) (A) (A) (A) (A) (A) (A) (A) (A) (A)
                 (A) (A) (A) (A) (A) (A) (A) (A) (A) (A) (A) (A)
                 (A) (A) (A) (A) (A) (A) (A) (A) (A) (A) (A) (A)
                 (A) (A) (A) (A) (A) (A) (A) (A) (A) (A) (A) (A)
                 (A) (A) (A) (A) (A) (A) (A) (A) (A) (A) (A) (A)
                 (A) (A) (A) (A) (A) (A) (A) (A) (A) (A) (A) (A)
                 (A) (A) (A) (A) (A) (A) (A) (A) (A) (A) (A) (A)
                 (A) (A) (A) (A) (A) (A) (A) (A) (A) (A) (A) (A)
                 (A) (A) (A) (A) (A) (A) (A) (A) (A) (A) (A) (A)
                 (A) (A) (A) (A) (A) (A) (A) (A) (A) (A) (A) (A)
                 (A) (A) (A) (A) (A) (A) (A) (A) (A) (A) (A) (A)
                 (A) (A) (A) (A) (A) (A) (A) (A) (A) (A)
 Beta  Orbitals:
       Occupied  (A) (A) (A) (A) (A) (A) (A) (A) (A) (A) (A) (A)
                 (A) (A) (A)
       Virtual   (A) (A) (A) (A) (A) (A) (A) (A) (A) (A) (A) (A)
                 (A) (A) (A) (A) (A) (A) (A) (A) (A) (A) (A) (A)
                 (A) (A) (A) (A) (A) (A) (A) (A) (A) (A) (A) (A)
                 (A) (A) (A) (A) (A) (A) (A) (A) (A) (A) (A) (A)
                 (A) (A) (A) (A) (A) (A) (A) (A) (A) (A) (A) (A)
                 (A) (A) (A) (A) (A) (A) (A) (A) (A) (A) (A) (A)
                 (A) (A) (A) (A) (A) (A) (A) (A) (A) (A) (A) (A)
                 (A) (A) (A) (A) (A) (A) (A) (A) (A) (A) (A) (A)
                 (A) (A) (A) (A) (A) (A) (A) (A) (A) (A) (A) (A)
                 (A) (A) (A) (A) (A) (A) (A) (A) (A) (A) (A) (A)
                 (A) (A) (A) (A) (A) (A) (A) (A) (A) (A) (A) (A)
                 (A) (A) (A) (A) (A) (A) (A) (A) (A) (A) (A) (A)
                 (A) (A) (A) (A) (A) (A) (A) (A) (A) (A) (A) (A)
                 (A) (A) (A) (A) (A) (A) (A) (A) (A) (A) (A) (A)
                 (A) (A) (A) (A) (A) (A) (A) (A) (A) (A) (A) (A)
                 (A) (A) (A) (A) (A) (A) (A) (A) (A) (A) (A) (A)
                 (A) (A) (A) (A) (A) (A) (A) (A) (A) (A) (A)
 The electronic state is 2-A.
 Alpha  occ. eigenvalues --  -10.64597 -10.62716 -10.60688 -10.60381  -0.92680
 Alpha  occ. eigenvalues --   -0.84302  -0.72933  -0.61748  -0.54252  -0.52036
 Alpha  occ. eigenvalues --   -0.49742  -0.44288  -0.43329  -0.41013  -0.31145
 Alpha  occ. eigenvalues --   -0.30930
 Alpha virt. eigenvalues --    0.06617   0.09056   0.11259   0.12904   0.13233
 Alpha virt. eigenvalues --    0.15916   0.17096   0.17588   0.21790   0.23111
 Alpha virt. eigenvalues --    0.29815   0.31224   0.32006   0.34220   0.36066
 Alpha virt. eigenvalues --    0.37773   0.39912   0.42793   0.44214   0.48434
 Alpha virt. eigenvalues --    0.49530   0.49935   0.51533   0.52437   0.52924
 Alpha virt. eigenvalues --    0.53910   0.54930   0.56763   0.58694   0.59438
 Alpha virt. eigenvalues --    0.62461   0.66079   0.69903   0.70919   0.74323
 Alpha virt. eigenvalues --    0.79433   0.81306   0.84380   0.87601   0.92494
 Alpha virt. eigenvalues --    0.95871   0.97478   1.00479   1.01815   1.04921
 Alpha virt. eigenvalues --    1.08712   1.11514   1.13147   1.14728   1.15737
 Alpha virt. eigenvalues --    1.17197   1.18836   1.21291   1.22296   1.24522
 Alpha virt. eigenvalues --    1.26311   1.28836   1.29297   1.33853   1.35477
 Alpha virt. eigenvalues --    1.36192   1.38180   1.40889   1.43425   1.45928
 Alpha virt. eigenvalues --    1.47495   1.50877   1.54162   1.56861   1.59639
 Alpha virt. eigenvalues --    1.61993   1.65282   1.68985   1.70081   1.86072
 Alpha virt. eigenvalues --    2.18141   2.24120   2.30011   2.34977   2.37222
 Alpha virt. eigenvalues --    2.38409   2.39347   2.45629   2.48244   2.53118
 Alpha virt. eigenvalues --    2.58349   2.58814   2.61973   2.63570   2.66552
 Alpha virt. eigenvalues --    2.67449   2.70216   2.74812   2.78581   2.80756
 Alpha virt. eigenvalues --    2.84672   2.85459   2.92357   2.93337   2.95386
 Alpha virt. eigenvalues --    2.96632   2.99535   3.00148   3.01364   3.03090
 Alpha virt. eigenvalues --    3.05194   3.09989   3.11784   3.14977   3.16475
 Alpha virt. eigenvalues --    3.18992   3.19612   3.19973   3.21291   3.24251
 Alpha virt. eigenvalues --    3.26181   3.27244   3.28748   3.30826   3.33898
 Alpha virt. eigenvalues --    3.37878   3.39687   3.40659   3.44794   3.46216
 Alpha virt. eigenvalues --    3.50387   3.51514   3.56360   3.58365   3.61374
 Alpha virt. eigenvalues --    3.63350   3.65983   3.69452   3.71093   3.72275
 Alpha virt. eigenvalues --    3.79777   3.80038   3.85737   3.88628   3.89291
 Alpha virt. eigenvalues --    3.91547   3.93124   3.95456   3.99528   4.03483
 Alpha virt. eigenvalues --    4.03991   4.06986   4.08182   4.10478   4.12155
 Alpha virt. eigenvalues --    4.16606   4.17464   4.19582   4.19753   4.21382
 Alpha virt. eigenvalues --    4.24420   4.25510   4.28126   4.36514   4.40117
 Alpha virt. eigenvalues --    4.42062   4.43582   4.46280   4.49292   4.53755
 Alpha virt. eigenvalues --    4.60132   4.61974   4.66988   4.71975   4.89269
 Alpha virt. eigenvalues --    4.92978   4.95786   4.97773   5.00455   5.00827
 Alpha virt. eigenvalues --    5.02743   5.05830   5.08298   5.13032   5.15865
 Alpha virt. eigenvalues --    5.17351   5.23672   5.29111   5.37346   5.44184
 Alpha virt. eigenvalues --    5.46112   5.47726   5.49604   5.51842   5.54227
 Alpha virt. eigenvalues --    5.61930   5.62756   5.89541   5.94113   6.04508
 Alpha virt. eigenvalues --    6.04759   6.10338   6.24679   9.43457  12.68516
 Alpha virt. eigenvalues --   13.53776  14.07966
  Beta  occ. eigenvalues --  -10.62651 -10.62495 -10.60664 -10.60651  -0.90758
  Beta  occ. eigenvalues --   -0.83570  -0.72585  -0.58875  -0.52668  -0.51016
  Beta  occ. eigenvalues --   -0.49023  -0.43859  -0.42344  -0.40532  -0.30407
  Beta virt. eigenvalues --   -0.01446   0.07701   0.10170   0.11514   0.12924
  Beta virt. eigenvalues --    0.13432   0.15988   0.17286   0.17940   0.22451
  Beta virt. eigenvalues --    0.23510   0.29877   0.31404   0.32416   0.35190
  Beta virt. eigenvalues --    0.36799   0.39989   0.40939   0.43644   0.44869
  Beta virt. eigenvalues --    0.49149   0.49674   0.50394   0.51728   0.52731
  Beta virt. eigenvalues --    0.53193   0.54216   0.54912   0.56999   0.59161
  Beta virt. eigenvalues --    0.61377   0.63396   0.66868   0.70830   0.71245
  Beta virt. eigenvalues --    0.74922   0.79869   0.81758   0.85339   0.88885
  Beta virt. eigenvalues --    0.92911   0.96312   0.97828   1.01140   1.02308
  Beta virt. eigenvalues --    1.05337   1.08893   1.12284   1.13965   1.14882
  Beta virt. eigenvalues --    1.16213   1.18092   1.19497   1.21616   1.22991
  Beta virt. eigenvalues --    1.24715   1.26987   1.29190   1.30226   1.35231
  Beta virt. eigenvalues --    1.35988   1.36622   1.39152   1.41130   1.43939
  Beta virt. eigenvalues --    1.46298   1.47818   1.51287   1.54744   1.57689
  Beta virt. eigenvalues --    1.61006   1.62700   1.65449   1.70045   1.70600
  Beta virt. eigenvalues --    1.86665   2.18395   2.24920   2.30623   2.36033
  Beta virt. eigenvalues --    2.38098   2.39007   2.40672   2.46022   2.48864
  Beta virt. eigenvalues --    2.54032   2.58714   2.59387   2.62870   2.64084
  Beta virt. eigenvalues --    2.66981   2.68301   2.71402   2.75929   2.79267
  Beta virt. eigenvalues --    2.81794   2.84893   2.86382   2.92608   2.93701
  Beta virt. eigenvalues --    2.96304   2.97307   2.99963   3.00385   3.01763
  Beta virt. eigenvalues --    3.03990   3.05463   3.09901   3.11957   3.15407
  Beta virt. eigenvalues --    3.16624   3.19459   3.20132   3.20952   3.22183
  Beta virt. eigenvalues --    3.24723   3.27107   3.29036   3.30632   3.33021
  Beta virt. eigenvalues --    3.35883   3.38459   3.41316   3.42343   3.45905
  Beta virt. eigenvalues --    3.46668   3.52025   3.52214   3.56585   3.58536
  Beta virt. eigenvalues --    3.61759   3.63888   3.66487   3.70159   3.71538
  Beta virt. eigenvalues --    3.72799   3.80081   3.80701   3.86197   3.89025
  Beta virt. eigenvalues --    3.89754   3.92023   3.93322   3.95755   3.99971
  Beta virt. eigenvalues --    4.03995   4.04541   4.07283   4.08948   4.11250
  Beta virt. eigenvalues --    4.12691   4.16908   4.17936   4.19964   4.20276
  Beta virt. eigenvalues --    4.21838   4.25117   4.25848   4.28525   4.37018
  Beta virt. eigenvalues --    4.40558   4.42363   4.44177   4.46703   4.49630
  Beta virt. eigenvalues --    4.54543   4.60668   4.62680   4.67762   4.72681
  Beta virt. eigenvalues --    4.89674   4.93624   4.96061   4.97884   5.00552
  Beta virt. eigenvalues --    5.01233   5.02984   5.06080   5.08602   5.13477
  Beta virt. eigenvalues --    5.16205   5.17625   5.24052   5.29407   5.37562
  Beta virt. eigenvalues --    5.44590   5.46380   5.47902   5.49702   5.51953
  Beta virt. eigenvalues --    5.54492   5.62144   5.62928   5.90121   5.94775
  Beta virt. eigenvalues --    6.04528   6.04815   6.10601   6.25537   9.44670
  Beta virt. eigenvalues --   12.68686  13.53802  14.08232
          Condensed to atoms (all electrons):
               1          2          3          4          5          6
     1  C    4.865618   0.339839   0.404208   0.401481   0.407929  -0.059429
     2  C    0.339839   4.796596  -0.036000  -0.033950  -0.034533   0.349982
     3  H    0.404208  -0.036000   0.594410  -0.028901  -0.030850   0.008525
     4  H    0.401481  -0.033950  -0.028901   0.588428  -0.029869  -0.000738
     5  H    0.407929  -0.034533  -0.030850  -0.029869   0.587527  -0.001497
     6  C   -0.059429   0.349982   0.008525  -0.000738  -0.001497   5.269214
     7  H   -0.031800   0.408836  -0.003888  -0.005019   0.007138  -0.043310
     8  H   -0.040587   0.419672  -0.004003   0.007882  -0.004832  -0.041452
     9  C   -0.001333  -0.065143  -0.000103   0.003037   0.000379   0.620560
    10  H   -0.000420   0.005539   0.000022  -0.000078  -0.000022  -0.049455
    11  H    0.000360  -0.003924   0.000009   0.000200   0.000081  -0.061488
               7          8          9         10         11
     1  C   -0.031800  -0.040587  -0.001333  -0.000420   0.000360
     2  C    0.408836   0.419672  -0.065143   0.005539  -0.003924
     3  H   -0.003888  -0.004003  -0.000103   0.000022   0.000009
     4  H   -0.005019   0.007882   0.003037  -0.000078   0.000200
     5  H    0.007138  -0.004832   0.000379  -0.000022   0.000081
     6  C   -0.043310  -0.041452   0.620560  -0.049455  -0.061488
     7  H    0.596360  -0.034086  -0.000022   0.000021   0.005143
     8  H   -0.034086   0.594330   0.000471  -0.000390   0.000248
     9  C   -0.000022   0.000471   4.969318   0.410186   0.411146
    10  H    0.000021  -0.000390   0.410186   0.528846  -0.032473
    11  H    0.005143   0.000248   0.411146  -0.032473   0.542751
          Atomic-Atomic Spin Densities.
               1          2          3          4          5          6
     1  C    0.007402   0.008567  -0.000873  -0.000310  -0.002392  -0.005867
     2  C    0.008567   0.014650   0.000353  -0.000066  -0.003013  -0.033491
     3  H   -0.000873   0.000353  -0.001764   0.000406   0.000383   0.000216
     4  H   -0.000310  -0.000066   0.000406  -0.000589   0.000216   0.000896
     5  H   -0.002392  -0.003013   0.000383   0.000216   0.001969   0.004298
     6  C   -0.005867  -0.033491   0.000216   0.000896   0.004298   1.162161
     7  H   -0.000088  -0.004062   0.000395   0.000011   0.001168  -0.022642
     8  H   -0.000777   0.006055   0.000396  -0.000011  -0.000253  -0.003852
     9  C    0.000547   0.003688   0.000031  -0.000419   0.000080  -0.009957
    10  H   -0.000057   0.000562  -0.000002  -0.000008  -0.000037  -0.005616
    11  H    0.000315  -0.003167   0.000015   0.000055   0.000128  -0.028320
               7          8          9         10         11
     1  C   -0.000088  -0.000777   0.000547  -0.000057   0.000315
     2  C   -0.004062   0.006055   0.003688   0.000562  -0.003167
     3  H    0.000395   0.000396   0.000031  -0.000002   0.000015
     4  H    0.000011  -0.000011  -0.000419  -0.000008   0.000055
     5  H    0.001168  -0.000253   0.000080  -0.000037   0.000128
     6  C   -0.022642  -0.003852  -0.009957  -0.005616  -0.028320
     7  H    0.067300  -0.002347   0.003439  -0.000557   0.008507
     8  H   -0.002347   0.005932  -0.000257   0.000017  -0.000151
     9  C    0.003439  -0.000257  -0.221703   0.008213   0.012303
    10  H   -0.000557   0.000017   0.008213   0.031789  -0.010179
    11  H    0.008507  -0.000151   0.012303  -0.010179   0.087877
 Mulliken charges and spin densities:
               1          2
     1  C   -0.285866   0.006467
     2  C   -0.146914  -0.009926
     3  H    0.096571  -0.000444
     4  H    0.097528   0.000182
     5  H    0.098548   0.002547
     6  C    0.009087   1.057825
     7  H    0.100627   0.051124
     8  H    0.102747   0.004751
     9  C   -0.348498  -0.204036
    10  H    0.138225   0.024125
    11  H    0.137947   0.067384
 Sum of Mulliken charges =  -0.00000   1.00000
 Mulliken charges and spin densities with hydrogens summed into heavy atoms:
               1          2
     1  C    0.006780   0.008751
     2  C    0.056459   0.045950
     6  C    0.009087   1.057825
     9  C   -0.072326  -0.112526
 Electronic spatial extent (au):  <R**2>=            352.3357
 Charge=             -0.0000 electrons
 Dipole moment (field-independent basis, Debye):
    X=              0.4699    Y=              0.4285    Z=              0.5708  Tot=              0.8545
 Quadrupole moment (field-independent basis, Debye-Ang):
   XX=            -25.7427   YY=            -27.1636   ZZ=            -26.3358
   XY=              0.7905   XZ=             -0.9649   YZ=              0.6472
 Traceless Quadrupole moment (field-independent basis, Debye-Ang):
   XX=              0.6714   YY=             -0.7496   ZZ=              0.0782
   XY=              0.7905   XZ=             -0.9649   YZ=              0.6472
 Octapole moment (field-independent basis, Debye-Ang**2):
  XXX=             -1.7783  YYY=              1.4582  ZZZ=              2.4445  XYY=              1.9309
  XXY=             -1.5745  XXZ=              1.2401  XZZ=              0.8047  YZZ=              0.9591
  YYZ=              0.2384  XYZ=             -1.3508
 Hexadecapole moment (field-independent basis, Debye-Ang**3):
 XXXX=           -356.6184 YYYY=            -75.8032 ZZZZ=            -59.6696 XXXY=             10.9754
 XXXZ=             -0.9249 YYYX=              0.5852 YYYZ=             -0.3307 ZZZX=             -4.1196
 ZZZY=              1.0410 XXYY=            -74.7925 XXZZ=            -70.5602 YYZZ=            -20.9917
 XXYZ=              4.0591 YYXZ=             -0.4091 ZZXY=             -0.8524
 N-N= 1.092735135389D+02 E-N=-5.804376163770D+02  KE= 1.554849603305D+02
                          Isotropic Fermi Contact Couplings
        Atom                 a.u.       MegaHertz       Gauss      10(-4) cm-1
     1  C(13)              0.00504       5.66815       2.02254       1.89069
     2  C(13)              0.03227      36.27325      12.94320      12.09945
     3  H(1)              -0.00045      -2.00740      -0.71629      -0.66960
     4  H(1)              -0.00016      -0.71483      -0.25507      -0.23844
     5  H(1)              -0.00024      -1.05385      -0.37604      -0.35152
     6  C(13)              0.32736     368.01653     131.31745     122.75710
     7  H(1)               0.01989      88.89824      31.72110      29.65326
     8  H(1)               0.00216       9.65849       3.44639       3.22173
     9  C(13)              0.02496      28.05964      10.01238       9.35969
    10  H(1)               0.01321      59.04711      21.06948      19.69600
    11  H(1)               0.02726     121.84920      43.47882      40.64452
 --------------------------------------------------------
       Center         ----  Spin Dipole Couplings  ----
                      3XX-RR        3YY-RR        3ZZ-RR
 --------------------------------------------------------
     1   Atom        0.012646     -0.007754     -0.004892
     2   Atom        0.028476     -0.014705     -0.013771
     3   Atom        0.005659     -0.003350     -0.002310
     4   Atom        0.003069     -0.002702     -0.000367
     5   Atom        0.012279     -0.005497     -0.006782
     6   Atom       -0.510505     -0.168816      0.679321
     7   Atom        0.000617     -0.004245      0.003627
     8   Atom        0.002380      0.007565     -0.009945
     9   Atom        0.055746     -0.072160      0.016414
    10   Atom        0.020379     -0.010843     -0.009535
    11   Atom        0.001989     -0.007575      0.005585
 --------------------------------------------------------
                        XY            XZ            YZ
 --------------------------------------------------------
     1   Atom       -0.002330      0.008042     -0.000647
     2   Atom        0.051246      0.054453      0.031699
     3   Atom        0.000094      0.002558      0.000613
     4   Atom       -0.004530      0.006945     -0.002778
     5   Atom       -0.004441      0.000226      0.000662
     6   Atom       -0.055040     -0.056065      0.565086
     7   Atom        0.005127      0.002433      0.010589
     8   Atom        0.018305     -0.002585     -0.002402
     9   Atom        0.020970     -0.070163      0.034839
    10   Atom        0.007916     -0.008810     -0.001604
    11   Atom        0.000464     -0.008113      0.005229
 --------------------------------------------------------


 ---------------------------------------------------------------------------------
              Anisotropic Spin Dipole Couplings in Principal Axis System
 ---------------------------------------------------------------------------------

       Atom             a.u.   MegaHertz   Gauss  10(-4) cm-1        Axes

              Baa    -0.0083    -1.107    -0.395    -0.369  0.3267  0.6859 -0.6502
     1 C(13)  Bbb    -0.0078    -1.042    -0.372    -0.348 -0.1813  0.7207  0.6691
              Bcc     0.0160     2.150     0.767     0.717  0.9276 -0.1007  0.3598
 
              Baa    -0.0522    -7.006    -2.500    -2.337  0.6702 -0.3739 -0.6412
     2 C(13)  Bbb    -0.0457    -6.137    -2.190    -2.047 -0.1187  0.7987 -0.5899
              Bcc     0.0979    13.142     4.690     4.384  0.7326  0.4714  0.4909
 
              Baa    -0.0038    -2.022    -0.721    -0.674  0.1522  0.7921 -0.5912
     3 H(1)   Bbb    -0.0026    -1.402    -0.500    -0.468 -0.2401  0.6098  0.7553
              Bcc     0.0064     3.424     1.222     1.142  0.9588  0.0270  0.2829
 
              Baa    -0.0061    -3.232    -1.153    -1.078  0.6723  0.3833 -0.6334
     4 H(1)   Bbb    -0.0045    -2.426    -0.865    -0.809  0.0185  0.8466  0.5320
              Bcc     0.0106     5.657     2.019     1.887  0.7401 -0.3693  0.5620
 
              Baa    -0.0074    -3.932    -1.403    -1.312 -0.1505 -0.6270  0.7644
     5 H(1)   Bbb    -0.0060    -3.178    -1.134    -1.060  0.1733  0.7445  0.6448
              Bcc     0.0133     7.110     2.537     2.372  0.9733 -0.2295  0.0034
 
              Baa    -0.5225   -70.111   -25.017   -23.386  0.9459  0.3084 -0.1009
     6 C(13)  Bbb    -0.4431   -59.457   -21.216   -19.833 -0.3205  0.8395 -0.4387
              Bcc     0.9656   129.568    46.233    43.219 -0.0506  0.4473  0.8930
 
              Baa    -0.0123    -6.551    -2.337    -2.185 -0.2313  0.8258 -0.5144
     7 H(1)   Bbb    -0.0007    -0.385    -0.137    -0.128  0.8966 -0.0244 -0.4422
              Bcc     0.0130     6.936     2.475     2.314  0.3777  0.5635  0.7347
 
              Baa    -0.0136    -7.234    -2.581    -2.413  0.7572 -0.6432  0.1142
     8 H(1)   Bbb    -0.0103    -5.478    -1.955    -1.827 -0.0192  0.1528  0.9881
              Bcc     0.0238    12.712     4.536     4.240  0.6529  0.7503 -0.1034
 
              Baa    -0.0987   -13.240    -4.724    -4.416 -0.3165  0.8370 -0.4464
     9 C(13)  Bbb    -0.0104    -1.394    -0.498    -0.465  0.5217  0.5466  0.6551
              Bcc     0.1091    14.635     5.222     4.882  0.7923 -0.0255 -0.6096
 
              Baa    -0.0129    -6.906    -2.464    -2.304 -0.3094  0.8664 -0.3919
    10 H(1)   Bbb    -0.0117    -6.226    -2.221    -2.077  0.1326  0.4474  0.8844
              Bcc     0.0246    13.132     4.686     4.380  0.9416  0.2217 -0.2533
 
              Baa    -0.0104    -5.572    -1.988    -1.859 -0.3152  0.8436 -0.4348
    11 H(1)   Bbb    -0.0024    -1.272    -0.454    -0.424  0.7487  0.5026  0.4324
              Bcc     0.0128     6.844     2.442     2.283 -0.5832  0.1892  0.7900
 

 ---------------------------------------------------------------------------------

 Calling FoFJK, ICntrl=  10002127 FMM=F ISym2X=0 I1Cent= 0 IOpClX= 1 NMat=1 NMatS=1 NMatT=0.
 ***** Axes restored to original set *****
 -------------------------------------------------------------------
 Center     Atomic                   Forces (Hartrees/Bohr)
 Number     Number              X              Y              Z
 -------------------------------------------------------------------
      1        6          -0.002636783   -0.000818735   -0.000900629
      2        6          -0.005703133   -0.016992304    0.013870108
      3        1           0.001517129   -0.000658081   -0.000226754
      4        1          -0.000583794    0.000559590    0.001954104
      5        1           0.000735137    0.002466285   -0.001348539
      6        6           0.005941491    0.035060916   -0.024556012
      7        1           0.003683778   -0.001137367   -0.000217171
      8        1          -0.000114164    0.000364336   -0.002199260
      9        6          -0.014282107   -0.025350665    0.022448435
     10        1           0.009636149   -0.001605698   -0.002621152
     11        1           0.001806297    0.008111723   -0.006203129
 -------------------------------------------------------------------
 Cartesian Forces:  Max     0.035060916 RMS     0.010989873

 GradGradGradGradGradGradGradGradGradGradGradGradGradGradGradGradGradGrad
 Berny optimization.
 FormGI is forming the generalized inverse of G from B-inverse, IUseBI=4.
 Internal  Forces:  Max     0.040027680 RMS     0.007253503
 Search for a local minimum.
 Step number   1 out of a maximum of  100
 All quantities printed in internal units (Hartrees-Bohrs-Radians)
 Mixed Optimization -- RFO/linear search
 Second derivative matrix not updated -- first step.
 ITU=  0
     Eigenvalues ---    0.00344   0.00756   0.01346   0.03039   0.04756
     Eigenvalues ---    0.05500   0.05565   0.05803   0.11390   0.13859
     Eigenvalues ---    0.16000   0.16000   0.16000   0.16000   0.16000
     Eigenvalues ---    0.22010   0.25000   0.29249   0.32298   0.34193
     Eigenvalues ---    0.34406   0.34479   0.34586   0.34616   0.37230
     Eigenvalues ---    0.37230   0.59940
 RFO step:  Lambda=-8.14380600D-03 EMin= 3.44013592D-03
 Linear search not attempted -- first point.
 Iteration  1 RMS(Cart)=  0.06109542 RMS(Int)=  0.00218199
 Iteration  2 RMS(Cart)=  0.00336105 RMS(Int)=  0.00010907
 Iteration  3 RMS(Cart)=  0.00000302 RMS(Int)=  0.00010903
 Iteration  4 RMS(Cart)=  0.00000000 RMS(Int)=  0.00010903
 Variable       Old X    -DE/DX   Delta X   Delta X   Delta X     New X
                                 (Linear)    (Quad)   (Total)
    R1        2.89487   0.00014   0.00000   0.00045   0.00045   2.89532
    R2        2.06304  -0.00163   0.00000  -0.00460  -0.00460   2.05844
    R3        2.06352  -0.00211   0.00000  -0.00596  -0.00596   2.05756
    R4        2.06528  -0.00289   0.00000  -0.00819  -0.00819   2.05710
    R5        2.83601  -0.00664   0.00000  -0.02006  -0.02006   2.81595
    R6        2.06651  -0.00021   0.00000  -0.00060  -0.00060   2.06591
    R7        2.07005  -0.00189   0.00000  -0.00541  -0.00541   2.06464
    R8        2.50987  -0.01314   0.00000  -0.02163  -0.02163   2.48824
    R9        2.02201   0.00840   0.00000   0.02208   0.02208   2.04409
   R10        2.02201   0.01028   0.00000   0.02702   0.02702   2.04903
    A1        1.93970  -0.00019   0.00000  -0.00125  -0.00125   1.93844
    A2        1.92958   0.00029   0.00000   0.00162   0.00162   1.93121
    A3        1.93570  -0.00040   0.00000  -0.00217  -0.00217   1.93353
    A4        1.89147  -0.00011   0.00000  -0.00109  -0.00109   1.89038
    A5        1.88369   0.00034   0.00000   0.00218   0.00218   1.88586
    A6        1.88178   0.00009   0.00000   0.00081   0.00081   1.88259
    A7        1.95204   0.00519   0.00000   0.02299   0.02280   1.97484
    A8        1.92294   0.00086   0.00000   0.00215   0.00228   1.92521
    A9        1.90425  -0.00126   0.00000   0.00559   0.00522   1.90947
   A10        1.90853  -0.00518   0.00000  -0.04494  -0.04483   1.86370
   A11        1.90638  -0.00012   0.00000   0.01456   0.01416   1.92054
   A12        1.86770   0.00031   0.00000  -0.00106  -0.00103   1.86667
   A13        2.17922   0.04003   0.00000   0.15506   0.15506   2.33428
   A14        2.09440   0.00668   0.00000   0.03970   0.03970   2.13410
   A15        2.09440  -0.00197   0.00000  -0.01169  -0.01169   2.08271
   A16        2.09440  -0.00471   0.00000  -0.02801  -0.02802   2.06638
    D1        3.11408   0.00170   0.00000   0.03172   0.03181  -3.13730
    D2       -1.04251  -0.00077   0.00000  -0.00839  -0.00840  -1.05091
    D3        1.00306  -0.00064   0.00000  -0.00514  -0.00521   0.99785
    D4       -1.06788   0.00163   0.00000   0.03060   0.03068  -1.03719
    D5        1.05872  -0.00084   0.00000  -0.00952  -0.00952   1.04919
    D6        3.10429  -0.00071   0.00000  -0.00626  -0.00634   3.09795
    D7        1.01858   0.00167   0.00000   0.03126   0.03134   1.04992
    D8       -3.13801  -0.00080   0.00000  -0.00886  -0.00886   3.13631
    D9       -1.09244  -0.00067   0.00000  -0.00560  -0.00568  -1.09812
   D10        2.05661  -0.00051   0.00000  -0.03167  -0.03190   2.02470
   D11       -0.07825  -0.00146   0.00000  -0.01848  -0.01842  -0.09666
   D12       -2.11679   0.00118   0.00000   0.00004   0.00022  -2.11657
   D13       -3.12268  -0.00025   0.00000  -0.00703  -0.00703  -3.12972
   D14        0.01891  -0.00020   0.00000  -0.00469  -0.00468   0.01423
   D15        3.14159   0.00005   0.00000   0.00234   0.00233  -3.13926
         Item               Value     Threshold  Converged?
 Maximum Force            0.040028     0.000450     NO 
 RMS     Force            0.007254     0.000300     NO 
 Maximum Displacement     0.210306     0.001800     NO 
 RMS     Displacement     0.059864     0.001200     NO 
 Predicted change in Energy=-4.222490D-03
 GradGradGradGradGradGradGradGradGradGradGradGradGradGradGradGradGradGrad

                          Input orientation:                          
 ---------------------------------------------------------------------
 Center     Atomic      Atomic             Coordinates (Angstroms)
 Number     Number       Type             X           Y           Z
 ---------------------------------------------------------------------
      1          6           0       -1.727842   -0.265971   -0.290801
      2          6           0       -0.572786    0.544130    0.306715
      3          1           0       -2.654737    0.306083   -0.278503
      4          1           0       -1.510198   -0.542526   -1.321170
      5          1           0       -1.889555   -1.182452    0.273906
      6          6           0        0.721651   -0.194073    0.307468
      7          1           0       -0.413714    1.459654   -0.269189
      8          1           0       -0.830839    0.848381    1.323831
      9          6           0        1.879467   -0.002270   -0.289550
     10          1           0        2.713955   -0.678659   -0.162393
     11          1           0        2.009630    0.862379   -0.930755
 ---------------------------------------------------------------------
                    Distance matrix (angstroms):
                    1          2          3          4          5
     1  C    0.000000
     2  C    1.532137   0.000000
     3  H    1.089280   2.175699   0.000000
     4  H    1.088812   2.170155   1.765577   0.000000
     5  H    1.088569   2.171645   1.762497   1.760024   0.000000
     6  C    2.522520   1.490137   3.463164   2.784785   2.792206
     7  H    2.169142   1.093230   2.520515   2.513497   3.074700
     8  H    2.157181   1.092559   2.487603   3.064667   2.519426
     9  C    3.616934   2.582175   4.544690   3.584123   3.989465
    10  H    4.462774   3.538070   5.459491   4.382323   4.651501
    11  H    3.956187   2.881231   4.742491   3.809904   4.564667
                    6          7          8          9         10
     6  C    0.000000
     7  H    2.087198   0.000000
     8  H    2.128363   1.756519   0.000000
     9  C    1.316722   2.719617   3.266858   0.000000
    10  H    2.103537   3.790264   4.135973   1.081684   0.000000
    11  H    2.075615   2.582055   3.626517   1.084300   1.860444
                   11
    11  H    0.000000
 Stoichiometry    C4H7(2)
 Framework group  C1[X(C4H7)]
 Deg. of freedom    27
 Full point group                 C1      NOp   1
 Largest Abelian subgroup         C1      NOp   1
 Largest concise Abelian subgroup C1      NOp   1
                         Standard orientation:                         
 ---------------------------------------------------------------------
 Center     Atomic      Atomic             Coordinates (Angstroms)
 Number     Number       Type             X           Y           Z
 ---------------------------------------------------------------------
      1          6           0        1.702647   -0.397785    0.083686
      2          6           0        0.546651    0.602671   -0.017340
      3          1           0        2.621504    0.096026    0.397344
      4          1           0        1.471448   -1.180155    0.804766
      5          1           0        1.886754   -0.873691   -0.877876
      6          6           0       -0.737108   -0.026015   -0.438323
      7          1           0        0.365008    1.071824    0.953255
      8          1           0        0.817636    1.401577   -0.711603
      9          6           0       -1.907464   -0.184050    0.143954
     10          1           0       -2.730107   -0.691891   -0.341222
     11          1           0       -2.060601    0.207390    1.143469
 ---------------------------------------------------------------------
 Rotational constants (GHZ):          25.8297340           4.1841169           4.0014371
 Standard basis: CC-pVTZ (5D, 7F)
 There are   245 symmetry adapted cartesian basis functions of A   symmetry.
 There are   218 symmetry adapted basis functions of A   symmetry.
   218 basis functions,   327 primitive gaussians,   245 cartesian basis functions
    16 alpha electrons       15 beta electrons
       nuclear repulsion energy       108.8944539309 Hartrees.
 NAtoms=   11 NActive=   11 NUniq=   11 SFac= 1.00D+00 NAtFMM=   60 NAOKFM=F Big=F
 Integral buffers will be    131072 words long.
 Raffenetti 2 integral format.
 Two-electron integral symmetry is turned on.
 Nuclear repulsion after empirical dispersion term =      108.8894318073 Hartrees.
 One-electron integrals computed using PRISM.
 NBasis=   218 RedAO= T EigKep=  4.93D-04  NBF=   218
 NBsUse=   218 1.00D-06 EigRej= -1.00D+00 NBFU=   218
 Initial guess from the checkpoint file:  "/localscratch/339542/Gau-7649.chk"
 B after Tr=     0.000000   -0.000000   -0.000000
         Rot=    0.999573   -0.029072    0.001312    0.002539 Ang=  -3.35 deg.
 Initial guess <Sx>= 0.0000 <Sy>= 0.0000 <Sz>= 0.5000 <S**2>= 0.7788 S= 0.5143
 ExpMin= 1.03D-01 ExpMax= 8.24D+03 ExpMxC= 2.81D+02 IAcc=3 IRadAn=         5 AccDes= 0.00D+00
 Harris functional with IExCor=  419 and IRadAn=       5 diagonalized for initial guess.
 HarFok:  IExCor=  419 AccDes= 0.00D+00 IRadAn=         5 IDoV= 1 UseB2=F ITyADJ=14
 ICtDFT=  3500011 ScaDFX=  1.000000  1.000000  1.000000  1.000000
 FoFCou: FMM=F IPFlag=           0 FMFlag=      100000 FMFlg1=           0
         NFxFlg=           0 DoJE=T BraDBF=F KetDBF=T FulRan=T
         wScrn=  0.000000 ICntrl=       500 IOpCl=  0 I1Cent=   200000004 NGrid=           0
         NMat0=    1 NMatS0=      1 NMatT0=    0 NMatD0=    1 NMtDS0=    0 NMtDT0=    0
 Petite list used in FoFCou.
 Keep R1 and R2 ints in memory in canonical form, NReq=612885869.
 Requested convergence on RMS density matrix=1.00D-08 within 128 cycles.
 Requested convergence on MAX density matrix=1.00D-06.
 Requested convergence on             energy=1.00D-06.
 No special actions if energy rises.
 Integral accuracy reduced to 1.0D-05 until final iterations.
 Initial convergence to 1.0D-05 achieved.  Increase integral accuracy.
 SCF Done:  E(UB2PLYPD3) =  -156.233654334     A.U. after   15 cycles
            NFock= 15  Conv=0.54D-08     -V/T= 2.0048
 <Sx>= 0.0000 <Sy>= 0.0000 <Sz>= 0.5000 <S**2>= 0.7751 S= 0.5125
 <L.S>=  0.00000000000    
 Annihilation of the first spin contaminant:
 S**2 before annihilation     0.7751,   after     0.7502
 DoSCS=T DFT=T ScalE2(SS,OS)=  0.270000  0.270000
 ExpMin= 1.03D-01 ExpMax= 8.24D+03 ExpMxC= 2.81D+02 IAcc=3 IRadAn=         5 AccDes= 0.00D+00
 HarFok:  IExCor=  205 AccDes= 0.00D+00 IRadAn=         5 IDoV=-2 UseB2=F ITyADJ=14
 ICtDFT= 12500011 ScaDFX=  1.000000  1.000000  1.000000  1.000000
 Range of M.O.s used for correlation:     5   218
 NBasis=   218 NAE=    16 NBE=    15 NFC=     4 NFV=     0
 NROrb=    214 NOA=    12 NOB=    11 NVA=   202 NVB=   203

 **** Warning!!: The largest alpha MO coefficient is  0.11990777D+02


 **** Warning!!: The largest beta MO coefficient is  0.11989824D+02

 DoSCS=T DFT=T ScalE2(SS,OS)=  0.270000  0.270000
 Fully direct method using O(ONN) memory.
 JobTyp=2 Pass  1:  I=   5 to  16 NPSUse= 40 ParTrn=T ParDer=T DoDerP=T.
 JobTyp=3 Pass  1:  I=   5 to  15 NPSUse= 40 ParTrn=T ParDer=T DoDerP=T.
 Spin components of T(2) and E(2):
     alpha-alpha T2 =       0.4150690323D-01 E2=     -0.2587737535D-01
     alpha-beta  T2 =       0.2450864658D+00 E2=     -0.1631875173D+00
     beta-beta   T2 =       0.3671354736D-01 E2=     -0.2239371717D-01
 (S**2,0)=  0.77513D+00           (S**2,1)=  0.75778D+00
 Scaling Projection term by:   0.270000
 E(PUHF)=      -0.15623698268D+03        E(PMP2)=      -0.15644570298D+03
 E2(B2PLYPD3) =    -0.2114586098D+00 E(B2PLYPD3) =    -0.15644511294355D+03
          IDoAtm=11111111111
          Differentiating once with respect to electric field.
                with respect to dipole field.
          Differentiating once with respect to nuclear coordinates.
 Keep R1 and R2 ints in memory in canonical form, NReq=612894013.
          There are     1 degrees of freedom in the 1st order CPHF.  IDoFFX=0 NUNeed=     1.
 LinEq1:  Iter=  0 NonCon=     1 RMS=7.90D-04 Max=2.08D-02 NDo=     1
 AX will form     1 AO Fock derivatives at one time.
 LinEq1:  Iter=  1 NonCon=     1 RMS=3.18D-04 Max=1.06D-02 NDo=     1
 LinEq1:  Iter=  2 NonCon=     1 RMS=2.12D-04 Max=6.78D-03 NDo=     1
 LinEq1:  Iter=  3 NonCon=     1 RMS=8.16D-05 Max=2.97D-03 NDo=     1
 LinEq1:  Iter=  4 NonCon=     1 RMS=4.84D-05 Max=1.33D-03 NDo=     1
 LinEq1:  Iter=  5 NonCon=     1 RMS=1.31D-05 Max=2.34D-04 NDo=     1
 LinEq1:  Iter=  6 NonCon=     1 RMS=5.44D-06 Max=6.75D-05 NDo=     1
 LinEq1:  Iter=  7 NonCon=     1 RMS=2.17D-06 Max=2.24D-05 NDo=     1
 LinEq1:  Iter=  8 NonCon=     1 RMS=7.31D-07 Max=9.18D-06 NDo=     1
 LinEq1:  Iter=  9 NonCon=     1 RMS=2.41D-07 Max=3.51D-06 NDo=     1
 LinEq1:  Iter= 10 NonCon=     1 RMS=5.92D-08 Max=8.90D-07 NDo=     1
 LinEq1:  Iter= 11 NonCon=     1 RMS=1.84D-08 Max=3.81D-07 NDo=     1
 LinEq1:  Iter= 12 NonCon=     1 RMS=8.66D-09 Max=3.22D-07 NDo=     1
 LinEq1:  Iter= 13 NonCon=     1 RMS=3.19D-09 Max=1.28D-07 NDo=     1
 LinEq1:  Iter= 14 NonCon=     1 RMS=1.03D-09 Max=2.36D-08 NDo=     1
 LinEq1:  Iter= 15 NonCon=     1 RMS=2.96D-10 Max=6.84D-09 NDo=     1
 LinEq1:  Iter= 16 NonCon=     1 RMS=7.34D-11 Max=1.30D-09 NDo=     1
 LinEq1:  Iter= 17 NonCon=     0 RMS=1.47D-11 Max=1.38D-10 NDo=     1
 Linear equations converged to 1.000D-10 1.000D-09 after    17 iterations.
 End of Minotr F.D. properties file   721 does not exist.
 End of Minotr F.D. properties file   722 does not exist.
 End of Minotr F.D. properties file   788 does not exist.
 Calling FoFJK, ICntrl=  10002127 FMM=F ISym2X=0 I1Cent= 0 IOpClX= 1 NMat=1 NMatS=1 NMatT=0.
 ***** Axes restored to original set *****
 -------------------------------------------------------------------
 Center     Atomic                   Forces (Hartrees/Bohr)
 Number     Number              X              Y              Z
 -------------------------------------------------------------------
      1        6           0.000513333   -0.000379099   -0.000492716
      2        6           0.003727830   -0.008228821    0.003072077
      3        1           0.000671871    0.000437776    0.000190558
      4        1          -0.000063787    0.000052589    0.000210992
      5        1           0.000200704    0.000125231    0.000084862
      6        6          -0.000492252    0.010381605   -0.006555128
      7        1          -0.000591129    0.002171380   -0.000900798
      8        1           0.001110293   -0.000227411   -0.000605559
      9        6          -0.008014121   -0.007304800    0.008208503
     10        1           0.000556952    0.001204605   -0.001111636
     11        1           0.002380307    0.001766944   -0.002101154
 -------------------------------------------------------------------
 Cartesian Forces:  Max     0.010381605 RMS     0.003701654

 GradGradGradGradGradGradGradGradGradGradGradGradGradGradGradGradGradGrad
 Berny optimization.
 Using GEDIIS/GDIIS optimizer.
 FormGI is forming the generalized inverse of G from B-inverse, IUseBI=4.
 Internal  Forces:  Max     0.010711319 RMS     0.002528994
 Search for a local minimum.
 Step number   2 out of a maximum of  100
 All quantities printed in internal units (Hartrees-Bohrs-Radians)
 Mixed Optimization -- RFO/linear search
 Update second derivatives using D2CorX and points    1    2
 DE= -4.97D-03 DEPred=-4.22D-03 R= 1.18D+00
 TightC=F SS=  1.41D+00  RLast= 1.90D-01 DXNew= 5.0454D-01 5.7135D-01
 Trust test= 1.18D+00 RLast= 1.90D-01 DXMaxT set to 5.05D-01
 ITU=  1  0
 Use linear search instead of GDIIS.
     Eigenvalues ---    0.00344   0.00758   0.01356   0.03040   0.04773
     Eigenvalues ---    0.05511   0.05566   0.05733   0.11594   0.14004
     Eigenvalues ---    0.14906   0.16000   0.16000   0.16000   0.16306
     Eigenvalues ---    0.19200   0.22284   0.29289   0.32657   0.34178
     Eigenvalues ---    0.34424   0.34552   0.34609   0.34731   0.37026
     Eigenvalues ---    0.37934   0.58770
 RFO step:  Lambda=-6.80450128D-04 EMin= 3.44144536D-03
 Quartic linear search produced a step of  0.40033.
 Iteration  1 RMS(Cart)=  0.03543275 RMS(Int)=  0.00093456
 Iteration  2 RMS(Cart)=  0.00126006 RMS(Int)=  0.00004330
 Iteration  3 RMS(Cart)=  0.00000048 RMS(Int)=  0.00004330
 Variable       Old X    -DE/DX   Delta X   Delta X   Delta X     New X
                                 (Linear)    (Quad)   (Total)
    R1        2.89532  -0.00112   0.00018  -0.00548  -0.00530   2.89002
    R2        2.05844  -0.00034  -0.00184  -0.00002  -0.00186   2.05658
    R3        2.05756  -0.00023  -0.00239   0.00084  -0.00155   2.05601
    R4        2.05710  -0.00009  -0.00328   0.00203  -0.00124   2.05585
    R5        2.81595  -0.00783  -0.00803  -0.02803  -0.03606   2.77989
    R6        2.06591   0.00221  -0.00024   0.00914   0.00890   2.07480
    R7        2.06464  -0.00089  -0.00217  -0.00205  -0.00421   2.06042
    R8        2.48824  -0.00736  -0.00866  -0.01061  -0.01927   2.46897
    R9        2.04409  -0.00045   0.00884  -0.00822   0.00062   2.04470
   R10        2.04903   0.00294   0.01082   0.00305   0.01387   2.06290
    A1        1.93844  -0.00105  -0.00050  -0.00982  -0.01033   1.92812
    A2        1.93121   0.00026   0.00065   0.00230   0.00295   1.93416
    A3        1.93353  -0.00014  -0.00087  -0.00013  -0.00101   1.93253
    A4        1.89038   0.00034  -0.00044   0.00222   0.00178   1.89216
    A5        1.88586   0.00056   0.00087   0.00342   0.00428   1.89014
    A6        1.88259   0.00008   0.00032   0.00242   0.00274   1.88533
    A7        1.97484  -0.00038   0.00913  -0.00834   0.00071   1.97555
    A8        1.92521  -0.00051   0.00091  -0.00390  -0.00294   1.92227
    A9        1.90947   0.00095   0.00209   0.00625   0.00820   1.91768
   A10        1.86370   0.00097  -0.01795   0.02363   0.00573   1.86943
   A11        1.92054  -0.00078   0.00567  -0.01388  -0.00837   1.91217
   A12        1.86667  -0.00027  -0.00041  -0.00342  -0.00381   1.86286
   A13        2.33428   0.01071   0.06207   0.01568   0.07775   2.41204
   A14        2.13410   0.00081   0.01589  -0.00349   0.01240   2.14650
   A15        2.08271   0.00178  -0.00468   0.01866   0.01398   2.09668
   A16        2.06638  -0.00260  -0.01122  -0.01516  -0.02638   2.04000
    D1       -3.13730  -0.00037   0.01273   0.00307   0.01584  -3.12146
    D2       -1.05091   0.00026  -0.00336   0.02492   0.02156  -1.02935
    D3        0.99785   0.00019  -0.00209   0.02221   0.02010   1.01794
    D4       -1.03719  -0.00047   0.01228   0.00090   0.01322  -1.02398
    D5        1.04919   0.00016  -0.00381   0.02275   0.01894   1.06813
    D6        3.09795   0.00010  -0.00254   0.02004   0.01747   3.11542
    D7        1.04992  -0.00028   0.01255   0.00534   0.01792   1.06784
    D8        3.13631   0.00034  -0.00355   0.02719   0.02364  -3.12324
    D9       -1.09812   0.00028  -0.00227   0.02448   0.02217  -1.07595
   D10        2.02470  -0.00020  -0.01277  -0.00639  -0.01925   2.00545
   D11       -0.09666   0.00000  -0.00737  -0.01261  -0.01996  -0.11662
   D12       -2.11657   0.00019   0.00009  -0.01448  -0.01432  -2.13090
   D13       -3.12972   0.00009  -0.00282   0.00407   0.00124  -3.12847
   D14        0.01423   0.00009  -0.00187   0.00429   0.00243   0.01666
   D15       -3.13926  -0.00001   0.00093   0.00018   0.00110  -3.13816
         Item               Value     Threshold  Converged?
 Maximum Force            0.010711     0.000450     NO 
 RMS     Force            0.002529     0.000300     NO 
 Maximum Displacement     0.112797     0.001800     NO 
 RMS     Displacement     0.035385     0.001200     NO 
 Predicted change in Energy=-6.549325D-04
 GradGradGradGradGradGradGradGradGradGradGradGradGradGradGradGradGradGrad

                          Input orientation:                          
 ---------------------------------------------------------------------
 Center     Atomic      Atomic             Coordinates (Angstroms)
 Number     Number       Type             X           Y           Z
 ---------------------------------------------------------------------
      1          6           0       -1.724329   -0.271492   -0.290985
      2          6           0       -0.584039    0.553650    0.307133
      3          1           0       -2.655132    0.291903   -0.266966
      4          1           0       -1.509438   -0.536238   -1.324164
      5          1           0       -1.868122   -1.192701    0.269593
      6          6           0        0.711324   -0.142976    0.279816
      7          1           0       -0.459638    1.489110   -0.254034
      8          1           0       -0.826847    0.832747    1.332788
      9          6           0        1.878634   -0.006728   -0.290997
     10          1           0        2.693300   -0.702490   -0.139396
     11          1           0        2.069320    0.839890   -0.953228
 ---------------------------------------------------------------------
                    Distance matrix (angstroms):
                    1          2          3          4          5
     1  C    0.000000
     2  C    1.529335   0.000000
     3  H    1.088295   2.165070   0.000000
     4  H    1.087992   2.169181   1.765248   0.000000
     5  H    1.087911   2.167953   1.763896   1.760584   0.000000
     6  C    2.504942   1.471053   3.438185   2.767523   2.784882
     7  H    2.168070   1.097939   2.500733   2.519780   3.074105
     8  H    2.159040   1.090329   2.488846   3.065851   2.513379
     9  C    3.612678   2.595485   4.543654   3.581458   3.969757
    10  H    4.441192   3.538111   5.441582   4.369704   4.605882
    11  H    4.008180   2.951399   4.805382   3.852120   4.596756
                    6          7          8          9         10
     6  C    0.000000
     7  H    2.078425   0.000000
     8  H    2.103985   1.756035   0.000000
     9  C    1.306524   2.776043   3.265122   0.000000
    10  H    2.101672   3.841519   4.112871   1.082011   0.000000
    11  H    2.081004   2.702959   3.689675   1.091638   1.852190
                   11
    11  H    0.000000
 Stoichiometry    C4H7(2)
 Framework group  C1[X(C4H7)]
 Deg. of freedom    27
 Full point group                 C1      NOp   1
 Largest Abelian subgroup         C1      NOp   1
 Largest concise Abelian subgroup C1      NOp   1
                         Standard orientation:                         
 ---------------------------------------------------------------------
 Center     Atomic      Atomic             Coordinates (Angstroms)
 Number     Number       Type             X           Y           Z
 ---------------------------------------------------------------------
      1          6           0        1.695719   -0.409365    0.074164
      2          6           0        0.555520    0.606228   -0.011767
      3          1           0        2.618107    0.079073    0.382407
      4          1           0        1.463664   -1.191262    0.794244
      5          1           0        1.865077   -0.880706   -0.891603
      6          6           0       -0.729341    0.003325   -0.398599
      7          1           0        0.405318    1.089269    0.962697
      8          1           0        0.815108    1.396172   -0.717047
      9          6           0       -1.910103   -0.192830    0.125164
     10          1           0       -2.710754   -0.697406   -0.399343
     11          1           0       -2.127293    0.160709    1.134873
 ---------------------------------------------------------------------
 Rotational constants (GHZ):          26.0742674           4.2024680           3.9968254
 Standard basis: CC-pVTZ (5D, 7F)
 There are   245 symmetry adapted cartesian basis functions of A   symmetry.
 There are   218 symmetry adapted basis functions of A   symmetry.
   218 basis functions,   327 primitive gaussians,   245 cartesian basis functions
    16 alpha electrons       15 beta electrons
       nuclear repulsion energy       109.1806781765 Hartrees.
 NAtoms=   11 NActive=   11 NUniq=   11 SFac= 1.00D+00 NAtFMM=   60 NAOKFM=F Big=F
 Integral buffers will be    131072 words long.
 Raffenetti 2 integral format.
 Two-electron integral symmetry is turned on.
 Nuclear repulsion after empirical dispersion term =      109.1756634524 Hartrees.
 One-electron integrals computed using PRISM.
 NBasis=   218 RedAO= T EigKep=  4.46D-04  NBF=   218
 NBsUse=   218 1.00D-06 EigRej= -1.00D+00 NBFU=   218
 Initial guess from the checkpoint file:  "/localscratch/339542/Gau-7649.chk"
 B after Tr=    -0.000000    0.000000   -0.000000
         Rot=    0.999963   -0.008519    0.000757    0.001192 Ang=  -0.99 deg.
 Initial guess <Sx>= 0.0000 <Sy>= 0.0000 <Sz>= 0.5000 <S**2>= 0.7748 S= 0.5123
 ExpMin= 1.03D-01 ExpMax= 8.24D+03 ExpMxC= 2.81D+02 IAcc=3 IRadAn=         5 AccDes= 0.00D+00
 Harris functional with IExCor=  419 and IRadAn=       5 diagonalized for initial guess.
 HarFok:  IExCor=  419 AccDes= 0.00D+00 IRadAn=         5 IDoV= 1 UseB2=F ITyADJ=14
 ICtDFT=  3500011 ScaDFX=  1.000000  1.000000  1.000000  1.000000
 FoFCou: FMM=F IPFlag=           0 FMFlag=      100000 FMFlg1=           0
         NFxFlg=           0 DoJE=T BraDBF=F KetDBF=T FulRan=T
         wScrn=  0.000000 ICntrl=       500 IOpCl=  0 I1Cent=   200000004 NGrid=           0
         NMat0=    1 NMatS0=      1 NMatT0=    0 NMatD0=    1 NMtDS0=    0 NMtDT0=    0
 Petite list used in FoFCou.
 Keep R1 and R2 ints in memory in canonical form, NReq=612885869.
 Requested convergence on RMS density matrix=1.00D-08 within 128 cycles.
 Requested convergence on MAX density matrix=1.00D-06.
 Requested convergence on             energy=1.00D-06.
 No special actions if energy rises.
 Integral accuracy reduced to 1.0D-05 until final iterations.
 Initial convergence to 1.0D-05 achieved.  Increase integral accuracy.
 SCF Done:  E(UB2PLYPD3) =  -156.234489435     A.U. after   14 cycles
            NFock= 14  Conv=0.46D-08     -V/T= 2.0045
 <Sx>= 0.0000 <Sy>= 0.0000 <Sz>= 0.5000 <S**2>= 0.7729 S= 0.5114
 <L.S>=  0.00000000000    
 Annihilation of the first spin contaminant:
 S**2 before annihilation     0.7729,   after     0.7502
 DoSCS=T DFT=T ScalE2(SS,OS)=  0.270000  0.270000
 ExpMin= 1.03D-01 ExpMax= 8.24D+03 ExpMxC= 2.81D+02 IAcc=3 IRadAn=         5 AccDes= 0.00D+00
 HarFok:  IExCor=  205 AccDes= 0.00D+00 IRadAn=         5 IDoV=-2 UseB2=F ITyADJ=14
 ICtDFT= 12500011 ScaDFX=  1.000000  1.000000  1.000000  1.000000
 Range of M.O.s used for correlation:     5   218
 NBasis=   218 NAE=    16 NBE=    15 NFC=     4 NFV=     0
 NROrb=    214 NOA=    12 NOB=    11 NVA=   202 NVB=   203

 **** Warning!!: The largest alpha MO coefficient is  0.12864311D+02


 **** Warning!!: The largest beta MO coefficient is  0.12872902D+02

 DoSCS=T DFT=T ScalE2(SS,OS)=  0.270000  0.270000
 Fully direct method using O(ONN) memory.
 JobTyp=2 Pass  1:  I=   5 to  16 NPSUse= 40 ParTrn=T ParDer=T DoDerP=T.
 JobTyp=3 Pass  1:  I=   5 to  15 NPSUse= 40 ParTrn=T ParDer=T DoDerP=T.
 Spin components of T(2) and E(2):
     alpha-alpha T2 =       0.4141579952D-01 E2=     -0.2589796776D-01
     alpha-beta  T2 =       0.2439745355D+00 E2=     -0.1631054887D+00
     beta-beta   T2 =       0.3663273556D-01 E2=     -0.2241541567D-01
 (S**2,0)=  0.77295D+00           (S**2,1)=  0.75624D+00
 Scaling Projection term by:   0.270000
 E(PUHF)=      -0.15623779048D+03        E(PMP2)=      -0.15644647695D+03
 E2(B2PLYPD3) =    -0.2114188721D+00 E(B2PLYPD3) =    -0.15644590830705D+03
          IDoAtm=11111111111
          Differentiating once with respect to electric field.
                with respect to dipole field.
          Differentiating once with respect to nuclear coordinates.
 Keep R1 and R2 ints in memory in canonical form, NReq=612894013.
          There are     1 degrees of freedom in the 1st order CPHF.  IDoFFX=0 NUNeed=     1.
 LinEq1:  Iter=  0 NonCon=     1 RMS=7.83D-04 Max=2.24D-02 NDo=     1
 AX will form     1 AO Fock derivatives at one time.
 LinEq1:  Iter=  1 NonCon=     1 RMS=3.12D-04 Max=9.53D-03 NDo=     1
 LinEq1:  Iter=  2 NonCon=     1 RMS=2.05D-04 Max=6.37D-03 NDo=     1
 LinEq1:  Iter=  3 NonCon=     1 RMS=8.22D-05 Max=2.94D-03 NDo=     1
 LinEq1:  Iter=  4 NonCon=     1 RMS=4.85D-05 Max=1.30D-03 NDo=     1
 LinEq1:  Iter=  5 NonCon=     1 RMS=1.25D-05 Max=1.99D-04 NDo=     1
 LinEq1:  Iter=  6 NonCon=     1 RMS=5.08D-06 Max=6.27D-05 NDo=     1
 LinEq1:  Iter=  7 NonCon=     1 RMS=2.05D-06 Max=2.20D-05 NDo=     1
 LinEq1:  Iter=  8 NonCon=     1 RMS=7.07D-07 Max=8.91D-06 NDo=     1
 LinEq1:  Iter=  9 NonCon=     1 RMS=2.33D-07 Max=3.18D-06 NDo=     1
 LinEq1:  Iter= 10 NonCon=     1 RMS=5.81D-08 Max=8.69D-07 NDo=     1
 LinEq1:  Iter= 11 NonCon=     1 RMS=1.79D-08 Max=2.45D-07 NDo=     1
 LinEq1:  Iter= 12 NonCon=     1 RMS=7.50D-09 Max=2.20D-07 NDo=     1
 LinEq1:  Iter= 13 NonCon=     1 RMS=2.67D-09 Max=1.12D-07 NDo=     1
 LinEq1:  Iter= 14 NonCon=     1 RMS=9.45D-10 Max=2.91D-08 NDo=     1
 LinEq1:  Iter= 15 NonCon=     1 RMS=2.88D-10 Max=6.54D-09 NDo=     1
 LinEq1:  Iter= 16 NonCon=     1 RMS=7.12D-11 Max=1.37D-09 NDo=     1
 LinEq1:  Iter= 17 NonCon=     0 RMS=1.37D-11 Max=1.40D-10 NDo=     1
 Linear equations converged to 1.000D-10 1.000D-09 after    17 iterations.
 End of Minotr F.D. properties file   721 does not exist.
 End of Minotr F.D. properties file   722 does not exist.
 End of Minotr F.D. properties file   788 does not exist.
 Calling FoFJK, ICntrl=  10002127 FMM=F ISym2X=0 I1Cent= 0 IOpClX= 1 NMat=1 NMatS=1 NMatT=0.
 ***** Axes restored to original set *****
 -------------------------------------------------------------------
 Center     Atomic                   Forces (Hartrees/Bohr)
 Number     Number              X              Y              Z
 -------------------------------------------------------------------
      1        6          -0.000635328   -0.000013169    0.000151558
      2        6           0.002455388   -0.000264582   -0.001005319
      3        1          -0.000379584   -0.000017308   -0.000039774
      4        1           0.000159315    0.000046082   -0.000121432
      5        1          -0.000043792   -0.000274464    0.000055255
      6        6          -0.001268024   -0.000738771    0.000898238
      7        1          -0.001504271    0.000720803    0.000175759
      8        1          -0.000361745    0.000337720    0.000550432
      9        6           0.000953223    0.000836301   -0.000829219
     10        1          -0.000215304    0.000134269   -0.000128056
     11        1           0.000840122   -0.000766881    0.000292558
 -------------------------------------------------------------------
 Cartesian Forces:  Max     0.002455388 RMS     0.000736134

 GradGradGradGradGradGradGradGradGradGradGradGradGradGradGradGradGradGrad
 Berny optimization.
 Using GEDIIS/GDIIS optimizer.
 FormGI is forming the generalized inverse of G from B-inverse, IUseBI=4.
 Internal  Forces:  Max     0.002068247 RMS     0.000648204
 Search for a local minimum.
 Step number   3 out of a maximum of  100
 All quantities printed in internal units (Hartrees-Bohrs-Radians)
 Mixed Optimization -- En-DIIS/RFO-DIIS
 Update second derivatives using D2CorX and points    1    2    3
 DE= -7.95D-04 DEPred=-6.55D-04 R= 1.21D+00
 TightC=F SS=  1.41D+00  RLast= 1.17D-01 DXNew= 8.4853D-01 3.5165D-01
 Trust test= 1.21D+00 RLast= 1.17D-01 DXMaxT set to 5.05D-01
 ITU=  1  1  0
 Use linear search instead of GDIIS.
     Eigenvalues ---    0.00343   0.00755   0.01381   0.03039   0.04754
     Eigenvalues ---    0.05556   0.05582   0.05647   0.11189   0.12065
     Eigenvalues ---    0.14425   0.16000   0.16000   0.16087   0.16330
     Eigenvalues ---    0.18377   0.22443   0.29352   0.33420   0.34307
     Eigenvalues ---    0.34473   0.34569   0.34648   0.34772   0.37291
     Eigenvalues ---    0.38005   0.60998
 RFO step:  Lambda=-1.22207430D-04 EMin= 3.42692851D-03
 Quartic linear search produced a step of  0.09505.
 Iteration  1 RMS(Cart)=  0.01845819 RMS(Int)=  0.00020410
 Iteration  2 RMS(Cart)=  0.00022539 RMS(Int)=  0.00001190
 Iteration  3 RMS(Cart)=  0.00000002 RMS(Int)=  0.00001190
 Variable       Old X    -DE/DX   Delta X   Delta X   Delta X     New X
                                 (Linear)    (Quad)   (Total)
    R1        2.89002   0.00079  -0.00050   0.00310   0.00259   2.89262
    R2        2.05658   0.00031  -0.00018   0.00091   0.00073   2.05731
    R3        2.05601   0.00014  -0.00015   0.00030   0.00016   2.05616
    R4        2.05585   0.00027  -0.00012   0.00065   0.00053   2.05638
    R5        2.77989   0.00052  -0.00343   0.00218  -0.00125   2.77864
    R6        2.07480   0.00035   0.00085   0.00086   0.00170   2.07651
    R7        2.06042   0.00068  -0.00040   0.00214   0.00174   2.06216
    R8        2.46897   0.00172  -0.00183   0.00307   0.00124   2.47021
    R9        2.04470  -0.00027   0.00006  -0.00019  -0.00013   2.04457
   R10        2.06290  -0.00063   0.00132  -0.00146  -0.00014   2.06275
    A1        1.92812   0.00035  -0.00098   0.00301   0.00203   1.93015
    A2        1.93416  -0.00031   0.00028  -0.00251  -0.00223   1.93193
    A3        1.93253   0.00008  -0.00010   0.00050   0.00040   1.93293
    A4        1.89216  -0.00002   0.00017  -0.00015   0.00002   1.89218
    A5        1.89014  -0.00015   0.00041  -0.00029   0.00011   1.89025
    A6        1.88533   0.00004   0.00026  -0.00061  -0.00035   1.88499
    A7        1.97555  -0.00050   0.00007  -0.00034  -0.00029   1.97527
    A8        1.92227  -0.00070  -0.00028  -0.00350  -0.00382   1.91846
    A9        1.91768  -0.00009   0.00078  -0.00595  -0.00519   1.91248
   A10        1.86943   0.00146   0.00054   0.01678   0.01732   1.88675
   A11        1.91217   0.00006  -0.00080  -0.00159  -0.00240   1.90977
   A12        1.86286  -0.00019  -0.00036  -0.00521  -0.00561   1.85725
   A13        2.41204   0.00207   0.00739   0.01128   0.01867   2.43070
   A14        2.14650  -0.00064   0.00118  -0.00350  -0.00233   2.14417
   A15        2.09668   0.00134   0.00133   0.00839   0.00972   2.10641
   A16        2.04000  -0.00070  -0.00251  -0.00489  -0.00740   2.03260
    D1       -3.12146  -0.00046   0.00151  -0.01338  -0.01187  -3.13332
    D2       -1.02935   0.00058   0.00205   0.00536   0.00740  -1.02195
    D3        1.01794  -0.00011   0.00191  -0.00665  -0.00473   1.01321
    D4       -1.02398  -0.00045   0.00126  -0.01323  -0.01197  -1.03594
    D5        1.06813   0.00059   0.00180   0.00551   0.00730   1.07543
    D6        3.11542  -0.00011   0.00166  -0.00650  -0.00483   3.11059
    D7        1.06784  -0.00055   0.00170  -0.01530  -0.01359   1.05425
    D8       -3.12324   0.00049   0.00225   0.00344   0.00567  -3.11756
    D9       -1.07595  -0.00021   0.00211  -0.00857  -0.00646  -1.08241
   D10        2.00545   0.00020  -0.00183   0.01970   0.01790   2.02335
   D11       -0.11662   0.00037  -0.00190   0.01268   0.01076  -0.10587
   D12       -2.13090  -0.00022  -0.00136   0.01058   0.00922  -2.12168
   D13       -3.12847   0.00016   0.00012   0.00539   0.00551  -3.12296
   D14        0.01666   0.00015   0.00023   0.00504   0.00527   0.02193
   D15       -3.13816  -0.00001   0.00010  -0.00037  -0.00027  -3.13843
         Item               Value     Threshold  Converged?
 Maximum Force            0.002068     0.000450     NO 
 RMS     Force            0.000648     0.000300     NO 
 Maximum Displacement     0.071058     0.001800     NO 
 RMS     Displacement     0.018473     0.001200     NO 
 Predicted change in Energy=-6.706389D-05
 GradGradGradGradGradGradGradGradGradGradGradGradGradGradGradGradGradGrad

                          Input orientation:                          
 ---------------------------------------------------------------------
 Center     Atomic      Atomic             Coordinates (Angstroms)
 Number     Number       Type             X           Y           Z
 ---------------------------------------------------------------------
      1          6           0       -1.728373   -0.273127   -0.288693
      2          6           0       -0.586062    0.559343    0.298830
      3          1           0       -2.664648    0.281138   -0.251123
      4          1           0       -1.522664   -0.530437   -1.325699
      5          1           0       -1.856765   -1.199019    0.268442
      6          6           0        0.710720   -0.132996    0.266077
      7          1           0       -0.484420    1.501209   -0.257953
      8          1           0       -0.825100    0.833596    1.327649
      9          6           0        1.886966   -0.007271   -0.290123
     10          1           0        2.688458   -0.717308   -0.135018
     11          1           0        2.106922    0.839547   -0.942830
 ---------------------------------------------------------------------
                    Distance matrix (angstroms):
                    1          2          3          4          5
     1  C    0.000000
     2  C    1.530706   0.000000
     3  H    1.088683   2.168032   0.000000
     4  H    1.088075   2.168856   1.765642   0.000000
     5  H    1.088191   2.169665   1.764508   1.760657   0.000000
     6  C    2.505311   1.470391   3.439784   2.771230   2.779999
     7  H    2.167171   1.098840   2.498402   2.519051   3.074354
     8  H    2.157151   1.091249   2.486296   3.063893   2.513519
     9  C    3.625101   2.604570   4.560908   3.601624   3.968347
    10  H    4.441768   3.541262   5.446660   4.380204   4.588450
    11  H    4.046657   2.978657   4.853675   3.898377   4.618847
                    6          7          8          9         10
     6  C    0.000000
     7  H    2.091314   0.000000
     8  H    2.102375   1.753825   0.000000
     9  C    1.307180   2.810697   3.267957   0.000000
    10  H    2.100891   3.873511   4.109719   1.081942   0.000000
    11  H    2.087265   2.760781   3.708351   1.091563   1.847848
                   11
    11  H    0.000000
 Stoichiometry    C4H7(2)
[...]
                                 (Linear)    (Quad)   (Total)
    R1        2.89455  -0.00002   0.00000  -0.00010  -0.00010   2.89445
    R2        2.05729   0.00000   0.00000   0.00001   0.00001   2.05730
    R3        2.05655  -0.00000   0.00000   0.00000   0.00000   2.05656
    R4        2.05647   0.00000   0.00000   0.00001   0.00001   2.05648
    R5        2.77732  -0.00000   0.00000  -0.00003  -0.00003   2.77730
    R6        2.07554   0.00001   0.00000   0.00004   0.00004   2.07558
    R7        2.06313   0.00000   0.00000   0.00003   0.00003   2.06316
    R8        2.47043  -0.00001   0.00000  -0.00003  -0.00003   2.47040
    R9        2.04494  -0.00001   0.00000  -0.00003  -0.00003   2.04490
   R10        2.06054   0.00002   0.00000   0.00007   0.00007   2.06062
    A1        1.93003  -0.00000   0.00000  -0.00002  -0.00002   1.93002
    A2        1.93181   0.00000   0.00000   0.00004   0.00004   1.93185
    A3        1.93271   0.00001   0.00000   0.00005   0.00005   1.93277
    A4        1.89222  -0.00000   0.00000  -0.00003  -0.00003   1.89219
    A5        1.89069  -0.00000   0.00000  -0.00002  -0.00002   1.89067
    A6        1.88496  -0.00000   0.00000  -0.00003  -0.00003   1.88494
    A7        1.97286   0.00002   0.00000   0.00020   0.00020   1.97306
    A8        1.91659  -0.00000   0.00000   0.00001   0.00001   1.91660
    A9        1.91243  -0.00000   0.00000  -0.00002  -0.00002   1.91241
   A10        1.89219  -0.00000   0.00000   0.00002   0.00002   1.89221
   A11        1.90894  -0.00001   0.00000  -0.00013  -0.00013   1.90881
   A12        1.85716  -0.00000   0.00000  -0.00010  -0.00010   1.85706
   A13        2.43649   0.00000   0.00000   0.00000   0.00000   2.43650
   A14        2.13750   0.00003   0.00000   0.00030   0.00030   2.13780
   A15        2.11245  -0.00001   0.00000  -0.00014  -0.00014   2.11231
   A16        2.03323  -0.00002   0.00000  -0.00017  -0.00017   2.03307
    D1       -3.14042  -0.00000   0.00000   0.00019   0.00019  -3.14023
    D2       -1.02504   0.00000   0.00000   0.00036   0.00036  -1.02469
    D3        1.00888  -0.00000   0.00000   0.00024   0.00024   1.00912
    D4       -1.04314  -0.00000   0.00000   0.00017   0.00017  -1.04297
    D5        1.07224   0.00000   0.00000   0.00033   0.00033   1.07257
    D6        3.10616  -0.00000   0.00000   0.00021   0.00021   3.10637
    D7        1.04681  -0.00000   0.00000   0.00019   0.00019   1.04700
    D8       -3.12100   0.00000   0.00000   0.00036   0.00036  -3.12064
    D9       -1.08708  -0.00000   0.00000   0.00024   0.00024  -1.08684
   D10        2.04468   0.00001   0.00000   0.00168   0.00168   2.04636
   D11       -0.08444  -0.00000   0.00000   0.00152   0.00152  -0.08292
   D12       -2.10268   0.00001   0.00000   0.00170   0.00170  -2.10098
   D13       -3.12748  -0.00001   0.00000  -0.00059  -0.00059  -3.12807
   D14        0.01692  -0.00000   0.00000  -0.00067  -0.00067   0.01625
   D15       -3.13891   0.00000   0.00000  -0.00007  -0.00007  -3.13898
         Item               Value     Threshold  Converged?
 Maximum Force            0.000030     0.000450     YES
 RMS     Force            0.000009     0.000300     YES
 Maximum Displacement     0.001807     0.001800     NO 
 RMS     Displacement     0.000645     0.001200     YES
 Predicted change in Energy=-2.513257D-08
                           ----------------------------
                           ! Non-Optimized Parameters !
                           ! (Angstroms and Degrees)  !
 --------------------------                            --------------------------
 ! Name  Definition              Value          Derivative Info.                !
 --------------------------------------------------------------------------------
 ! R1    R(1,2)                  1.5317         -DE/DX =    0.0                 !
 ! R2    R(1,3)                  1.0887         -DE/DX =    0.0                 !
 ! R3    R(1,4)                  1.0883         -DE/DX =    0.0                 !
 ! R4    R(1,5)                  1.0882         -DE/DX =    0.0                 !
 ! R5    R(2,6)                  1.4697         -DE/DX =    0.0                 !
 ! R6    R(2,7)                  1.0984         -DE/DX =    0.0                 !
 ! R7    R(2,8)                  1.0918         -DE/DX =    0.0                 !
 ! R8    R(6,9)                  1.3073         -DE/DX =    0.0                 !
 ! R9    R(9,10)                 1.0821         -DE/DX =    0.0                 !
 ! R10   R(9,11)                 1.0904         -DE/DX =    0.0                 !
 ! A1    A(2,1,3)              110.5819         -DE/DX =    0.0                 !
 ! A2    A(2,1,4)              110.687          -DE/DX =    0.0                 !
 ! A3    A(2,1,5)              110.7394         -DE/DX =    0.0                 !
 ! A4    A(3,1,4)              108.4143         -DE/DX =    0.0                 !
 ! A5    A(3,1,5)              108.3274         -DE/DX =    0.0                 !
 ! A6    A(4,1,5)              107.999          -DE/DX =    0.0                 !
 ! A7    A(1,2,6)              113.0482         -DE/DX =    0.0                 !
 ! A8    A(1,2,7)              109.8129         -DE/DX =    0.0                 !
 ! A9    A(1,2,8)              109.573          -DE/DX =    0.0                 !
 ! A10   A(6,2,7)              108.4157         -DE/DX =    0.0                 !
 ! A11   A(6,2,8)              109.3668         -DE/DX =    0.0                 !
 ! A12   A(7,2,8)              106.4018         -DE/DX =    0.0                 !
 ! A13   A(2,6,9)              139.6009         -DE/DX =    0.0                 !
 ! A14   A(6,9,10)             122.4872         -DE/DX =    0.0                 !
 ! A15   A(6,9,11)             121.0264         -DE/DX =    0.0                 !
 ! A16   A(10,9,11)            116.4862         -DE/DX =    0.0                 !
 ! D1    D(3,1,2,6)           -179.9219         -DE/DX =    0.0                 !
 ! D2    D(3,1,2,7)            -58.7102         -DE/DX =    0.0                 !
 ! D3    D(3,1,2,8)             57.8182         -DE/DX =    0.0                 !
 ! D4    D(4,1,2,6)            -59.758          -DE/DX =    0.0                 !
 ! D5    D(4,1,2,7)             61.4537         -DE/DX =    0.0                 !
 ! D6    D(4,1,2,8)            177.9821         -DE/DX =    0.0                 !
 ! D7    D(5,1,2,6)             59.9887         -DE/DX =    0.0                 !
 ! D8    D(5,1,2,7)           -178.7996         -DE/DX =    0.0                 !
 ! D9    D(5,1,2,8)            -62.2711         -DE/DX =    0.0                 !
 ! D10   D(1,2,6,9)            117.2477         -DE/DX =    0.0                 !
 ! D11   D(7,2,6,9)             -4.7509         -DE/DX =    0.0                 !
 ! D12   D(8,2,6,9)           -120.3772         -DE/DX =    0.0                 !
 ! D13   D(2,6,9,10)          -179.225          -DE/DX =    0.0                 !
 ! D14   D(2,6,9,11)             0.9312         -DE/DX =    0.0                 !
 ! D15   D(6,9,10,11)         -179.8504         -DE/DX =    0.0                 !
 --------------------------------------------------------------------------------
 GradGradGradGradGradGradGradGradGradGradGradGradGradGradGradGradGradGrad


 ----------------------------------------------------------------------

 Electric dipole moment (input orientation):
 (Debye = 10**-18 statcoulomb cm , SI units = C m)
                  (au)            (Debye)         (10**-30 SI)
   Tot        0.342421D+00      0.870348D+00      0.290317D+01
   x         -0.229861D+00     -0.584248D+00     -0.194884D+01
   y          0.238033D+00      0.605020D+00      0.201813D+01
   z         -0.880722D-01     -0.223857D+00     -0.746707D+00

 Dipole polarizability, Alpha (input orientation).
 (esu units = cm**3 , SI units = C**2 m**2 J**-1)
 Alpha(0;0):
               (au)            (10**-24 esu)      (10**-40 SI)
   iso        0.485322D+02      0.719173D+01      0.800188D+01
   aniso      0.254590D+02      0.377264D+01      0.419763D+01
   xx         0.642145D+02      0.951561D+01      0.105875D+02
   yx        -0.598671D+00     -0.887139D-01     -0.987075D-01
   yy         0.414796D+02      0.614664D+01      0.683905D+01
   zx        -0.532117D+01     -0.788515D+00     -0.877342D+00
   zy        -0.151964D+01     -0.225188D+00     -0.250555D+00
   zz         0.399026D+02      0.591296D+01      0.657906D+01

 ----------------------------------------------------------------------

 Dipole orientation:
     6         -1.92658021          1.91071661          1.97521464
     6         -0.68948777         -0.62755424          1.33866515
     1         -2.73700199          1.86643405          3.86563885
     1         -0.54521545          3.43221987          1.89599893
     1         -3.42753206          2.34482806          0.63814802
     6          0.44286214         -0.67920388         -1.19680923
     1          0.79238154         -1.05581675          2.72738338
     1         -2.08788903         -2.13641834          1.49457885
     6          2.65560093         -0.93942949         -2.26409008
     1          2.91186460         -0.86694285         -4.29161003
     1          4.35045368         -1.24874800         -1.13376300

 Electric dipole moment (dipole orientation):
 (Debye = 10**-18 statcoulomb cm , SI units = C m)
                  (au)            (Debye)         (10**-30 SI)
   Tot        0.342421D+00      0.870348D+00      0.290317D+01
   x          0.000000D+00      0.000000D+00      0.000000D+00
   y          0.000000D+00      0.000000D+00      0.000000D+00
   z          0.342421D+00      0.870348D+00      0.290317D+01

 Dipole polarizability, Alpha (dipole orientation).
 (esu units = cm**3 , SI units = C**2 m**2 J**-1)
 Alpha(0;0):
               (au)            (10**-24 esu)      (10**-40 SI)
   iso        0.485322D+02      0.719173D+01      0.800188D+01
   aniso      0.254590D+02      0.377264D+01      0.419763D+01
   xx         0.551825D+02      0.817720D+01      0.909837D+01
   yx        -0.501943D+01     -0.743802D+00     -0.827592D+00
   yy         0.395295D+02      0.585767D+01      0.651753D+01
   zx        -0.108470D+02     -0.160736D+01     -0.178843D+01
   zy         0.279241D+01      0.413793D+00      0.460407D+00
   zz         0.508847D+02      0.754033D+01      0.838975D+01

 ----------------------------------------------------------------------
 1\1\GINC-N68\Freq\UB2PLYPD3-FC\CC-pVTZ\C4H7(2)\ROOT\31-May-2019\0\\#N 
 Geom=AllCheck Guess=TCheck SCRF=Check GenChk UB2PLYPD3(FC)/CC-pVTZ Fre
 q\\Title Card Required\\0,2\C,-1.7310264311,-0.2742868686,-0.287335434
 5\C,-0.5863523869,0.5614532164,0.2935725639\H,-2.6689994784,0.27636330
 09,-0.2404617109\H,-1.5327533154,-0.5277785901,-1.3269443974\H,-1.8509
 121946,-1.202368787,0.268135309\C,0.7088982843,-0.131997979,0.25542621
 1\H,-0.4924420797,1.5028819111,-0.2643012482\H,-0.8201371571,0.8356949
 271,1.3241448579\C,1.890373041,-0.0052111968,-0.2896075652\H,2.6833668
 655,-0.7243263284,-0.1313451435\H,2.1250172124,0.8442506843,-0.9317242
 122\\Version=ES64L-G16RevB.01\State=2-A\HF=-156.2345671\MP2=-156.44600
 03\PUHF=-156.2378994\PMP2-0=-156.4465744\S2=0.773132\S2-1=0.756296\S2A
 =0.75022\RMSD=2.498e-09\RMSF=1.526e-05\ZeroPoint=0.0949492\Thermal=0.1
 003451\Dipole=-0.2298608,0.238033,-0.0880722\DipoleDeriv=0.0904282,-0.
 0230558,-0.0046182,0.0671804,0.0900547,-0.0334056,0.0158296,-0.0104581
 ,0.0949813,0.0486417,0.0007521,0.0463736,0.1003398,0.1438923,-0.015654
 1,-0.0410017,0.0023628,0.1841352,-0.158545,0.0579025,-0.0027119,0.0861
 055,0.0004416,-0.0087347,-0.0058331,-0.0182696,0.0661366,0.0370428,0.0
 001071,0.0521058,-0.0249375,0.0377141,-0.037744,-0.0049832,-0.0547256,
 -0.1147593,0.0503588,-0.0081841,-0.0188318,-0.0657733,-0.0851143,0.062
 9604,0.0118065,0.0883102,0.0019367,0.263975,-0.0823581,-0.1374104,-0.2
 204928,-0.1670579,0.036505,-0.0878631,0.0084653,-0.1672807,-0.0486849,
 -0.0300555,0.0196661,0.0135181,-0.1149229,0.0608457,-0.0105288,0.10464
 45,0.0168312,-0.0241764,0.0081308,0.0278779,0.0283393,0.0511277,-0.044
 4366,0.0224158,-0.0648079,-0.092125,-0.2977741,-0.0103613,-0.0192673,-
 0.0438892,0.0376607,-0.1844612,0.0340651,-0.2108238,-0.1670062,-0.0022
 439,0.0621067,0.019714,0.0889026,0.0370412,0.0517284,0.0119431,0.06228
 29,0.1264445,0.0409779,0.0250156,0.0171022,-0.029293,-0.0308374,0.1123
 969,0.0541498,0.0930193,0.0507056\Polar=64.2144899,-0.598671,41.479552
 7,-5.3211661,-1.5196436,39.9026339\PG=C01 [X(C4H7)]\NImag=0\\0.5154040
 3,-0.04868893,0.54428746,-0.03339974,-0.02306030,0.56174828,-0.1311046
 5,-0.04187366,-0.02923715,0.46670604,-0.04925717,-0.11257656,-0.024945
 03,-0.00944127,0.49342696,-0.03125816,-0.02222061,-0.09324927,-0.03775
 030,-0.00874868,0.54516573,-0.24242655,0.11751143,0.01121494,-0.020241
 00,0.01303453,0.00139696,0.26528872,0.11939271,-0.11933343,-0.00633988
 ,-0.01908946,0.00978507,0.00020830,-0.12769098,0.12715483,0.01217170,-
 0.00688130,-0.04948905,-0.01185847,0.00710064,-0.00039929,-0.01063112,
 0.00876305,0.04866757,-0.05799677,0.01309408,0.05179755,0.00299859,-0.
 00617496,-0.02642642,-0.00468280,0.00489684,0.02735961,0.06174825,0.01
 238314,-0.06157568,-0.05615037,0.00284039,-0.00509807,-0.01888174,0.00
 244528,-0.00431647,-0.01651278,-0.01026125,0.06428948,0.04960992,-0.05
 691760,-0.29268106,0.00168741,-0.00243872,-0.01142955,0.00010879,0.000
 42389,0.00023945,-0.05300257,0.06454441,0.31700604,-0.05009684,-0.0210
 0069,0.01392989,-0.00413659,-0.02242027,0.01339252,0.00404414,0.023882
 49,-0.01574541,-0.00160148,-0.00575877,0.00335239,0.05319588,-0.022537
 63,-0.24067150,0.11813316,-0.00231590,-0.01519003,0.00854923,-0.002229
 33,-0.01343945,0.00826268,0.00104448,0.00765812,-0.00428343,0.02757484
 ,0.26162459,0.01503331,0.11921016,-0.12127983,-0.00189209,-0.01305937,
 0.00722862,-0.00058464,-0.00303442,0.00056896,0.00235948,0.02747935,-0
 .01539867,-0.01362183,-0.12871096,0.12796159,-0.03543069,0.00776241,-0
 .00305612,-0.19790477,0.08238109,-0.00137169,-0.00303337,-0.00208407,-
 0.00156036,0.00250902,0.00121196,0.00102880,0.00157026,0.00110671,0.00
 059259,0.78060773,-0.01282283,0.01330927,0.00341497,0.05912865,-0.1033
 6551,-0.00100367,-0.00436816,-0.00228661,-0.00204702,-0.00013923,0.000
 17793,-0.00001951,-0.00077169,0.00068301,-0.00007192,-0.05200437,0.182
 58119,-0.01104816,0.00786967,0.00100532,0.01580919,-0.01004195,-0.0680
 4885,-0.00222265,-0.00144960,-0.00070047,-0.00095136,0.00064533,0.0004
 7914,0.00120369,0.00014672,0.00026788,-0.23159121,-0.03822927,0.203828
 88,-0.00332652,-0.02293346,0.01307479,-0.04538424,-0.01409808,0.010070
 59,0.00063550,0.00061712,0.00070258,0.00103288,0.00086924,-0.00010577,
 -0.00381559,-0.00297467,-0.00268449,-0.00394839,0.03028085,-0.01638544
 ,0.05397776,-0.00277532,-0.01536013,0.00892946,-0.02280610,-0.21694494
 ,0.10644622,0.00003301,0.00080430,0.00011210,0.00076554,0.00025002,-0.
 00015313,-0.00276269,-0.00093553,-0.00186250,0.00888615,-0.02054702,0.
 01022655,0.01909946,0.24328051,-0.00250524,-0.01241709,0.00650380,0.01
 457213,0.10477452,-0.11157266,0.00078836,0.00058031,0.00025274,0.00069
 462,0.00006211,0.00076474,-0.00231194,-0.00191007,-0.00010921,-0.00263
 238,0.00185467,0.00149844,-0.01045310,-0.11817739,0.11865887,0.0044396
 2,-0.00759212,-0.02630360,-0.05598384,0.01474763,0.05518190,0.00103022
 ,0.00097468,0.00032118,-0.00385179,-0.00342707,-0.00206757,0.00100360,
 0.00057842,0.00076386,-0.01121907,0.00818880,0.02951812,-0.00084955,0.
 00025293,0.00253793,0.06852519,0.00225621,-0.00557667,-0.01881720,0.01
 333672,-0.06075904,-0.05771298,0.00047935,0.00077984,0.00077344,-0.003
 13713,-0.00141445,-0.00136647,0.00086994,0.00015672,0.00006859,0.00685
 909,-0.00578801,-0.01581486,-0.00660747,0.00620517,0.02624199,-0.01553
 446,0.06642391,0.00150451,-0.00337272,-0.01206238,0.05142144,-0.057239
 50,-0.27723883,-0.00019750,0.00052446,0.00022230,-0.00238948,-0.001364
 01,0.00072995,0.00014534,-0.00010305,0.00082698,0.00492464,-0.00013242
 ,0.00137417,0.00387964,-0.00331225,-0.01634899,-0.05770186,0.06579406,
 0.30204317,0.00018527,0.00351320,0.00187799,-0.01781471,-0.01000395,0.
 01615717,-0.00059447,-0.00080878,-0.00067465,-0.00007674,-0.00020222,-
 0.00048565,-0.00024290,-0.00022763,0.00002177,-0.49649699,-0.01897858,
 0.19207126,0.00245305,-0.00230880,0.00006519,-0.00268072,0.00105793,-0
 .00144767,0.76377627,0.00142376,-0.00234798,-0.00117906,0.02057171,0.0
 0747855,-0.00871527,0.00068796,0.00080560,0.00042318,-0.00001075,0.000
 13792,0.00028839,0.00031191,0.00015788,-0.00004202,-0.04818291,-0.0690
 9906,0.04069817,-0.00310689,0.00288690,-0.00115363,0.00248628,-0.00055
 970,-0.00073540,-0.07829035,0.43507947,-0.00120722,-0.00116889,-0.0004
 6742,-0.00378940,0.00284993,0.00483313,-0.00024047,0.00010910,0.000476
 26,0.00059735,0.00018707,0.00032791,-0.00017449,-0.00003718,-0.0000091
 8,0.21122030,0.02927797,-0.13690097,0.00089705,-0.00127882,0.00016741,
 -0.00136149,0.00037089,0.00056023,-0.21096723,-0.19178327,0.29974994,0
 .00029550,0.00011807,-0.00000942,0.00015807,0.00121600,0.00381525,0.00
 001633,-0.00006999,-0.00004401,-0.00001437,-0.00007420,-0.00010377,-0.
 00001851,-0.00002323,0.00001423,-0.02525109,0.01374399,-0.00161992,0.0
 0022508,0.00015667,-0.00026214,-0.00099100,0.00027884,0.00001481,-0.19
 300090,0.14369170,-0.02974806,0.21183591,0.00073273,-0.00036211,-0.000
 38365,-0.00013996,0.00306057,0.00569956,0.00019170,0.00016008,0.000071
 69,-0.00000502,-0.00008549,-0.00006043,0.00003702,0.00004502,0.0000114
 5,-0.00337965,0.00369332,-0.00512421,-0.00017162,-0.00002022,-0.000062
 53,-0.00109498,0.00033671,-0.00005308,0.14106297,-0.17189284,0.0373524
 5,-0.15470836,0.17632497,0.00141519,-0.00114019,-0.00056891,0.00388661
 ,0.00511266,0.00700098,0.00047426,0.00037541,0.00019222,-0.00002047,-0
 .00005637,-0.00007298,0.00000220,0.00007164,-0.00002447,0.00993809,-0.
 01158908,-0.00247390,-0.00002327,-0.00016857,-0.00012735,-0.00130740,0
 .00015235,-0.00006269,-0.02812313,0.03625894,-0.04247177,0.02469614,-0
 .04304863,0.03564783,0.00005760,0.00008968,0.00011087,0.00270711,0.000
 01644,-0.00320782,-0.00003672,-0.00002057,-0.00004104,-0.00006479,-0.0
 0002650,-0.00002197,0.00009803,0.00000393,-0.00000218,-0.01140263,-0.0
 2225742,0.02521647,-0.00099997,0.00145915,-0.00049343,0.00057734,0.000
 14098,-0.00015388,-0.05550715,-0.03958243,0.03477366,0.00674497,0.0174
 7517,-0.01093824,0.05782622,-0.00010666,0.00020733,0.00039792,-0.00021
 111,0.00018301,-0.00362037,-0.00009481,-0.00011378,-0.00006568,-0.0000
 7258,-0.00002332,-0.00001739,0.00003791,-0.00008883,0.00001163,-0.0025
 5641,0.00064149,0.01107345,-0.00097448,0.00038094,0.00020712,0.0004199
 0,0.00019551,-0.00000612,-0.03481380,-0.20264675,0.12412073,-0.0043295
 2,-0.01126001,0.01403184,0.04270156,0.21252441,-0.00031611,0.00009888,
 0.00054052,-0.00284938,-0.00336451,-0.00228999,-0.00010692,-0.00016062
 ,-0.00003070,-0.00001831,0.00004699,0.00003500,-0.00017235,-0.00011874
 ,-0.00003266,0.01250734,0.01854528,-0.00032962,0.00102742,-0.00076167,
 0.00031221,0.00041891,0.00031019,-0.00004392,0.03150495,0.12593996,-0.
 12626554,0.00324687,0.00559736,0.00296103,-0.04524244,-0.14613312,0.12
 514367\\-0.00001578,-0.00001644,-0.00001230,0.00000462,0.00003097,0.00
 001723,0.00000206,-0.00000150,0.00000063,0.00000099,0.00000082,-0.0000
 0119,0.00000409,0.00000349,0.00000038,0.00000136,-0.00001295,0.0000215
 2,0.00000269,-0.00001153,-0.00000021,-0.00000193,-0.00000384,-0.000004
 42,0.00001497,0.00004192,-0.00004504,-0.00000884,-0.00001940,0.0000115
 7,-0.00000423,-0.00001153,0.00001182\\\@


 NATURE WILL TELL YOU A DIRECT LIE IF SHE CAN.

                                -- CHARLES DARWIN
 Job cpu time:       0 days  7 hours 56 minutes 44.1 seconds.
 Elapsed time:       0 days  0 hours 12 minutes 21.7 seconds.
 File lengths (MBytes):  RWF=  14059 Int=      0 D2E=      0 Chk=      9 Scr=      1
 Normal termination of Gaussian 16 at Fri May 31 19:31:41 2019.
