 Entering Gaussian System, Link 0=g16
 Initial command:
 /ichec/packages/gaussian/16b01/l1.exe "/localscratch/339760/Gau-66967.inp" -scrdir="/localscratch/339760/"
 Entering Link 1 = /ichec/packages/gaussian/16b01/l1.exe PID=     66970.
  
 Copyright (c) 1988-2017, Gaussian, Inc.  All Rights Reserved.
  
 This is part of the Gaussian(R) 16 program.  It is based on
 the Gaussian(R) 09 system (copyright 2009, Gaussian, Inc.),
 the Gaussian(R) 03 system (copyright 2003, Gaussian, Inc.),
 the Gaussian(R) 98 system (copyright 1998, Gaussian, Inc.),
 the Gaussian(R) 94 system (copyright 1995, Gaussian, Inc.),
 the Gaussian 92(TM) system (copyright 1992, Gaussian, Inc.),
 the Gaussian 90(TM) system (copyright 1990, Gaussian, Inc.),
 the Gaussian 88(TM) system (copyright 1988, Gaussian, Inc.),
 the Gaussian 86(TM) system (copyright 1986, Carnegie Mellon
 University), and the Gaussian 82(TM) system (copyright 1983,
 Carnegie Mellon University). Gaussian is a federally registered
 trademark of Gaussian, Inc.
  
 This software contains proprietary and confidential information,
 including trade secrets, belonging to Gaussian, Inc.
  
 This software is provided under written license and may be
 used, copied, transmitted, or stored only in accord with that
 written license.
  
 The following legend is applicable only to US Government
 contracts under FAR:
  
                    RESTRICTED RIGHTS LEGEND
  
 Use, reproduction and disclosure by the US Government is
 subject to restrictions as set forth in subparagraphs (a)
 and (c) of the Commercial Computer Software - Restricted
 Rights clause in FAR 52.227-19.
  
 Gaussian, Inc.
 340 Quinnipiac St., Bldg. 40, Wallingford CT 06492
  
  
 ---------------------------------------------------------------
 Warning -- This program may not be used in any manner that
 competes with the business of Gaussian, Inc. or will provide
 assistance to any competitor of Gaussian, Inc.  The licensee
 of this program is prohibited from giving any competitor of
 Gaussian, Inc. access to this program.  By using this program,
 the user acknowledges that Gaussian, Inc. is engaged in the
 business of creating and licensing software in the field of
 computational chemistry and represents and warrants to the
 licensee that it is not a competitor of Gaussian, Inc. and that
 it will not use this program in any manner prohibited above.
 ---------------------------------------------------------------
  

 Cite this work as:
 Gaussian 16, Revision B.01,
 M. J. Frisch, G. W. Trucks, H. B. Schlegel, G. E. Scuseria, 
 M. A. Robb, J. R. Cheeseman, G. Scalmani, V. Barone, 
 G. A. Petersson, H. Nakatsuji, X. Li, M. Caricato, A. V. Marenich, 
 J. Bloino, B. G. Janesko, R. Gomperts, B. Mennucci, H. P. Hratchian, 
 J. V. Ortiz, A. F. Izmaylov, J. L. Sonnenberg, D. Williams-Young, 
 F. Ding, F. Lipparini, F. Egidi, J. Goings, B. Peng, A. Petrone, 
 T. Henderson, D. Ranasinghe, V. G. Zakrzewski, J. Gao, N. Rega, 
 G. Zheng, W. Liang, M. Hada, M. Ehara, K. Toyota, R. Fukuda, 
 J. Hasegawa, M. Ishida, T. Nakajima, Y. Honda, O. Kitao, H. Nakai, 
 T. Vreven, K. Throssell, J. A. Montgomery, Jr., J. E. Peralta, 
 F. Ogliaro, M. J. Bearpark, J. J. Heyd, E. N. Brothers, K. N. Kudin, 
 V. N. Staroverov, T. A. Keith, R. Kobayashi, J. Normand, 
 K. Raghavachari, A. P. Rendell, J. C. Burant, S. S. Iyengar, 
 J. Tomasi, M. Cossi, J. M. Millam, M. Klene, C. Adamo, R. Cammi, 
 J. W. Ochterski, R. L. Martin, K. Morokuma, O. Farkas, 
 J. B. Foresman, and D. J. Fox, Gaussian, Inc., Wallingford CT, 2016.
 
 ******************************************
 Gaussian 16:  ES64L-G16RevB.01 20-Dec-2017
                 2-Jun-2019 
 ******************************************
 %mem=80GB
 %nproc=40
 Will use up to   40 processors via shared memory.
 ----------------------------------------------------------------------
 # opt=(maxcyc=500,modredundant) uB2PLYPD3/cc-pvtz scf=maxcyc=500 nosym
 m
 ----------------------------------------------------------------------
 1/6=500,18=120,19=15,38=1/1,3;
 2/9=110,12=2,15=1,17=6,18=5,40=1/2;
 3/5=16,6=1,11=2,25=1,30=1,71=1,74=-60,116=2/1,2,3;
 4//1;
 5/5=2,7=500,38=5/2;
 8/6=4,10=1/1;
 9/15=2,16=-3/6;
 10/5=1,31=1/2;
 6/7=2,8=2,9=2,10=2/1;
 7/12=2,30=1/1,2,3,16;
 1/6=500,18=20,19=15/3(2);
 2/9=110,15=1/2;
 99//99;
 2/9=110,15=1/2;
 3/5=16,6=1,11=2,25=1,30=1,71=1,74=-60,116=2/1,2,3;
 4/5=5,16=3,69=1/1;
 5/5=2,7=500,38=5/2;
 8/6=4,10=1/1;
 9/15=2,16=-3/6;
 10/5=1,31=1/2;
 7/12=2,30=1/1,2,3,16;
 1/6=500,18=20,19=15/3(-8);
 2/9=110,15=1/2;
 6/7=2,8=2,9=2,10=2/1;
 99/9=10/99;
 -------------------
 Title Card Required
 -------------------
 Symbolic Z-matrix:
 Charge =  0 Multiplicity = 1
 C                     0.        0.        2.06136 
 C                     0.        0.        0.60312 
 C                     0.        0.       -0.60312 
 C                     0.        0.       -2.06136 
 H                     0.88086   0.50857  -2.45191 
 H                     0.       -1.01713  -2.45191 
 H                    -0.88086   0.50857  -2.45191 
 H                     0.        1.01713   2.45191 
 H                    -0.88086  -0.50857   2.45191 
 H                     0.88086  -0.50857   2.45191 
 
 The following ModRedundant input section has been read:
 D    *          1       4    *    R                                           
 D       8       1       4       7 S  36 10.000                                
 

 GradGradGradGradGradGradGradGradGradGradGradGradGradGradGradGradGradGrad
 Berny optimization.
 Initialization pass.
                           ----------------------------
                           !    Initial Parameters    !
                           ! (Angstroms and Degrees)  !
 --------------------------                            --------------------------
 ! Name  Definition              Value          Derivative Info.                !
 --------------------------------------------------------------------------------
 ! R1    R(1,2)                  1.4582         estimate D2E/DX2                !
 ! R2    R(1,8)                  1.0895         estimate D2E/DX2                !
 ! R3    R(1,9)                  1.0895         estimate D2E/DX2                !
 ! R4    R(1,10)                 1.0895         estimate D2E/DX2                !
 ! R5    R(2,3)                  1.2062         estimate D2E/DX2                !
 ! R6    R(3,4)                  1.4582         estimate D2E/DX2                !
 ! R7    R(4,5)                  1.0895         estimate D2E/DX2                !
 ! R8    R(4,6)                  1.0895         estimate D2E/DX2                !
 ! R9    R(4,7)                  1.0895         estimate D2E/DX2                !
 ! A1    A(2,1,8)              111.0054         estimate D2E/DX2                !
 ! A2    A(2,1,9)              111.0054         estimate D2E/DX2                !
 ! A3    A(2,1,10)             111.0054         estimate D2E/DX2                !
 ! A4    A(8,1,9)              107.8945         estimate D2E/DX2                !
 ! A5    A(8,1,10)             107.8945         estimate D2E/DX2                !
 ! A6    A(9,1,10)             107.8944         estimate D2E/DX2                !
 ! A7    A(3,4,5)              111.0054         estimate D2E/DX2                !
 ! A8    A(3,4,6)              111.0054         estimate D2E/DX2                !
 ! A9    A(3,4,7)              111.0054         estimate D2E/DX2                !
 ! A10   A(5,4,6)              107.8945         estimate D2E/DX2                !
 ! A11   A(5,4,7)              107.8944         estimate D2E/DX2                !
 ! A12   A(6,4,7)              107.8945         estimate D2E/DX2                !
 ! A13   L(1,2,3,8,-1)         180.0            estimate D2E/DX2                !
 ! A14   L(2,3,4,5,-1)         180.0            estimate D2E/DX2                !
 ! A15   L(1,2,3,8,-2)         180.0            estimate D2E/DX2                !
 ! A16   L(2,3,4,5,-2)         180.0            estimate D2E/DX2                !
 ! D1    D(8,1,4,7)            -60.0            Scan                            !
 --------------------------------------------------------------------------------
 Trust Radius=3.00D-01 FncErr=1.00D-07 GrdErr=1.00D-07 EigMax=2.50D+02 EigMin=1.00D-04
 Number of optimizations in scan=  37
 Number of steps in this run=    100 maximum allowed number of steps=    100.
 GradGradGradGradGradGradGradGradGradGradGradGradGradGradGradGradGradGrad

                          Input orientation:                          
 ---------------------------------------------------------------------
 Center     Atomic      Atomic             Coordinates (Angstroms)
 Number     Number       Type             X           Y           Z
 ---------------------------------------------------------------------
      1          6           0        0.000000    0.000000    2.061362
      2          6           0        0.000000    0.000000    0.603117
      3          6           0        0.000000    0.000000   -0.603117
      4          6           0        0.000000    0.000000   -2.061362
      5          1           0        0.880863    0.508567   -2.451912
      6          1           0        0.000000   -1.017133   -2.451912
      7          1           0       -0.880863    0.508567   -2.451912
      8          1           0        0.000000    1.017133    2.451912
      9          1           0       -0.880863   -0.508567    2.451912
     10          1           0        0.880863   -0.508567    2.451912
 ---------------------------------------------------------------------
                    Distance matrix (angstroms):
                    1          2          3          4          5
     1  C    0.000000
     2  C    1.458245   0.000000
     3  C    2.664479   1.206234   0.000000
     4  C    4.122724   2.664479   1.458245   0.000000
     5  H    4.626468   3.219901   2.110119   1.089536   0.000000
     6  H    4.626468   3.219901   2.110119   1.089536   1.761726
     7  H    4.626468   3.219901   2.110119   1.089536   1.761726
     8  H    1.089536   2.110119   3.219901   4.626468   5.008198
     9  H    1.089536   2.110119   3.219901   4.626468   5.309023
    10  H    1.089536   2.110119   3.219901   4.626468   5.008198
                    6          7          8          9         10
     6  H    0.000000
     7  H    1.761726   0.000000
     8  H    5.309023   5.008198   0.000000
     9  H    5.008198   5.008198   1.761726   0.000000
    10  H    5.008198   5.309023   1.761726   1.761726   0.000000
 Symmetry turned off by external request.
 Stoichiometry    C4H6
 Framework group  D3D[C3(CC.CC),3SGD(H2)]
 Deg. of freedom     4
 Full point group                 D3D     NOp  12
 Rotational constants (GHZ):          80.7839682           3.3648733           3.3648733
 Standard basis: CC-pVTZ (5D, 7F)
   204 basis functions,   310 primitive gaussians,   230 cartesian basis functions
    15 alpha electrons       15 beta electrons
       nuclear repulsion energy       100.1237722841 Hartrees.
 NAtoms=   10 NActive=   10 NUniq=   10 SFac= 1.00D+00 NAtFMM=   60 NAOKFM=F Big=F
 Integral buffers will be    131072 words long.
 Raffenetti 2 integral format.
 Two-electron integral symmetry is turned off.
 Nuclear repulsion after empirical dispersion term =      100.1196373365 Hartrees.
 One-electron integrals computed using PRISM.
 NBasis=   204 RedAO= T EigKep=  1.57D-05  NBF=   204
 NBsUse=   204 1.00D-06 EigRej= -1.00D+00 NBFU=   204
 ExpMin= 1.03D-01 ExpMax= 8.24D+03 ExpMxC= 2.81D+02 IAcc=3 IRadAn=         5 AccDes= 0.00D+00
 Harris functional with IExCor=  419 and IRadAn=       5 diagonalized for initial guess.
 HarFok:  IExCor=  419 AccDes= 0.00D+00 IRadAn=         5 IDoV= 1 UseB2=F ITyADJ=14
 ICtDFT=  3500011 ScaDFX=  1.000000  1.000000  1.000000  1.000000
 FoFCou: FMM=F IPFlag=           0 FMFlag=      100000 FMFlg1=           0
         NFxFlg=           0 DoJE=T BraDBF=F KetDBF=T FulRan=T
         wScrn=  0.000000 ICntrl=       500 IOpCl=  0 I1Cent=   200000004 NGrid=           0
         NMat0=    1 NMatS0=      1 NMatT0=    0 NMatD0=    1 NMtDS0=    0 NMtDT0=    0
 Symmetry not used in FoFCou.
 Initial guess <Sx>= 0.0000 <Sy>= 0.0000 <Sz>= 0.0000 <S**2>=-0.0000 S=-0.0000
 Keep R1 and R2 ints in memory in canonical form, NReq=479623802.
 Requested convergence on RMS density matrix=1.00D-08 within 500 cycles.
 Requested convergence on MAX density matrix=1.00D-06.
 Requested convergence on             energy=1.00D-06.
 No special actions if energy rises.
 Integral accuracy reduced to 1.0D-05 until final iterations.
 Initial convergence to 1.0D-05 achieved.  Increase integral accuracy.
 SCF Done:  E(UB2PLYPD3) =  -155.674706734     A.U. after   10 cycles
            NFock= 10  Conv=0.35D-08     -V/T= 2.0048
 <Sx>= 0.0000 <Sy>= 0.0000 <Sz>= 0.0000 <S**2>=-0.0000 S=-0.0000
 <L.S>=  0.00000000000    
 Annihilation of the first spin contaminant:
 S**2 before annihilation    -0.0000,   after     0.0000
 DoSCS=T DFT=T ScalE2(SS,OS)=  0.270000  0.270000
 ExpMin= 1.03D-01 ExpMax= 8.24D+03 ExpMxC= 2.81D+02 IAcc=3 IRadAn=         5 AccDes= 0.00D+00
 HarFok:  IExCor=  205 AccDes= 0.00D+00 IRadAn=         5 IDoV=-2 UseB2=F ITyADJ=14
 ICtDFT= 12500011 ScaDFX=  1.000000  1.000000  1.000000  1.000000
 Range of M.O.s used for correlation:     5   204
 NBasis=   204 NAE=    15 NBE=    15 NFC=     4 NFV=     0
 NROrb=    200 NOA=    11 NOB=    11 NVA=   189 NVB=   189

 **** Warning!!: The largest alpha MO coefficient is  0.61928386D+02


 **** Warning!!: The largest beta MO coefficient is  0.61928386D+02

 DoSCS=T DFT=T ScalE2(SS,OS)=  0.270000  0.270000
 Fully direct method using O(ONN) memory.
 JobTyp=2 Pass  1:  I=   5 to  15 NPSUse= 40 ParTrn=T ParDer=T DoDerP=T.
 JobTyp=3 Pass  1:  I=   5 to  15 NPSUse= 40 ParTrn=T ParDer=T DoDerP=T.
 Spin components of T(2) and E(2):
     alpha-alpha T2 =       0.4355063810D-01 E2=     -0.2516836060D-01
     alpha-beta  T2 =       0.2605931245D+00 E2=     -0.1653792697D+00
     beta-beta   T2 =       0.4355063810D-01 E2=     -0.2516836060D-01
 (S**2,0)=  0.00000D+00           (S**2,1)=  0.00000D+00
 E(PUHF)=      -0.15567470673D+03        E(PMP2)=      -0.15589042272D+03
 E2(B2PLYPD3) =    -0.2157159909D+00 E(B2PLYPD3) =    -0.15589042272441D+03
          IDoAtm=1111111111
          Differentiating once with respect to electric field.
                with respect to dipole field.
          Differentiating once with respect to nuclear coordinates.
 Keep R1 and R2 ints in memory in canonical form, NReq=479631092.
          There are     1 degrees of freedom in the 1st order CPHF.  IDoFFX=0 NUNeed=     1.
 LinEq1:  Iter=  0 NonCon=     1 RMS=6.63D-04 Max=1.08D-02 NDo=     1
 AX will form     1 AO Fock derivatives at one time.
 LinEq1:  Iter=  1 NonCon=     1 RMS=2.48D-04 Max=4.79D-03 NDo=     1
 LinEq1:  Iter=  2 NonCon=     1 RMS=4.73D-05 Max=7.56D-04 NDo=     1
 LinEq1:  Iter=  3 NonCon=     1 RMS=5.60D-06 Max=1.04D-04 NDo=     1
 LinEq1:  Iter=  4 NonCon=     1 RMS=9.72D-07 Max=2.19D-05 NDo=     1
 LinEq1:  Iter=  5 NonCon=     1 RMS=4.63D-07 Max=6.43D-06 NDo=     1
 LinEq1:  Iter=  6 NonCon=     1 RMS=5.53D-08 Max=9.33D-07 NDo=     1
 LinEq1:  Iter=  7 NonCon=     1 RMS=8.85D-09 Max=1.39D-07 NDo=     1
 LinEq1:  Iter=  8 NonCon=     1 RMS=9.94D-10 Max=1.28D-08 NDo=     1
 LinEq1:  Iter=  9 NonCon=     0 RMS=7.85D-11 Max=9.80D-10 NDo=     1
 Linear equations converged to 1.000D-10 1.000D-09 after     9 iterations.
 End of Minotr F.D. properties file   721 does not exist.
 End of Minotr F.D. properties file   722 does not exist.
 End of Minotr F.D. properties file   788 does not exist.

 **********************************************************************

            Population analysis using the SCF Density.

 **********************************************************************

 Alpha  occ. eigenvalues --  -10.62750 -10.62750 -10.60237 -10.59939  -0.89883
 Alpha  occ. eigenvalues --   -0.85271  -0.77148  -0.55268  -0.50303  -0.49892
 Alpha  occ. eigenvalues --   -0.49892  -0.48444  -0.48444  -0.29736  -0.29736
 Alpha virt. eigenvalues --    0.08458   0.09513   0.11200   0.11200   0.15602
 Alpha virt. eigenvalues --    0.15602   0.18978   0.18978   0.21592   0.22960
 Alpha virt. eigenvalues --    0.31959   0.31959   0.31998   0.31998   0.34382
 Alpha virt. eigenvalues --    0.35148   0.41721   0.41721   0.47229   0.51230
 Alpha virt. eigenvalues --    0.51230   0.52765   0.52765   0.52975   0.53949
 Alpha virt. eigenvalues --    0.56666   0.56666   0.61561   0.68463   0.68463
 Alpha virt. eigenvalues --    0.69256   0.69256   0.73747   0.79231   0.82115
 Alpha virt. eigenvalues --    0.89193   0.92237   0.92237   0.92853   0.92853
 Alpha virt. eigenvalues --    0.95367   0.95368   1.05985   1.07223   1.07223
 Alpha virt. eigenvalues --    1.10300   1.10300   1.17449   1.17449   1.18505
 Alpha virt. eigenvalues --    1.18505   1.24775   1.27050   1.31559   1.37957
 Alpha virt. eigenvalues --    1.37957   1.38015   1.39727   1.39727   1.43722
 Alpha virt. eigenvalues --    1.43722   1.45613   1.45613   1.49075   1.59887
 Alpha virt. eigenvalues --    1.59887   1.60023   1.68157   1.76973   1.76973
 Alpha virt. eigenvalues --    2.19861   2.19861   2.29164   2.34491   2.34491
 Alpha virt. eigenvalues --    2.36243   2.39057   2.39057   2.51347   2.57027
 Alpha virt. eigenvalues --    2.57027   2.59905   2.61441   2.64331   2.68716
 Alpha virt. eigenvalues --    2.74620   2.78395   2.78395   2.78888   2.78888
 Alpha virt. eigenvalues --    2.82970   2.88892   2.89864   2.92048   2.92048
 Alpha virt. eigenvalues --    2.93309   2.93309   2.94314   2.99615   2.99615
 Alpha virt. eigenvalues --    3.00055   3.00055   3.06188   3.10193   3.10818
 Alpha virt. eigenvalues --    3.10818   3.15084   3.15084   3.19681   3.19681
 Alpha virt. eigenvalues --    3.22828   3.22828   3.30553   3.30553   3.36091
 Alpha virt. eigenvalues --    3.41510   3.41510   3.43868   3.44186   3.44809
 Alpha virt. eigenvalues --    3.54024   3.54024   3.56665   3.57378   3.57378
 Alpha virt. eigenvalues --    3.58623   3.62224   3.62224   3.65322   3.65322
 Alpha virt. eigenvalues --    3.79336   3.86387   3.86387   3.89020   3.89020
 Alpha virt. eigenvalues --    3.92752   4.01362   4.01363   4.01375   4.08241
 Alpha virt. eigenvalues --    4.08241   4.09265   4.11294   4.11294   4.22256
 Alpha virt. eigenvalues --    4.22369   4.23748   4.23748   4.39537   4.43231
 Alpha virt. eigenvalues --    4.43231   4.43298   4.44883   4.44883   4.51337
 Alpha virt. eigenvalues --    4.52470   4.79393   4.79393   4.94745   4.94745
 Alpha virt. eigenvalues --    4.98319   5.07755   5.12419   5.12419   5.20804
 Alpha virt. eigenvalues --    5.22259   5.24289   5.24289   5.33217   5.37928
 Alpha virt. eigenvalues --    5.39019   5.39019   5.46483   5.47456   5.47456
 Alpha virt. eigenvalues --    5.48505   5.48505   5.85765   5.85765   5.87093
 Alpha virt. eigenvalues --    5.99927   5.99927   6.04401   6.04401   6.12149
 Alpha virt. eigenvalues --    7.44144  13.85102  14.01316  18.16677
  Beta  occ. eigenvalues --  -10.62750 -10.62750 -10.60237 -10.59939  -0.89883
  Beta  occ. eigenvalues --   -0.85271  -0.77148  -0.55268  -0.50303  -0.49892
  Beta  occ. eigenvalues --   -0.49892  -0.48444  -0.48444  -0.29736  -0.29736
  Beta virt. eigenvalues --    0.08458   0.09513   0.11200   0.11200   0.15602
  Beta virt. eigenvalues --    0.15602   0.18978   0.18978   0.21592   0.22960
  Beta virt. eigenvalues --    0.31959   0.31959   0.31998   0.31998   0.34382
  Beta virt. eigenvalues --    0.35148   0.41721   0.41721   0.47229   0.51230
  Beta virt. eigenvalues --    0.51230   0.52765   0.52765   0.52975   0.53949
  Beta virt. eigenvalues --    0.56666   0.56666   0.61561   0.68463   0.68463
  Beta virt. eigenvalues --    0.69256   0.69256   0.73747   0.79231   0.82115
  Beta virt. eigenvalues --    0.89193   0.92237   0.92237   0.92853   0.92853
  Beta virt. eigenvalues --    0.95367   0.95368   1.05985   1.07223   1.07223
  Beta virt. eigenvalues --    1.10300   1.10300   1.17449   1.17449   1.18505
  Beta virt. eigenvalues --    1.18505   1.24775   1.27050   1.31559   1.37957
  Beta virt. eigenvalues --    1.37957   1.38015   1.39727   1.39727   1.43722
  Beta virt. eigenvalues --    1.43722   1.45613   1.45613   1.49075   1.59887
  Beta virt. eigenvalues --    1.59887   1.60023   1.68157   1.76973   1.76973
  Beta virt. eigenvalues --    2.19861   2.19861   2.29164   2.34491   2.34491
  Beta virt. eigenvalues --    2.36243   2.39057   2.39057   2.51347   2.57027
  Beta virt. eigenvalues --    2.57027   2.59905   2.61441   2.64331   2.68716
  Beta virt. eigenvalues --    2.74620   2.78395   2.78395   2.78888   2.78888
  Beta virt. eigenvalues --    2.82970   2.88892   2.89864   2.92048   2.92048
  Beta virt. eigenvalues --    2.93309   2.93309   2.94314   2.99615   2.99615
  Beta virt. eigenvalues --    3.00055   3.00055   3.06188   3.10193   3.10818
  Beta virt. eigenvalues --    3.10818   3.15084   3.15084   3.19681   3.19681
  Beta virt. eigenvalues --    3.22828   3.22828   3.30553   3.30553   3.36091
  Beta virt. eigenvalues --    3.41510   3.41510   3.43868   3.44186   3.44809
  Beta virt. eigenvalues --    3.54024   3.54024   3.56665   3.57378   3.57378
  Beta virt. eigenvalues --    3.58623   3.62224   3.62224   3.65322   3.65322
  Beta virt. eigenvalues --    3.79336   3.86387   3.86387   3.89020   3.89020
  Beta virt. eigenvalues --    3.92752   4.01362   4.01363   4.01375   4.08241
  Beta virt. eigenvalues --    4.08241   4.09265   4.11294   4.11294   4.22256
  Beta virt. eigenvalues --    4.22369   4.23748   4.23748   4.39537   4.43231
  Beta virt. eigenvalues --    4.43231   4.43298   4.44883   4.44883   4.51337
  Beta virt. eigenvalues --    4.52470   4.79393   4.79393   4.94745   4.94745
  Beta virt. eigenvalues --    4.98319   5.07755   5.12419   5.12419   5.20804
  Beta virt. eigenvalues --    5.22259   5.24289   5.24289   5.33217   5.37928
  Beta virt. eigenvalues --    5.39019   5.39019   5.46483   5.47456   5.47456
  Beta virt. eigenvalues --    5.48505   5.48505   5.85765   5.85765   5.87093
  Beta virt. eigenvalues --    5.99927   5.99927   6.04401   6.04401   6.12149
  Beta virt. eigenvalues --    7.44144  13.85102  14.01316  18.16677
          Condensed to atoms (all electrons):
               1          2          3          4          5          6
     1  C    4.768750   0.439119  -0.103603  -0.001119   0.000059   0.000059
     2  C    0.439119   5.290211   0.520300  -0.103603   0.000906   0.000907
     3  C   -0.103603   0.520300   5.290211   0.439119  -0.043968  -0.043967
     4  C   -0.001119  -0.103603   0.439119   4.768750   0.409362   0.409360
     5  H    0.000059   0.000906  -0.043968   0.409362   0.577162  -0.029833
     6  H    0.000059   0.000907  -0.043967   0.409360  -0.029833   0.577163
     7  H    0.000059   0.000906  -0.043968   0.409362  -0.029834  -0.029833
     8  H    0.409360  -0.043967   0.000907   0.000059   0.000060  -0.000058
     9  H    0.409362  -0.043968   0.000906   0.000059  -0.000058   0.000060
    10  H    0.409362  -0.043968   0.000906   0.000059   0.000060   0.000060
               7          8          9         10
     1  C    0.000059   0.409360   0.409362   0.409362
     2  C    0.000906  -0.043967  -0.043968  -0.043968
     3  C   -0.043968   0.000907   0.000906   0.000906
     4  C    0.409362   0.000059   0.000059   0.000059
     5  H   -0.029834   0.000060  -0.000058   0.000060
     6  H   -0.029833  -0.000058   0.000060   0.000060
     7  H    0.577162   0.000060   0.000060  -0.000058
     8  H    0.000060   0.577163  -0.029833  -0.029833
     9  H    0.000060  -0.029833   0.577162  -0.029834
    10  H   -0.000058  -0.029833  -0.029834   0.577162
          Atomic-Atomic Spin Densities.
               1          2          3          4          5          6
     1  C    0.000000   0.000000  -0.000000  -0.000000   0.000000   0.000000
     2  C    0.000000   0.000000  -0.000000  -0.000000   0.000000   0.000000
     3  C   -0.000000  -0.000000   0.000000   0.000000   0.000000   0.000000
     4  C   -0.000000  -0.000000   0.000000  -0.000000  -0.000000  -0.000000
     5  H    0.000000   0.000000   0.000000  -0.000000   0.000000  -0.000000
     6  H    0.000000   0.000000   0.000000  -0.000000  -0.000000   0.000000
     7  H    0.000000   0.000000   0.000000  -0.000000   0.000000  -0.000000
     8  H   -0.000000   0.000000   0.000000   0.000000   0.000000   0.000000
     9  H    0.000000  -0.000000  -0.000000  -0.000000  -0.000000  -0.000000
    10  H   -0.000000  -0.000000   0.000000   0.000000   0.000000   0.000000
               7          8          9         10
     1  C    0.000000  -0.000000   0.000000  -0.000000
     2  C    0.000000   0.000000  -0.000000  -0.000000
     3  C    0.000000   0.000000  -0.000000   0.000000
     4  C   -0.000000   0.000000  -0.000000   0.000000
     5  H    0.000000   0.000000  -0.000000   0.000000
     6  H   -0.000000   0.000000  -0.000000   0.000000
     7  H   -0.000000   0.000000  -0.000000   0.000000
     8  H    0.000000   0.000000  -0.000000   0.000000
     9  H   -0.000000  -0.000000   0.000000   0.000000
    10  H    0.000000   0.000000   0.000000  -0.000000
 Mulliken charges and spin densities:
               1          2
     1  C   -0.331408   0.000000
     2  C   -0.016845   0.000000
     3  C   -0.016845  -0.000000
     4  C   -0.331408  -0.000000
     5  H    0.116084  -0.000000
     6  H    0.116084  -0.000000
     7  H    0.116084  -0.000000
     8  H    0.116084   0.000000
     9  H    0.116084   0.000000
    10  H    0.116084  -0.000000
 Sum of Mulliken charges =  -0.00000   0.00000
 Mulliken charges and spin densities with hydrogens summed into heavy atoms:
               1          2
     1  C    0.016845   0.000000
     2  C   -0.016845   0.000000
     3  C   -0.016845  -0.000000
     4  C    0.016845  -0.000000
 Electronic spatial extent (au):  <R**2>=            401.3564
 Charge=             -0.0000 electrons
 Dipole moment (field-independent basis, Debye):
    X=              0.0000    Y=              0.0000    Z=              0.0000  Tot=              0.0000
 Quadrupole moment (field-independent basis, Debye-Ang):
   XX=            -25.8720   YY=            -25.8720   ZZ=            -19.1372
   XY=              0.0000   XZ=             -0.0000   YZ=             -0.0000
 Traceless Quadrupole moment (field-independent basis, Debye-Ang):
   XX=             -2.2449   YY=             -2.2449   ZZ=              4.4899
   XY=              0.0000   XZ=             -0.0000   YZ=             -0.0000
 Octapole moment (field-independent basis, Debye-Ang**2):
  XXX=              0.0000  YYY=              0.0000  ZZZ=              0.0000  XYY=              0.0000
  XXY=             -0.0000  XXZ=              0.0000  XZZ=              0.0000  YZZ=              0.0000
  YYZ=              0.0000  XYZ=             -0.0000
 Hexadecapole moment (field-independent basis, Debye-Ang**3):
 XXXX=            -42.0185 YYYY=            -42.0185 ZZZZ=           -455.6542 XXXY=              0.0000
 XXXZ=             -0.0000 YYYX=              0.0000 YYYZ=              3.3710 ZZZX=             -0.0000
 ZZZY=             -0.0000 XXYY=            -14.0062 XXZZ=            -80.7868 YYZZ=            -80.7868
 XXYZ=             -3.3710 YYXZ=             -0.0000 ZZXY=              0.0000
 N-N= 1.001196373365D+02 E-N=-5.610802542103D+02  KE= 1.549242122683D+02
                          Isotropic Fermi Contact Couplings
        Atom                 a.u.       MegaHertz       Gauss      10(-4) cm-1
     1  C(13)              0.00000       0.00000       0.00000       0.00000
     2  C(13)             -0.00000      -0.00000      -0.00000      -0.00000
     3  C(13)              0.00000       0.00000       0.00000       0.00000
     4  C(13)              0.00000       0.00000       0.00000       0.00000
     5  H(1)               0.00000       0.00000       0.00000       0.00000
     6  H(1)              -0.00000      -0.00000      -0.00000      -0.00000
     7  H(1)               0.00000       0.00000       0.00000       0.00000
     8  H(1)              -0.00000      -0.00000      -0.00000      -0.00000
     9  H(1)               0.00000       0.00000       0.00000       0.00000
    10  H(1)              -0.00000      -0.00000      -0.00000      -0.00000
 --------------------------------------------------------
       Center         ----  Spin Dipole Couplings  ----
                      3XX-RR        3YY-RR        3ZZ-RR
 --------------------------------------------------------
     1   Atom        0.000000     -0.000000      0.000000
     2   Atom       -0.000000     -0.000000      0.000000
     3   Atom        0.000000      0.000000     -0.000000
     4   Atom        0.000000     -0.000000     -0.000000
     5   Atom       -0.000000      0.000000     -0.000000
     6   Atom       -0.000000      0.000000      0.000000
     7   Atom       -0.000000     -0.000000      0.000000
     8   Atom        0.000000      0.000000     -0.000000
     9   Atom        0.000000      0.000000     -0.000000
    10   Atom        0.000000     -0.000000      0.000000
 --------------------------------------------------------
                        XY            XZ            YZ
 --------------------------------------------------------
     1   Atom       -0.000000     -0.000000     -0.000000
     2   Atom        0.000000      0.000000     -0.000000
     3   Atom       -0.000000      0.000000     -0.000000
     4   Atom       -0.000000     -0.000000      0.000000
     5   Atom        0.000000     -0.000000     -0.000000
     6   Atom        0.000000      0.000000      0.000000
     7   Atom       -0.000000      0.000000     -0.000000
     8   Atom        0.000000     -0.000000     -0.000000
     9   Atom        0.000000      0.000000      0.000000
    10   Atom       -0.000000      0.000000     -0.000000
 --------------------------------------------------------


 ---------------------------------------------------------------------------------
              Anisotropic Spin Dipole Couplings in Principal Axis System
 ---------------------------------------------------------------------------------

       Atom             a.u.   MegaHertz   Gauss  10(-4) cm-1        Axes

              Baa    -0.0000    -0.000    -0.000    -0.000  0.4623  0.7050  0.5378
     1 C(13)  Bbb    -0.0000    -0.000    -0.000    -0.000 -0.3906  0.7065 -0.5902
              Bcc     0.0000     0.000     0.000     0.000  0.7960 -0.0628 -0.6020
 
              Baa    -0.0000    -0.000    -0.000    -0.000  0.8522 -0.0563 -0.5202
     2 C(13)  Bbb    -0.0000    -0.000    -0.000    -0.000  0.0546  0.9983 -0.0187
              Bcc     0.0000     0.000     0.000     0.000  0.5204 -0.0125  0.8538
 
              Baa    -0.0000    -0.000    -0.000    -0.000 -0.0316  0.4622  0.8862
     3 C(13)  Bbb     0.0000     0.000     0.000     0.000  0.9857  0.1612 -0.0490
              Bcc     0.0000     0.000     0.000     0.000 -0.1655  0.8720 -0.4607
 
              Baa    -0.0000    -0.000    -0.000    -0.000  0.0483 -0.6691  0.7416
     4 C(13)  Bbb     0.0000     0.000     0.000     0.000  0.1353  0.7400  0.6589
              Bcc     0.0000     0.000     0.000     0.000  0.9896 -0.0685 -0.1263
 
              Baa    -0.0000    -0.000    -0.000    -0.000  0.9309 -0.3592 -0.0657
     5 H(1)   Bbb    -0.0000    -0.000    -0.000    -0.000  0.1593  0.2375  0.9582
              Bcc     0.0000     0.000     0.000     0.000  0.3286  0.9025 -0.2783
 
              Baa    -0.0000    -0.000    -0.000    -0.000  0.7892 -0.5823 -0.1952
     6 H(1)   Bbb    -0.0000    -0.000    -0.000    -0.000 -0.1669 -0.5092  0.8443
              Bcc     0.0000     0.000     0.000     0.000  0.5910  0.6338  0.4990
 
              Baa    -0.0000    -0.000    -0.000    -0.000  0.7669  0.5772 -0.2806
     7 H(1)   Bbb    -0.0000    -0.000    -0.000    -0.000 -0.3107  0.7166  0.6245
              Bcc     0.0000     0.000     0.000     0.000  0.5615 -0.3917  0.7289
 
              Baa    -0.0000    -0.000    -0.000    -0.000  0.3896  0.2799  0.8774
     8 H(1)   Bbb     0.0000     0.000     0.000     0.000  0.7195 -0.6872 -0.1002
              Bcc     0.0000     0.000     0.000     0.000  0.5749  0.6704 -0.4691
 
              Baa    -0.0000    -0.000    -0.000    -0.000 -0.0726 -0.3809  0.9218
     9 H(1)   Bbb    -0.0000    -0.000    -0.000    -0.000 -0.6084  0.7493  0.2617
              Bcc     0.0000     0.000     0.000     0.000  0.7903  0.5418  0.2861
 
              Baa    -0.0000    -0.000    -0.000    -0.000 -0.3226  0.6509  0.6872
    10 H(1)   Bbb    -0.0000    -0.000    -0.000    -0.000  0.6876  0.6601 -0.3024
              Bcc     0.0000     0.000     0.000     0.000  0.6504 -0.3750  0.6606
 

 ---------------------------------------------------------------------------------

 Calling FoFJK, ICntrl=  10002127 FMM=F ISym2X=0 I1Cent= 0 IOpClX= 1 NMat=1 NMatS=1 NMatT=0.
 -------------------------------------------------------------------
 Center     Atomic                   Forces (Hartrees/Bohr)
 Number     Number              X              Y              Z
 -------------------------------------------------------------------
      1        6          -0.000000000   -0.000000114   -0.000098228
      2        6          -0.000000000    0.000000234   -0.000137261
      3        6           0.000000000   -0.000000234    0.000137261
      4        6           0.000000000    0.000000114    0.000098228
      5        1          -0.000059722   -0.000034419   -0.000015157
      6        1          -0.000000000    0.000068865   -0.000015044
      7        1           0.000059722   -0.000034419   -0.000015157
      8        1          -0.000000000   -0.000068865    0.000015044
      9        1           0.000059722    0.000034419    0.000015157
     10        1          -0.000059722    0.000034419    0.000015157
 -------------------------------------------------------------------
 Cartesian Forces:  Max     0.000137261 RMS     0.000053802

 GradGradGradGradGradGradGradGradGradGradGradGradGradGradGradGradGradGrad
 Berny optimization.
 FormGI is forming the generalized inverse of G from B-inverse, IUseBI=4.
 Internal  Forces:  Max     0.000190132 RMS     0.000055712
 Search for a local minimum.
 Step number   1 out of a maximum of  100 on scan point     1 out of    37
 All quantities printed in internal units (Hartrees-Bohrs-Radians)
 Mixed Optimization -- En-DIIS/RFO-DIIS
 Second derivative matrix not updated -- first step.
 ITU=  0
     Eigenvalues ---    0.01318   0.01318   0.04652   0.04652   0.16000
     Eigenvalues ---    0.16000   0.16000   0.16000   0.16000   0.16000
     Eigenvalues ---    0.16000   0.16000   0.16000   0.16000   0.34866
     Eigenvalues ---    0.34866   0.34866   0.34866   0.34866   0.34866
     Eigenvalues ---    0.37185   0.37185   1.017521000.000001000.00000
     Eigenvalues --- 1000.00000
 RFO step:  Lambda=-2.23638013D-07 EMin= 1.31828613D-02
 Linear search not attempted -- first point.
 Iteration  1 RMS(Cart)=  0.00019022 RMS(Int)=  0.00000004
 Iteration  2 RMS(Cart)=  0.00000005 RMS(Int)=  0.00000002
 Iteration  1 RMS(Cart)=  0.00000000 RMS(Int)=  0.00000000
 Variable       Old X    -DE/DX   Delta X   Delta X   Delta X     New X
                                 (Linear)    (Quad)   (Total)
    R1        2.75568  -0.00005   0.00000  -0.00014  -0.00014   2.75554
    R2        2.05892  -0.00006   0.00000  -0.00017  -0.00017   2.05876
    R3        2.05893  -0.00006   0.00000  -0.00017  -0.00017   2.05876
    R4        2.05893  -0.00006   0.00000  -0.00017  -0.00017   2.05876
    R5        2.27945  -0.00019   0.00000  -0.00019  -0.00019   2.27927
    R6        2.75568  -0.00005   0.00000  -0.00014  -0.00014   2.75554
    R7        2.05893  -0.00006   0.00000  -0.00017  -0.00017   2.05876
    R8        2.05892  -0.00006   0.00000  -0.00017  -0.00017   2.05876
    R9        2.05893  -0.00006   0.00000  -0.00017  -0.00017   2.05876
    A1        1.93741   0.00004   0.00000   0.00024   0.00024   1.93764
    A2        1.93741   0.00004   0.00000   0.00024   0.00024   1.93765
    A3        1.93741   0.00004   0.00000   0.00024   0.00024   1.93765
    A4        1.88311  -0.00004   0.00000  -0.00025  -0.00025   1.88286
    A5        1.88311  -0.00004   0.00000  -0.00025  -0.00025   1.88286
    A6        1.88311  -0.00004   0.00000  -0.00025  -0.00025   1.88286
    A7        1.93741   0.00004   0.00000   0.00024   0.00024   1.93765
    A8        1.93741   0.00004   0.00000   0.00024   0.00024   1.93764
    A9        1.93741   0.00004   0.00000   0.00024   0.00024   1.93765
   A10        1.88311  -0.00004   0.00000  -0.00025  -0.00025   1.88286
   A11        1.88311  -0.00004   0.00000  -0.00025  -0.00025   1.88286
   A12        1.88311  -0.00004   0.00000  -0.00025  -0.00025   1.88286
   A13        3.14159   0.00000   0.00000   0.00000   0.00000   3.14160
   A14        3.14159  -0.00000   0.00000  -0.00000  -0.00000   3.14159
   A15        3.14159  -0.00000   0.00000  -0.00000   0.00000   3.14159
   A16        3.14159   0.00000   0.00000   0.00000   0.00000   3.14160
    D1       -1.04720   0.00000   0.00000   0.00000   0.00000  -1.04720
         Item               Value     Threshold  Converged?
 Maximum Force            0.000190     0.000450     YES
 RMS     Force            0.000057     0.000300     YES
 Maximum Displacement     0.000333     0.001800     YES
 RMS     Displacement     0.000190     0.001200     YES
 Predicted change in Energy=-1.118190D-07
 Optimization completed.
    -- Stationary point found.
                           ----------------------------
                           !   Optimized Parameters   !
                           ! (Angstroms and Degrees)  !
 --------------------------                            --------------------------
 ! Name  Definition              Value          Derivative Info.                !
 --------------------------------------------------------------------------------
 ! R1    R(1,2)                  1.4582         -DE/DX =   -0.0001              !
 ! R2    R(1,8)                  1.0895         -DE/DX =   -0.0001              !
 ! R3    R(1,9)                  1.0895         -DE/DX =   -0.0001              !
 ! R4    R(1,10)                 1.0895         -DE/DX =   -0.0001              !
 ! R5    R(2,3)                  1.2062         -DE/DX =   -0.0002              !
 ! R6    R(3,4)                  1.4582         -DE/DX =   -0.0001              !
 ! R7    R(4,5)                  1.0895         -DE/DX =   -0.0001              !
 ! R8    R(4,6)                  1.0895         -DE/DX =   -0.0001              !
 ! R9    R(4,7)                  1.0895         -DE/DX =   -0.0001              !
 ! A1    A(2,1,8)              111.0054         -DE/DX =    0.0                 !
 ! A2    A(2,1,9)              111.0054         -DE/DX =    0.0                 !
 ! A3    A(2,1,10)             111.0054         -DE/DX =    0.0                 !
 ! A4    A(8,1,9)              107.8945         -DE/DX =    0.0                 !
 ! A5    A(8,1,10)             107.8945         -DE/DX =    0.0                 !
 ! A6    A(9,1,10)             107.8944         -DE/DX =    0.0                 !
 ! A7    A(3,4,5)              111.0054         -DE/DX =    0.0                 !
 ! A8    A(3,4,6)              111.0054         -DE/DX =    0.0                 !
 ! A9    A(3,4,7)              111.0054         -DE/DX =    0.0                 !
 ! A10   A(5,4,6)              107.8945         -DE/DX =    0.0                 !
 ! A11   A(5,4,7)              107.8944         -DE/DX =    0.0                 !
 ! A12   A(6,4,7)              107.8945         -DE/DX =    0.0                 !
 ! A13   L(1,2,3,8,-1)         180.0            -DE/DX =    0.0                 !
 ! A14   L(2,3,4,5,-1)         180.0            -DE/DX =    0.0                 !
 ! A15   L(1,2,3,8,-2)         180.0            -DE/DX =    0.0                 !
 ! A16   L(2,3,4,5,-2)         180.0            -DE/DX =    0.0                 !
 ! D1    D(8,1,4,7)            -60.0            -DE/DX =    0.0                 !
 --------------------------------------------------------------------------------
 Iteration  1 RMS(Cart)=  0.07997749 RMS(Int)=  0.00336093
 Iteration  2 RMS(Cart)=  0.00354747 RMS(Int)=  0.00000370
 Iteration  3 RMS(Cart)=  0.00000564 RMS(Int)=  0.00000000
 Iteration  4 RMS(Cart)=  0.00000000 RMS(Int)=  0.00000000
 Iteration  1 RMS(Cart)=  0.00000000 RMS(Int)=  0.00000000
 GradGradGradGradGradGradGradGradGradGradGradGradGradGradGradGradGradGrad

                          Input orientation:                          
 ---------------------------------------------------------------------
 Center     Atomic      Atomic             Coordinates (Angstroms)
 Number     Number       Type             X           Y           Z
 ---------------------------------------------------------------------
      1          6           0        0.000000    0.000000    2.061237
      2          6           0       -0.000002    0.000001    0.603068
      3          6           0       -0.000003   -0.000002   -0.603068
      4          6           0       -0.000000   -0.000000   -2.061237
      5          1           0        0.921677    0.429786   -2.451993
      6          1           0       -0.088633   -1.013087   -2.451996
      7          1           0       -0.833042    0.583303   -2.451997
      8          1           0       -0.088633    1.013088    2.451995
      9          1           0       -0.833042   -0.583303    2.451997
     10          1           0        0.921677   -0.429785    2.451995
 ---------------------------------------------------------------------
                    Distance matrix (angstroms):
                    1          2          3          4          5
     1  C    0.000000
     2  C    1.458170   0.000000
     3  C    2.664305   1.206135   0.000000
     4  C    4.122475   2.664305   1.458170   0.000000
     5  H    4.626387   3.219876   2.110151   1.089447   0.000000
     6  H    4.626390   3.219879   2.110150   1.089447   1.761422
     7  H    4.626390   3.219879   2.110151   1.089447   1.761421
     8  H    1.089447   2.110150   3.219878   4.626389   5.040840
     9  H    1.089447   2.110151   3.219878   4.626390   5.306082
    10  H    1.089447   2.110151   3.219878   4.626388   4.978751
                    6          7          8          9         10
     6  H    0.000000
     7  H    1.761422   0.000000
     8  H    5.306083   4.978755   0.000000
     9  H    4.978756   5.040846   1.761422   0.000000
    10  H    5.040843   5.306083   1.761422   1.761421   0.000000
 Symmetry turned off by external request.
 Stoichiometry    C4H6
 Framework group  C1[X(C4H6)]
 Deg. of freedom    24
 Full point group                 C1      NOp   1
 Rotational constants (GHZ):          80.8119011           3.3651505           3.3651504
 Standard basis: CC-pVTZ (5D, 7F)
   204 basis functions,   310 primitive gaussians,   230 cartesian basis functions
    15 alpha electrons       15 beta electrons
       nuclear repulsion energy       100.1293392765 Hartrees.
 NAtoms=   10 NActive=   10 NUniq=   10 SFac= 1.00D+00 NAtFMM=   60 NAOKFM=F Big=F
 Integral buffers will be    131072 words long.
 Raffenetti 2 integral format.
 Two-electron integral symmetry is turned off.
 Nuclear repulsion after empirical dispersion term =      100.1252042635 Hartrees.
 One-electron integrals computed using PRISM.
 NBasis=   204 RedAO= T EigKep=  1.57D-05  NBF=   204
 NBsUse=   204 1.00D-06 EigRej= -1.00D+00 NBFU=   204
 Initial guess from the checkpoint file:  "/localscratch/339760/Gau-66970.chk"
 B after Tr=    -0.000002   -0.000000   -0.000000
         Rot=    1.000000    0.000000   -0.000000    0.000000 Ang=   0.00 deg.
 Initial guess <Sx>= 0.0000 <Sy>= 0.0000 <Sz>= 0.0000 <S**2>=-0.0000 S=-0.0000
 ExpMin= 1.03D-01 ExpMax= 8.24D+03 ExpMxC= 2.81D+02 IAcc=3 IRadAn=         5 AccDes= 0.00D+00
 Harris functional with IExCor=  419 and IRadAn=       5 diagonalized for initial guess.
 HarFok:  IExCor=  419 AccDes= 0.00D+00 IRadAn=         5 IDoV= 1 UseB2=F ITyADJ=14
 ICtDFT=  3500011 ScaDFX=  1.000000  1.000000  1.000000  1.000000
 FoFCou: FMM=F IPFlag=           0 FMFlag=      100000 FMFlg1=           0
         NFxFlg=           0 DoJE=T BraDBF=F KetDBF=T FulRan=T
         wScrn=  0.000000 ICntrl=       500 IOpCl=  0 I1Cent=   200000004 NGrid=           0
         NMat0=    1 NMatS0=      1 NMatT0=    0 NMatD0=    1 NMtDS0=    0 NMtDT0=    0
 Symmetry not used in FoFCou.
 Keep R1 and R2 ints in memory in canonical form, NReq=479623802.
 Requested convergence on RMS density matrix=1.00D-08 within 500 cycles.
 Requested convergence on MAX density matrix=1.00D-06.
 Requested convergence on             energy=1.00D-06.
 No special actions if energy rises.
 Integral accuracy reduced to 1.0D-05 until final iterations.
 Initial convergence to 1.0D-05 achieved.  Increase integral accuracy.
 SCF Done:  E(UB2PLYPD3) =  -155.674716616     A.U. after    9 cycles
            NFock=  9  Conv=0.52D-08     -V/T= 2.0048
 <Sx>= 0.0000 <Sy>= 0.0000 <Sz>= 0.0000 <S**2>=-0.0000 S=-0.0000
 <L.S>=  0.00000000000    
 Annihilation of the first spin contaminant:
 S**2 before annihilation    -0.0000,   after     0.0000
 DoSCS=T DFT=T ScalE2(SS,OS)=  0.270000  0.270000
 ExpMin= 1.03D-01 ExpMax= 8.24D+03 ExpMxC= 2.81D+02 IAcc=3 IRadAn=         5 AccDes= 0.00D+00
 HarFok:  IExCor=  205 AccDes= 0.00D+00 IRadAn=         5 IDoV=-2 UseB2=F ITyADJ=14
 ICtDFT= 12500011 ScaDFX=  1.000000  1.000000  1.000000  1.000000
 Range of M.O.s used for correlation:     5   204
 NBasis=   204 NAE=    15 NBE=    15 NFC=     4 NFV=     0
 NROrb=    200 NOA=    11 NOB=    11 NVA=   189 NVB=   189

 **** Warning!!: The largest alpha MO coefficient is  0.61948407D+02


 **** Warning!!: The largest beta MO coefficient is  0.61948407D+02

 DoSCS=T DFT=T ScalE2(SS,OS)=  0.270000  0.270000
 Fully direct method using O(ONN) memory.
 JobTyp=2 Pass  1:  I=   5 to  15 NPSUse= 40 ParTrn=T ParDer=T DoDerP=T.
 JobTyp=3 Pass  1:  I=   5 to  15 NPSUse= 40 ParTrn=T ParDer=T DoDerP=T.
 Spin components of T(2) and E(2):
     alpha-alpha T2 =       0.4354509358D-01 E2=     -0.2516766227D-01
     alpha-beta  T2 =       0.2605536518D+00 E2=     -0.1653725643D+00
     beta-beta   T2 =       0.4354509358D-01 E2=     -0.2516766227D-01
 (S**2,0)=  0.00000D+00           (S**2,1)=  0.00000D+00
 E(PUHF)=      -0.15567471662D+03        E(PMP2)=      -0.15589042450D+03
 E2(B2PLYPD3) =    -0.2157078889D+00 E(B2PLYPD3) =    -0.15589042450441D+03
          IDoAtm=1111111111
          Differentiating once with respect to electric field.
                with respect to dipole field.
          Differentiating once with respect to nuclear coordinates.
 Keep R1 and R2 ints in memory in canonical form, NReq=479631092.
          There are     1 degrees of freedom in the 1st order CPHF.  IDoFFX=0 NUNeed=     1.
 LinEq1:  Iter=  0 NonCon=     1 RMS=6.63D-04 Max=1.08D-02 NDo=     1
 AX will form     1 AO Fock derivatives at one time.
 LinEq1:  Iter=  1 NonCon=     1 RMS=2.48D-04 Max=4.79D-03 NDo=     1
 LinEq1:  Iter=  2 NonCon=     1 RMS=4.73D-05 Max=7.54D-04 NDo=     1
 LinEq1:  Iter=  3 NonCon=     1 RMS=5.59D-06 Max=1.04D-04 NDo=     1
 LinEq1:  Iter=  4 NonCon=     1 RMS=9.68D-07 Max=2.18D-05 NDo=     1
 LinEq1:  Iter=  5 NonCon=     1 RMS=4.62D-07 Max=6.38D-06 NDo=     1
 LinEq1:  Iter=  6 NonCon=     1 RMS=5.52D-08 Max=9.32D-07 NDo=     1
 LinEq1:  Iter=  7 NonCon=     1 RMS=8.84D-09 Max=1.38D-07 NDo=     1
 LinEq1:  Iter=  8 NonCon=     1 RMS=9.94D-10 Max=1.28D-08 NDo=     1
 LinEq1:  Iter=  9 NonCon=     0 RMS=7.87D-11 Max=9.78D-10 NDo=     1
 Linear equations converged to 1.000D-10 1.000D-09 after     9 iterations.
 End of Minotr F.D. properties file   721 does not exist.
 End of Minotr F.D. properties file   722 does not exist.
 End of Minotr F.D. properties file   788 does not exist.
 Calling FoFJK, ICntrl=  10002127 FMM=F ISym2X=0 I1Cent= 0 IOpClX= 1 NMat=1 NMatS=1 NMatT=0.
 -------------------------------------------------------------------
 Center     Atomic                   Forces (Hartrees/Bohr)
 Number     Number              X              Y              Z
 -------------------------------------------------------------------
      1        6          -0.000000013   -0.000000109   -0.000055164
      2        6           0.000000429   -0.000000184    0.000030153
      3        6           0.000000644    0.000000236   -0.000030153
      4        6          -0.000000082    0.000000059    0.000055164
      5        1           0.000003952   -0.000001594   -0.000008480
      6        1          -0.000003779   -0.000002569   -0.000008917
      7        1          -0.000000664    0.000003951   -0.000008622
      8        1          -0.000003774    0.000002571    0.000008904
      9        1          -0.000000662   -0.000003956    0.000008616
     10        1           0.000003950    0.000001595    0.000008499
 -------------------------------------------------------------------
 Cartesian Forces:  Max     0.000055164 RMS     0.000016800

 GradGradGradGradGradGradGradGradGradGradGradGradGradGradGradGradGradGrad
 Berny optimization.
 FormGI is forming the generalized inverse of G from B-inverse, IUseBI=4.
 Internal  Forces:  Max     0.000029145 RMS     0.000011004
 Search for a local minimum.
 Step number   1 out of a maximum of  100 on scan point     2 out of    37
 All quantities printed in internal units (Hartrees-Bohrs-Radians)
 Mixed Optimization -- RFO/linear search
 Second derivative matrix not updated -- first step.
 ITU=  0
     Eigenvalues ---    0.01318   0.01318   0.04652   0.04652   0.16000
     Eigenvalues ---    0.16000   0.16000   0.16000   0.16000   0.16000
     Eigenvalues ---    0.16000   0.16000   0.16000   0.16000   0.34866
     Eigenvalues ---    0.34866   0.34866   0.34866   0.34866   0.34866
     Eigenvalues ---    0.37185   0.37185   1.017521000.000001000.00000
     Eigenvalues --- 1000.00000
 RFO step:  Lambda=-1.16898360D-08 EMin= 1.31828613D-02
 Linear search not attempted -- first point.
 Iteration  1 RMS(Cart)=  0.00016258 RMS(Int)=  0.00000002
 Iteration  2 RMS(Cart)=  0.00000003 RMS(Int)=  0.00000000
 Iteration  1 RMS(Cart)=  0.00000000 RMS(Int)=  0.00000000
 Variable       Old X    -DE/DX   Delta X   Delta X   Delta X     New X
                                 (Linear)    (Quad)   (Total)
    R1        2.75554  -0.00003   0.00000  -0.00008  -0.00008   2.75546
    R2        2.05876   0.00001   0.00000   0.00002   0.00002   2.05877
    R3        2.05876   0.00001   0.00000   0.00002   0.00002   2.05877
    R4        2.05876   0.00001   0.00000   0.00002   0.00002   2.05877
    R5        2.27927   0.00000   0.00000   0.00000   0.00000   2.27927
    R6        2.75554  -0.00003   0.00000  -0.00008  -0.00008   2.75546
    R7        2.05876   0.00001   0.00000   0.00002   0.00002   2.05877
    R8        2.05876   0.00001   0.00000   0.00002   0.00002   2.05877
    R9        2.05876   0.00001   0.00000   0.00002   0.00002   2.05877
    A1        1.93764   0.00001   0.00000   0.00004   0.00004   1.93769
    A2        1.93765   0.00001   0.00000   0.00007   0.00007   1.93771
    A3        1.93765   0.00000   0.00000   0.00002   0.00002   1.93766
    A4        1.88286  -0.00000   0.00000  -0.00000  -0.00000   1.88286
    A5        1.88286  -0.00001   0.00000  -0.00009  -0.00009   1.88277
    A6        1.88286  -0.00001   0.00000  -0.00004  -0.00004   1.88282
    A7        1.93765   0.00001   0.00000   0.00007   0.00007   1.93771
    A8        1.93764   0.00000   0.00000   0.00002   0.00002   1.93766
    A9        1.93765   0.00001   0.00000   0.00004   0.00004   1.93769
   A10        1.88286  -0.00001   0.00000  -0.00004  -0.00004   1.88282
   A11        1.88286   0.00000   0.00000   0.00000   0.00000   1.88287
   A12        1.88286  -0.00002   0.00000  -0.00010  -0.00010   1.88277
   A13        3.14160   0.00000   0.00000   0.00004   0.00004   3.14163
   A14        3.14159   0.00000   0.00000   0.00024   0.00024   3.14182
   A15        3.14159  -0.00000   0.00000  -0.00002  -0.00002   3.14158
   A16        3.14160  -0.00000   0.00000  -0.00009  -0.00009   3.14151
    D1       -0.87266   0.00002   0.00000   0.00000   0.00000  -0.87266
         Item               Value     Threshold  Converged?
 Maximum Force            0.000029     0.000450     YES
 RMS     Force            0.000011     0.000300     YES
 Maximum Displacement     0.000338     0.001800     YES
 RMS     Displacement     0.000163     0.001200     YES
 Predicted change in Energy=-5.844918D-09
 Optimization completed.
    -- Stationary point found.
                           ----------------------------
                           !   Optimized Parameters   !
                           ! (Angstroms and Degrees)  !
 --------------------------                            --------------------------
 ! Name  Definition              Value          Derivative Info.                !
 --------------------------------------------------------------------------------
 ! R1    R(1,2)                  1.4582         -DE/DX =    0.0                 !
 ! R2    R(1,8)                  1.0894         -DE/DX =    0.0                 !
 ! R3    R(1,9)                  1.0894         -DE/DX =    0.0                 !
 ! R4    R(1,10)                 1.0894         -DE/DX =    0.0                 !
 ! R5    R(2,3)                  1.2061         -DE/DX =    0.0                 !
 ! R6    R(3,4)                  1.4582         -DE/DX =    0.0                 !
 ! R7    R(4,5)                  1.0894         -DE/DX =    0.0                 !
 ! R8    R(4,6)                  1.0894         -DE/DX =    0.0                 !
 ! R9    R(4,7)                  1.0894         -DE/DX =    0.0                 !
 ! A1    A(2,1,8)              111.0189         -DE/DX =    0.0                 !
 ! A2    A(2,1,9)              111.0189         -DE/DX =    0.0                 !
 ! A3    A(2,1,10)             111.0189         -DE/DX =    0.0                 !
 ! A4    A(8,1,9)              107.8802         -DE/DX =    0.0                 !
 ! A5    A(8,1,10)             107.8802         -DE/DX =    0.0                 !
 ! A6    A(9,1,10)             107.8801         -DE/DX =    0.0                 !
 ! A7    A(3,4,5)              111.0189         -DE/DX =    0.0                 !
 ! A8    A(3,4,6)              111.0189         -DE/DX =    0.0                 !
 ! A9    A(3,4,7)              111.0189         -DE/DX =    0.0                 !
 ! A10   A(5,4,6)              107.8802         -DE/DX =    0.0                 !
 ! A11   A(5,4,7)              107.8801         -DE/DX =    0.0                 !
 ! A12   A(6,4,7)              107.8802         -DE/DX =    0.0                 !
 ! A13   L(1,2,3,8,-1)         180.0002         -DE/DX =    0.0                 !
 ! A14   L(2,3,4,5,-1)         179.9997         -DE/DX =    0.0                 !
 ! A15   L(1,2,3,8,-2)         180.0            -DE/DX =    0.0                 !
 ! A16   L(2,3,4,5,-2)         180.0002         -DE/DX =    0.0                 !
 ! D1    D(8,1,4,7)            -50.0            -DE/DX =    0.0                 !
 --------------------------------------------------------------------------------
 Iteration  1 RMS(Cart)=  0.07997539 RMS(Int)=  0.00336076
 Iteration  2 RMS(Cart)=  0.00354730 RMS(Int)=  0.00000370
 Iteration  3 RMS(Cart)=  0.00000564 RMS(Int)=  0.00000000
 Iteration  4 RMS(Cart)=  0.00000000 RMS(Int)=  0.00000000
 Iteration  1 RMS(Cart)=  0.00000000 RMS(Int)=  0.00000000
 GradGradGradGradGradGradGradGradGradGradGradGradGradGradGradGradGradGrad

                          Input orientation:                          
 ---------------------------------------------------------------------
 Center     Atomic      Atomic             Coordinates (Angstroms)
 Number     Number       Type             X           Y           Z
 ---------------------------------------------------------------------
      1          6           0       -0.000035   -0.000015    2.061196
      2          6           0        0.000076    0.000095    0.603068
      3          6           0        0.000185    0.000138   -0.603068
      4          6           0        0.000019    0.000018   -2.061196
      5          1           0        0.955616    0.347712   -2.452164
      6          1           0       -0.176713   -1.001507   -2.451874
      7          1           0       -0.779045    0.653678   -2.451966
      8          1           0       -0.176673    1.001451    2.452065
      9          1           0       -0.779026   -0.653791    2.451918
     10          1           0        0.955595   -0.347779    2.452022
 ---------------------------------------------------------------------
                    Distance matrix (angstroms):
                    1          2          3          4          5
     1  C    0.000000
     2  C    1.458128   0.000000
     3  C    2.664264   1.206136   0.000000
     4  C    4.122392   2.664264   1.458128   0.000000
     5  H    4.626511   3.219990   2.110169   1.089456   0.000000
     6  H    4.626229   3.219802   2.110135   1.089456   1.761409
     7  H    4.626316   3.219850   2.110151   1.089456   1.761438
     8  H    1.089456   2.110152   3.219897   4.626404   5.075521
     9  H    1.089456   2.110169   3.219896   4.626291   5.297359
    10  H    1.089456   2.110134   3.219849   4.626362   4.953256
                    6          7          8          9         10
     6  H    0.000000
     7  H    1.761374   0.000000
     8  H    5.297211   4.953112   0.000000
     9  H    4.952863   5.075190   1.761436   0.000000
    10  H    5.075202   5.297262   1.761378   1.761407   0.000000
 Symmetry turned off by external request.
 Stoichiometry    C4H6
 Framework group  C1[X(C4H6)]
 Deg. of freedom    24
 Full point group                 C1      NOp   1
 Rotational constants (GHZ):          80.8132628           3.3652409           3.3652372
 Standard basis: CC-pVTZ (5D, 7F)
   204 basis functions,   310 primitive gaussians,   230 cartesian basis functions
    15 alpha electrons       15 beta electrons
       nuclear repulsion energy       100.1302987911 Hartrees.
 NAtoms=   10 NActive=   10 NUniq=   10 SFac= 1.00D+00 NAtFMM=   60 NAOKFM=F Big=F
 Integral buffers will be    131072 words long.
 Raffenetti 2 integral format.
 Two-electron integral symmetry is turned off.
 Nuclear repulsion after empirical dispersion term =      100.1261637522 Hartrees.
 One-electron integrals computed using PRISM.
 NBasis=   204 RedAO= T EigKep=  1.57D-05  NBF=   204
 NBsUse=   204 1.00D-06 EigRej= -1.00D+00 NBFU=   204
 Initial guess from the checkpoint file:  "/localscratch/339760/Gau-66970.chk"
 B after Tr=     0.000079    0.000075   -0.000000
         Rot=    1.000000   -0.000003    0.000005   -0.000000 Ang=  -0.00 deg.
 Initial guess <Sx>= 0.0000 <Sy>= 0.0000 <Sz>= 0.0000 <S**2>= 0.0000 S= 0.0000
 ExpMin= 1.03D-01 ExpMax= 8.24D+03 ExpMxC= 2.81D+02 IAcc=3 IRadAn=         5 AccDes= 0.00D+00
 Harris functional with IExCor=  419 and IRadAn=       5 diagonalized for initial guess.
 HarFok:  IExCor=  419 AccDes= 0.00D+00 IRadAn=         5 IDoV= 1 UseB2=F ITyADJ=14
 ICtDFT=  3500011 ScaDFX=  1.000000  1.000000  1.000000  1.000000
 FoFCou: FMM=F IPFlag=           0 FMFlag=      100000 FMFlg1=           0
         NFxFlg=           0 DoJE=T BraDBF=F KetDBF=T FulRan=T
         wScrn=  0.000000 ICntrl=       500 IOpCl=  0 I1Cent=   200000004 NGrid=           0
         NMat0=    1 NMatS0=      1 NMatT0=    0 NMatD0=    1 NMtDS0=    0 NMtDT0=    0
 Symmetry not used in FoFCou.
 Keep R1 and R2 ints in memory in canonical form, NReq=479623802.
 Requested convergence on RMS density matrix=1.00D-08 within 500 cycles.
 Requested convergence on MAX density matrix=1.00D-06.
 Requested convergence on             energy=1.00D-06.
 No special actions if energy rises.
 Integral accuracy reduced to 1.0D-05 until final iterations.
 Initial convergence to 1.0D-05 achieved.  Increase integral accuracy.
 SCF Done:  E(UB2PLYPD3) =  -155.674720961     A.U. after    9 cycles
            NFock=  9  Conv=0.74D-08     -V/T= 2.0048
 <Sx>= 0.0000 <Sy>= 0.0000 <Sz>= 0.0000 <S**2>=-0.0000 S=-0.0000
 <L.S>=  0.00000000000    
 Annihilation of the first spin contaminant:
 S**2 before annihilation    -0.0000,   after    -0.0000
 DoSCS=T DFT=T ScalE2(SS,OS)=  0.270000  0.270000
 ExpMin= 1.03D-01 ExpMax= 8.24D+03 ExpMxC= 2.81D+02 IAcc=3 IRadAn=         5 AccDes= 0.00D+00
 HarFok:  IExCor=  205 AccDes= 0.00D+00 IRadAn=         5 IDoV=-2 UseB2=F ITyADJ=14
 ICtDFT= 12500011 ScaDFX=  1.000000  1.000000  1.000000  1.000000
 Range of M.O.s used for correlation:     5   204
 NBasis=   204 NAE=    15 NBE=    15 NFC=     4 NFV=     0
 NROrb=    200 NOA=    11 NOB=    11 NVA=   189 NVB=   189

 **** Warning!!: The largest alpha MO coefficient is  0.61936144D+02


 **** Warning!!: The largest beta MO coefficient is  0.61936144D+02

 DoSCS=T DFT=T ScalE2(SS,OS)=  0.270000  0.270000
 Fully direct method using O(ONN) memory.
 JobTyp=2 Pass  1:  I=   5 to  15 NPSUse= 40 ParTrn=T ParDer=T DoDerP=T.
 JobTyp=3 Pass  1:  I=   5 to  15 NPSUse= 40 ParTrn=T ParDer=T DoDerP=T.
 Spin components of T(2) and E(2):
     alpha-alpha T2 =       0.4354559960D-01 E2=     -0.2516785733D-01
     alpha-beta  T2 =       0.2605532806D+00 E2=     -0.1653722956D+00
     beta-beta   T2 =       0.4354559960D-01 E2=     -0.2516785733D-01
 (S**2,0)=  0.00000D+00           (S**2,1)=  0.00000D+00
 E(PUHF)=      -0.15567472096D+03        E(PMP2)=      -0.15589042897D+03
 E2(B2PLYPD3) =    -0.2157080103D+00 E(B2PLYPD3) =    -0.15589042897116D+03
          IDoAtm=1111111111
          Differentiating once with respect to electric field.
                with respect to dipole field.
          Differentiating once with respect to nuclear coordinates.
 Keep R1 and R2 ints in memory in canonical form, NReq=479631092.
          There are     1 degrees of freedom in the 1st order CPHF.  IDoFFX=0 NUNeed=     1.
 LinEq1:  Iter=  0 NonCon=     1 RMS=6.63D-04 Max=1.07D-02 NDo=     1
 AX will form     1 AO Fock derivatives at one time.
 LinEq1:  Iter=  1 NonCon=     1 RMS=2.48D-04 Max=4.79D-03 NDo=     1
 LinEq1:  Iter=  2 NonCon=     1 RMS=4.73D-05 Max=7.40D-04 NDo=     1
 LinEq1:  Iter=  3 NonCon=     1 RMS=5.59D-06 Max=1.04D-04 NDo=     1
 LinEq1:  Iter=  4 NonCon=     1 RMS=9.68D-07 Max=2.18D-05 NDo=     1
 LinEq1:  Iter=  5 NonCon=     1 RMS=4.62D-07 Max=6.37D-06 NDo=     1
 LinEq1:  Iter=  6 NonCon=     1 RMS=5.52D-08 Max=9.32D-07 NDo=     1
 LinEq1:  Iter=  7 NonCon=     1 RMS=8.84D-09 Max=1.36D-07 NDo=     1
 LinEq1:  Iter=  8 NonCon=     1 RMS=9.98D-10 Max=1.28D-08 NDo=     1
 LinEq1:  Iter=  9 NonCon=     1 RMS=1.37D-10 Max=2.91D-09 NDo=     1
 LinEq1:  Iter= 10 NonCon=     1 RMS=1.10D-10 Max=2.08D-09 NDo=     1
 LinEq1:  Iter= 11 NonCon=     0 RMS=2.20D-11 Max=5.87D-10 NDo=     1
 Linear equations converged to 1.000D-10 1.000D-09 after    11 iterations.
 End of Minotr F.D. properties file   721 does not exist.
 End of Minotr F.D. properties file   722 does not exist.
 End of Minotr F.D. properties file   788 does not exist.
 Calling FoFJK, ICntrl=  10002127 FMM=F ISym2X=0 I1Cent= 0 IOpClX= 1 NMat=1 NMatS=1 NMatT=0.
 -------------------------------------------------------------------
 Center     Atomic                   Forces (Hartrees/Bohr)
 Number     Number              X              Y              Z
 -------------------------------------------------------------------
      1        6           0.000010341    0.000004233   -0.000024867
      2        6           0.000000030   -0.000001829    0.000014821
      3        6          -0.000009705   -0.000004309   -0.000014815
      4        6           0.000001011   -0.000001751    0.000024864
      5        1           0.000001561   -0.000002714   -0.000003835
      6        1          -0.000002818   -0.000003190   -0.000002244
      7        1           0.000005431    0.000010270   -0.000002312
      8        1          -0.000010663    0.000000393    0.000003344
      9        1           0.000000866   -0.000003142    0.000001292
     10        1           0.000003946    0.000002039    0.000003751
 -------------------------------------------------------------------
 Cartesian Forces:  Max     0.000024867 RMS     0.000008717

 GradGradGradGradGradGradGradGradGradGradGradGradGradGradGradGradGradGrad
 Berny optimization.
 FormGI is forming the generalized inverse of G from B-inverse, IUseBI=4.
 Internal  Forces:  Max     0.000032020 RMS     0.000009185
 Search for a local minimum.
 Step number   1 out of a maximum of  100 on scan point     3 out of    37
 All quantities printed in internal units (Hartrees-Bohrs-Radians)
 Mixed Optimization -- RFO/linear search
 Second derivative matrix not updated -- first step.
 ITU=  0
     Eigenvalues ---    0.01318   0.01318   0.04652   0.04652   0.16000
     Eigenvalues ---    0.16000   0.16000   0.16000   0.16000   0.16000
     Eigenvalues ---    0.16000   0.16000   0.16000   0.16000   0.34866
     Eigenvalues ---    0.34866   0.34866   0.34866   0.34866   0.34866
     Eigenvalues ---    0.37185   0.37185   1.017521000.000001000.00000
     Eigenvalues --- 1000.00000
 RFO step:  Lambda=-2.02110102D-08 EMin= 1.31828613D-02
 Linear search not attempted -- first point.
 Iteration  1 RMS(Cart)=  0.00062691 RMS(Int)=  0.00000020
 Iteration  2 RMS(Cart)=  0.00000040 RMS(Int)=  0.00000000
 Iteration  1 RMS(Cart)=  0.00000000 RMS(Int)=  0.00000000
 Variable       Old X    -DE/DX   Delta X   Delta X   Delta X     New X
                                 (Linear)    (Quad)   (Total)
    R1        2.75546  -0.00002   0.00000  -0.00004  -0.00004   2.75542
    R2        2.05877   0.00000   0.00000   0.00001   0.00001   2.05878
    R3        2.05877   0.00000   0.00000   0.00001   0.00001   2.05878
    R4        2.05877   0.00000   0.00000   0.00001   0.00001   2.05878
    R5        2.27927  -0.00000   0.00000  -0.00000  -0.00000   2.27926
    R6        2.75546  -0.00002   0.00000  -0.00004  -0.00004   2.75542
    R7        2.05877   0.00000   0.00000   0.00001   0.00001   2.05878
    R8        2.05877   0.00000   0.00000   0.00001   0.00001   2.05878
    R9        2.05877   0.00000   0.00000   0.00001   0.00001   2.05878
    A1        1.93769   0.00000   0.00000   0.00002   0.00002   1.93771
    A2        1.93771   0.00000   0.00000   0.00002   0.00002   1.93773
    A3        1.93766  -0.00000   0.00000  -0.00001  -0.00001   1.93766
    A4        1.88286   0.00001   0.00000   0.00003   0.00003   1.88290
    A5        1.88277  -0.00001   0.00000  -0.00006  -0.00006   1.88271
    A6        1.88282  -0.00000   0.00000  -0.00001  -0.00001   1.88281
    A7        1.93771   0.00001   0.00000   0.00005   0.00005   1.93776
    A8        1.93766  -0.00000   0.00000  -0.00002  -0.00002   1.93764
    A9        1.93769   0.00000   0.00000   0.00001   0.00001   1.93769
   A10        1.88282  -0.00000   0.00000  -0.00002  -0.00002   1.88281
   A11        1.88287   0.00000   0.00000   0.00003   0.00003   1.88290
   A12        1.88277  -0.00001   0.00000  -0.00005  -0.00005   1.88272
   A13        3.14163  -0.00000   0.00000  -0.00006  -0.00006   3.14158
   A14        3.14182  -0.00001   0.00000  -0.00110  -0.00110   3.14073
   A15        3.14158  -0.00000   0.00000  -0.00010  -0.00010   3.14147
   A16        3.14151  -0.00000   0.00000  -0.00002  -0.00002   3.14149
    D1       -0.69813   0.00003   0.00000   0.00000   0.00000  -0.69813
         Item               Value     Threshold  Converged?
 Maximum Force            0.000016     0.000450     YES
 RMS     Force            0.000007     0.000300     YES
 Maximum Displacement     0.001840     0.001800     NO 
 RMS     Displacement     0.000627     0.001200     YES
 Predicted change in Energy=-1.010551D-08
 GradGradGradGradGradGradGradGradGradGradGradGradGradGradGradGradGradGrad

                          Input orientation:                          
 ---------------------------------------------------------------------
 Center     Atomic      Atomic             Coordinates (Angstroms)
 Number     Number       Type             X           Y           Z
 ---------------------------------------------------------------------
      1          6           0        0.000020    0.000007    2.061172
      2          6           0       -0.000458   -0.000137    0.603067
      3          6           0       -0.000789   -0.000224   -0.603067
      4          6           0        0.000023    0.000035   -2.061172
      5          1           0        0.955877    0.347795   -2.451462
      6          1           0       -0.176478   -1.001398   -2.452206
      7          1           0       -0.778810    0.653763   -2.452302
      8          1           0       -0.176419    1.001546    2.451957
      9          1           0       -0.778790   -0.653720    2.452345
     10          1           0        0.955825   -0.347666    2.451669
 ---------------------------------------------------------------------
                    Distance matrix (angstroms):
                    1          2          3          4          5
     1  C    0.000000
     2  C    1.458105   0.000000
     3  C    2.664240   1.206135   0.000000
     4  C    4.122344   2.664239   1.458105   0.000000
     5  H    4.625850   3.219593   2.110187   1.089458   0.000000
     6  H    4.626505   3.219969   2.110102   1.089462   1.761406
     7  H    4.626599   3.220046   2.110138   1.089460   1.761463
     8  H    1.089461   2.110148   3.219870   4.626282   5.074741
     9  H    1.089458   2.110166   3.219920   4.626638   5.297114
    10  H    1.089462   2.110114   3.219820   4.626034   4.952207
                    6          7          8          9         10
     6  H    0.000000
     7  H    1.761351   0.000000
     8  H    5.297414   4.953341   0.000000
     9  H    4.953613   5.075931   1.761464   0.000000
    10  H    5.075181   5.297240   1.761349   1.761408   0.000000
 Symmetry turned off by external request.
 Stoichiometry    C4H6
 Framework group  C1[X(C4H6)]
 Deg. of freedom    24
 Full point group                 C1      NOp   1
 Rotational constants (GHZ):          80.8131793           3.3653035           3.3652966
 Standard basis: CC-pVTZ (5D, 7F)
   204 basis functions,   310 primitive gaussians,   230 cartesian basis functions
    15 alpha electrons       15 beta electrons
       nuclear repulsion energy       100.1309348156 Hartrees.
 NAtoms=   10 NActive=   10 NUniq=   10 SFac= 1.00D+00 NAtFMM=   60 NAOKFM=F Big=F
 Integral buffers will be    131072 words long.
 Raffenetti 2 integral format.
 Two-electron integral symmetry is turned off.
 Nuclear repulsion after empirical dispersion term =      100.1267997590 Hartrees.
 One-electron integrals computed using PRISM.
 NBasis=   204 RedAO= T EigKep=  1.57D-05  NBF=   204
 NBsUse=   204 1.00D-06 EigRej= -1.00D+00 NBFU=   204
 Initial guess from the checkpoint file:  "/localscratch/339760/Gau-66970.chk"
 B after Tr=    -0.000456   -0.000175   -0.000000
         Rot=    1.000000    0.000002   -0.000010   -0.000000 Ang=   0.00 deg.
 Initial guess <Sx>= 0.0000 <Sy>= 0.0000 <Sz>= 0.0000 <S**2>=-0.0000 S=-0.0000
 Keep R1 and R2 ints in memory in canonical form, NReq=479623802.
 Requested convergence on RMS density matrix=1.00D-08 within 500 cycles.
 Requested convergence on MAX density matrix=1.00D-06.
 Requested convergence on             energy=1.00D-06.
 No special actions if energy rises.
 SCF Done:  E(UB2PLYPD3) =  -155.674720872     A.U. after    5 cycles
            NFock=  5  Conv=0.81D-08     -V/T= 2.0048
 <Sx>= 0.0000 <Sy>= 0.0000 <Sz>= 0.0000 <S**2>=-0.0000 S=-0.0000
 <L.S>=  0.00000000000    
 Annihilation of the first spin contaminant:
 S**2 before annihilation    -0.0000,   after     0.0000
 DoSCS=T DFT=T ScalE2(SS,OS)=  0.270000  0.270000
 ExpMin= 1.03D-01 ExpMax= 8.24D+03 ExpMxC= 2.81D+02 IAcc=3 IRadAn=         5 AccDes= 0.00D+00
 HarFok:  IExCor=  205 AccDes= 0.00D+00 IRadAn=         5 IDoV=-2 UseB2=F ITyADJ=14
 ICtDFT= 12500011 ScaDFX=  1.000000  1.000000  1.000000  1.000000
 Range of M.O.s used for correlation:     5   204
 NBasis=   204 NAE=    15 NBE=    15 NFC=     4 NFV=     0
 NROrb=    200 NOA=    11 NOB=    11 NVA=   189 NVB=   189

 **** Warning!!: The largest alpha MO coefficient is  0.61849776D+02


 **** Warning!!: The largest beta MO coefficient is  0.61849776D+02

 DoSCS=T DFT=T ScalE2(SS,OS)=  0.270000  0.270000
 Fully direct method using O(ONN) memory.
 JobTyp=2 Pass  1:  I=   5 to  15 NPSUse= 40 ParTrn=T ParDer=T DoDerP=T.
 JobTyp=3 Pass  1:  I=   5 to  15 NPSUse= 40 ParTrn=T ParDer=T DoDerP=T.
 Spin components of T(2) and E(2):
     alpha-alpha T2 =       0.4354561842D-01 E2=     -0.2516792960D-01
     alpha-beta  T2 =       0.2605525723D+00 E2=     -0.1653722137D+00
     beta-beta   T2 =       0.4354561842D-01 E2=     -0.2516792960D-01
 (S**2,0)=  0.00000D+00           (S**2,1)=  0.00000D+00
 E(PUHF)=      -0.15567472087D+03        E(PMP2)=      -0.15589042894D+03
 E2(B2PLYPD3) =    -0.2157080729D+00 E(B2PLYPD3) =    -0.15589042894436D+03
          IDoAtm=1111111111
          Differentiating once with respect to electric field.
                with respect to dipole field.
          Differentiating once with respect to nuclear coordinates.
 Keep R1 and R2 ints in memory in canonical form, NReq=479631092.
          There are     1 degrees of freedom in the 1st order CPHF.  IDoFFX=0 NUNeed=     1.
 LinEq1:  Iter=  0 NonCon=     1 RMS=6.63D-04 Max=1.05D-02 NDo=     1
 AX will form     1 AO Fock derivatives at one time.
 LinEq1:  Iter=  1 NonCon=     1 RMS=2.48D-04 Max=4.79D-03 NDo=     1
 LinEq1:  Iter=  2 NonCon=     1 RMS=4.73D-05 Max=7.50D-04 NDo=     1
 LinEq1:  Iter=  3 NonCon=     1 RMS=5.59D-06 Max=1.04D-04 NDo=     1
 LinEq1:  Iter=  4 NonCon=     1 RMS=9.68D-07 Max=2.18D-05 NDo=     1
 LinEq1:  Iter=  5 NonCon=     1 RMS=4.62D-07 Max=6.27D-06 NDo=     1
 LinEq1:  Iter=  6 NonCon=     1 RMS=5.52D-08 Max=9.32D-07 NDo=     1
 LinEq1:  Iter=  7 NonCon=     1 RMS=8.88D-09 Max=1.39D-07 NDo=     1
 LinEq1:  Iter=  8 NonCon=     1 RMS=1.34D-09 Max=2.34D-08 NDo=     1
 LinEq1:  Iter=  9 NonCon=     1 RMS=1.08D-09 Max=2.13D-08 NDo=     1
 LinEq1:  Iter= 10 NonCon=     1 RMS=1.69D-10 Max=3.07D-09 NDo=     1
 LinEq1:  Iter= 11 NonCon=     0 RMS=4.77D-11 Max=9.69D-10 NDo=     1
 Linear equations converged to 1.000D-10 1.000D-09 after    11 iterations.
 End of Minotr F.D. properties file   721 does not exist.
 End of Minotr F.D. properties file   722 does not exist.
 End of Minotr F.D. properties file   788 does not exist.
 Calling FoFJK, ICntrl=  10002127 FMM=F ISym2X=0 I1Cent= 0 IOpClX= 1 NMat=1 NMatS=1 NMatT=0.
 -------------------------------------------------------------------
 Center     Atomic                   Forces (Hartrees/Bohr)
 Number     Number              X              Y              Z
 -------------------------------------------------------------------
      1        6           0.000003871   -0.000001642   -0.000006514
      2        6          -0.000007679   -0.000000743    0.000002821
      3        6           0.000051500    0.000018736   -0.000002729
      4        6          -0.000041810   -0.000023368    0.000006428
      5        1           0.000000384   -0.000000477    0.000007753
      6        1          -0.000002434   -0.000000354   -0.000006368
      7        1           0.000009183    0.000010245   -0.000005507
      8        1          -0.000015790   -0.000002529    0.000000388
      9        1           0.000001282    0.000000457    0.000004177
     10        1           0.000001493   -0.000000326   -0.000000449
 -------------------------------------------------------------------
 Cartesian Forces:  Max     0.000051500 RMS     0.000014234

 GradGradGradGradGradGradGradGradGradGradGradGradGradGradGradGradGradGrad
 Berny optimization.
 Using GEDIIS/GDIIS optimizer.
 FormGI is forming the generalized inverse of G from B-inverse, IUseBI=4.
 Internal  Forces:  Max     0.000071717 RMS     0.000016248
 Search for a local minimum.
 Step number   2 out of a maximum of  100 on scan point     3 out of    37
 All quantities printed in internal units (Hartrees-Bohrs-Radians)
 Mixed Optimization -- En-DIIS/RFO-DIIS
 Update second derivatives using D2CorX and points    1
 DE=  2.68D-08 DEPred=-1.01D-08 R=-2.65D+00
 Trust test=-2.65D+00 RLast= 1.11D-03 DXMaxT set to 1.50D-01
 ITU= -1  0
 Use linear search instead of GDIIS.
     Eigenvalues ---    0.01318   0.01318   0.04652   0.04652   0.16000
     Eigenvalues ---    0.16000   0.16000   0.16000   0.16000   0.16000
     Eigenvalues ---    0.16000   0.16000   0.16000   0.16000   0.34866
     Eigenvalues ---    0.34866   0.34866   0.34866   0.34866   0.34866
     Eigenvalues ---    0.37185   0.37185   1.017521000.000001000.00000
     Eigenvalues --- 1000.00000
 RFO step:  Lambda= 0.00000000D+00 EMin= 1.31828613D-02
 Quartic linear search produced a step of -0.76427.
 Iteration  1 RMS(Cart)=  0.00058495 RMS(Int)=  0.00000018
 Iteration  2 RMS(Cart)=  0.00000036 RMS(Int)=  0.00000000
 Iteration  1 RMS(Cart)=  0.00000000 RMS(Int)=  0.00000000
 Variable       Old X    -DE/DX   Delta X   Delta X   Delta X     New X
                                 (Linear)    (Quad)   (Total)
    R1        2.75542  -0.00000   0.00003  -0.00004  -0.00000   2.75542
    R2        2.05878   0.00000  -0.00001   0.00001   0.00000   2.05878
    R3        2.05878   0.00000  -0.00000   0.00000   0.00000   2.05878
    R4        2.05878   0.00000  -0.00001   0.00001   0.00000   2.05879
    R5        2.27926   0.00000   0.00000  -0.00000   0.00000   2.27926
    R6        2.75542  -0.00000   0.00003  -0.00004  -0.00000   2.75542
    R7        2.05878  -0.00000  -0.00000   0.00000  -0.00000   2.05878
    R8        2.05878   0.00000  -0.00001   0.00001   0.00000   2.05879
    R9        2.05878   0.00000  -0.00001   0.00001   0.00000   2.05878
    A1        1.93771  -0.00000  -0.00001   0.00001  -0.00000   1.93771
    A2        1.93773   0.00001  -0.00002   0.00003   0.00001   1.93775
    A3        1.93766  -0.00000   0.00000  -0.00001  -0.00001   1.93765
    A4        1.88290  -0.00000  -0.00003   0.00003   0.00000   1.88290
    A5        1.88271  -0.00000   0.00005  -0.00005  -0.00000   1.88271
    A6        1.88281  -0.00000   0.00001  -0.00001  -0.00000   1.88281
    A7        1.93776  -0.00001  -0.00004   0.00002  -0.00002   1.93774
    A8        1.93764   0.00001   0.00002  -0.00001   0.00001   1.93765
    A9        1.93769   0.00001  -0.00000   0.00002   0.00001   1.93771
   A10        1.88281   0.00000   0.00001  -0.00001   0.00000   1.88281
   A11        1.88290   0.00000  -0.00002   0.00003   0.00000   1.88290
   A12        1.88272  -0.00001   0.00004  -0.00005  -0.00001   1.88271
   A13        3.14158   0.00001   0.00004  -0.00001   0.00003   3.14161
   A14        3.14073   0.00007   0.00084   0.00021   0.00105   3.14177
   A15        3.14147   0.00001   0.00008  -0.00003   0.00005   3.14153
   A16        3.14149  -0.00000   0.00001  -0.00003  -0.00002   3.14147
    D1       -0.69813   0.00003   0.00000   0.00000   0.00000  -0.69813
         Item               Value     Threshold  Converged?
 Maximum Force            0.000072     0.000450     YES
 RMS     Force            0.000015     0.000300     YES
 Maximum Displacement     0.001729     0.001800     YES
 RMS     Displacement     0.000585     0.001200     YES
 Predicted change in Energy=-6.923613D-08
 Optimization completed.
    -- Stationary point found.
                           ----------------------------
                           !   Optimized Parameters   !
                           ! (Angstroms and Degrees)  !
 --------------------------                            --------------------------
 ! Name  Definition              Value          Derivative Info.                !
[...]
 Alpha virt. eigenvalues --    0.95379   0.95380   1.05991   1.07234   1.07234
 Alpha virt. eigenvalues --    1.10314   1.10314   1.17440   1.17443   1.18506
 Alpha virt. eigenvalues --    1.18508   1.24792   1.27059   1.31577   1.37961
 Alpha virt. eigenvalues --    1.37961   1.38012   1.39735   1.39736   1.43730
 Alpha virt. eigenvalues --    1.43733   1.45608   1.45609   1.49066   1.59906
 Alpha virt. eigenvalues --    1.59908   1.60033   1.68158   1.77019   1.77022
 Alpha virt. eigenvalues --    2.19875   2.19878   2.29181   2.34476   2.34478
 Alpha virt. eigenvalues --    2.36237   2.39036   2.39040   2.51357   2.57032
 Alpha virt. eigenvalues --    2.57033   2.59904   2.61445   2.64326   2.68709
 Alpha virt. eigenvalues --    2.74619   2.78402   2.78404   2.78910   2.78911
 Alpha virt. eigenvalues --    2.82955   2.88892   2.89892   2.92051   2.92051
 Alpha virt. eigenvalues --    2.93309   2.93310   2.94320   2.99608   2.99610
 Alpha virt. eigenvalues --    3.00047   3.00049   3.06192   3.10202   3.10813
 Alpha virt. eigenvalues --    3.10814   3.15102   3.15103   3.19684   3.19685
 Alpha virt. eigenvalues --    3.22831   3.22831   3.30554   3.30555   3.36112
 Alpha virt. eigenvalues --    3.41524   3.41524   3.43894   3.44212   3.44819
 Alpha virt. eigenvalues --    3.54041   3.54044   3.56673   3.57389   3.57394
 Alpha virt. eigenvalues --    3.58631   3.62220   3.62223   3.65341   3.65342
 Alpha virt. eigenvalues --    3.79377   3.86410   3.86414   3.89026   3.89029
 Alpha virt. eigenvalues --    3.92787   4.01355   4.01355   4.01372   4.08255
 Alpha virt. eigenvalues --    4.08255   4.09261   4.11321   4.11321   4.22308
 Alpha virt. eigenvalues --    4.22422   4.23757   4.23759   4.39592   4.43268
 Alpha virt. eigenvalues --    4.43271   4.43336   4.44894   4.44899   4.51365
 Alpha virt. eigenvalues --    4.52487   4.79436   4.79442   4.94758   4.94765
 Alpha virt. eigenvalues --    4.98365   5.07794   5.12443   5.12446   5.20722
 Alpha virt. eigenvalues --    5.22179   5.24320   5.24324   5.33227   5.37926
 Alpha virt. eigenvalues --    5.39047   5.39056   5.46526   5.47542   5.47551
 Alpha virt. eigenvalues --    5.48594   5.48601   5.85802   5.85803   5.87142
 Alpha virt. eigenvalues --    5.99963   5.99967   6.04441   6.04443   6.12129
 Alpha virt. eigenvalues --    7.44243  13.85272  14.01490  18.17048
  Beta  occ. eigenvalues --  -10.62746 -10.62746 -10.60235 -10.59937  -0.89886
  Beta  occ. eigenvalues --   -0.85274  -0.77152  -0.55277  -0.50312  -0.49892
  Beta  occ. eigenvalues --   -0.49891  -0.48443  -0.48442  -0.29738  -0.29738
  Beta virt. eigenvalues --    0.08459   0.09514   0.11200   0.11200   0.15604
  Beta virt. eigenvalues --    0.15604   0.18980   0.18981   0.21592   0.22965
  Beta virt. eigenvalues --    0.31964   0.31965   0.31999   0.32001   0.34384
  Beta virt. eigenvalues --    0.35152   0.41723   0.41724   0.47230   0.51230
  Beta virt. eigenvalues --    0.51231   0.52768   0.52769   0.52981   0.53955
  Beta virt. eigenvalues --    0.56667   0.56668   0.61567   0.68462   0.68464
  Beta virt. eigenvalues --    0.69254   0.69256   0.73753   0.79240   0.82119
  Beta virt. eigenvalues --    0.89185   0.92232   0.92235   0.92852   0.92854
  Beta virt. eigenvalues --    0.95379   0.95380   1.05991   1.07234   1.07234
  Beta virt. eigenvalues --    1.10314   1.10314   1.17440   1.17443   1.18506
  Beta virt. eigenvalues --    1.18508   1.24792   1.27059   1.31577   1.37961
  Beta virt. eigenvalues --    1.37961   1.38012   1.39735   1.39736   1.43730
  Beta virt. eigenvalues --    1.43733   1.45608   1.45609   1.49066   1.59906
  Beta virt. eigenvalues --    1.59908   1.60033   1.68158   1.77019   1.77022
  Beta virt. eigenvalues --    2.19875   2.19878   2.29181   2.34476   2.34478
  Beta virt. eigenvalues --    2.36237   2.39036   2.39040   2.51357   2.57032
  Beta virt. eigenvalues --    2.57033   2.59904   2.61445   2.64326   2.68709
  Beta virt. eigenvalues --    2.74619   2.78402   2.78404   2.78910   2.78911
  Beta virt. eigenvalues --    2.82955   2.88892   2.89892   2.92051   2.92051
  Beta virt. eigenvalues --    2.93309   2.93310   2.94320   2.99608   2.99610
  Beta virt. eigenvalues --    3.00047   3.00049   3.06192   3.10202   3.10813
  Beta virt. eigenvalues --    3.10814   3.15102   3.15103   3.19684   3.19685
  Beta virt. eigenvalues --    3.22831   3.22831   3.30554   3.30555   3.36112
  Beta virt. eigenvalues --    3.41524   3.41524   3.43894   3.44212   3.44819
  Beta virt. eigenvalues --    3.54041   3.54044   3.56673   3.57389   3.57394
  Beta virt. eigenvalues --    3.58631   3.62220   3.62223   3.65341   3.65342
  Beta virt. eigenvalues --    3.79377   3.86410   3.86414   3.89026   3.89029
  Beta virt. eigenvalues --    3.92787   4.01355   4.01355   4.01372   4.08255
  Beta virt. eigenvalues --    4.08255   4.09261   4.11321   4.11321   4.22308
  Beta virt. eigenvalues --    4.22422   4.23757   4.23759   4.39592   4.43268
  Beta virt. eigenvalues --    4.43271   4.43336   4.44894   4.44899   4.51365
  Beta virt. eigenvalues --    4.52487   4.79436   4.79442   4.94758   4.94765
  Beta virt. eigenvalues --    4.98365   5.07794   5.12443   5.12446   5.20722
  Beta virt. eigenvalues --    5.22179   5.24320   5.24324   5.33227   5.37926
  Beta virt. eigenvalues --    5.39047   5.39056   5.46526   5.47542   5.47551
  Beta virt. eigenvalues --    5.48594   5.48601   5.85802   5.85803   5.87142
  Beta virt. eigenvalues --    5.99963   5.99967   6.04441   6.04443   6.12129
  Beta virt. eigenvalues --    7.44243  13.85272  14.01490  18.17048
          Condensed to atoms (all electrons):
               1          2          3          4          5          6
     1  C    4.768874   0.439321  -0.103728  -0.001123   0.000059   0.000059
     2  C    0.439321   5.290538   0.519681  -0.103728   0.000926   0.000905
     3  C   -0.103728   0.519681   5.290539   0.439321  -0.043953  -0.043953
     4  C   -0.001123  -0.103728   0.439321   4.768874   0.409330   0.409360
     5  H    0.000059   0.000926  -0.043953   0.409330   0.577205  -0.029853
     6  H    0.000059   0.000905  -0.043953   0.409360  -0.029853   0.577183
     7  H    0.000059   0.000906  -0.043956   0.409358  -0.029857  -0.029849
     8  H    0.409358  -0.043956   0.000905   0.000059   0.000060  -0.000058
     9  H    0.409330  -0.043953   0.000926   0.000059  -0.000058   0.000060
    10  H    0.409360  -0.043953   0.000906   0.000059   0.000060   0.000060
               7          8          9         10
     1  C    0.000059   0.409358   0.409330   0.409360
     2  C    0.000906  -0.043956  -0.043953  -0.043953
     3  C   -0.043956   0.000905   0.000926   0.000906
     4  C    0.409358   0.000059   0.000059   0.000059
     5  H   -0.029857   0.000060  -0.000058   0.000060
     6  H   -0.029849  -0.000058   0.000060   0.000060
     7  H    0.577194   0.000060   0.000060  -0.000058
     8  H    0.000060   0.577195  -0.029857  -0.029849
     9  H    0.000060  -0.029857   0.577204  -0.029853
    10  H   -0.000058  -0.029849  -0.029853   0.577182
          Atomic-Atomic Spin Densities.
               1          2          3          4          5          6
     1  C   -0.000000   0.000000  -0.000000  -0.000000   0.000000   0.000000
     2  C    0.000000   0.000000  -0.000000  -0.000000   0.000000   0.000000
     3  C   -0.000000  -0.000000   0.000000   0.000000  -0.000000   0.000000
     4  C   -0.000000  -0.000000   0.000000   0.000000  -0.000000  -0.000000
     5  H    0.000000   0.000000  -0.000000  -0.000000  -0.000000  -0.000000
     6  H    0.000000   0.000000   0.000000  -0.000000  -0.000000  -0.000000
     7  H    0.000000   0.000000   0.000000  -0.000000  -0.000000  -0.000000
     8  H   -0.000000   0.000000   0.000000   0.000000   0.000000   0.000000
     9  H   -0.000000   0.000000   0.000000   0.000000   0.000000   0.000000
    10  H   -0.000000   0.000000   0.000000   0.000000   0.000000   0.000000
               7          8          9         10
     1  C    0.000000  -0.000000  -0.000000  -0.000000
     2  C    0.000000   0.000000   0.000000   0.000000
     3  C    0.000000   0.000000   0.000000   0.000000
     4  C   -0.000000   0.000000   0.000000   0.000000
     5  H   -0.000000   0.000000   0.000000   0.000000
     6  H   -0.000000   0.000000   0.000000   0.000000
     7  H    0.000000   0.000000   0.000000   0.000000
     8  H    0.000000   0.000000  -0.000000  -0.000000
     9  H    0.000000  -0.000000  -0.000000  -0.000000
    10  H    0.000000  -0.000000  -0.000000  -0.000000
 Mulliken charges and spin densities:
               1          2
     1  C   -0.331568  -0.000000
     2  C   -0.016687  -0.000000
     3  C   -0.016688   0.000000
     4  C   -0.331568   0.000000
     5  H    0.116083  -0.000000
     6  H    0.116088  -0.000000
     7  H    0.116085  -0.000000
     8  H    0.116085   0.000000
     9  H    0.116083   0.000000
    10  H    0.116088   0.000000
 Sum of Mulliken charges =  -0.00000   0.00000
 Mulliken charges and spin densities with hydrogens summed into heavy atoms:
               1          2
     1  C    0.016687  -0.000000
     2  C   -0.016687  -0.000000
     3  C   -0.016688   0.000000
     4  C    0.016688   0.000000
 Electronic spatial extent (au):  <R**2>=            401.3220
 Charge=             -0.0000 electrons
 Dipole moment (field-independent basis, Debye):
    X=              0.0001    Y=             -0.0000    Z=              0.0000  Tot=              0.0001
 Quadrupole moment (field-independent basis, Debye-Ang):
   XX=            -25.8724   YY=            -25.8722   ZZ=            -19.1338
   XY=             -0.0002   XZ=              0.0001   YZ=              0.0000
 Traceless Quadrupole moment (field-independent basis, Debye-Ang):
   XX=             -2.2463   YY=             -2.2461   ZZ=              4.4924
   XY=             -0.0002   XZ=              0.0001   YZ=              0.0000
 Octapole moment (field-independent basis, Debye-Ang**2):
  XXX=              0.0012  YYY=             -0.0004  ZZZ=             -0.0000  XYY=              0.0000
  XXY=             -0.0001  XXZ=              0.0003  XZZ=              0.0002  YZZ=             -0.0001
  YYZ=             -0.0003  XYZ=             -0.0002
 Hexadecapole moment (field-independent basis, Debye-Ang**3):
 XXXX=            -42.0144 YYYY=            -42.0145 ZZZZ=           -455.5361 XXXY=              0.0001
 XXXZ=              0.0016 YYYX=             -0.0001 YYYZ=             -3.3674 ZZZX=              0.0015
 ZZZY=              0.0006 XXYY=            -14.0047 XXZZ=            -80.7828 YYZZ=            -80.7812
 XXYZ=              3.3683 YYXZ=              0.0005 ZZXY=             -0.0014
 N-N= 1.001264540071D+02 E-N=-5.610949799965D+02  KE= 1.549257263963D+02
                          Isotropic Fermi Contact Couplings
        Atom                 a.u.       MegaHertz       Gauss      10(-4) cm-1
     1  C(13)              0.00000       0.00000       0.00000       0.00000
     2  C(13)             -0.00000      -0.00000      -0.00000      -0.00000
     3  C(13)              0.00000       0.00000       0.00000       0.00000
     4  C(13)              0.00000       0.00000       0.00000       0.00000
     5  H(1)              -0.00000      -0.00000      -0.00000      -0.00000
     6  H(1)              -0.00000      -0.00000      -0.00000      -0.00000
     7  H(1)              -0.00000      -0.00000      -0.00000      -0.00000
     8  H(1)              -0.00000      -0.00000      -0.00000      -0.00000
     9  H(1)              -0.00000      -0.00000      -0.00000      -0.00000
    10  H(1)              -0.00000      -0.00000      -0.00000      -0.00000
 --------------------------------------------------------
       Center         ----  Spin Dipole Couplings  ----
                      3XX-RR        3YY-RR        3ZZ-RR
 --------------------------------------------------------
     1   Atom        0.000000      0.000000     -0.000000
     2   Atom       -0.000000     -0.000000      0.000000
     3   Atom       -0.000000     -0.000000      0.000000
     4   Atom        0.000000      0.000000     -0.000000
     5   Atom        0.000000      0.000000     -0.000000
     6   Atom        0.000000      0.000000     -0.000000
     7   Atom        0.000000      0.000000     -0.000000
     8   Atom        0.000000      0.000000     -0.000000
     9   Atom        0.000000      0.000000     -0.000000
    10   Atom        0.000000      0.000000     -0.000000
 --------------------------------------------------------
                        XY            XZ            YZ
 --------------------------------------------------------
     1   Atom       -0.000000      0.000000      0.000000
     2   Atom        0.000000     -0.000000     -0.000000
     3   Atom       -0.000000     -0.000000      0.000000
     4   Atom        0.000000      0.000000      0.000000
     5   Atom        0.000000     -0.000000     -0.000000
     6   Atom       -0.000000      0.000000      0.000000
     7   Atom       -0.000000      0.000000     -0.000000
     8   Atom       -0.000000      0.000000     -0.000000
     9   Atom        0.000000      0.000000      0.000000
    10   Atom        0.000000     -0.000000      0.000000
 --------------------------------------------------------


 ---------------------------------------------------------------------------------
              Anisotropic Spin Dipole Couplings in Principal Axis System
 ---------------------------------------------------------------------------------

       Atom             a.u.   MegaHertz   Gauss  10(-4) cm-1        Axes

              Baa    -0.0000    -0.000    -0.000    -0.000 -0.0139 -0.0339  0.9993
     1 C(13)  Bbb     0.0000     0.000     0.000     0.000  0.5155  0.8561  0.0362
              Bcc     0.0000     0.000     0.000     0.000  0.8568 -0.5156 -0.0056
 
              Baa    -0.0000    -0.000    -0.000    -0.000  0.3287  0.8272  0.4558
     2 C(13)  Bbb    -0.0000    -0.000    -0.000    -0.000  0.9200 -0.3896  0.0435
              Bcc     0.0000     0.000     0.000     0.000 -0.2136 -0.4050  0.8890
 
              Baa    -0.0000    -0.000    -0.000    -0.000  0.9263  0.3765  0.0139
     3 C(13)  Bbb    -0.0000    -0.000    -0.000    -0.000 -0.3752  0.9252 -0.0563
              Bcc     0.0000     0.000     0.000     0.000 -0.0340  0.0470  0.9983
 
              Baa    -0.0000    -0.000    -0.000    -0.000 -0.0458 -0.0147  0.9988
     4 C(13)  Bbb     0.0000     0.000     0.000     0.000  0.7691 -0.6387  0.0258
              Bcc     0.0000     0.000     0.000     0.000  0.6375  0.7694  0.0406
 
              Baa    -0.0000    -0.000    -0.000    -0.000  0.1630  0.2247  0.9607
     5 H(1)   Bbb     0.0000     0.000     0.000     0.000 -0.2828  0.9435 -0.1727
              Bcc     0.0000     0.000     0.000     0.000  0.9452  0.2435 -0.2174
 
              Baa    -0.0000    -0.000    -0.000    -0.000 -0.0940 -0.1860  0.9781
     6 H(1)   Bbb     0.0000     0.000     0.000     0.000  0.9952  0.0109  0.0977
              Bcc     0.0000     0.000     0.000     0.000 -0.0288  0.9825  0.1840
 
              Baa    -0.0000    -0.000    -0.000    -0.000 -0.0948  0.0440  0.9945
     7 H(1)   Bbb     0.0000     0.000     0.000     0.000  0.4905  0.8714  0.0082
              Bcc     0.0000     0.000     0.000     0.000  0.8663 -0.4886  0.1042
 
              Baa    -0.0000    -0.000    -0.000    -0.000 -0.0317  0.2177  0.9755
     8 H(1)   Bbb     0.0000     0.000     0.000     0.000  0.3291  0.9238 -0.1955
              Bcc     0.0000     0.000     0.000     0.000  0.9438 -0.3148  0.1010
 
              Baa    -0.0000    -0.000    -0.000    -0.000 -0.0983 -0.0683  0.9928
     9 H(1)   Bbb     0.0000     0.000     0.000     0.000  0.8433 -0.5353  0.0467
              Bcc     0.0000     0.000     0.000     0.000  0.5283  0.8419  0.1102
 
              Baa    -0.0000    -0.000    -0.000    -0.000  0.2510 -0.1661  0.9536
    10 H(1)   Bbb     0.0000     0.000     0.000     0.000  0.9626  0.1466 -0.2278
              Bcc     0.0000     0.000     0.000     0.000 -0.1020  0.9752  0.1967
 

 ---------------------------------------------------------------------------------

 1\1\GINC-N60\Scan\UB2PLYPD3-FC\CC-pVTZ\C4H6\ROOT\02-Jun-2019\0\\# opt=
 (maxcyc=500,modredundant) uB2PLYPD3/cc-pvtz scf=maxcyc=500 nosymm\\Tit
 le Card Required\\0,1\C,-0.0000258201,0.0000043323,2.0611795748\C,-0.0
 000482969,-0.0000131544,0.6030679896\C,0.0000043704,0.000019406,-0.603
 0678349\C,0.000014486,0.0000221773,-2.0611796219\H,-0.8806387313,-0.50
 85518668,-2.4519915808\H,-0.0000944283,1.0169458507,-2.4520503172\H,0.
 8807181223,-0.5084459766,-2.4520039523\H,-0.000027096,-1.0169351351,2.
 4520202584\H,0.8807457543,0.5083911346,2.4519685506\H,-0.8806483604,0.
 5085632321,2.4520569337\\Version=ES64L-G16RevB.01\HF=-155.6747067,-155
 .6747166,-155.6747209,-155.6747273,-155.6747336,-155.6747381,-155.6747
 398,-155.6747382,-155.6747335,-155.6747273,-155.6747208,-155.6747162,-
 155.6747144,-155.6747162,-155.6747208,-155.6747273,-155.6747335,-155.6
 747382,-155.6747398,-155.6747382,-155.6747335,-155.6747273,-155.674720
 8,-155.6747162,-155.6747144,-155.6747162,-155.6747208,-155.6747273,-15
 5.6747335,-155.6747382,-155.6747398,-155.6747382,-155.6747335,-155.674
 7273,-155.6747208,-155.6747162,-155.6747144\MP2=-155.8904227,-155.8904
 245,-155.8904289,-155.8904351,-155.8904411,-155.8904456,-155.8904472,-
 155.8904456,-155.8904411,-155.8904351,-155.890429,-155.8904245,-155.89
 04229,-155.8904245,-155.890429,-155.8904351,-155.8904411,-155.8904456,
 -155.8904472,-155.8904456,-155.8904411,-155.8904351,-155.890429,-155.8
 904245,-155.8904229,-155.8904245,-155.890429,-155.8904352,-155.8904411
 ,-155.8904456,-155.8904472,-155.8904456,-155.8904411,-155.8904351,-155
 .890429,-155.8904245,-155.8904229\PUHF=-155.6747067,-155.6747166,-155.
 6747209,-155.6747273,-155.6747336,-155.6747381,-155.6747398,-155.67473
 82,-155.6747335,-155.6747273,-155.6747208,-155.6747162,-155.6747144,-1
 55.6747162,-155.6747208,-155.6747273,-155.6747335,-155.6747382,-155.67
 47398,-155.6747382,-155.6747335,-155.6747273,-155.6747208,-155.6747162
 ,-155.6747144,-155.6747162,-155.6747208,-155.6747273,-155.6747335,-155
 .6747382,-155.6747398,-155.6747382,-155.6747335,-155.6747273,-155.6747
 208,-155.6747162,-155.6747144\PMP2-0=-155.8904227,-155.8904245,-155.89
 04289,-155.8904351,-155.8904411,-155.8904456,-155.8904472,-155.8904456
 ,-155.8904411,-155.8904351,-155.890429,-155.8904245,-155.8904229,-155.
 8904245,-155.890429,-155.8904351,-155.8904411,-155.8904456,-155.890447
 2,-155.8904456,-155.8904411,-155.8904351,-155.890429,-155.8904245,-155
 .8904229,-155.8904245,-155.890429,-155.8904352,-155.8904411,-155.89044
 56,-155.8904472,-155.8904456,-155.8904411,-155.8904351,-155.890429,-15
 5.8904245,-155.8904229\S2=0.,0.,0.,0.,0.,0.,0.,0.,0.,0.,0.,0.,0.,0.,0.
 ,0.,0.,0.,0.,0.,0.,0.,0.,0.,0.,0.,0.,0.,0.,0.,0.,0.,0.,0.,0.,0.,0.\S2-
 1=0.,0.,0.,0.,0.,0.,0.,0.,0.,0.,0.,0.,0.,0.,0.,0.,0.,0.,0.,0.,0.,0.,0.
 ,0.,0.,0.,0.,0.,0.,0.,0.,0.,0.,0.,0.,0.,0.\S2A=0.,0.,0.,0.,0.,0.,0.,0.
 ,0.,0.,0.,0.,0.,0.,0.,0.,0.,0.,0.,0.,0.,0.,0.,0.,0.,0.,0.,0.,0.,0.,0.,
 0.,0.,0.,0.,0.,0.\RMSD=3.514e-09,5.248e-09,8.059e-09,5.844e-09,8.005e-
 09,2.839e-09,5.945e-09,9.358e-09,8.861e-09,9.090e-09,8.747e-09,8.993e-
 09,8.884e-09,9.157e-09,9.131e-09,9.275e-09,9.204e-09,9.249e-09,9.161e-
 09,9.139e-09,9.028e-09,8.953e-09,8.869e-09,8.895e-09,8.973e-09,9.093e-
 09,9.190e-09,9.220e-09,9.255e-09,9.204e-09,9.209e-09,9.091e-09,9.077e-
 09,8.907e-09,8.913e-09,8.839e-09,9.023e-09\PG=C01 [X(C4H6)]\\@


 The lyf so short, the craft so long to lerne.
                             -- Chaucer
 Job cpu time:       0 days 15 hours 14 minutes 15.0 seconds.
 Elapsed time:       0 days  0 hours 32 minutes 17.1 seconds.
 File lengths (MBytes):  RWF=     41 Int=      0 D2E=      0 Chk=      9 Scr=      1
 Normal termination of Gaussian 16 at Sun Jun  2 17:12:58 2019.
