 Entering Gaussian System, Link 0=g16
 Initial command:
 /ichec/packages/gaussian/16b01/l1.exe "/localscratch/339752/Gau-87351.inp" -scrdir="/localscratch/339752/"
 Entering Link 1 = /ichec/packages/gaussian/16b01/l1.exe PID=     87375.
  
 Copyright (c) 1988-2017, Gaussian, Inc.  All Rights Reserved.
  
 This is part of the Gaussian(R) 16 program.  It is based on
 the Gaussian(R) 09 system (copyright 2009, Gaussian, Inc.),
 the Gaussian(R) 03 system (copyright 2003, Gaussian, Inc.),
 the Gaussian(R) 98 system (copyright 1998, Gaussian, Inc.),
 the Gaussian(R) 94 system (copyright 1995, Gaussian, Inc.),
 the Gaussian 92(TM) system (copyright 1992, Gaussian, Inc.),
 the Gaussian 90(TM) system (copyright 1990, Gaussian, Inc.),
 the Gaussian 88(TM) system (copyright 1988, Gaussian, Inc.),
 the Gaussian 86(TM) system (copyright 1986, Carnegie Mellon
 University), and the Gaussian 82(TM) system (copyright 1983,
 Carnegie Mellon University). Gaussian is a federally registered
 trademark of Gaussian, Inc.
  
 This software contains proprietary and confidential information,
 including trade secrets, belonging to Gaussian, Inc.
  
 This software is provided under written license and may be
 used, copied, transmitted, or stored only in accord with that
 written license.
  
 The following legend is applicable only to US Government
 contracts under FAR:
  
                    RESTRICTED RIGHTS LEGEND
  
 Use, reproduction and disclosure by the US Government is
 subject to restrictions as set forth in subparagraphs (a)
 and (c) of the Commercial Computer Software - Restricted
 Rights clause in FAR 52.227-19.
  
 Gaussian, Inc.
 340 Quinnipiac St., Bldg. 40, Wallingford CT 06492
  
  
 ---------------------------------------------------------------
 Warning -- This program may not be used in any manner that
 competes with the business of Gaussian, Inc. or will provide
 assistance to any competitor of Gaussian, Inc.  The licensee
 of this program is prohibited from giving any competitor of
 Gaussian, Inc. access to this program.  By using this program,
 the user acknowledges that Gaussian, Inc. is engaged in the
 business of creating and licensing software in the field of
 computational chemistry and represents and warrants to the
 licensee that it is not a competitor of Gaussian, Inc. and that
 it will not use this program in any manner prohibited above.
 ---------------------------------------------------------------
  

 Cite this work as:
 Gaussian 16, Revision B.01,
 M. J. Frisch, G. W. Trucks, H. B. Schlegel, G. E. Scuseria, 
 M. A. Robb, J. R. Cheeseman, G. Scalmani, V. Barone, 
 G. A. Petersson, H. Nakatsuji, X. Li, M. Caricato, A. V. Marenich, 
 J. Bloino, B. G. Janesko, R. Gomperts, B. Mennucci, H. P. Hratchian, 
 J. V. Ortiz, A. F. Izmaylov, J. L. Sonnenberg, D. Williams-Young, 
 F. Ding, F. Lipparini, F. Egidi, J. Goings, B. Peng, A. Petrone, 
 T. Henderson, D. Ranasinghe, V. G. Zakrzewski, J. Gao, N. Rega, 
 G. Zheng, W. Liang, M. Hada, M. Ehara, K. Toyota, R. Fukuda, 
 J. Hasegawa, M. Ishida, T. Nakajima, Y. Honda, O. Kitao, H. Nakai, 
 T. Vreven, K. Throssell, J. A. Montgomery, Jr., J. E. Peralta, 
 F. Ogliaro, M. J. Bearpark, J. J. Heyd, E. N. Brothers, K. N. Kudin, 
 V. N. Staroverov, T. A. Keith, R. Kobayashi, J. Normand, 
 K. Raghavachari, A. P. Rendell, J. C. Burant, S. S. Iyengar, 
 J. Tomasi, M. Cossi, J. M. Millam, M. Klene, C. Adamo, R. Cammi, 
 J. W. Ochterski, R. L. Martin, K. Morokuma, O. Farkas, 
 J. B. Foresman, and D. J. Fox, Gaussian, Inc., Wallingford CT, 2016.
 
 ******************************************
 Gaussian 16:  ES64L-G16RevB.01 20-Dec-2017
                 2-Jun-2019 
 ******************************************
 %mem=80GB
 %nproc=40
 Will use up to   40 processors via shared memory.
 -----------------------------------------------
 # opt=maxcyc=500 freq=noraman uB2PLYPD3/cc-pvtz
 -----------------------------------------------
 1/6=500,18=20,19=15,38=1/1,3;
 2/9=110,12=2,17=6,18=5,40=1/2;
 3/5=16,6=1,11=2,25=1,30=1,71=1,74=-60,116=2/1,2,3;
 4//1;
 5/5=2,38=5/2;
 8/6=4,10=1/1;
 9/15=2,16=-3/6;
 10/5=1/2;
 6/7=2,8=2,9=2,10=2/1;
 7/12=2/1,2,3,16;
 1/6=500,18=20,19=15/3(2);
 2/9=110/2;
 99//99;
 2/9=110/2;
 3/5=16,6=1,11=2,25=1,30=1,71=1,74=-60,116=2/1,2,3;
 4/5=5,16=3,69=1/1;
 5/5=2,38=5/2;
 8/6=4,10=1/1;
 9/15=2,16=-3/6;
 10/5=1/2;
 7/12=2/1,2,3,16;
 1/6=500,18=20,19=15/3(-8);
 2/9=110/2;
 6/7=2,8=2,9=2,10=2/1;
 99/9=10/99;
 -------------------
 Title Card Required
 -------------------
 Symbolic Z-matrix:
 Charge =  0 Multiplicity = 2
 C                    -0.58433   0.36479  -0.47747 
 C                    -1.98894   0.65607   0.08272 
 C                    -3.07888   0.8821    0.51741 
 C                    -4.4835    1.17339   1.0776 
 H                    -4.45061   2.05598   1.68162 
 H                    -5.167     1.32076   0.26766 
 H                    -4.80881   0.34581   1.67274 
 H                     0.09918   0.21742   0.33247 
 H                    -0.25901   1.19236  -1.07261 
 

 GradGradGradGradGradGradGradGradGradGradGradGradGradGradGradGradGradGrad
 Berny optimization.
 Initialization pass.
                           ----------------------------
                           !    Initial Parameters    !
                           ! (Angstroms and Degrees)  !
 --------------------------                            --------------------------
 ! Name  Definition              Value          Derivative Info.                !
 --------------------------------------------------------------------------------
 ! R1    R(1,2)                  1.54           estimate D2E/DX2                !
 ! R2    R(1,8)                  1.07           estimate D2E/DX2                !
 ! R3    R(1,9)                  1.07           estimate D2E/DX2                !
 ! R4    R(2,3)                  1.195          estimate D2E/DX2                !
 ! R5    R(3,4)                  1.54           estimate D2E/DX2                !
 ! R6    R(4,5)                  1.07           estimate D2E/DX2                !
 ! R7    R(4,6)                  1.07           estimate D2E/DX2                !
 ! R8    R(4,7)                  1.07           estimate D2E/DX2                !
 ! A1    A(2,1,8)              109.4712         estimate D2E/DX2                !
 ! A2    A(2,1,9)              109.4712         estimate D2E/DX2                !
 ! A3    A(8,1,9)              109.4712         estimate D2E/DX2                !
 ! A4    A(3,4,5)              109.4712         estimate D2E/DX2                !
 ! A5    A(3,4,6)              109.4712         estimate D2E/DX2                !
 ! A6    A(3,4,7)              109.4712         estimate D2E/DX2                !
 ! A7    A(5,4,6)              109.4712         estimate D2E/DX2                !
 ! A8    A(5,4,7)              109.4712         estimate D2E/DX2                !
 ! A9    A(6,4,7)              109.4712         estimate D2E/DX2                !
 ! A10   L(1,2,3,8,-1)         180.0            estimate D2E/DX2                !
 ! A11   L(2,3,4,5,-1)         180.0            estimate D2E/DX2                !
 ! A12   L(1,2,3,8,-2)         180.0            estimate D2E/DX2                !
 ! A13   L(2,3,4,5,-2)         180.0            estimate D2E/DX2                !
 ! D1    D(8,1,4,5)             60.0            estimate D2E/DX2                !
 ! D2    D(8,1,4,6)           -180.0            estimate D2E/DX2                !
 ! D3    D(8,1,4,7)            -60.0            estimate D2E/DX2                !
 ! D4    D(9,1,4,5)            -60.0            estimate D2E/DX2                !
 ! D5    D(9,1,4,6)             60.0            estimate D2E/DX2                !
 ! D6    D(9,1,4,7)           -180.0            estimate D2E/DX2                !
 --------------------------------------------------------------------------------
 Trust Radius=3.00D-01 FncErr=1.00D-07 GrdErr=1.00D-07 EigMax=2.50D+02 EigMin=1.00D-04
 Number of steps in this run=    100 maximum allowed number of steps=    100.
 GradGradGradGradGradGradGradGradGradGradGradGradGradGradGradGradGradGrad

                          Input orientation:                          
 ---------------------------------------------------------------------
 Center     Atomic      Atomic             Coordinates (Angstroms)
 Number     Number       Type             X           Y           Z
 ---------------------------------------------------------------------
      1          6           0       -0.584325    0.364787   -0.477473
      2          6           0       -1.988939    0.656072    0.082717
      3          6           0       -3.078883    0.882102    0.517410
      4          6           0       -4.483497    1.173388    1.077600
      5          1           0       -4.450613    2.055983    1.681624
      6          1           0       -5.167002    1.320755    0.267660
      7          1           0       -4.808808    0.345812    1.672740
      8          1           0        0.099180    0.217420    0.332468
      9          1           0       -0.259014    1.192363   -1.072612
 ---------------------------------------------------------------------
                    Distance matrix (angstroms):
                    1          2          3          4          5
     1  C    0.000000
     2  C    1.540000   0.000000
     3  C    2.735000   1.195000   0.000000
     4  C    4.275000   2.735000   1.540000   0.000000
     5  H    4.740256   3.252090   2.148263   1.070000   0.000000
     6  H    4.740256   3.252090   2.148263   1.070000   1.747303
     7  H    4.740256   3.252090   2.148263   1.070000   1.747303
     8  H    1.070000   2.148263   3.252090   4.740256   5.089318
     9  H    1.070000   2.148263   3.252090   4.740256   5.089318
                    6          7          8          9
     6  H    0.000000
     7  H    1.747303   0.000000
     8  H    5.380913   5.089318   0.000000
     9  H    5.089318   5.380913   1.747303   0.000000
 Stoichiometry    C4H5(2)
 Framework group  CS[SG(C4H),X(H4)]
 Deg. of freedom    13
 Full point group                 CS      NOp   2
 Largest Abelian subgroup         CS      NOp   2
 Largest concise Abelian subgroup CS      NOp   2
                         Standard orientation:                         
 ---------------------------------------------------------------------
 Center     Atomic      Atomic             Coordinates (Angstroms)
 Number     Number       Type             X           Y           Z
 ---------------------------------------------------------------------
      1          6           0       -0.034786    2.223506    0.000000
      2          6           0       -0.034786    0.683506    0.000000
      3          6           0       -0.034786   -0.511494   -0.000000
      4          6           0       -0.034786   -2.051494   -0.000000
      5          1           0        0.974019   -2.408161   -0.000000
      6          1           0       -0.539189   -2.408161    0.873651
      7          1           0       -0.539189   -2.408161   -0.873651
      8          1           0        0.469616    2.580172   -0.873651
      9          1           0        0.469616    2.580172    0.873651
 ---------------------------------------------------------------------
 Rotational constants (GHZ):          99.8083669           3.3362245           3.3123809
 Standard basis: CC-pVTZ (5D, 7F)
 There are   137 symmetry adapted cartesian basis functions of A'  symmetry.
 There are    78 symmetry adapted cartesian basis functions of A"  symmetry.
 There are   118 symmetry adapted basis functions of A'  symmetry.
 There are    72 symmetry adapted basis functions of A"  symmetry.
   190 basis functions,   293 primitive gaussians,   215 cartesian basis functions
    15 alpha electrons       14 beta electrons
       nuclear repulsion energy        91.3507419264 Hartrees.
 NAtoms=    9 NActive=    9 NUniq=    7 SFac= 1.65D+00 NAtFMM=   60 NAOKFM=F Big=F
 Integral buffers will be    131072 words long.
 Raffenetti 2 integral format.
 Two-electron integral symmetry is turned on.
 Nuclear repulsion after empirical dispersion term =       91.3469596062 Hartrees.
 One-electron integrals computed using PRISM.
 NBasis=   190 RedAO= T EigKep=  2.02D-05  NBF=   118    72
 NBsUse=   190 1.00D-06 EigRej= -1.00D+00 NBFU=   118    72
 ExpMin= 1.03D-01 ExpMax= 8.24D+03 ExpMxC= 2.81D+02 IAcc=3 IRadAn=         5 AccDes= 0.00D+00
 Harris functional with IExCor=  419 and IRadAn=       5 diagonalized for initial guess.
 HarFok:  IExCor=  419 AccDes= 0.00D+00 IRadAn=         5 IDoV= 1 UseB2=F ITyADJ=14
 ICtDFT=  3500011 ScaDFX=  1.000000  1.000000  1.000000  1.000000
 FoFCou: FMM=F IPFlag=           0 FMFlag=      100000 FMFlg1=           0
         NFxFlg=           0 DoJE=T BraDBF=F KetDBF=T FulRan=T
         wScrn=  0.000000 ICntrl=       500 IOpCl=  0 I1Cent=   200000004 NGrid=           0
         NMat0=    1 NMatS0=      1 NMatT0=    0 NMatD0=    1 NMtDS0=    0 NMtDT0=    0
 Petite list used in FoFCou.
 Initial guess orbital symmetries:
 Alpha Orbitals:
       Occupied  (A') (A') (A') (A') (A') (A') (A') (A') (A') (A")
                 (A') (A") (A') (A") (A')
       Virtual   (A") (A') (A') (A') (A') (A") (A') (A") (A') (A')
                 (A") (A') (A') (A') (A") (A') (A") (A') (A") (A')
                 (A') (A") (A') (A") (A') (A') (A') (A") (A") (A')
                 (A') (A') (A') (A') (A') (A") (A") (A') (A") (A')
                 (A") (A') (A") (A') (A") (A') (A') (A") (A') (A')
                 (A") (A') (A") (A') (A") (A') (A") (A') (A') (A')
                 (A") (A') (A') (A') (A") (A') (A") (A') (A') (A")
                 (A') (A") (A') (A') (A") (A') (A') (A') (A") (A")
                 (A') (A') (A') (A") (A') (A') (A') (A") (A") (A')
                 (A") (A') (A') (A") (A") (A") (A') (A') (A") (A')
                 (A") (A') (A") (A') (A") (A') (A") (A') (A") (A')
                 (A') (A") (A') (A") (A") (A') (A') (A') (A") (A')
                 (A") (A") (A") (A') (A') (A') (A") (A') (A') (A")
                 (A') (A') (A") (A') (A") (A') (A") (A") (A') (A')
                 (A") (A") (A') (A') (A') (A') (A') (A") (A') (A')
                 (A") (A') (A") (A') (A") (A") (A') (A') (A") (A")
                 (A') (A') (A') (A") (A') (A') (A") (A") (A') (A")
                 (A') (A') (A') (A') (A')
 Beta  Orbitals:
       Occupied  (A') (A') (A') (A') (A') (A') (A') (A') (A') (A")
                 (A') (A") (A') (A")
       Virtual   (A') (A") (A') (A') (A') (A') (A") (A') (A") (A')
                 (A') (A") (A') (A') (A') (A") (A') (A") (A') (A")
                 (A') (A') (A") (A') (A") (A') (A') (A') (A") (A")
                 (A') (A') (A') (A') (A') (A') (A") (A") (A') (A")
                 (A') (A") (A') (A") (A') (A") (A') (A') (A") (A')
                 (A') (A") (A') (A") (A') (A") (A') (A") (A') (A')
                 (A') (A") (A') (A') (A') (A") (A') (A") (A') (A')
                 (A") (A') (A") (A') (A') (A") (A') (A') (A') (A")
                 (A") (A') (A') (A') (A") (A') (A') (A') (A") (A")
                 (A') (A") (A') (A') (A") (A") (A") (A') (A') (A")
                 (A') (A") (A') (A") (A') (A") (A') (A") (A') (A")
                 (A') (A') (A") (A') (A") (A") (A') (A') (A') (A")
                 (A') (A") (A") (A") (A') (A') (A') (A") (A') (A')
                 (A") (A') (A') (A") (A') (A") (A') (A") (A") (A')
                 (A') (A") (A") (A') (A') (A') (A') (A') (A") (A')
                 (A') (A") (A') (A") (A') (A") (A") (A') (A') (A")
                 (A") (A') (A') (A') (A") (A') (A') (A") (A") (A')
                 (A") (A') (A') (A') (A') (A')
 The electronic state of the initial guess is 2-A'.
 Initial guess <Sx>= 0.0000 <Sy>= 0.0000 <Sz>= 0.5000 <S**2>= 0.7500 S= 0.5000
 Keep R1 and R2 ints in memory in symmetry-blocked form, NReq=247995182.
 Requested convergence on RMS density matrix=1.00D-08 within 128 cycles.
 Requested convergence on MAX density matrix=1.00D-06.
 Requested convergence on             energy=1.00D-06.
 No special actions if energy rises.
 Integral accuracy reduced to 1.0D-05 until final iterations.
 Initial convergence to 1.0D-05 achieved.  Increase integral accuracy.
 SCF Done:  E(UB2PLYPD3) =  -155.002884112     A.U. after   19 cycles
            NFock= 19  Conv=0.73D-08     -V/T= 2.0055
 <Sx>= 0.0000 <Sy>= 0.0000 <Sz>= 0.5000 <S**2>= 0.7766 S= 0.5132
 <L.S>=  0.00000000000    
 Annihilation of the first spin contaminant:
 S**2 before annihilation     0.7766,   after     0.7503
 DoSCS=T DFT=T ScalE2(SS,OS)=  0.270000  0.270000
 ExpMin= 1.03D-01 ExpMax= 8.24D+03 ExpMxC= 2.81D+02 IAcc=3 IRadAn=         5 AccDes= 0.00D+00
 HarFok:  IExCor=  205 AccDes= 0.00D+00 IRadAn=         5 IDoV=-2 UseB2=F ITyADJ=14
 ICtDFT= 12500011 ScaDFX=  1.000000  1.000000  1.000000  1.000000
 Range of M.O.s used for correlation:     5   190
 NBasis=   190 NAE=    15 NBE=    14 NFC=     4 NFV=     0
 NROrb=    186 NOA=    11 NOB=    10 NVA=   175 NVB=   176

 **** Warning!!: The largest alpha MO coefficient is  0.61466408D+02


 **** Warning!!: The largest beta MO coefficient is  0.61534666D+02

 DoSCS=T DFT=T ScalE2(SS,OS)=  0.270000  0.270000
 Fully direct method using O(ONN) memory.
 JobTyp=2 Pass  1:  I=   5 to  15 NPSUse= 40 ParTrn=T ParDer=T DoDerP=T.
 JobTyp=3 Pass  1:  I=   5 to  14 NPSUse= 40 ParTrn=T ParDer=T DoDerP=T.
 Spin components of T(2) and E(2):
     alpha-alpha T2 =       0.4467347277D-01 E2=     -0.2593647795D-01
     alpha-beta  T2 =       0.2483693446D+00 E2=     -0.1549808815D+00
     beta-beta   T2 =       0.4020515866D-01 E2=     -0.2211261164D-01
 (S**2,0)=  0.77663D+00           (S**2,1)=  0.75119D+00
 Scaling Projection term by:   0.270000
 E(PUHF)=      -0.15500744541D+03        E(PMP2)=      -0.15520656102D+03
 E2(B2PLYPD3) =    -0.2030299711D+00 E(B2PLYPD3) =    -0.15520591408317D+03
          IDoAtm=111111111
          Differentiating once with respect to electric field.
                with respect to dipole field.
          Differentiating once with respect to nuclear coordinates.
 Keep R1 and R2 ints in memory in symmetry-blocked form, NReq=247996903.
          There are     1 degrees of freedom in the 1st order CPHF.  IDoFFX=0 NUNeed=     1.
 LinEq1:  Iter=  0 NonCon=     1 RMS=9.71D-04 Max=2.24D-02 NDo=     1
 AX will form     1 AO Fock derivatives at one time.
 LinEq1:  Iter=  1 NonCon=     1 RMS=3.28D-04 Max=7.06D-03 NDo=     1
 LinEq1:  Iter=  2 NonCon=     1 RMS=1.74D-04 Max=3.82D-03 NDo=     1
 LinEq1:  Iter=  3 NonCon=     1 RMS=5.53D-05 Max=1.81D-03 NDo=     1
 LinEq1:  Iter=  4 NonCon=     1 RMS=3.33D-05 Max=1.05D-03 NDo=     1
 LinEq1:  Iter=  5 NonCon=     1 RMS=2.11D-05 Max=6.17D-04 NDo=     1
 LinEq1:  Iter=  6 NonCon=     1 RMS=9.16D-06 Max=1.90D-04 NDo=     1
 LinEq1:  Iter=  7 NonCon=     1 RMS=3.81D-06 Max=9.39D-05 NDo=     1
 LinEq1:  Iter=  8 NonCon=     1 RMS=9.90D-07 Max=2.45D-05 NDo=     1
 LinEq1:  Iter=  9 NonCon=     1 RMS=3.40D-07 Max=5.88D-06 NDo=     1
 LinEq1:  Iter= 10 NonCon=     1 RMS=1.64D-07 Max=3.81D-06 NDo=     1
 LinEq1:  Iter= 11 NonCon=     1 RMS=6.95D-08 Max=1.18D-06 NDo=     1
 LinEq1:  Iter= 12 NonCon=     1 RMS=2.16D-08 Max=2.74D-07 NDo=     1
 LinEq1:  Iter= 13 NonCon=     1 RMS=4.65D-09 Max=7.33D-08 NDo=     1
 LinEq1:  Iter= 14 NonCon=     1 RMS=1.25D-09 Max=1.45D-08 NDo=     1
 LinEq1:  Iter= 15 NonCon=     1 RMS=2.52D-10 Max=3.77D-09 NDo=     1
 LinEq1:  Iter= 16 NonCon=     0 RMS=5.02D-11 Max=8.21D-10 NDo=     1
 Linear equations converged to 1.000D-10 1.000D-09 after    16 iterations.
 End of Minotr F.D. properties file   721 does not exist.
 End of Minotr F.D. properties file   722 does not exist.
 End of Minotr F.D. properties file   788 does not exist.

 **********************************************************************

            Population analysis using the SCF Density.

 **********************************************************************

 Orbital symmetries:
 Alpha Orbitals:
       Occupied  (A') (A') (A') (A') (A') (A') (A') (A') (A") (A')
                 (A") (A') (A') (A") (A')
       Virtual   (A') (A') (A") (A') (A") (A') (A") (A') (A') (A")
                 (A') (A') (A') (A") (A') (A') (A") (A') (A') (A")
                 (A') (A') (A") (A") (A') (A') (A') (A") (A') (A")
                 (A') (A') (A') (A') (A') (A") (A') (A") (A") (A')
                 (A") (A') (A") (A') (A") (A') (A") (A') (A') (A")
                 (A') (A') (A") (A') (A") (A') (A') (A") (A') (A')
                 (A") (A') (A') (A') (A") (A') (A") (A') (A') (A")
                 (A') (A") (A') (A') (A') (A") (A') (A') (A") (A")
                 (A') (A') (A') (A") (A') (A') (A') (A") (A") (A')
                 (A") (A') (A") (A') (A") (A') (A") (A') (A') (A")
                 (A") (A') (A") (A') (A") (A') (A") (A') (A") (A')
                 (A') (A") (A") (A") (A') (A') (A') (A") (A') (A")
                 (A') (A") (A") (A') (A') (A') (A") (A') (A') (A")
                 (A') (A') (A") (A') (A") (A') (A") (A") (A') (A')
                 (A") (A") (A') (A') (A') (A') (A") (A') (A') (A')
                 (A") (A') (A") (A') (A") (A") (A') (A') (A") (A")
                 (A') (A') (A') (A") (A') (A") (A') (A") (A') (A")
                 (A') (A') (A') (A') (A')
 Beta  Orbitals:
       Occupied  (A') (A') (A') (A') (A') (A') (A') (A') (A") (A')
                 (A") (A') (A') (A")
       Virtual   (A') (A') (A') (A") (A') (A") (A") (A') (A') (A')
                 (A") (A') (A') (A') (A") (A') (A') (A") (A') (A")
                 (A') (A') (A') (A") (A") (A') (A') (A') (A") (A")
                 (A') (A') (A') (A') (A') (A") (A') (A") (A') (A")
                 (A') (A") (A') (A") (A') (A") (A') (A") (A') (A')
                 (A") (A') (A') (A") (A') (A") (A') (A') (A") (A')
                 (A') (A") (A') (A') (A') (A") (A') (A") (A') (A")
                 (A') (A') (A") (A') (A') (A') (A") (A') (A') (A")
                 (A') (A") (A') (A') (A") (A') (A') (A') (A") (A")
                 (A") (A') (A') (A") (A') (A") (A") (A') (A') (A')
                 (A") (A") (A') (A") (A') (A") (A') (A") (A') (A")
                 (A') (A') (A") (A") (A") (A') (A') (A') (A") (A')
                 (A") (A') (A") (A") (A') (A') (A') (A") (A') (A')
                 (A") (A') (A') (A") (A') (A") (A') (A") (A") (A')
                 (A') (A") (A") (A') (A') (A') (A') (A") (A') (A')
                 (A") (A') (A') (A") (A') (A") (A") (A') (A") (A')
                 (A") (A') (A') (A') (A") (A') (A") (A') (A") (A')
                 (A") (A') (A') (A') (A') (A')
 The electronic state is 2-A'.
 Alpha  occ. eigenvalues --  -10.65923 -10.63796 -10.62067 -10.61271  -0.89937
 Alpha  occ. eigenvalues --   -0.84343  -0.78470  -0.54336  -0.50858  -0.50670
 Alpha  occ. eigenvalues --   -0.49760  -0.49383  -0.38509  -0.31641  -0.28858
 Alpha virt. eigenvalues --    0.08356   0.09993   0.11706   0.13216   0.15515
 Alpha virt. eigenvalues --    0.17284   0.17823   0.20459   0.22511   0.31103
 Alpha virt. eigenvalues --    0.31183   0.31198   0.32438   0.33603   0.33659
 Alpha virt. eigenvalues --    0.40534   0.41239   0.44114   0.51451   0.51910
 Alpha virt. eigenvalues --    0.52456   0.53164   0.53438   0.55581   0.56056
 Alpha virt. eigenvalues --    0.56410   0.61882   0.67639   0.68278   0.68504
 Alpha virt. eigenvalues --    0.69815   0.75535   0.82094   0.88447   0.89552
 Alpha virt. eigenvalues --    0.90617   0.92331   0.92565   0.94935   0.98977
 Alpha virt. eigenvalues --    1.01095   1.05466   1.07059   1.08647   1.12032
 Alpha virt. eigenvalues --    1.15187   1.16172   1.19204   1.22028   1.24413
 Alpha virt. eigenvalues --    1.26741   1.31177   1.38068   1.38371   1.38928
 Alpha virt. eigenvalues --    1.39011   1.43083   1.43308   1.52021   1.55349
 Alpha virt. eigenvalues --    1.56355   1.63086   1.68257   1.69776   1.71516
 Alpha virt. eigenvalues --    2.12609   2.16869   2.22727   2.29611   2.30704
 Alpha virt. eigenvalues --    2.31993   2.34893   2.37109   2.46150   2.53592
 Alpha virt. eigenvalues --    2.56490   2.57052   2.59330   2.63484   2.66699
 Alpha virt. eigenvalues --    2.66730   2.69399   2.74678   2.76056   2.76896
 Alpha virt. eigenvalues --    2.79136   2.83135   2.88590   2.90998   2.92117
 Alpha virt. eigenvalues --    2.92283   2.93941   2.96171   2.98874   3.00757
 Alpha virt. eigenvalues --    3.01595   3.01952   3.02099   3.06707   3.08148
 Alpha virt. eigenvalues --    3.10397   3.12208   3.13940   3.17808   3.18598
 Alpha virt. eigenvalues --    3.24355   3.24410   3.28859   3.30251   3.31206
 Alpha virt. eigenvalues --    3.31891   3.37882   3.42636   3.42785   3.44554
 Alpha virt. eigenvalues --    3.48519   3.51494   3.53766   3.55711   3.60865
 Alpha virt. eigenvalues --    3.61594   3.63010   3.64988   3.70164   3.76227
 Alpha virt. eigenvalues --    3.83120   3.84232   3.84429   3.93300   3.99220
 Alpha virt. eigenvalues --    4.01471   4.02187   4.03830   4.04242   4.10216
 Alpha virt. eigenvalues --    4.13809   4.15705   4.21794   4.24469   4.29322
 Alpha virt. eigenvalues --    4.34394   4.38869   4.41265   4.42553   4.54424
 Alpha virt. eigenvalues --    4.63000   4.71020   4.72062   4.95535   4.96946
 Alpha virt. eigenvalues --    4.97164   5.04114   5.05716   5.15788   5.19128
 Alpha virt. eigenvalues --    5.24924   5.29132   5.33347   5.33720   5.34800
 Alpha virt. eigenvalues --    5.40828   5.45333   5.47388   5.47748   5.71688
 Alpha virt. eigenvalues --    5.77458   5.80464   5.94559   5.98908   5.99314
 Alpha virt. eigenvalues --    6.06145   6.75213  12.12271  13.71617  18.20443
  Beta  occ. eigenvalues --  -10.64136 -10.63841 -10.61774 -10.61382  -0.88964
  Beta  occ. eigenvalues --   -0.83026  -0.75593  -0.53684  -0.50496  -0.50118
  Beta  occ. eigenvalues --   -0.48874  -0.48750  -0.32945  -0.31436
  Beta virt. eigenvalues --   -0.03051   0.08413   0.10473   0.11763   0.14211
  Beta virt. eigenvalues --    0.15758   0.18105   0.18355   0.20825   0.23488
  Beta virt. eigenvalues --    0.31187   0.31531   0.31804   0.33739   0.34342
  Beta virt. eigenvalues --    0.36872   0.41415   0.41518   0.46003   0.52072
  Beta virt. eigenvalues --    0.52277   0.52995   0.53273   0.54599   0.55695
  Beta virt. eigenvalues --    0.56818   0.57268   0.62778   0.68300   0.68896
  Beta virt. eigenvalues --    0.69093   0.70708   0.75856   0.82437   0.88849
  Beta virt. eigenvalues --    0.90983   0.91479   0.92757   0.93198   0.94989
  Beta virt. eigenvalues --    1.00577   1.01420   1.06004   1.07261   1.08874
  Beta virt. eigenvalues --    1.12924   1.15936   1.16478   1.19662   1.22706
  Beta virt. eigenvalues --    1.26217   1.27591   1.31412   1.38221   1.38641
  Beta virt. eigenvalues --    1.39512   1.40419   1.43391   1.43403   1.53102
  Beta virt. eigenvalues --    1.55901   1.56917   1.63582   1.68769   1.70668
  Beta virt. eigenvalues --    1.71920   2.13797   2.17145   2.23612   2.31060
  Beta virt. eigenvalues --    2.32389   2.33119   2.35161   2.38308   2.47099
  Beta virt. eigenvalues --    2.54800   2.56604   2.57683   2.59705   2.63951
  Beta virt. eigenvalues --    2.67208   2.67693   2.70665   2.76032   2.76266
  Beta virt. eigenvalues --    2.77512   2.79898   2.83893   2.89691   2.91514
  Beta virt. eigenvalues --    2.92401   2.93085   2.95235   2.97150   2.99769
  Beta virt. eigenvalues --    3.01017   3.02449   3.03251   3.04986   3.07362
  Beta virt. eigenvalues --    3.08744   3.10418   3.12774   3.16392   3.18081
  Beta virt. eigenvalues --    3.18603   3.25356   3.26556   3.30041   3.30735
  Beta virt. eigenvalues --    3.31652   3.33313   3.38110   3.42734   3.43267
  Beta virt. eigenvalues --    3.46039   3.49448   3.51905   3.53896   3.56271
  Beta virt. eigenvalues --    3.61154   3.62057   3.63196   3.66118   3.70653
  Beta virt. eigenvalues --    3.76698   3.83690   3.84309   3.84897   3.93792
  Beta virt. eigenvalues --    3.99770   4.01945   4.02606   4.04055   4.04733
  Beta virt. eigenvalues --    4.10734   4.14296   4.16148   4.21887   4.24700
  Beta virt. eigenvalues --    4.30100   4.34612   4.39058   4.41408   4.42819
  Beta virt. eigenvalues --    4.54692   4.63626   4.71233   4.72675   4.95865
  Beta virt. eigenvalues --    4.97513   4.98078   5.04510   5.06171   5.16535
  Beta virt. eigenvalues --    5.20468   5.25371   5.29289   5.33745   5.33842
  Beta virt. eigenvalues --    5.35232   5.40980   5.45778   5.47495   5.47816
  Beta virt. eigenvalues --    5.72359   5.77745   5.80678   5.95378   5.98998
  Beta virt. eigenvalues --    5.99359   6.06652   6.75522  12.13779  13.71624
  Beta virt. eigenvalues --   18.20570
          Condensed to atoms (all electrons):
               1          2          3          4          5          6
     1  C    5.062384   0.455543  -0.087363  -0.000674   0.000091  -0.000021
     2  C    0.455543   5.158216   0.546610  -0.072884   0.002541  -0.000378
     3  C   -0.087363   0.546610   5.333943   0.404017  -0.036140  -0.037235
     4  C   -0.000674  -0.072884   0.404017   4.739399   0.408877   0.413419
     5  H    0.000091   0.002541  -0.036140   0.408877   0.555603  -0.028425
     6  H   -0.000021  -0.000378  -0.037235   0.413419  -0.028425   0.554022
     7  H   -0.000021  -0.000378  -0.037235   0.413419  -0.028425  -0.028691
     8  H    0.413399  -0.045477   0.000687  -0.000000   0.000020  -0.000026
     9  H    0.413399  -0.045477   0.000687  -0.000000   0.000020   0.000037
               7          8          9
     1  C   -0.000021   0.413399   0.413399
     2  C   -0.000378  -0.045477  -0.045477
     3  C   -0.037235   0.000687   0.000687
     4  C    0.413419  -0.000000  -0.000000
     5  H   -0.028425   0.000020   0.000020
     6  H   -0.028691  -0.000026   0.000037
     7  H    0.554022   0.000037  -0.000026
     8  H    0.000037   0.542036  -0.044754
     9  H   -0.000026  -0.044754   0.542036
          Atomic-Atomic Spin Densities.
               1          2          3          4          5          6
     1  C    0.983259  -0.029240  -0.012604   0.000022   0.000278  -0.000076
     2  C   -0.029240  -0.206626   0.020539  -0.000030   0.004056  -0.002414
     3  C   -0.012604   0.020539   0.324365  -0.012272  -0.007216  -0.002372
     4  C    0.000022  -0.000030  -0.012272  -0.021603   0.000526   0.003512
     5  H    0.000278   0.004056  -0.007216   0.000526   0.016309  -0.002185
     6  H   -0.000076  -0.002414  -0.002372   0.003512  -0.002185   0.006576
     7  H   -0.000076  -0.002414  -0.002372   0.003512  -0.002185   0.000704
     8  H    0.005767   0.002045  -0.002194  -0.000015   0.000010  -0.000003
     9  H    0.005767   0.002045  -0.002194  -0.000015   0.000010  -0.000009
               7          8          9
     1  C   -0.000076   0.005767   0.005767
     2  C   -0.002414   0.002045   0.002045
     3  C   -0.002372  -0.002194  -0.002194
     4  C    0.003512  -0.000015  -0.000015
     5  H   -0.002185   0.000010   0.000010
     6  H    0.000704  -0.000003  -0.000009
     7  H    0.006576  -0.000009  -0.000003
     8  H   -0.000009  -0.029633   0.006304
     9  H   -0.000003   0.006304  -0.029633
 Mulliken charges and spin densities:
               1          2
     1  C   -0.256737   0.953099
     2  C    0.001684  -0.212038
     3  C   -0.087969   0.303682
     4  C   -0.305572  -0.026363
     5  H    0.125839   0.009604
     6  H    0.127298   0.003733
     7  H    0.127298   0.003733
     8  H    0.134079  -0.017726
     9  H    0.134079  -0.017726
 Sum of Mulliken charges =  -0.00000   1.00000
 Mulliken charges and spin densities with hydrogens summed into heavy atoms:
               1          2
     1  C    0.011421   0.917648
     2  C    0.001684  -0.212038
     3  C   -0.087969   0.303682
     4  C    0.074864  -0.009292
 Electronic spatial extent (au):  <R**2>=            391.6174
 Charge=             -0.0000 electrons
 Dipole moment (field-independent basis, Debye):
    X=              0.6210    Y=             -0.9301    Z=              0.0000  Tot=              1.1183
 Quadrupole moment (field-independent basis, Debye-Ang):
   XX=            -25.8250   YY=            -19.3383   ZZ=            -25.0110
   XY=              1.8219   XZ=              0.0000   YZ=              0.0000
 Traceless Quadrupole moment (field-independent basis, Debye-Ang):
   XX=             -2.4336   YY=              4.0531   ZZ=             -1.6196
   XY=              1.8219   XZ=              0.0000   YZ=              0.0000
 Octapole moment (field-independent basis, Debye-Ang**2):
  XXX=              1.6806  YYY=             -6.7062  ZZZ=              0.0000  XYY=              4.9255
  XXY=             -2.9787  XXZ=              0.0000  XZZ=              0.2757  YZZ=             -0.5658
  YYZ=              0.0000  XYZ=              0.0000
 Hexadecapole moment (field-independent basis, Debye-Ang**3):
 XXXX=            -37.9712 YYYY=           -458.5576 ZZZZ=            -40.4729 XXXY=             -5.6088
 XXXZ=             -0.0000 YYYX=              8.4058 YYYZ=             -0.0000 ZZZX=              0.0000
 ZZZY=             -0.0000 XXYY=            -83.7826 XXZZ=            -12.7899 YYZZ=            -78.7647
 XXYZ=             -0.0000 YYXZ=              0.0000 ZZXY=              2.0706
 N-N= 9.134695960624D+01 E-N=-5.420187098243D+02  KE= 1.541544877524D+02
 Symmetry A'   KE= 1.478432532172D+02
 Symmetry A"   KE= 6.311234535209D+00
 Symmetry A'   SP= 1.000000000000D+00
 Symmetry A"   SP= 8.728580182596D-15
                          Isotropic Fermi Contact Couplings
        Atom                 a.u.       MegaHertz       Gauss      10(-4) cm-1
     1  C(13)              0.27095     304.59426     108.68681     101.60171
     2  C(13)             -0.02112     -23.73843      -8.47046      -7.91829
     3  C(13)              0.00544       6.11162       2.18078       2.03862
     4  C(13)             -0.00519      -5.83926      -2.08359      -1.94777
     5  H(1)               0.00487      21.77062       7.76830       7.26190
     6  H(1)               0.00137       6.13888       2.19051       2.04771
     7  H(1)               0.00137       6.13888       2.19051       2.04771
     8  H(1)              -0.00234     -10.46515      -3.73423      -3.49080
     9  H(1)              -0.00234     -10.46515      -3.73423      -3.49080
 --------------------------------------------------------
       Center         ----  Spin Dipole Couplings  ----
                      3XX-RR        3YY-RR        3ZZ-RR
 --------------------------------------------------------
     1   Atom        0.825681     -0.355451     -0.470231
     2   Atom       -0.064156      0.071234     -0.007078
     3   Atom        0.251403     -0.121265     -0.130138
     4   Atom        0.003490      0.000993     -0.004482
     5   Atom       -0.001203      0.004412     -0.003208
     6   Atom       -0.002637      0.004055     -0.001419
     7   Atom       -0.002637      0.004055     -0.001419
     8   Atom        0.007264     -0.037224      0.029960
     9   Atom        0.007264     -0.037224      0.029960
 --------------------------------------------------------
                        XY            XZ            YZ
 --------------------------------------------------------
     1   Atom       -0.394812     -0.000000     -0.000000
     2   Atom       -0.022704     -0.000000     -0.000000
     3   Atom        0.029581     -0.000000      0.000000
     4   Atom        0.001318      0.000000      0.000000
     5   Atom       -0.002992     -0.000000      0.000000
     6   Atom        0.001103     -0.000207     -0.002327
     7   Atom        0.001103      0.000207      0.002327
     8   Atom       -0.000201     -0.033859     -0.041166
     9   Atom       -0.000201      0.033859      0.041166
 --------------------------------------------------------


 ---------------------------------------------------------------------------------
              Anisotropic Spin Dipole Couplings in Principal Axis System
 ---------------------------------------------------------------------------------

       Atom             a.u.   MegaHertz   Gauss  10(-4) cm-1        Axes

              Baa    -0.4753   -63.776   -22.757   -21.274  0.2904  0.9569  0.0000
     1 C(13)  Bbb    -0.4702   -63.100   -22.516   -21.048 -0.0000 -0.0000  1.0000
              Bcc     0.9455   126.877    45.273    42.322  0.9569 -0.2904 -0.0000
 
              Baa    -0.0679    -9.106    -3.249    -3.038  0.9869  0.1611  0.0000
     2 C(13)  Bbb    -0.0071    -0.950    -0.339    -0.317 -0.0000  0.0000  1.0000
              Bcc     0.0749    10.056     3.588     3.354 -0.1611  0.9869 -0.0000
 
              Baa    -0.1301   -17.463    -6.231    -5.825  0.0000 -0.0000  1.0000
     3 C(13)  Bbb    -0.1236   -16.586    -5.918    -5.532 -0.0786  0.9969  0.0000
              Bcc     0.2537    34.049    12.150    11.358  0.9969  0.0786 -0.0000
 
              Baa    -0.0045    -0.601    -0.215    -0.201 -0.0000 -0.0000  1.0000
     4 C(13)  Bbb     0.0004     0.057     0.020     0.019 -0.3952  0.9186  0.0000
              Bcc     0.0041     0.544     0.194     0.182  0.9186  0.3952  0.0000
 
              Baa    -0.0032    -1.712    -0.611    -0.571  0.0000  0.0000  1.0000
     5 H(1)   Bbb    -0.0025    -1.333    -0.476    -0.445  0.9177  0.3973 -0.0000
              Bcc     0.0057     3.045     1.087     1.016 -0.3973  0.9177  0.0000
 
              Baa    -0.0029    -1.523    -0.543    -0.508  0.9433 -0.2308 -0.2384
     6 H(1)   Bbb    -0.0022    -1.182    -0.422    -0.394  0.2999  0.2851  0.9104
              Bcc     0.0051     2.705     0.965     0.902  0.1422  0.9303 -0.3382
 
              Baa    -0.0029    -1.523    -0.543    -0.508  0.9433 -0.2308  0.2384
     7 H(1)   Bbb    -0.0022    -1.182    -0.422    -0.394 -0.2999 -0.2851  0.9104
              Bcc     0.0051     2.705     0.965     0.902  0.1422  0.9303  0.3382
 
              Baa    -0.0604   -32.234   -11.502   -10.752  0.2404  0.8462  0.4755
     8 H(1)   Bbb    -0.0055    -2.910    -1.038    -0.971  0.8481 -0.4214  0.3211
              Bcc     0.0659    35.144    12.540    11.723 -0.4721 -0.3261  0.8190
 
              Baa    -0.0604   -32.234   -11.502   -10.752  0.2404  0.8462 -0.4755
     9 H(1)   Bbb    -0.0055    -2.910    -1.038    -0.971  0.8481 -0.4214 -0.3211
              Bcc     0.0659    35.144    12.540    11.723  0.4721  0.3261  0.8190
 

 ---------------------------------------------------------------------------------

 Calling FoFJK, ICntrl=  10002127 FMM=F ISym2X=1 I1Cent= 0 IOpClX= 1 NMat=1 NMatS=1 NMatT=0.
 ***** Axes restored to original set *****
 -------------------------------------------------------------------
 Center     Atomic                   Forces (Hartrees/Bohr)
 Number     Number              X              Y              Z
 -------------------------------------------------------------------
      1        6          -0.068783814    0.039576589    0.044995960
      2        6           0.089636653   -0.026370570   -0.041148668
      3        6          -0.070036385    0.013351044    0.027118142
      4        6           0.048626452   -0.010617808   -0.019763636
      5        1           0.000336930    0.009728818    0.006664648
      6        1          -0.007389779    0.001881948   -0.008695721
      7        1          -0.003471209   -0.008783726    0.006675551
      8        1           0.008560185   -0.017602006    0.003921806
      9        1           0.002520966   -0.001164289   -0.019768084
 -------------------------------------------------------------------
 Cartesian Forces:  Max     0.089636653 RMS     0.032566629

 GradGradGradGradGradGradGradGradGradGradGradGradGradGradGradGradGradGrad
 Berny optimization.
 FormGI is forming the generalized inverse of G from B-inverse, IUseBI=4.
 Internal  Forces:  Max     0.067169518 RMS     0.018336243
 Search for a local minimum.
 Step number   1 out of a maximum of  100
 All quantities printed in internal units (Hartrees-Bohrs-Radians)
 Mixed Optimization -- RFO/linear search
 Second derivative matrix not updated -- first step.
 ITU=  0
     Eigenvalues ---    0.00230   0.00236   0.00237   0.03395   0.04585
     Eigenvalues ---    0.05278   0.07667   0.08096   0.16000   0.16000
     Eigenvalues ---    0.16000   0.16000   0.16000   0.28519   0.28519
     Eigenvalues ---    0.37230   0.37230   0.37230   0.37230   0.37230
     Eigenvalues ---    1.07376
 RFO step:  Lambda=-3.34462052D-02 EMin= 2.30000000D-03
 Linear search not attempted -- first point.
 Maximum step size (   0.300) exceeded in Quadratic search.
    -- Step size scaled by   0.884
 Iteration  1 RMS(Cart)=  0.06737698 RMS(Int)=  0.00690420
 Iteration  2 RMS(Cart)=  0.00617380 RMS(Int)=  0.00480394
 Iteration  3 RMS(Cart)=  0.00003774 RMS(Int)=  0.00480388
 Iteration  4 RMS(Cart)=  0.00000050 RMS(Int)=  0.00480388
 ClnCor:  largest displacement from symmetrization is 3.44D-02 for atom     9.
 Variable       Old X    -DE/DX   Delta X   Delta X   Delta X     New X
                                 (Linear)    (Quad)   (Total)
    R1        2.91018  -0.06717   0.00000  -0.18643  -0.18659   2.72358
    R2        2.02201   0.01086   0.00000   0.02367   0.02466   2.04666
    R3        2.02201   0.01086   0.00000   0.02367   0.02466   2.04666
    R4        2.25822   0.03454   0.00000   0.02759   0.02753   2.28575
    R5        2.91018  -0.04173   0.00000  -0.11581  -0.11578   2.79440
    R6        2.02201   0.01180   0.00000   0.02571   0.02571   2.04772
    R7        2.02201   0.01156   0.00000   0.02520   0.02323   2.04524
    R8        2.02201   0.01156   0.00000   0.02520   0.02323   2.04524
    A1        1.91063   0.01440   0.00000   0.10526   0.08558   1.99622
    A2        1.91063   0.01440   0.00000   0.10526   0.08558   1.99622
    A3        1.91063   0.00267   0.00000   0.09109   0.08583   1.99646
    A4        1.91063   0.00047   0.00000   0.00124   0.00177   1.91241
    A5        1.91063  -0.00023   0.00000  -0.00030   0.00390   1.91453
    A6        1.91063  -0.00004   0.00000  -0.00005   0.00390   1.91453
    A7        1.91063   0.00023   0.00000   0.00075   0.00077   1.91140
    A8        1.91063   0.00061   0.00000   0.00124   0.00077   1.91140
    A9        1.91063  -0.00104   0.00000  -0.00289  -0.01115   1.89948
   A10        3.14159  -0.00415   0.00000  -0.01606  -0.00550   3.13610
   A11        3.14159  -0.00615   0.00000  -0.07997  -0.08253   3.05906
   A12        3.14159  -0.00343   0.00000  -0.01323  -0.02734   3.11425
   A13        3.14159  -0.00005   0.00000  -0.00035  -0.00000   3.14159
    D1        1.04720   0.00894   0.00000   0.10770   0.11224   1.15944
    D2        3.14159   0.00830   0.00000   0.09407   0.09789  -3.04370
    D3       -1.04720   0.01004   0.00000   0.12460   0.12660  -0.92060
    D4       -1.04720  -0.00925   0.00000  -0.10988  -0.11224  -1.15944
    D5        1.04720  -0.00988   0.00000  -0.12351  -0.12660   0.92060
    D6        3.14159  -0.00815   0.00000  -0.09298  -0.09789   3.04370
         Item               Value     Threshold  Converged?
 Maximum Force            0.067170     0.000450     NO 
 RMS     Force            0.018336     0.000300     NO 
 Maximum Displacement     0.157796     0.001800     NO 
 RMS     Displacement     0.069575     0.001200     NO 
 Predicted change in Energy=-1.947251D-02
 GradGradGradGradGradGradGradGradGradGradGradGradGradGradGradGradGradGrad

                          Input orientation:                          
 ---------------------------------------------------------------------
 Center     Atomic      Atomic             Coordinates (Angstroms)
 Number     Number       Type             X           Y           Z
 ---------------------------------------------------------------------
      1          6           0       -0.650138    0.448289   -0.402755
      2          6           0       -1.992297    0.652522    0.081110
      3          6           0       -3.113537    0.837616    0.495377
      4          6           0       -4.441323    1.162560    1.059336
      5          1           0       -4.369597    2.059368    1.663320
      6          1           0       -5.149244    1.322983    0.256548
      7          1           0       -4.788369    0.340743    1.672143
      8          1           0        0.067253    0.187873    0.365701
      9          1           0       -0.305973    1.203733   -1.098347
 ---------------------------------------------------------------------
                    Distance matrix (angstroms):
                    1          2          3          4          5
     1  C    0.000000
     2  C    1.441259   0.000000
     3  C    2.650765   1.209569   0.000000
     4  C    4.125649   2.686037   1.478734   0.000000
     5  H    4.549574   3.183420   2.105815   1.083607   0.000000
     6  H    4.630522   3.232122   2.106353   1.082293   1.768932
     7  H    4.630522   3.232122   2.106353   1.082293   1.768932
     8  H    1.083047   2.130408   3.249063   4.664591   4.987179
     9  H    1.083047   2.130408   3.249063   4.664591   4.987179
                    6          7          8          9
     6  H    0.000000
     7  H    1.760380   0.000000
     8  H    5.339685   5.030629   0.000000
     9  H    5.030629   5.339685   1.820633   0.000000
 Stoichiometry    C4H5(2)
 Framework group  CS[SG(C4H),X(H4)]
 Deg. of freedom    13
 Full point group                 CS      NOp   2
 Largest Abelian subgroup         CS      NOp   2
 Largest concise Abelian subgroup CS      NOp   2
                         Standard orientation:                         
 ---------------------------------------------------------------------
 Center     Atomic      Atomic             Coordinates (Angstroms)
 Number     Number       Type             X           Y           Z
 ---------------------------------------------------------------------
      1          6           0       -0.350270    2.105383   -0.000000
      2          6           0       -0.168863    0.675587   -0.000000
      3          6           0       -0.000000   -0.522137    0.000000
      4          6           0        0.326451   -1.964387    0.000000
      5          1           0        1.402394   -2.093044    0.000000
      6          1           0       -0.093766   -2.433471    0.880190
      7          1           0       -0.093766   -2.433471   -0.880190
      8          1           0       -0.029386    2.596656   -0.910316
      9          1           0       -0.029386    2.596656    0.910316
 ---------------------------------------------------------------------
 Rotational constants (GHZ):          97.0578871           3.5291772           3.4984718
 Standard basis: CC-pVTZ (5D, 7F)
 There are   137 symmetry adapted cartesian basis functions of A'  symmetry.
 There are    78 symmetry adapted cartesian basis functions of A"  symmetry.
 There are   118 symmetry adapted basis functions of A'  symmetry.
 There are    72 symmetry adapted basis functions of A"  symmetry.
   190 basis functions,   293 primitive gaussians,   215 cartesian basis functions
    15 alpha electrons       14 beta electrons
       nuclear repulsion energy        93.0684379463 Hartrees.
 NAtoms=    9 NActive=    9 NUniq=    7 SFac= 1.65D+00 NAtFMM=   60 NAOKFM=F Big=F
 Integral buffers will be    131072 words long.
 Raffenetti 2 integral format.
 Two-electron integral symmetry is turned on.
 Nuclear repulsion after empirical dispersion term =       93.0646080365 Hartrees.
 One-electron integrals computed using PRISM.
 NBasis=   190 RedAO= T EigKep=  2.05D-05  NBF=   118    72
 NBsUse=   190 1.00D-06 EigRej= -1.00D+00 NBFU=   118    72
 Initial guess from the checkpoint file:  "/localscratch/339752/Gau-87375.chk"
 B after Tr=    -0.000000    0.000000    0.000000
         Rot=    0.996263    0.000000    0.000000   -0.086377 Ang=  -9.91 deg.
 Initial guess orbital symmetries:
 Alpha Orbitals:
       Occupied  (A') (A') (A') (A') (A') (A') (A') (A') (A") (A')
                 (A") (A') (A') (A") (A')
       Virtual   (A') (A') (A") (A') (A") (A') (A") (A') (A') (A")
                 (A') (A') (A') (A") (A') (A') (A") (A') (A') (A")
                 (A') (A') (A") (A") (A') (A') (A') (A") (A') (A")
                 (A') (A') (A') (A') (A') (A") (A') (A") (A") (A')
                 (A") (A') (A") (A') (A") (A') (A") (A') (A') (A")
                 (A') (A') (A") (A') (A") (A') (A') (A") (A') (A')
                 (A") (A') (A') (A') (A") (A') (A") (A') (A') (A")
                 (A') (A") (A') (A') (A') (A") (A') (A') (A") (A")
                 (A') (A') (A') (A") (A') (A') (A') (A") (A") (A')
                 (A") (A') (A") (A') (A") (A') (A") (A') (A') (A")
                 (A") (A') (A") (A') (A") (A') (A") (A') (A") (A')
                 (A') (A") (A") (A") (A') (A') (A') (A") (A') (A")
                 (A') (A") (A") (A') (A') (A') (A") (A') (A') (A")
                 (A') (A') (A") (A') (A") (A') (A") (A") (A') (A')
                 (A") (A") (A') (A') (A') (A') (A") (A') (A') (A')
                 (A") (A') (A") (A') (A") (A") (A') (A') (A") (A")
                 (A') (A') (A') (A") (A') (A") (A') (A") (A') (A")
                 (A') (A') (A') (A') (A')
 Beta  Orbitals:
       Occupied  (A') (A') (A') (A') (A') (A') (A') (A') (A") (A')
                 (A") (A') (A') (A")
       Virtual   (A') (A') (A') (A") (A') (A") (A") (A') (A') (A')
                 (A") (A') (A') (A') (A") (A') (A') (A") (A') (A")
                 (A') (A') (A') (A") (A") (A') (A') (A') (A") (A")
                 (A') (A') (A') (A') (A') (A") (A') (A") (A') (A")
                 (A') (A") (A') (A") (A') (A") (A') (A") (A') (A')
                 (A") (A') (A') (A") (A') (A") (A') (A') (A") (A')
                 (A') (A") (A') (A') (A') (A") (A') (A") (A') (A")
                 (A') (A') (A") (A') (A') (A') (A") (A') (A') (A")
                 (A') (A") (A') (A') (A") (A') (A') (A') (A") (A")
                 (A") (A') (A') (A") (A') (A") (A") (A') (A') (A')
                 (A") (A") (A') (A") (A') (A") (A') (A") (A') (A")
                 (A') (A') (A") (A") (A") (A') (A') (A') (A") (A')
                 (A") (A') (A") (A") (A') (A') (A') (A") (A') (A')
                 (A") (A') (A') (A") (A') (A") (A') (A") (A") (A')
                 (A') (A") (A") (A') (A') (A') (A') (A") (A') (A')
                 (A") (A') (A') (A") (A') (A") (A") (A') (A") (A')
                 (A") (A') (A') (A') (A") (A') (A") (A') (A") (A')
                 (A") (A') (A') (A') (A') (A')
 Initial guess <Sx>= 0.0000 <Sy>= 0.0000 <Sz>= 0.5000 <S**2>= 0.7764 S= 0.5131
 ExpMin= 1.03D-01 ExpMax= 8.24D+03 ExpMxC= 2.81D+02 IAcc=3 IRadAn=         5 AccDes= 0.00D+00
 Harris functional with IExCor=  419 and IRadAn=       5 diagonalized for initial guess.
 HarFok:  IExCor=  419 AccDes= 0.00D+00 IRadAn=         5 IDoV= 1 UseB2=F ITyADJ=14
 ICtDFT=  3500011 ScaDFX=  1.000000  1.000000  1.000000  1.000000
 FoFCou: FMM=F IPFlag=           0 FMFlag=      100000 FMFlg1=           0
         NFxFlg=           0 DoJE=T BraDBF=F KetDBF=T FulRan=T
         wScrn=  0.000000 ICntrl=       500 IOpCl=  0 I1Cent=   200000004 NGrid=           0
         NMat0=    1 NMatS0=      1 NMatT0=    0 NMatD0=    1 NMtDS0=    0 NMtDT0=    0
 Petite list used in FoFCou.
 Keep R1 and R2 ints in memory in symmetry-blocked form, NReq=247995182.
 Requested convergence on RMS density matrix=1.00D-08 within 128 cycles.
 Requested convergence on MAX density matrix=1.00D-06.
 Requested convergence on             energy=1.00D-06.
 No special actions if energy rises.
 Integral accuracy reduced to 1.0D-05 until final iterations.
 Initial convergence to 1.0D-05 achieved.  Increase integral accuracy.
 SCF Done:  E(UB2PLYPD3) =  -155.024403767     A.U. after   18 cycles
            NFock= 18  Conv=0.49D-08     -V/T= 2.0051
 <Sx>= 0.0000 <Sy>= 0.0000 <Sz>= 0.5000 <S**2>= 0.7919 S= 0.5207
 <L.S>=  0.00000000000    
 Annihilation of the first spin contaminant:
 S**2 before annihilation     0.7919,   after     0.7506
 DoSCS=T DFT=T ScalE2(SS,OS)=  0.270000  0.270000
 ExpMin= 1.03D-01 ExpMax= 8.24D+03 ExpMxC= 2.81D+02 IAcc=3 IRadAn=         5 AccDes= 0.00D+00
 HarFok:  IExCor=  205 AccDes= 0.00D+00 IRadAn=         5 IDoV=-2 UseB2=F ITyADJ=14
 ICtDFT= 12500011 ScaDFX=  1.000000  1.000000  1.000000  1.000000
 Range of M.O.s used for correlation:     5   190
 NBasis=   190 NAE=    15 NBE=    14 NFC=     4 NFV=     0
 NROrb=    186 NOA=    11 NOB=    10 NVA=   175 NVB=   176

 **** Warning!!: The largest alpha MO coefficient is  0.59404590D+02


 **** Warning!!: The largest beta MO coefficient is  0.59688255D+02

 DoSCS=T DFT=T ScalE2(SS,OS)=  0.270000  0.270000
 Fully direct method using O(ONN) memory.
 JobTyp=2 Pass  1:  I=   5 to  15 NPSUse= 40 ParTrn=T ParDer=T DoDerP=T.
 JobTyp=3 Pass  1:  I=   5 to  14 NPSUse= 40 ParTrn=T ParDer=T DoDerP=T.
 Spin components of T(2) and E(2):
     alpha-alpha T2 =       0.4496782190D-01 E2=     -0.2626452640D-01
     alpha-beta  T2 =       0.2461196744D+00 E2=     -0.1547148156D+00
     beta-beta   T2 =       0.4026168307D-01 E2=     -0.2227617452D-01
 (S**2,0)=  0.79193D+00           (S**2,1)=  0.75251D+00
 Scaling Projection term by:   0.270000
 E(PUHF)=      -0.15503116045D+03        E(PMP2)=      -0.15522863366D+03
 E2(B2PLYPD3) =    -0.2032555165D+00 E(B2PLYPD3) =    -0.15522765928379D+03
          IDoAtm=111111111
          Differentiating once with respect to electric field.
                with respect to dipole field.
          Differentiating once with respect to nuclear coordinates.
 Keep R1 and R2 ints in memory in symmetry-blocked form, NReq=247996903.
          There are     1 degrees of freedom in the 1st order CPHF.  IDoFFX=0 NUNeed=     1.
 LinEq1:  Iter=  0 NonCon=     1 RMS=1.03D-03 Max=2.68D-02 NDo=     1
 AX will form     1 AO Fock derivatives at one time.
 LinEq1:  Iter=  1 NonCon=     1 RMS=3.68D-04 Max=8.02D-03 NDo=     1
 LinEq1:  Iter=  2 NonCon=     1 RMS=1.99D-04 Max=4.54D-03 NDo=     1
 LinEq1:  Iter=  3 NonCon=     1 RMS=5.60D-05 Max=1.20D-03 NDo=     1
 LinEq1:  Iter=  4 NonCon=     1 RMS=2.33D-05 Max=6.40D-04 NDo=     1
 LinEq1:  Iter=  5 NonCon=     1 RMS=1.06D-05 Max=2.41D-04 NDo=     1
 LinEq1:  Iter=  6 NonCon=     1 RMS=5.27D-06 Max=1.91D-04 NDo=     1
 LinEq1:  Iter=  7 NonCon=     1 RMS=3.90D-06 Max=1.07D-04 NDo=     1
 LinEq1:  Iter=  8 NonCon=     1 RMS=1.70D-06 Max=5.30D-05 NDo=     1
 LinEq1:  Iter=  9 NonCon=     1 RMS=8.90D-07 Max=1.68D-05 NDo=     1
 LinEq1:  Iter= 10 NonCon=     1 RMS=2.41D-07 Max=4.98D-06 NDo=     1
 LinEq1:  Iter= 11 NonCon=     1 RMS=5.01D-08 Max=6.90D-07 NDo=     1
 LinEq1:  Iter= 12 NonCon=     1 RMS=1.43D-08 Max=2.34D-07 NDo=     1
 LinEq1:  Iter= 13 NonCon=     1 RMS=3.19D-09 Max=3.74D-08 NDo=     1
 LinEq1:  Iter= 14 NonCon=     1 RMS=9.59D-10 Max=1.46D-08 NDo=     1
 LinEq1:  Iter= 15 NonCon=     1 RMS=2.14D-10 Max=2.26D-09 NDo=     1
 LinEq1:  Iter= 16 NonCon=     0 RMS=3.94D-11 Max=7.15D-10 NDo=     1
 Linear equations converged to 1.000D-10 1.000D-09 after    16 iterations.
 End of Minotr F.D. properties file   721 does not exist.
 End of Minotr F.D. properties file   722 does not exist.
 End of Minotr F.D. properties file   788 does not exist.
 Calling FoFJK, ICntrl=  10002127 FMM=F ISym2X=1 I1Cent= 0 IOpClX= 1 NMat=1 NMatS=1 NMatT=0.
 ***** Axes restored to original set *****
 -------------------------------------------------------------------
 Center     Atomic                   Forces (Hartrees/Bohr)
 Number     Number              X              Y              Z
 -------------------------------------------------------------------
      1        6          -0.030780191    0.025766719    0.025725505
      2        6           0.040410246   -0.010813311   -0.017804747
      3        6          -0.021041946    0.006294260    0.009731586
      4        6           0.018034582   -0.007681878   -0.009927751
      5        1          -0.001452507    0.002601618    0.002175471
      6        1          -0.004056929    0.001878188   -0.001507808
      7        1          -0.002789165   -0.001572446    0.003465215
      8        1           0.001177806   -0.009161589   -0.004595613
      9        1           0.000498105   -0.007311560   -0.007261857
 -------------------------------------------------------------------
 Cartesian Forces:  Max     0.040410246 RMS     0.014492637

 GradGradGradGradGradGradGradGradGradGradGradGradGradGradGradGradGradGrad
 Berny optimization.
 Using GEDIIS/GDIIS optimizer.
 FormGI is forming the generalized inverse of G from B-inverse, IUseBI=4.
 Internal  Forces:  Max     0.033164147 RMS     0.008265029
 Search for a local minimum.
 Step number   2 out of a maximum of  100
 All quantities printed in internal units (Hartrees-Bohrs-Radians)
 Mixed Optimization -- RFO/linear search
 Update second derivatives using D2CorX and points    1    2
 DE= -2.17D-02 DEPred=-1.95D-02 R= 1.12D+00
 TightC=F SS=  1.41D+00  RLast= 3.98D-01 DXNew= 5.0454D-01 1.1929D+00
 Trust test= 1.12D+00 RLast= 3.98D-01 DXMaxT set to 5.05D-01
 ITU=  1  0
 Use linear search instead of GDIIS.
     Eigenvalues ---    0.00230   0.00232   0.00237   0.02540   0.04601
     Eigenvalues ---    0.04945   0.07666   0.08043   0.15247   0.16000
     Eigenvalues ---    0.16000   0.16000   0.16069   0.21231   0.29400
     Eigenvalues ---    0.37140   0.37230   0.37230   0.37230   0.38248
     Eigenvalues ---    1.06303
 RFO step:  Lambda=-7.76744195D-03 EMin= 2.30000000D-03
 Quartic linear search produced a step of  0.73578.
 Maximum step size (   0.505) exceeded in Quadratic search.
    -- Step size scaled by   0.819
 Iteration  1 RMS(Cart)=  0.13109497 RMS(Int)=  0.05507044
 Iteration  2 RMS(Cart)=  0.10354080 RMS(Int)=  0.01588168
 Iteration  3 RMS(Cart)=  0.02297288 RMS(Int)=  0.01298001
 Iteration  4 RMS(Cart)=  0.00039628 RMS(Int)=  0.01297803
 Iteration  5 RMS(Cart)=  0.00000854 RMS(Int)=  0.01297803
 Iteration  6 RMS(Cart)=  0.00000024 RMS(Int)=  0.01297803
 ClnCor:  largest displacement from symmetrization is 2.53D-02 for atom     9.
 Variable       Old X    -DE/DX   Delta X   Delta X   Delta X     New X
                                 (Linear)    (Quad)   (Total)
    R1        2.72358  -0.03316  -0.13729  -0.04570  -0.18271   2.54087
    R2        2.04666  -0.00027   0.01814  -0.01474   0.00342   2.05009
    R3        2.04666  -0.00028   0.01814  -0.01477   0.00342   2.05009
    R4        2.28575   0.01201   0.02026   0.00091   0.02158   2.30733
    R5        2.79440  -0.01188  -0.08519   0.01338  -0.07254   2.72186
    R6        2.04772   0.00327   0.01892  -0.00295   0.01597   2.06369
    R7        2.04524   0.00405   0.01709  -0.00000   0.01837   2.06361
    R8        2.04524   0.00405   0.01709  -0.00000   0.01837   2.06361
    A1        1.99622   0.00818   0.06297   0.04427   0.07825   2.07447
    A2        1.99622   0.00821   0.06297   0.04447   0.07825   2.07447
    A3        1.99646  -0.00242   0.06315   0.00562   0.02039   2.01685
    A4        1.91241   0.00122   0.00130   0.00260   0.00873   1.92114
    A5        1.91453   0.00248   0.00287   0.02535   0.02330   1.93784
    A6        1.91453   0.00254   0.00287   0.02521   0.02330   1.93784
    A7        1.91140  -0.00232   0.00057  -0.02630  -0.02072   1.89068
    A8        1.91140  -0.00219   0.00057  -0.02648  -0.02072   1.89068
    A9        1.89948  -0.00175  -0.00821  -0.00057  -0.01531   1.88417
   A10        3.13610  -0.00137  -0.00404   0.01732   0.00083   3.13692
   A11        3.05906   0.00040  -0.06073   0.49351   0.43033   3.48939
   A12        3.11425  -0.00146  -0.02012   0.00963  -0.00863   3.10562
   A13        3.14159  -0.00002   0.00000   0.00023  -0.00000   3.14159
    D1        1.15944   0.00630   0.08259   0.12480   0.21239   1.37183
    D2       -3.04370   0.00572   0.07202   0.21560   0.28529  -2.75842
    D3       -0.92060   0.00703   0.09315   0.02997   0.13949  -0.78111
    D4       -1.15944  -0.00640  -0.08259  -0.12213  -0.21239  -1.37183
    D5        0.92060  -0.00698  -0.09315  -0.03133  -0.13949   0.78111
    D6        3.04370  -0.00567  -0.07202  -0.21695  -0.28529   2.75842
         Item               Value     Threshold  Converged?
 Maximum Force            0.033164     0.000450     NO 
 RMS     Force            0.008265     0.000300     NO 
 Maximum Displacement     0.632756     0.001800     NO 
 RMS     Displacement     0.244080     0.001200     NO 
 Predicted change in Energy=-1.208436D-02
 GradGradGradGradGradGradGradGradGradGradGradGradGradGradGradGradGradGrad

                          Input orientation:                          
 ---------------------------------------------------------------------
 Center     Atomic      Atomic             Coordinates (Angstroms)
 Number     Number       Type             X           Y           Z
 ---------------------------------------------------------------------
      1          6           0       -0.754282    0.481057   -0.353469
      2          6           0       -1.931190    0.834855    0.192047
      3          6           0       -2.990661    1.172456    0.696388
      4          6           0       -4.387936    1.162760    1.045865
      5          1           0       -4.618231    2.011415    1.693430
      6          1           0       -5.015278    1.230706    0.154616
      7          1           0       -4.653165    0.245100    1.575064
      8          1           0       -0.000159    0.024672    0.278929
      9          1           0       -0.376446    1.048862   -1.197125
 ---------------------------------------------------------------------
                    Distance matrix (angstroms):
                    1          2          3          4          5
     1  C    0.000000
     2  C    1.344572   0.000000
     3  C    2.565468   1.220989   0.000000
     4  C    3.953011   2.621474   1.440349   0.000000
     5  H    4.632698   3.295244   2.084929   1.092059   0.000000
     6  H    4.356169   3.109614   2.096659   1.092016   1.770622
     7  H    4.356169   3.109614   2.096659   1.092016   1.770622
     8  H    1.084858   2.095907   3.230292   4.597393   5.222504
     9  H    1.084858   2.095907   3.230292   4.597393   5.222504
                    6          7          8          9
     6  H    0.000000
     7  H    1.766414   0.000000
     8  H    5.159592   4.835186   0.000000
     9  H    4.835186   5.159592   1.835564   0.000000
 Stoichiometry    C4H5(2)
 Framework group  CS[SG(C4H),X(H4)]
 Deg. of freedom    13
 Full point group                 CS      NOp   2
 Largest Abelian subgroup         CS      NOp   2
 Largest concise Abelian subgroup CS      NOp   2
                         Standard orientation:                         
 ---------------------------------------------------------------------
 Center     Atomic      Atomic             Coordinates (Angstroms)
 Number     Number       Type             X           Y           Z
 ---------------------------------------------------------------------
      1          6           0        0.675788    1.918264    0.000000
      2          6           0        0.311101    0.624094    0.000000
      3          6           0        0.000000   -0.556597   -0.000000
      4          6           0       -0.819723   -1.740936   -0.000000
      5          1           0       -0.189628   -2.632884   -0.000000
      6          1           0       -1.461110   -1.773594    0.883207
      7          1           0       -1.461110   -1.773594   -0.883207
      8          1           0        1.054427    2.355559   -0.917782
      9          1           0        1.054427    2.355559    0.917782
 ---------------------------------------------------------------------
 Rotational constants (GHZ):          88.6476890           3.7531032           3.7298551
 Standard basis: CC-pVTZ (5D, 7F)
 There are   137 symmetry adapted cartesian basis functions of A'  symmetry.
 There are    78 symmetry adapted cartesian basis functions of A"  symmetry.
 There are   118 symmetry adapted basis functions of A'  symmetry.
 There are    72 symmetry adapted basis functions of A"  symmetry.
   190 basis functions,   293 primitive gaussians,   215 cartesian basis functions
    15 alpha electrons       14 beta electrons
       nuclear repulsion energy        94.9741828866 Hartrees.
 NAtoms=    9 NActive=    9 NUniq=    7 SFac= 1.65D+00 NAtFMM=   60 NAOKFM=F Big=F
 Integral buffers will be    131072 words long.
 Raffenetti 2 integral format.
 Two-electron integral symmetry is turned on.
 Nuclear repulsion after empirical dispersion term =       94.9702943282 Hartrees.
 One-electron integrals computed using PRISM.
 NBasis=   190 RedAO= T EigKep=  4.06D-05  NBF=   118    72
 NBsUse=   190 1.00D-06 EigRej= -1.00D+00 NBFU=   118    72
 Initial guess from the checkpoint file:  "/localscratch/339752/Gau-87375.chk"
 B after Tr=    -0.000000   -0.000000   -0.000000
         Rot=    0.962606   -0.000000    0.000000    0.270906 Ang=  31.44 deg.
 Initial guess orbital symmetries:
 Alpha Orbitals:
       Occupied  (A') (A') (A') (A') (A') (A') (A') (A') (A') (A")
                 (A') (A") (A') (A") (A')
       Virtual   (A') (A') (A") (A') (A") (A') (A") (A') (A') (A")
                 (A') (A') (A') (A') (A") (A') (A") (A') (A") (A')
                 (A') (A') (A") (A") (A') (A') (A') (A') (A") (A")
                 (A') (A') (A') (A') (A") (A') (A") (A') (A") (A")
                 (A') (A') (A") (A') (A") (A') (A") (A') (A') (A')
                 (A") (A') (A") (A') (A') (A") (A') (A") (A') (A')
                 (A") (A') (A') (A') (A") (A') (A") (A') (A') (A')
                 (A") (A') (A") (A') (A') (A") (A') (A') (A") (A')
                 (A") (A') (A') (A") (A') (A') (A") (A') (A") (A")
                 (A') (A') (A") (A") (A') (A") (A') (A') (A') (A")
                 (A") (A') (A") (A') (A") (A") (A') (A') (A") (A')
                 (A') (A") (A") (A') (A") (A') (A") (A') (A') (A")
                 (A') (A") (A') (A") (A') (A") (A') (A') (A') (A")
                 (A') (A') (A") (A') (A") (A') (A") (A") (A') (A')
                 (A") (A') (A") (A') (A') (A') (A") (A') (A') (A")
                 (A') (A") (A') (A') (A") (A") (A') (A") (A') (A')
                 (A') (A") (A') (A") (A') (A') (A") (A") (A') (A")
                 (A') (A') (A') (A') (A')
 Beta  Orbitals:
       Occupied  (A') (A') (A') (A') (A') (A') (A') (A') (A") (A')
                 (A') (A") (A') (A")
       Virtual   (A') (A') (A') (A") (A') (A") (A") (A') (A') (A')
                 (A") (A') (A') (A') (A") (A') (A') (A") (A') (A")
                 (A') (A') (A') (A") (A") (A') (A') (A') (A") (A')
                 (A") (A') (A') (A') (A') (A") (A') (A") (A") (A')
                 (A") (A') (A') (A") (A') (A") (A') (A") (A') (A')
                 (A') (A') (A") (A") (A') (A") (A') (A') (A") (A')
                 (A') (A") (A') (A') (A') (A") (A') (A") (A') (A')
                 (A") (A') (A') (A") (A') (A') (A") (A') (A') (A")
                 (A') (A") (A') (A') (A") (A') (A') (A') (A") (A")
                 (A") (A') (A') (A") (A") (A') (A") (A') (A') (A")
                 (A') (A") (A') (A") (A') (A") (A") (A') (A') (A")
                 (A') (A') (A") (A") (A') (A") (A') (A") (A') (A')
                 (A") (A') (A") (A') (A") (A') (A") (A') (A') (A')
                 (A") (A') (A') (A") (A') (A") (A') (A") (A") (A')
                 (A') (A") (A') (A") (A') (A') (A') (A") (A') (A')
                 (A") (A') (A") (A') (A') (A") (A") (A") (A') (A')
                 (A') (A') (A") (A') (A") (A') (A') (A") (A") (A')
                 (A") (A') (A') (A') (A') (A')
 Initial guess <Sx>= 0.0000 <Sy>= 0.0000 <Sz>= 0.5000 <S**2>= 0.7896 S= 0.5196
 ExpMin= 1.03D-01 ExpMax= 8.24D+03 ExpMxC= 2.81D+02 IAcc=3 IRadAn=         5 AccDes= 0.00D+00
 Harris functional with IExCor=  419 and IRadAn=       5 diagonalized for initial guess.
 HarFok:  IExCor=  419 AccDes= 0.00D+00 IRadAn=         5 IDoV= 1 UseB2=F ITyADJ=14
 ICtDFT=  3500011 ScaDFX=  1.000000  1.000000  1.000000  1.000000
 FoFCou: FMM=F IPFlag=           0 FMFlag=      100000 FMFlg1=           0
         NFxFlg=           0 DoJE=T BraDBF=F KetDBF=T FulRan=T
         wScrn=  0.000000 ICntrl=       500 IOpCl=  0 I1Cent=   200000004 NGrid=           0
         NMat0=    1 NMatS0=      1 NMatT0=    0 NMatD0=    1 NMtDS0=    0 NMtDT0=    0
 Petite list used in FoFCou.
 Keep R1 and R2 ints in memory in symmetry-blocked form, NReq=247995182.
 Requested convergence on RMS density matrix=1.00D-08 within 128 cycles.
 Requested convergence on MAX density matrix=1.00D-06.
 Requested convergence on             energy=1.00D-06.
 No special actions if energy rises.
 Integral accuracy reduced to 1.0D-05 until final iterations.
 Initial convergence to 1.0D-05 achieved.  Increase integral accuracy.
 SCF Done:  E(UB2PLYPD3) =  -155.027881597     A.U. after   20 cycles
            NFock= 20  Conv=0.91D-08     -V/T= 2.0038
 <Sx>= 0.0000 <Sy>= 0.0000 <Sz>= 0.5000 <S**2>= 0.8107 S= 0.5299
 <L.S>=  0.00000000000    
 Annihilation of the first spin contaminant:
 S**2 before annihilation     0.8107,   after     0.7514
 DoSCS=T DFT=T ScalE2(SS,OS)=  0.270000  0.270000
 ExpMin= 1.03D-01 ExpMax= 8.24D+03 ExpMxC= 2.81D+02 IAcc=3 IRadAn=         5 AccDes= 0.00D+00
 HarFok:  IExCor=  205 AccDes= 0.00D+00 IRadAn=         5 IDoV=-2 UseB2=F ITyADJ=14
 ICtDFT= 12500011 ScaDFX=  1.000000  1.000000  1.000000  1.000000
 Range of M.O.s used for correlation:     5   190
 NBasis=   190 NAE=    15 NBE=    14 NFC=     4 NFV=     0
 NROrb=    186 NOA=    11 NOB=    10 NVA=   175 NVB=   176

 **** Warning!!: The largest alpha MO coefficient is  0.33865126D+02


 **** Warning!!: The largest beta MO coefficient is  0.35256654D+02

 DoSCS=T DFT=T ScalE2(SS,OS)=  0.270000  0.270000
 Fully direct method using O(ONN) memory.
 JobTyp=2 Pass  1:  I=   5 to  15 NPSUse= 40 ParTrn=T ParDer=T DoDerP=T.
 JobTyp=3 Pass  1:  I=   5 to  14 NPSUse= 40 ParTrn=T ParDer=T DoDerP=T.
 Spin components of T(2) and E(2):
     alpha-alpha T2 =       0.4473857124D-01 E2=     -0.2643073702D-01
     alpha-beta  T2 =       0.2430631457D+00 E2=     -0.1541704494D+00
     beta-beta   T2 =       0.3995652914D-01 E2=     -0.2239286965D-01
 (S**2,0)=  0.81073D+00           (S**2,1)=  0.75475D+00
 Scaling Projection term by:   0.270000
 E(PUHF)=      -0.15503721956D+03        E(PMP2)=      -0.15523225029D+03
 E2(B2PLYPD3) =    -0.2029940561D+00 E(B2PLYPD3) =    -0.15523087565324D+03
          IDoAtm=111111111
          Differentiating once with respect to electric field.
                with respect to dipole field.
          Differentiating once with respect to nuclear coordinates.
 Keep R1 and R2 ints in memory in symmetry-blocked form, NReq=247996903.
          There are     1 degrees of freedom in the 1st order CPHF.  IDoFFX=0 NUNeed=     1.
 LinEq1:  Iter=  0 NonCon=     1 RMS=1.13D-03 Max=3.01D-02 NDo=     1
 AX will form     1 AO Fock derivatives at one time.
 LinEq1:  Iter=  1 NonCon=     1 RMS=3.95D-04 Max=7.85D-03 NDo=     1
 LinEq1:  Iter=  2 NonCon=     1 RMS=2.10D-04 Max=4.63D-03 NDo=     1
 LinEq1:  Iter=  3 NonCon=     1 RMS=6.33D-05 Max=1.63D-03 NDo=     1
 LinEq1:  Iter=  4 NonCon=     1 RMS=3.70D-05 Max=1.19D-03 NDo=     1
 LinEq1:  Iter=  5 NonCon=     1 RMS=1.71D-05 Max=4.93D-04 NDo=     1
 LinEq1:  Iter=  6 NonCon=     1 RMS=1.08D-05 Max=2.48D-04 NDo=     1
 LinEq1:  Iter=  7 NonCon=     1 RMS=4.64D-06 Max=1.07D-04 NDo=     1
 LinEq1:  Iter=  8 NonCon=     1 RMS=2.23D-06 Max=5.74D-05 NDo=     1
 LinEq1:  Iter=  9 NonCon=     1 RMS=9.42D-07 Max=2.06D-05 NDo=     1
 LinEq1:  Iter= 10 NonCon=     1 RMS=2.87D-07 Max=5.94D-06 NDo=     1
 LinEq1:  Iter= 11 NonCon=     1 RMS=1.12D-07 Max=2.38D-06 NDo=     1
 LinEq1:  Iter= 12 NonCon=     1 RMS=2.45D-08 Max=3.02D-07 NDo=     1
 LinEq1:  Iter= 13 NonCon=     1 RMS=4.79D-09 Max=6.33D-08 NDo=     1
 LinEq1:  Iter= 14 NonCon=     1 RMS=1.23D-09 Max=1.43D-08 NDo=     1
 LinEq1:  Iter= 15 NonCon=     1 RMS=1.98D-10 Max=2.28D-09 NDo=     1
 LinEq1:  Iter= 16 NonCon=     0 RMS=4.48D-11 Max=4.64D-10 NDo=     1
 Linear equations converged to 1.000D-10 1.000D-09 after    16 iterations.
 End of Minotr F.D. properties file   721 does not exist.
 End of Minotr F.D. properties file   722 does not exist.
 End of Minotr F.D. properties file   788 does not exist.
 Calling FoFJK, ICntrl=  10002127 FMM=F ISym2X=1 I1Cent= 0 IOpClX= 1 NMat=1 NMatS=1 NMatT=0.
 ***** Axes restored to original set *****
 -------------------------------------------------------------------
 Center     Atomic                   Forces (Hartrees/Bohr)
 Number     Number              X              Y              Z
 -------------------------------------------------------------------
      1        6           0.029600320    0.011350311    0.000329692
      2        6          -0.010397122    0.003806418    0.005291680
      3        6          -0.002470456   -0.010941245   -0.006962020
      4        6          -0.009551779    0.007004544    0.007295264
      5        1          -0.004108309   -0.001683042   -0.000120490
      6        1           0.000912976    0.001201331    0.001202772
      7        1           0.000714517    0.001741503    0.000424280
      8        1          -0.002504570   -0.005819398   -0.004336627
      9        1          -0.002195578   -0.006660422   -0.003124552
 -------------------------------------------------------------------
 Cartesian Forces:  Max     0.029600320 RMS     0.007861237

 GradGradGradGradGradGradGradGradGradGradGradGradGradGradGradGradGradGrad
 Berny optimization.
 Using GEDIIS/GDIIS optimizer.
 FormGI is forming the generalized inverse of G from B-inverse, IUseBI=4.
 Internal  Forces:  Max     0.025180942 RMS     0.008156234
 Search for a local minimum.
 Step number   3 out of a maximum of  100
 All quantities printed in internal units (Hartrees-Bohrs-Radians)
 Mixed Optimization -- RFO/linear search
 Update second derivatives using D2CorX and points    2    3
 DE= -3.22D-03 DEPred=-1.21D-02 R= 2.66D-01
 Trust test= 2.66D-01 RLast= 7.29D-01 DXMaxT set to 5.05D-01
 ITU=  0  1  0
 Use linear search instead of GDIIS.
     Eigenvalues ---    0.00230   0.00237   0.00713   0.01119   0.04191
     Eigenvalues ---    0.04759   0.07724   0.08070   0.14761   0.15904
     Eigenvalues ---    0.16000   0.16000   0.16284   0.24427   0.29384
     Eigenvalues ---    0.37029   0.37230   0.37230   0.37235   0.38126
     Eigenvalues ---    1.04933
 RFO step:  Lambda=-1.65589216D-02 EMin= 2.30000000D-03
 Quartic linear search produced a step of -0.38407.
 Maximum step size (   0.505) exceeded in Quadratic search.
    -- Step size scaled by   0.823
 Iteration  1 RMS(Cart)=  0.11174971 RMS(Int)=  0.08035692
 Iteration  2 RMS(Cart)=  0.08948464 RMS(Int)=  0.03977163
 Iteration  3 RMS(Cart)=  0.08205065 RMS(Int)=  0.01239557
 Iteration  4 RMS(Cart)=  0.00824569 RMS(Int)=  0.01168010
 Iteration  5 RMS(Cart)=  0.00004428 RMS(Int)=  0.01168008
 Iteration  6 RMS(Cart)=  0.00000148 RMS(Int)=  0.01168008
 Iteration  7 RMS(Cart)=  0.00000005 RMS(Int)=  0.01168008
 ClnCor:  largest displacement from symmetrization is 4.44D-02 for atom     9.
 Variable       Old X    -DE/DX   Delta X   Delta X   Delta X     New X
                                 (Linear)    (Quad)   (Total)
    R1        2.54087   0.02518   0.07017  -0.11703  -0.04736   2.49351
    R2        2.05009  -0.00178  -0.00131  -0.00761  -0.01014   2.03994
    R3        2.05009  -0.00182  -0.00131  -0.00766  -0.01014   2.03994
    R4        2.30733   0.01287  -0.00829   0.02231   0.01368   2.32101
    R5        2.72186   0.01331   0.02786  -0.02465   0.00377   2.72563
    R6        2.06369  -0.00051  -0.00613   0.00954   0.00339   2.06708
    R7        2.06361  -0.00143  -0.00706   0.01218   0.00337   2.06699
    R8        2.06361  -0.00143  -0.00706   0.01218   0.00337   2.06699
    A1        2.07447   0.00380  -0.03005   0.10718   0.04590   2.12037
    A2        2.07447   0.00394  -0.03005   0.10749   0.04590   2.12037
    A3        2.01685   0.00125  -0.00783   0.03048   0.02356   2.04041
    A4        1.92114   0.00760  -0.00335   0.03219   0.04367   1.96480
    A5        1.93784  -0.00156  -0.00895   0.02208   0.00954   1.94738
    A6        1.93784  -0.00127  -0.00895   0.02244   0.00954   1.94738
    A7        1.89068  -0.00164   0.00796  -0.02818  -0.00923   1.88146
    A8        1.89068  -0.00122   0.00796  -0.02761  -0.00923   1.88146
    A9        1.88417  -0.00211   0.00588  -0.02436  -0.04918   1.83499
   A10        3.13692  -0.00291  -0.00032  -0.01417   0.00307   3.13999
   A11        3.48939  -0.02384  -0.16528  -0.45628  -0.60611   2.88327
   A12        3.10562  -0.00455   0.00332  -0.02678  -0.02301   3.08261
   A13        3.14159  -0.00003   0.00000  -0.00046   0.00000   3.14159
    D1        1.37183   0.00387  -0.08157   0.17349   0.09659   1.46842
    D2       -2.75842   0.00255  -0.10957   0.11721  -0.00588  -2.76429
    D3       -0.78111   0.00573  -0.05357   0.23653   0.19906  -0.58206
    D4       -1.37183  -0.00423   0.08157  -0.17800  -0.09659  -1.46842
    D5        0.78111  -0.00555   0.05357  -0.23428  -0.19906   0.58206
    D6        2.75842  -0.00237   0.10957  -0.11497   0.00588   2.76429
         Item               Value     Threshold  Converged?
 Maximum Force            0.025181     0.000450     NO 
 RMS     Force            0.008156     0.000300     NO 
 Maximum Displacement     0.785264     0.001800     NO 
 RMS     Displacement     0.267657     0.001200     NO 
 Predicted change in Energy=-1.352854D-02
 GradGradGradGradGradGradGradGradGradGradGradGradGradGradGradGradGradGrad

                          Input orientation:                          
 ---------------------------------------------------------------------
 Center     Atomic      Atomic             Coordinates (Angstroms)
 Number     Number       Type             X           Y           Z
 ---------------------------------------------------------------------
      1          6           0       -0.695125    0.629040   -0.265869
      2          6           0       -1.963543    0.681573    0.093937
      3          6           0       -3.137935    0.756912    0.445599
      4          6           0       -4.394262    1.147382    1.036807
      5          1           0       -4.309140    2.053401    1.643767
      6          1           0       -5.158978    1.325667    0.275345
      7          1           0       -4.802868    0.356397    1.672248
      8          1           0        0.041464    0.120221    0.337326
      9          1           0       -0.335717    1.146842   -1.142232
 ---------------------------------------------------------------------
                    Distance matrix (angstroms):
                    1          2          3          4          5
     1  C    0.000000
     2  C    1.319509   0.000000
     3  C    2.547520   1.228226   0.000000
     4  C    3.955914   2.648467   1.442343   0.000000
     5  H    4.328582   3.128212   2.118540   1.093854   0.000000
     6  H    4.550186   3.264747   2.106439   1.093802   1.767598
     7  H    4.550186   3.264747   2.106439   1.093802   1.767598
     8  H    1.079492   2.096283   3.244329   4.606517   4.936773
     9  H    1.079492   2.096283   3.244329   4.606517   4.936773
                    6          7          8          9
     6  H    0.000000
     7  H    1.737135   0.000000
     8  H    5.338683   5.030442   0.000000
     9  H    5.030442   5.338683   1.839920   0.000000
 Stoichiometry    C4H5(2)
 Framework group  CS[SG(C4H),X(H4)]
 Deg. of freedom    13
 Full point group                 CS      NOp   2
 Largest Abelian subgroup         CS      NOp   2
 Largest concise Abelian subgroup CS      NOp   2
                         Standard orientation:                         
 ---------------------------------------------------------------------
 Center     Atomic      Atomic             Coordinates (Angstroms)
 Number     Number       Type             X           Y           Z
 ---------------------------------------------------------------------
[...]
                             4692.79
 
 Zero-point correction=                           0.070194 (Hartree/Particle)
 Thermal correction to Energy=                    0.076008
 Thermal correction to Enthalpy=                  0.076952
 Thermal correction to Gibbs Free Energy=         0.040983
 Sum of electronic and zero-point Energies=           -155.168073
 Sum of electronic and thermal Energies=              -155.162259
 Sum of electronic and thermal Enthalpies=            -155.161315
 Sum of electronic and thermal Free Energies=         -155.197284
 
                     E (Thermal)             CV                S
                      KCal/Mol        Cal/Mol-Kelvin    Cal/Mol-Kelvin
 Total                   47.695             17.656             75.703
 Electronic               0.000              0.000              1.377
 Translational            0.889              2.981             37.828
 Rotational               0.889              2.981             22.998
 Vibrational             45.918             11.695             13.500
 Vibration     1          0.593              1.985              6.369
 Vibration     2          0.633              1.854              2.231
 Vibration     3          0.641              1.830              2.074
 Vibration     4          0.751              1.509              1.032
 Vibration     5          0.782              1.428              0.893
                       Q            Log10(Q)             Ln(Q)
 Total Bot       0.141001D-18        -18.850777        -43.405518
 Total V=0       0.272924D+14         13.436041         30.937629
 Vib (Bot)       0.195990D-30        -30.707767        -70.707246
 Vib (Bot)    1  0.906126D+01          0.957188          2.204008
 Vib (Bot)    2  0.105534D+01          0.023393          0.053865
 Vib (Bot)    3  0.962733D+00         -0.016494         -0.037979
 Vib (Bot)    4  0.472912D+00         -0.325220         -0.748846
 Vib (Bot)    5  0.418625D+00         -0.378174         -0.870779
 Vib (V=0)       0.379360D+02          1.579052          3.635901
 Vib (V=0)    1  0.957504D+01          0.981141          2.259160
 Vib (V=0)    2  0.166780D+01          0.222143          0.511503
 Vib (V=0)    3  0.158483D+01          0.199983          0.460477
 Vib (V=0)    4  0.118822D+01          0.074897          0.172456
 Vib (V=0)    5  0.115211D+01          0.061494          0.141595
 Electronic      0.200000D+01          0.301030          0.693147
 Translational   0.151827D+08          7.181348         16.535666
 Rotational      0.236925D+05          4.374611         10.072915
 ***** Axes restored to original set *****
 -------------------------------------------------------------------
 Center     Atomic                   Forces (Hartrees/Bohr)
 Number     Number              X              Y              Z
 -------------------------------------------------------------------
      1        6           0.000149304   -0.000047794   -0.000071225
      2        6           0.000028737    0.000073313    0.000043544
      3        6          -0.000071499   -0.000037063   -0.000007490
      4        6          -0.000089175   -0.000001545    0.000021661
      5        1           0.000019743    0.000000250   -0.000004859
      6        1           0.000044455   -0.000022776    0.000029658
      7        1           0.000025730    0.000028189   -0.000043794
      8        1          -0.000059645    0.000020037   -0.000007273
      9        1          -0.000047650   -0.000012611    0.000039779
 -------------------------------------------------------------------
 Cartesian Forces:  Max     0.000149304 RMS     0.000050147
 FormGI is forming the generalized inverse of G from B-inverse, IUseBI=4.

 GradGradGradGradGradGradGradGradGradGradGradGradGradGradGradGradGradGrad
 Berny optimization.
 Internal  Forces:  Max     0.000060283 RMS     0.000031043
 Search for a local minimum.
 Step number   1 out of a maximum of    2
 All quantities printed in internal units (Hartrees-Bohrs-Radians)
 Second derivative matrix not updated -- analytic derivatives used.
 ITU=  0
     Eigenvalues ---    0.00000   0.01133   0.01400   0.01522   0.03865
     Eigenvalues ---    0.05282   0.07664   0.08346   0.10093   0.12262
     Eigenvalues ---    0.12328   0.15091   0.15341   0.33343   0.33742
     Eigenvalues ---    0.33826   0.36424   0.36578   0.37115   0.42318
     Eigenvalues ---    0.95817
 Angle between quadratic step and forces=  62.23 degrees.
 Linear search not attempted -- first point.
 Iteration  1 RMS(Cart)=  0.00041139 RMS(Int)=  0.00000042
 Iteration  2 RMS(Cart)=  0.00000106 RMS(Int)=  0.00000005
 Iteration  3 RMS(Cart)=  0.00000000 RMS(Int)=  0.00000005
 ClnCor:  largest displacement from symmetrization is 1.18D-04 for atom     9.
 Variable       Old X    -DE/DX   Delta X   Delta X   Delta X     New X
                                 (Linear)    (Quad)   (Total)
    R1        2.59259   0.00006   0.00000   0.00017   0.00017   2.59276
    R2        2.03899  -0.00005   0.00000  -0.00016  -0.00016   2.03883
    R3        2.03899  -0.00005   0.00000  -0.00016  -0.00016   2.03883
    R4        2.30811   0.00006   0.00000   0.00005   0.00005   2.30816
    R5        2.74679   0.00000   0.00000   0.00006   0.00006   2.74686
    R6        2.06191  -0.00000   0.00000  -0.00003  -0.00003   2.06188
    R7        2.05925  -0.00005   0.00000  -0.00016  -0.00016   2.05909
    R8        2.05925  -0.00005   0.00000  -0.00016  -0.00016   2.05909
    A1        2.10917  -0.00002   0.00000  -0.00025  -0.00025   2.10893
    A2        2.10917  -0.00002   0.00000  -0.00024  -0.00025   2.10893
    A3        2.06484   0.00004   0.00000   0.00049   0.00049   2.06533
    A4        1.93531  -0.00002   0.00000  -0.00011  -0.00011   1.93520
    A5        1.93859  -0.00002   0.00000  -0.00016  -0.00016   1.93842
    A6        1.93859  -0.00002   0.00000  -0.00016  -0.00016   1.93842
    A7        1.88040   0.00002   0.00000   0.00024   0.00026   1.88066
    A8        1.88040   0.00002   0.00000   0.00024   0.00026   1.88066
    A9        1.88824   0.00001   0.00000  -0.00002  -0.00005   1.88819
   A10        3.14159  -0.00000   0.00000  -0.00000  -0.00000   3.14159
   A11        3.13436  -0.00001   0.00000  -0.00062  -0.00062   3.13374
   A12        3.14191   0.00004   0.00000   0.00312   0.00312   3.14503
   A13        3.14159  -0.00000   0.00000  -0.00000   0.00000   3.14159
    D1        1.56948   0.00000   0.00000   0.00043   0.00041   1.56988
    D2       -2.62488   0.00001   0.00000   0.00057   0.00057  -2.62431
    D3       -0.51935  -0.00000   0.00000   0.00028   0.00024  -0.51911
    D4       -1.56948  -0.00000   0.00000  -0.00032  -0.00041  -1.56988
    D5        0.51935   0.00000   0.00000  -0.00017  -0.00024   0.51911
    D6        2.62488  -0.00001   0.00000  -0.00047  -0.00057   2.62431
         Item               Value     Threshold  Converged?
 Maximum Force            0.000060     0.000450     YES
 RMS     Force            0.000031     0.000300     YES
 Maximum Displacement     0.001430     0.001800     YES
 RMS     Displacement     0.000420     0.001200     YES
 Predicted change in Energy=-1.287639D-07
 Optimization completed.
    -- Stationary point found.
                           ----------------------------
                           !   Optimized Parameters   !
                           ! (Angstroms and Degrees)  !
 --------------------------                            --------------------------
 ! Name  Definition              Value          Derivative Info.                !
 --------------------------------------------------------------------------------
 ! R1    R(1,2)                  1.3719         -DE/DX =    0.0001              !
 ! R2    R(1,8)                  1.079          -DE/DX =   -0.0001              !
 ! R3    R(1,9)                  1.079          -DE/DX =   -0.0001              !
 ! R4    R(2,3)                  1.2214         -DE/DX =    0.0001              !
 ! R5    R(3,4)                  1.4535         -DE/DX =    0.0                 !
 ! R6    R(4,5)                  1.0911         -DE/DX =    0.0                 !
 ! R7    R(4,6)                  1.0897         -DE/DX =   -0.0001              !
 ! R8    R(4,7)                  1.0897         -DE/DX =   -0.0001              !
 ! A1    A(2,1,8)              120.8466         -DE/DX =    0.0                 !
 ! A2    A(2,1,9)              120.8466         -DE/DX =    0.0                 !
 ! A3    A(8,1,9)              118.3067         -DE/DX =    0.0                 !
 ! A4    A(3,4,5)              110.8853         -DE/DX =    0.0                 !
 ! A5    A(3,4,6)              111.0728         -DE/DX =    0.0                 !
 ! A6    A(3,4,7)              111.0728         -DE/DX =    0.0                 !
 ! A7    A(5,4,6)              107.7391         -DE/DX =    0.0                 !
 ! A8    A(5,4,7)              107.7391         -DE/DX =    0.0                 !
 ! A9    A(6,4,7)              108.1883         -DE/DX =    0.0                 !
 ! A10   L(1,2,3,8,-1)         180.0            -DE/DX =    0.0                 !
 ! A11   L(2,3,4,5,-1)         179.5857         -DE/DX =    0.0                 !
 ! A12   L(1,2,3,8,-2)         180.0183         -DE/DX =    0.0                 !
 ! A13   L(2,3,4,5,-2)         180.0            -DE/DX =    0.0                 !
 ! D1    D(8,1,4,5)             89.9244         -DE/DX =    0.0                 !
 ! D2    D(8,1,4,6)           -150.3946         -DE/DX =    0.0                 !
 ! D3    D(8,1,4,7)            -29.7566         -DE/DX =    0.0                 !
 ! D4    D(9,1,4,5)            -89.9244         -DE/DX =    0.0                 !
 ! D5    D(9,1,4,6)             29.7566         -DE/DX =    0.0                 !
 ! D6    D(9,1,4,7)            150.3946         -DE/DX =    0.0                 !
 --------------------------------------------------------------------------------
 GradGradGradGradGradGradGradGradGradGradGradGradGradGradGradGradGradGrad


 ----------------------------------------------------------------------

 Electric dipole moment (input orientation):
 (Debye = 10**-18 statcoulomb cm , SI units = C m)
                  (au)            (Debye)         (10**-30 SI)
   Tot        0.350568D+00      0.891055D+00      0.297224D+01
   x         -0.325825D+00     -0.828164D+00     -0.276246D+01
   y          0.513935D-01      0.130629D+00      0.435732D+00
   z          0.118722D+00      0.301762D+00      0.100657D+01

 Dipole polarizability, Alpha (input orientation).
 (esu units = cm**3 , SI units = C**2 m**2 J**-1)
 Alpha(0;0):
               (au)            (10**-24 esu)      (10**-40 SI)
   iso        0.476879D+02      0.706662D+01      0.786267D+01
   aniso      0.498069D+02      0.738063D+01      0.821205D+01
   xx         0.744304D+02      0.110294D+02      0.122719D+02
   yx        -0.671233D+01     -0.994665D+00     -0.110671D+01
   yy         0.315494D+02      0.467514D+01      0.520180D+01
   zx        -0.153794D+02     -0.227899D+01     -0.253572D+01
   zy         0.114053D+01      0.169009D+00      0.188048D+00
   zz         0.370838D+02      0.549526D+01      0.611430D+01

 ----------------------------------------------------------------------

 Dipole orientation:
     6         -0.82279902          1.09672134          1.13614984
     6         -0.85560847          1.05795605          3.72824435
     6         -0.88502373          1.02320110          6.03590707
     6         -0.90720003          0.99699919          8.78248694
     1          0.33131079          2.46033436          9.54157069
     1         -2.80265045          1.33930932          9.51091937
     1         -0.25632075         -0.81580656          9.51091937
     1          0.52644804         -0.01880497          0.09086903
     1         -2.14598479          2.24303978          0.09086903

 Electric dipole moment (dipole orientation):
 (Debye = 10**-18 statcoulomb cm , SI units = C m)
                  (au)            (Debye)         (10**-30 SI)
   Tot        0.350568D+00      0.891055D+00      0.297224D+01
   x          0.000000D+00      0.000000D+00      0.000000D+00
   y          0.000000D+00      0.000000D+00      0.000000D+00
   z          0.350568D+00      0.891055D+00      0.297224D+01

 Dipole polarizability, Alpha (dipole orientation).
 (esu units = cm**3 , SI units = C**2 m**2 J**-1)
 Alpha(0;0):
               (au)            (10**-24 esu)      (10**-40 SI)
   iso        0.476879D+02      0.706662D+01      0.786267D+01
   aniso      0.498069D+02      0.738063D+01      0.821205D+01
   xx         0.313161D+02      0.464057D+01      0.516333D+01
   yx        -0.124732D+01     -0.184833D+00     -0.205655D+00
   yy         0.308981D+02      0.457862D+01      0.509441D+01
   zx        -0.476604D+00     -0.706255D-01     -0.785815D-01
   zy        -0.563121D+00     -0.834460D-01     -0.928462D-01
   zz         0.808494D+02      0.119807D+02      0.133303D+02

 ----------------------------------------------------------------------
 1\1\GINC-N73\Freq\UB2PLYPD3-FC\CC-pVTZ\C4H5(2)\ROOT\02-Jun-2019\0\\#N 
 Geom=AllCheck Guess=TCheck SCRF=Check GenChk UB2PLYPD3(FC)/CC-pVTZ Fre
 q\\Title Card Required\\0,2\C,-0.6541621946,0.6148650478,-0.2861473275
 \C,-1.937271727,0.7940021712,0.1652513819\C,-3.0796368082,0.9533446599
 ,0.5670354552\C,-4.4360538938,1.1515806315,1.0503744519\H,-4.498099513
 1,2.0391081786,1.6820208799\H,-5.1316656065,1.2842333115,0.2221264177\
 H,-4.7697840058,0.2992538051,1.6416699684\H,0.0531123333,0.025613331,0
 .2766650027\H,-0.3266909075,1.059372461,-1.2131793002\\Version=ES64L-G
 16RevB.01\State=2-A'\HF=-155.0351778\MP2=-155.2382668\PUHF=-155.043587
 \PMP2-0=-155.2394649\S2=0.801226\S2-1=0.752224\S2A=0.751084\RMSD=1.711
 e-09\RMSF=5.015e-05\ZeroPoint=0.0701937\Thermal=0.0760076\Dipole=-0.32
 58248,0.0513935,0.1187223\DipoleDeriv=0.1734644,-0.113931,-0.0815643,-
 0.1149347,-0.1436787,-0.1839218,-0.0822608,-0.1841777,0.0567899,-0.408
 4831,0.0694468,0.1080682,0.06962,-0.0869093,0.0423964,0.1081884,0.0424
 405,-0.171721,0.2425658,-0.0598979,-0.1426532,-0.079205,-0.1451705,0.0
 263073,-0.1560498,0.0213854,-0.0993643,0.1519173,-0.0027131,-0.0049606
 ,0.0393657,0.1277109,-0.0184535,0.0242366,-0.0077264,0.1283032,-0.0318
 451,0.0081609,0.0373059,0.0348533,-0.0220405,-0.0882095,0.0558269,-0.0
 814049,0.0215648,-0.0851886,0.0260772,-0.0201625,0.0160141,0.0879837,0
 .0110711,-0.062934,0.0141804,-0.0224474,-0.0372967,-0.0050803,0.055480
 9,-0.0453888,-0.0148822,0.0756532,0.0633011,0.0597028,0.0325266,-0.016
 1292,0.0494338,0.0147559,0.0682804,0.0930661,0.0601707,-0.0140262,0.06
 98533,0.0461635,0.0109951,0.0285035,0.0337297,0.011395,0.1039207,0.074
 9861,0.0637178,0.0657467,0.0081847\Polar=74.4303801,-6.7123295,31.5494
 39,-15.3793973,1.1405323,37.0838479\PG=CS [SG(C4H1),X(H4)]\NImag=0\\0.
 59283514,-0.13568866,0.23956407,-0.08861318,-0.22560482,0.48060517,-0.
 28255487,0.04051013,0.07991874,1.07497816,0.04085705,-0.05071347,0.009
 43454,-0.14751656,0.08853096,0.08015945,0.00952298,-0.09314851,-0.3521
 1896,0.03294747,0.20787128,-0.06935617,0.01003546,0.02590243,-0.755474
 90,0.10172293,0.25504184,1.13475906,0.00901958,0.00286301,-0.00373760,
 0.10281725,-0.04621249,-0.03614117,-0.15205673,0.09696430,0.02519754,-
 0.00399658,-0.00426085,0.25580116,-0.03586220,-0.12199587,-0.37367895,
 0.04858435,0.21178316,0.00638441,-0.00073252,-0.00020789,-0.00911950,0
 .00159396,0.00379785,-0.25534026,0.03013489,0.07034130,0.51801559,-0.0
 0157130,0.00526657,-0.00119268,0.00404342,0.00124050,-0.00116901,0.026
 91921,-0.06006673,-0.00591220,0.00421397,0.53263323,-0.00078989,-0.001
 40651,0.00678817,0.00549745,-0.00054458,-0.00033960,0.06811004,-0.0067
 3197,-0.08347053,0.00911764,-0.00778967,0.53458206,-0.00140272,-0.0005
 7496,-0.00000667,0.00048717,-0.00062835,-0.00043269,-0.00861236,0.0274
 2644,0.02088451,-0.04366857,0.00976298,0.00669675,0.05215906,0.0014461
 0,-0.00014852,-0.00056613,-0.00385318,0.00024051,0.00080213,0.00794876
 ,-0.00112528,-0.00187788,0.00593072,-0.21917884,-0.12308238,-0.0111977
 0,0.23739469,0.00139569,-0.00005090,-0.00025504,-0.00267030,-0.0000199
 7,0.00116702,0.00736953,-0.00684329,-0.00796633,0.00403765,-0.12405933
 ,-0.13108301,-0.00980656,0.13692798,0.14167962,-0.00024997,-0.00033158
 ,0.00151357,0.00125203,-0.00007081,-0.00027184,-0.02836428,0.00541962,
 -0.01939685,-0.14828142,0.01937295,-0.12970005,0.00113399,-0.00104207,
 0.00114446,0.16785378,0.00045399,0.00007359,-0.00041841,-0.00117999,0.
 00082249,0.00046005,0.00524318,-0.00228259,0.00233402,0.01890666,-0.04
 870273,0.02555024,-0.01763132,0.00368421,-0.02091145,-0.02325031,0.049
 18763,-0.00043715,0.00022517,-0.00050314,0.00168802,-0.00037992,-0.001
 01556,0.00810757,-0.00189561,0.01386198,-0.12725084,0.02508334,-0.2039
 0525,-0.01099922,0.00306055,-0.01462732,0.13882194,-0.02676669,0.21950
 198,-0.00054539,0.00117513,-0.00075751,0.00028727,0.00033854,0.0000614
 0,-0.01679896,-0.02393393,0.01999288,-0.06731885,-0.06214694,0.0414363
 3,-0.00003623,0.00069706,-0.00153275,0.00695157,0.01718658,-0.01016855
 ,0.07770726,-0.00013281,-0.00024166,0.00030706,0.00149502,-0.00042529,
 -0.00025442,-0.00069839,0.00810471,-0.00470372,-0.06023977,-0.21119554
 ,0.11370555,-0.00716236,-0.02087476,0.01494759,-0.00020815,-0.00273615
 ,0.00070666,0.06669279,0.22740513,0.00083075,-0.00046969,0.00010754,-0
 .00186564,0.00059762,0.00119699,0.00848849,0.00540433,-0.00809065,0.03
 998690,0.11453977,-0.12237501,-0.00635328,-0.01525706,0.01110186,0.007
 87889,0.01981848,-0.01323266,-0.04921166,-0.12463448,0.13143100,-0.171
 08564,0.11234903,-0.09569624,-0.02013463,0.01535289,-0.01243332,0.0002
 0759,0.00045802,0.00030410,-0.00013094,-0.00102607,0.00085455,-0.00003
 035,0.00006262,-0.00002485,0.00003458,0.00014890,-0.00001426,-0.000316
 78,0.00021819,0.00013029,0.18264000,0.11214281,-0.11680985,0.10102814,
 0.00323254,0.00130018,-0.00065142,-0.00117542,0.00108537,0.00126185,0.
 00035233,-0.00022863,0.00051389,-0.00007510,0.00014220,-0.00014985,-0.
 00011715,0.00010088,-0.00013207,0.00003053,0.00002774,-0.00019721,-0.1
 2298273,0.11476082,-0.09533681,0.10088624,-0.12765819,0.00759100,-0.00
 766862,0.01029729,0.00265238,0.00040621,-0.00075194,-0.00014029,0.0001
 9992,-0.00007277,0.00002865,0.00004751,-0.00014642,-0.00008934,0.00008
 074,-0.00005519,0.00022635,0.00002734,-0.00021343,0.10075560,-0.107737
 88,0.12590435,-0.07402479,-0.02674204,0.07794674,-0.00972073,-0.011649
 66,0.02619627,-0.00101972,0.00071486,0.00055431,-0.00054044,0.00043177
 ,-0.00122283,-0.00002998,0.00000769,0.00008712,-0.00033028,0.00012231,
 0.00025250,0.00007010,0.00003548,0.00011525,0.00881616,0.00859220,-0.0
 1568754,0.07677968,-0.02652676,-0.07985374,0.12074989,0.00045136,0.005
 21660,-0.00551662,0.00206098,0.00066971,0.00017235,-0.00016023,0.00023
 217,-0.00021457,0.00008038,-0.00013420,0.00015921,0.00022750,-0.000147
 33,0.00009858,-0.00003977,-0.00006418,0.00019823,-0.00458085,-0.000378
 71,0.01375855,0.02848739,0.07445968,0.07759360,0.12089410,-0.26167515,
 0.00615853,0.00149566,-0.00403303,-0.00199334,0.00095475,0.00089102,0.
 00031768,0.00029988,-0.00012407,-0.00001150,-0.00005473,0.00012961,0.0
 0009922,-0.00014699,-0.00002484,-0.00004649,-0.00010158,0.00007435,0.0
 0612412,0.00606454,-0.00730370,-0.08824183,-0.12940563,0.27206581\\-0.
 00014930,0.00004779,0.00007122,-0.00002874,-0.00007331,-0.00004354,0.0
 0007150,0.00003706,0.00000749,0.00008918,0.00000154,-0.00002166,-0.000
 01974,-0.00000025,0.00000486,-0.00004446,0.00002278,-0.00002966,-0.000
 02573,-0.00002819,0.00004379,0.00005965,-0.00002004,0.00000727,0.00004
 765,0.00001261,-0.00003978\\\@


 A FOOL CAN ASK MORE QUESTIONS THAN
 A WISE MAN CAN ANSWER.
 Job cpu time:       0 days  3 hours 45 minutes 17.6 seconds.
 Elapsed time:       0 days  0 hours  5 minutes 45.8 seconds.
 File lengths (MBytes):  RWF=   9025 Int=      0 D2E=      0 Chk=      7 Scr=      1
 Normal termination of Gaussian 16 at Sun Jun  2 16:27:30 2019.
