 Entering Gaussian System, Link 0=g16
 Initial command:
 /ichec/packages/gaussian/16b01/l1.exe "/localscratch/339752/Gau-4851.inp" -scrdir="/localscratch/339752/"
 Entering Link 1 = /ichec/packages/gaussian/16b01/l1.exe PID=      4869.
  
 Copyright (c) 1988-2017, Gaussian, Inc.  All Rights Reserved.
  
 This is part of the Gaussian(R) 16 program.  It is based on
 the Gaussian(R) 09 system (copyright 2009, Gaussian, Inc.),
 the Gaussian(R) 03 system (copyright 2003, Gaussian, Inc.),
 the Gaussian(R) 98 system (copyright 1998, Gaussian, Inc.),
 the Gaussian(R) 94 system (copyright 1995, Gaussian, Inc.),
 the Gaussian 92(TM) system (copyright 1992, Gaussian, Inc.),
 the Gaussian 90(TM) system (copyright 1990, Gaussian, Inc.),
 the Gaussian 88(TM) system (copyright 1988, Gaussian, Inc.),
 the Gaussian 86(TM) system (copyright 1986, Carnegie Mellon
 University), and the Gaussian 82(TM) system (copyright 1983,
 Carnegie Mellon University). Gaussian is a federally registered
 trademark of Gaussian, Inc.
  
 This software contains proprietary and confidential information,
 including trade secrets, belonging to Gaussian, Inc.
  
 This software is provided under written license and may be
 used, copied, transmitted, or stored only in accord with that
 written license.
  
 The following legend is applicable only to US Government
 contracts under FAR:
  
                    RESTRICTED RIGHTS LEGEND
  
 Use, reproduction and disclosure by the US Government is
 subject to restrictions as set forth in subparagraphs (a)
 and (c) of the Commercial Computer Software - Restricted
 Rights clause in FAR 52.227-19.
  
 Gaussian, Inc.
 340 Quinnipiac St., Bldg. 40, Wallingford CT 06492
  
  
 ---------------------------------------------------------------
 Warning -- This program may not be used in any manner that
 competes with the business of Gaussian, Inc. or will provide
 assistance to any competitor of Gaussian, Inc.  The licensee
 of this program is prohibited from giving any competitor of
 Gaussian, Inc. access to this program.  By using this program,
 the user acknowledges that Gaussian, Inc. is engaged in the
 business of creating and licensing software in the field of
 computational chemistry and represents and warrants to the
 licensee that it is not a competitor of Gaussian, Inc. and that
 it will not use this program in any manner prohibited above.
 ---------------------------------------------------------------
  

 Cite this work as:
 Gaussian 16, Revision B.01,
 M. J. Frisch, G. W. Trucks, H. B. Schlegel, G. E. Scuseria, 
 M. A. Robb, J. R. Cheeseman, G. Scalmani, V. Barone, 
 G. A. Petersson, H. Nakatsuji, X. Li, M. Caricato, A. V. Marenich, 
 J. Bloino, B. G. Janesko, R. Gomperts, B. Mennucci, H. P. Hratchian, 
 J. V. Ortiz, A. F. Izmaylov, J. L. Sonnenberg, D. Williams-Young, 
 F. Ding, F. Lipparini, F. Egidi, J. Goings, B. Peng, A. Petrone, 
 T. Henderson, D. Ranasinghe, V. G. Zakrzewski, J. Gao, N. Rega, 
 G. Zheng, W. Liang, M. Hada, M. Ehara, K. Toyota, R. Fukuda, 
 J. Hasegawa, M. Ishida, T. Nakajima, Y. Honda, O. Kitao, H. Nakai, 
 T. Vreven, K. Throssell, J. A. Montgomery, Jr., J. E. Peralta, 
 F. Ogliaro, M. J. Bearpark, J. J. Heyd, E. N. Brothers, K. N. Kudin, 
 V. N. Staroverov, T. A. Keith, R. Kobayashi, J. Normand, 
 K. Raghavachari, A. P. Rendell, J. C. Burant, S. S. Iyengar, 
 J. Tomasi, M. Cossi, J. M. Millam, M. Klene, C. Adamo, R. Cammi, 
 J. W. Ochterski, R. L. Martin, K. Morokuma, O. Farkas, 
 J. B. Foresman, and D. J. Fox, Gaussian, Inc., Wallingford CT, 2016.
 
 ******************************************
 Gaussian 16:  ES64L-G16RevB.01 20-Dec-2017
                 2-Jun-2019 
 ******************************************
 %mem=80GB
 %nproc=40
 Will use up to   40 processors via shared memory.
 -----------------------------------------------
 # opt=maxcyc=500 freq=noraman uB2PLYPD3/cc-pvtz
 -----------------------------------------------
 1/6=500,18=20,19=15,38=1/1,3;
 2/9=110,12=2,17=6,18=5,40=1/2;
 3/5=16,6=1,11=2,25=1,30=1,71=1,74=-60,116=2/1,2,3;
 4//1;
 5/5=2,38=5/2;
 8/6=4,10=1/1;
 9/15=2,16=-3/6;
 10/5=1/2;
 6/7=2,8=2,9=2,10=2/1;
 7/12=2/1,2,3,16;
 1/6=500,18=20,19=15/3(2);
 2/9=110/2;
 99//99;
 2/9=110/2;
 3/5=16,6=1,11=2,25=1,30=1,71=1,74=-60,116=2/1,2,3;
 4/5=5,16=3,69=1/1;
 5/5=2,38=5/2;
 8/6=4,10=1/1;
 9/15=2,16=-3/6;
 10/5=1/2;
 7/12=2/1,2,3,16;
 1/6=500,18=20,19=15/3(-8);
 2/9=110/2;
 6/7=2,8=2,9=2,10=2/1;
 99/9=10/99;
 -------------------
 Title Card Required
 -------------------
 Symbolic Z-matrix:
 Charge =  0 Multiplicity = 1
 C                    -0.58433   0.36479  -0.47747 
 C                    -1.98894   0.65607   0.08272 
 C                    -3.07888   0.8821    0.51741 
 C                    -4.4835    1.17339   1.0776 
 H                    -4.45061   2.05598   1.68162 
 H                    -5.167     1.32076   0.26766 
 H                    -4.80881   0.34581   1.67274 
 H                     0.09918   0.21742   0.33247 
 H                    -0.61721  -0.51781  -1.0815 
 H                    -0.25901   1.19236  -1.07261 
 

 GradGradGradGradGradGradGradGradGradGradGradGradGradGradGradGradGradGrad
 Berny optimization.
 Initialization pass.
                           ----------------------------
                           !    Initial Parameters    !
                           ! (Angstroms and Degrees)  !
 --------------------------                            --------------------------
 ! Name  Definition              Value          Derivative Info.                !
 --------------------------------------------------------------------------------
 ! R1    R(1,2)                  1.54           estimate D2E/DX2                !
 ! R2    R(1,8)                  1.07           estimate D2E/DX2                !
 ! R3    R(1,9)                  1.07           estimate D2E/DX2                !
 ! R4    R(1,10)                 1.07           estimate D2E/DX2                !
 ! R5    R(2,3)                  1.195          estimate D2E/DX2                !
 ! R6    R(3,4)                  1.54           estimate D2E/DX2                !
 ! R7    R(4,5)                  1.07           estimate D2E/DX2                !
 ! R8    R(4,6)                  1.07           estimate D2E/DX2                !
 ! R9    R(4,7)                  1.07           estimate D2E/DX2                !
 ! A1    A(2,1,8)              109.4712         estimate D2E/DX2                !
 ! A2    A(2,1,9)              109.4712         estimate D2E/DX2                !
 ! A3    A(2,1,10)             109.4712         estimate D2E/DX2                !
 ! A4    A(8,1,9)              109.4712         estimate D2E/DX2                !
 ! A5    A(8,1,10)             109.4712         estimate D2E/DX2                !
 ! A6    A(9,1,10)             109.4712         estimate D2E/DX2                !
 ! A7    A(3,4,5)              109.4712         estimate D2E/DX2                !
 ! A8    A(3,4,6)              109.4712         estimate D2E/DX2                !
 ! A9    A(3,4,7)              109.4712         estimate D2E/DX2                !
 ! A10   A(5,4,6)              109.4712         estimate D2E/DX2                !
 ! A11   A(5,4,7)              109.4712         estimate D2E/DX2                !
 ! A12   A(6,4,7)              109.4712         estimate D2E/DX2                !
 ! A13   L(1,2,3,8,-1)         180.0            estimate D2E/DX2                !
 ! A14   L(2,3,4,5,-1)         180.0            estimate D2E/DX2                !
 ! A15   L(1,2,3,8,-2)         180.0            estimate D2E/DX2                !
 ! A16   L(2,3,4,5,-2)         180.0            estimate D2E/DX2                !
 ! D1    D(8,1,4,5)             60.0            estimate D2E/DX2                !
 ! D2    D(8,1,4,6)           -180.0            estimate D2E/DX2                !
 ! D3    D(8,1,4,7)            -60.0            estimate D2E/DX2                !
 ! D4    D(9,1,4,5)            180.0            estimate D2E/DX2                !
 ! D5    D(9,1,4,6)            -60.0            estimate D2E/DX2                !
 ! D6    D(9,1,4,7)             60.0            estimate D2E/DX2                !
 ! D7    D(10,1,4,5)           -60.0            estimate D2E/DX2                !
 ! D8    D(10,1,4,6)            60.0            estimate D2E/DX2                !
 ! D9    D(10,1,4,7)          -180.0            estimate D2E/DX2                !
 --------------------------------------------------------------------------------
 Trust Radius=3.00D-01 FncErr=1.00D-07 GrdErr=1.00D-07 EigMax=2.50D+02 EigMin=1.00D-04
 Number of steps in this run=    100 maximum allowed number of steps=    100.
 GradGradGradGradGradGradGradGradGradGradGradGradGradGradGradGradGradGrad

                          Input orientation:                          
 ---------------------------------------------------------------------
 Center     Atomic      Atomic             Coordinates (Angstroms)
 Number     Number       Type             X           Y           Z
 ---------------------------------------------------------------------
      1          6           0       -0.584325    0.364787   -0.477473
      2          6           0       -1.988939    0.656072    0.082717
      3          6           0       -3.078883    0.882102    0.517410
      4          6           0       -4.483497    1.173388    1.077600
      5          1           0       -4.450613    2.055983    1.681624
      6          1           0       -5.167002    1.320755    0.267660
      7          1           0       -4.808808    0.345812    1.672740
      8          1           0        0.099180    0.217420    0.332468
      9          1           0       -0.617208   -0.517808   -1.081496
     10          1           0       -0.259014    1.192363   -1.072612
 ---------------------------------------------------------------------
                    Distance matrix (angstroms):
                    1          2          3          4          5
     1  C    0.000000
     2  C    1.540000   0.000000
     3  C    2.735000   1.195000   0.000000
     4  C    4.275000   2.735000   1.540000   0.000000
     5  H    4.740256   3.252090   2.148263   1.070000   0.000000
     6  H    4.740256   3.252090   2.148263   1.070000   1.747303
     7  H    4.740256   3.252090   2.148263   1.070000   1.747303
     8  H    1.070000   2.148263   3.252090   4.740256   5.089318
     9  H    1.070000   2.148263   3.252090   4.740256   5.380913
    10  H    1.070000   2.148263   3.252090   4.740256   5.089318
                    6          7          8          9         10
     6  H    0.000000
     7  H    1.747303   0.000000
     8  H    5.380913   5.089318   0.000000
     9  H    5.089318   5.089318   1.747303   0.000000
    10  H    5.089318   5.380913   1.747303   1.747303   0.000000
 Stoichiometry    C4H6
 Framework group  D3D[C3(CC.CC),3SGD(H2)]
 Deg. of freedom     4
 Full point group                 D3D     NOp  12
 Largest Abelian subgroup         C2H     NOp   4
 Largest concise Abelian subgroup C2H     NOp   4
                         Standard orientation:                         
 ---------------------------------------------------------------------
 Center     Atomic      Atomic             Coordinates (Angstroms)
 Number     Number       Type             X           Y           Z
 ---------------------------------------------------------------------
      1          6           0        0.000000   -0.000000    2.137500
      2          6           0        0.000000   -0.000000    0.597500
      3          6           0        0.000000   -0.000000   -0.597500
      4          6           0        0.000000   -0.000000   -2.137500
      5          1           0        0.873651    0.504403   -2.494167
      6          1           0       -0.000000   -1.008806   -2.494167
      7          1           0       -0.873651    0.504403   -2.494167
      8          1           0        0.000000    1.008806    2.494167
      9          1           0       -0.873651   -0.504403    2.494167
     10          1           0        0.873651   -0.504403    2.494167
 ---------------------------------------------------------------------
 Rotational constants (GHZ):          82.1231823           3.1801618           3.1801618
 Standard basis: CC-pVTZ (5D, 7F)
 There are    74 symmetry adapted cartesian basis functions of AG  symmetry.
 There are    41 symmetry adapted cartesian basis functions of BG  symmetry.
 There are    41 symmetry adapted cartesian basis functions of AU  symmetry.
 There are    74 symmetry adapted cartesian basis functions of BU  symmetry.
 There are    64 symmetry adapted basis functions of AG  symmetry.
 There are    38 symmetry adapted basis functions of BG  symmetry.
 There are    38 symmetry adapted basis functions of AU  symmetry.
 There are    64 symmetry adapted basis functions of BU  symmetry.
   204 basis functions,   310 primitive gaussians,   230 cartesian basis functions
    15 alpha electrons       15 beta electrons
       nuclear repulsion energy        98.3541885717 Hartrees.
 NAtoms=   10 NActive=   10 NUniq=    3 SFac= 4.00D+00 NAtFMM=   60 NAOKFM=F Big=F
 Integral buffers will be    131072 words long.
 Raffenetti 2 integral format.
 Two-electron integral symmetry is turned on.
 Nuclear repulsion after empirical dispersion term =       98.3501078703 Hartrees.
 One-electron integrals computed using PRISM.
 NBasis=   204 RedAO= T EigKep=  1.72D-05  NBF=    64    38    38    64
 NBsUse=   204 1.00D-06 EigRej= -1.00D+00 NBFU=    64    38    38    64
 ExpMin= 1.03D-01 ExpMax= 8.24D+03 ExpMxC= 2.81D+02 IAcc=3 IRadAn=         5 AccDes= 0.00D+00
 Harris functional with IExCor=  419 and IRadAn=       5 diagonalized for initial guess.
 HarFok:  IExCor=  419 AccDes= 0.00D+00 IRadAn=         5 IDoV= 1 UseB2=F ITyADJ=14
 ICtDFT=  3500011 ScaDFX=  1.000000  1.000000  1.000000  1.000000
 FoFCou: FMM=F IPFlag=           0 FMFlag=      100000 FMFlg1=           0
         NFxFlg=           0 DoJE=T BraDBF=F KetDBF=T FulRan=T
         wScrn=  0.000000 ICntrl=       500 IOpCl=  0 I1Cent=   200000004 NGrid=           0
         NMat0=    1 NMatS0=      1 NMatT0=    0 NMatD0=    1 NMtDS0=    0 NMtDT0=    0
 Petite list used in FoFCou.
 Initial guess orbital symmetries:
 Alpha Orbitals:
       Occupied  (A2U) (A1G) (A1G) (A2U) (A1G) (A2U) (A1G) (A2U)
                 (A1G) (EU) (EU) (EG) (EG) (EU) (EU)
       Virtual   (EG) (EG) (A2U) (A1G) (A2U) (EU) (EU) (A1G) (EG)
                 (EG) (A1G) (A2U) (EU) (EU) (EG) (EG) (EU) (EU)
                 (EG) (EG) (EU) (EU) (A1G) (A2U) (A2U) (EG) (EG)
                 (A1G) (EU) (EU) (EG) (EG) (A1G) (A2U) (A2U) (A1G)
                 (EU) (EU) (EG) (EG) (A1U) (A2G) (EG) (EG) (A2U)
                 (EU) (EU) (EU) (EU) (A2U) (A1G) (EG) (EG) (A2U)
                 (EU) (EU) (EG) (EG) (A1G) (EU) (EU) (EG) (EG)
                 (A1G) (EU) (EU) (A2U) (A1G) (EG) (EG) (EU) (EU)
                 (A2U) (EG) (EG) (EU) (EU) (A1G) (A2U) (EG) (EG)
                 (A2U) (A1G) (A1U) (A2U) (EG) (EG) (EU) (EU) (A2U)
                 (A1G) (A1G) (EG) (EG) (EU) (EU) (A2G) (A1U) (EU)
                 (EU) (EG) (EG) (A1G) (EU) (EU) (EG) (EG) (A2G)
                 (EG) (EG) (EU) (EU) (A1G) (EU) (EU) (EG) (EG)
                 (A2U) (A1U) (A2G) (A2U) (EG) (EG) (A1G) (EU) (EU)
                 (EG) (EG) (EU) (EU) (A2U) (A1G) (EU) (EU) (EG)
                 (EG) (A2U) (EU) (EU) (EU) (EU) (EG) (EG) (A1G)
                 (EG) (EG) (A1U) (A2G) (EG) (EG) (A2U) (EU) (EU)
                 (A1G) (A2U) (A1G) (EU) (EU) (A2U) (EG) (EG) (A1G)
                 (EU) (EU) (EG) (EG) (A2U) (A1U) (EU) (EU) (A2G)
                 (A1G) (A2U) (EU) (EU) (EG) (EG) (A1G) (EG) (EG)
                 (EU) (EU) (EG) (EG) (A2U) (A1G) (A1G) (A2U) (A2U)
 Beta  Orbitals:
       Occupied  (A2U) (A1G) (A1G) (A2U) (A1G) (A2U) (A1G) (A2U)
                 (A1G) (EU) (EU) (EG) (EG) (EU) (EU)
       Virtual   (EG) (EG) (A2U) (A1G) (A2U) (EU) (EU) (A1G) (EG)
                 (EG) (A1G) (A2U) (EU) (EU) (EG) (EG) (EU) (EU)
                 (EG) (EG) (EU) (EU) (A1G) (A2U) (A2U) (EG) (EG)
                 (A1G) (EU) (EU) (EG) (EG) (A1G) (A2U) (A2U) (A1G)
                 (EU) (EU) (EG) (EG) (A1U) (A2G) (EG) (EG) (A2U)
                 (EU) (EU) (EU) (EU) (A2U) (A1G) (EG) (EG) (A2U)
                 (EU) (EU) (EG) (EG) (A1G) (EU) (EU) (EG) (EG)
                 (A1G) (EU) (EU) (A2U) (A1G) (EG) (EG) (EU) (EU)
                 (A2U) (EG) (EG) (EU) (EU) (A1G) (A2U) (EG) (EG)
                 (A2U) (A1G) (A1U) (A2U) (EG) (EG) (EU) (EU) (A2U)
                 (A1G) (A1G) (EG) (EG) (EU) (EU) (A2G) (A1U) (EU)
                 (EU) (EG) (EG) (A1G) (EU) (EU) (EG) (EG) (A2G)
                 (EG) (EG) (EU) (EU) (A1G) (EU) (EU) (EG) (EG)
                 (A2U) (A1U) (A2G) (A2U) (EG) (EG) (A1G) (EU) (EU)
                 (EG) (EG) (EU) (EU) (A2U) (A1G) (EU) (EU) (EG)
                 (EG) (A2U) (EU) (EU) (EU) (EU) (EG) (EG) (A1G)
                 (EG) (EG) (A1U) (A2G) (EG) (EG) (A2U) (EU) (EU)
                 (A1G) (A2U) (A1G) (EU) (EU) (A2U) (EG) (EG) (A1G)
                 (EU) (EU) (EG) (EG) (A2U) (A1U) (EU) (EU) (A2G)
                 (A1G) (A2U) (EU) (EU) (EG) (EG) (A1G) (EG) (EG)
                 (EU) (EU) (EG) (EG) (A2U) (A1G) (A1G) (A2U) (A2U)
 The electronic state of the initial guess is 1-A1G.
 Initial guess <Sx>= 0.0000 <Sy>= 0.0000 <Sz>= 0.0000 <S**2>=-0.0000 S=-0.0000
 Keep R1 and R2 ints in memory in symmetry-blocked form, NReq=273604057.
 Requested convergence on RMS density matrix=1.00D-08 within 128 cycles.
 Requested convergence on MAX density matrix=1.00D-06.
 Requested convergence on             energy=1.00D-06.
 No special actions if energy rises.
 Integral accuracy reduced to 1.0D-05 until final iterations.
 Initial convergence to 1.0D-05 achieved.  Increase integral accuracy.
 SCF Done:  E(UB2PLYPD3) =  -155.667357689     A.U. after   10 cycles
            NFock= 10  Conv=0.34D-08     -V/T= 2.0051
 <Sx>= 0.0000 <Sy>= 0.0000 <Sz>= 0.0000 <S**2>=-0.0000 S=-0.0000
 <L.S>=  0.00000000000    
 Annihilation of the first spin contaminant:
 S**2 before annihilation    -0.0000,   after     0.0000
 DoSCS=T DFT=T ScalE2(SS,OS)=  0.270000  0.270000
 ExpMin= 1.03D-01 ExpMax= 8.24D+03 ExpMxC= 2.81D+02 IAcc=3 IRadAn=         5 AccDes= 0.00D+00
 HarFok:  IExCor=  205 AccDes= 0.00D+00 IRadAn=         5 IDoV=-2 UseB2=F ITyADJ=14
 ICtDFT= 12500011 ScaDFX=  1.000000  1.000000  1.000000  1.000000
 Range of M.O.s used for correlation:     5   204
 NBasis=   204 NAE=    15 NBE=    15 NFC=     4 NFV=     0
 NROrb=    200 NOA=    11 NOB=    11 NVA=   189 NVB=   189

 **** Warning!!: The largest alpha MO coefficient is  0.64215131D+02


 **** Warning!!: The largest beta MO coefficient is  0.64215131D+02

 DoSCS=T DFT=T ScalE2(SS,OS)=  0.270000  0.270000
 Fully direct method using O(ONN) memory.
 JobTyp=2 Pass  1:  I=   5 to  15 NPSUse= 40 ParTrn=T ParDer=T DoDerP=T.
 JobTyp=3 Pass  1:  I=   5 to  15 NPSUse= 40 ParTrn=T ParDer=T DoDerP=T.
 Spin components of T(2) and E(2):
     alpha-alpha T2 =       0.4295469168D-01 E2=     -0.2483687467D-01
     alpha-beta  T2 =       0.2599892972D+00 E2=     -0.1651144301D+00
     beta-beta   T2 =       0.4295469168D-01 E2=     -0.2483687467D-01
 (S**2,0)=  0.00000D+00           (S**2,1)=  0.00000D+00
 E(PUHF)=      -0.15566735769D+03        E(PMP2)=      -0.15588214587D+03
 E2(B2PLYPD3) =    -0.2147881794D+00 E(B2PLYPD3) =    -0.15588214586848D+03
          IDoAtm=1111111111
          Differentiating once with respect to electric field.
                with respect to dipole field.
          Differentiating once with respect to nuclear coordinates.
 Keep R1 and R2 ints in memory in symmetry-blocked form, NReq=273606019.
          There are     1 degrees of freedom in the 1st order CPHF.  IDoFFX=0 NUNeed=     1.
 LinEq1:  Iter=  0 NonCon=     1 RMS=6.52D-04 Max=1.05D-02 NDo=     1
 AX will form     1 AO Fock derivatives at one time.
 LinEq1:  Iter=  1 NonCon=     1 RMS=2.35D-04 Max=4.93D-03 NDo=     1
 LinEq1:  Iter=  2 NonCon=     1 RMS=4.72D-05 Max=6.84D-04 NDo=     1
 LinEq1:  Iter=  3 NonCon=     1 RMS=5.72D-06 Max=1.07D-04 NDo=     1
 LinEq1:  Iter=  4 NonCon=     1 RMS=8.90D-07 Max=1.94D-05 NDo=     1
 LinEq1:  Iter=  5 NonCon=     1 RMS=4.41D-07 Max=5.96D-06 NDo=     1
 LinEq1:  Iter=  6 NonCon=     1 RMS=6.31D-08 Max=1.02D-06 NDo=     1
 LinEq1:  Iter=  7 NonCon=     1 RMS=1.08D-08 Max=1.62D-07 NDo=     1
 LinEq1:  Iter=  8 NonCon=     1 RMS=1.03D-09 Max=1.37D-08 NDo=     1
 LinEq1:  Iter=  9 NonCon=     1 RMS=8.29D-11 Max=1.02D-09 NDo=     1
 LinEq1:  Iter= 10 NonCon=     0 RMS=5.25D-12 Max=6.54D-11 NDo=     1
 Linear equations converged to 1.000D-10 1.000D-09 after    10 iterations.
 End of Minotr F.D. properties file   721 does not exist.
 End of Minotr F.D. properties file   722 does not exist.
 End of Minotr F.D. properties file   788 does not exist.

 **********************************************************************

            Population analysis using the SCF Density.

 **********************************************************************

 Orbital symmetries:
 Alpha Orbitals:
       Occupied  (A2U) (A1G) (A1G) (A2U) (A1G) (A2U) (A1G) (A2U)
                 (EU) (EU) (EG) (EG) (A1G) (EU) (EU)
       Virtual   (A1G) (A2U) (EG) (EG) (EU) (EU) (EG) (EG) (A2U)
                 (A1G) (EU) (EU) (EG) (EG) (A1G) (A2U) (EU) (EU)
                 (A2U) (EU) (EU) (EG) (EG) (A1G) (A2U) (EG) (EG)
                 (A1G) (EU) (EU) (EG) (EG) (A1G) (A2U) (A1G) (A2U)
                 (EG) (EG) (EU) (EU) (A2G) (A1U) (A2U) (EG) (EG)
                 (EU) (EU) (EU) (EU) (EG) (EG) (A1G) (A2U) (A2U)
                 (A1G) (EU) (EU) (EG) (EG) (EU) (EU) (EG) (EG)
                 (A1G) (EU) (EU) (A2U) (A1G) (EG) (EG) (EU) (EU)
                 (A2U) (EG) (EG) (EU) (EU) (A1G) (A2U) (EG) (EG)
                 (A2U) (A1G) (A1U) (A2U) (A2U) (EG) (EG) (EU) (EU)
                 (A1G) (A1G) (EG) (EG) (A2G) (EU) (EU) (A1U) (EU)
                 (EU) (EG) (EG) (A1G) (A2G) (EG) (EG) (EU) (EU)
                 (EG) (EG) (EU) (EU) (A1G) (EU) (EU) (EG) (EG)
                 (A2U) (A1U) (A2G) (EG) (EG) (A2U) (EU) (EU) (A1G)
                 (EG) (EG) (EU) (EU) (A2U) (EU) (EU) (A1G) (EG)
                 (EG) (A2U) (EU) (EU) (EG) (EG) (EU) (EU) (A1G)
                 (A1U) (A2G) (EG) (EG) (EG) (EG) (A2U) (EU) (EU)
                 (A1G) (A2U) (A1G) (EU) (EU) (A2U) (EG) (EG) (A1G)
                 (EU) (EU) (EG) (EG) (A1U) (A2G) (EU) (EU) (A2U)
                 (A1G) (A2U) (EG) (EG) (EU) (EU) (EG) (EG) (A1G)
                 (EU) (EU) (EG) (EG) (A2U) (A1G) (A1G) (A2U) (A2U)
 Beta  Orbitals:
       Occupied  (A2U) (A1G) (A1G) (A2U) (A1G) (A2U) (A1G) (A2U)
                 (EU) (EU) (EG) (EG) (A1G) (EU) (EU)
       Virtual   (A1G) (A2U) (EG) (EG) (EU) (EU) (EG) (EG) (A2U)
                 (A1G) (EU) (EU) (EG) (EG) (A1G) (A2U) (EU) (EU)
                 (A2U) (EU) (EU) (EG) (EG) (A1G) (A2U) (EG) (EG)
                 (A1G) (EU) (EU) (EG) (EG) (A1G) (A2U) (A1G) (A2U)
                 (EG) (EG) (EU) (EU) (A2G) (A1U) (A2U) (EG) (EG)
                 (EU) (EU) (EU) (EU) (EG) (EG) (A1G) (A2U) (A2U)
                 (A1G) (EU) (EU) (EG) (EG) (EU) (EU) (EG) (EG)
                 (A1G) (EU) (EU) (A2U) (A1G) (EG) (EG) (EU) (EU)
                 (A2U) (EG) (EG) (EU) (EU) (A1G) (A2U) (EG) (EG)
                 (A2U) (A1G) (A1U) (A2U) (A2U) (EG) (EG) (EU) (EU)
                 (A1G) (A1G) (EG) (EG) (A2G) (EU) (EU) (A1U) (EU)
                 (EU) (EG) (EG) (A1G) (A2G) (EG) (EG) (EU) (EU)
                 (EG) (EG) (EU) (EU) (A1G) (EU) (EU) (EG) (EG)
                 (A2U) (A1U) (A2G) (EG) (EG) (A2U) (EU) (EU) (A1G)
                 (EG) (EG) (EU) (EU) (A2U) (EU) (EU) (A1G) (EG)
                 (EG) (A2U) (EU) (EU) (EG) (EG) (EU) (EU) (A1G)
                 (A1U) (A2G) (EG) (EG) (EG) (EG) (A2U) (EU) (EU)
                 (A1G) (A2U) (A1G) (EU) (EU) (A2U) (EG) (EG) (A1G)
                 (EU) (EU) (EG) (EG) (A1U) (A2G) (EU) (EU) (A2U)
                 (A1G) (A2U) (EG) (EG) (EU) (EU) (EG) (EG) (A1G)
                 (EU) (EU) (EG) (EG) (A2U) (A1G) (A1G) (A2U) (A2U)
 The electronic state is 1-A1G.
 Alpha  occ. eigenvalues --  -10.62959 -10.62958 -10.60337 -10.60016  -0.88765
 Alpha  occ. eigenvalues --   -0.84303  -0.77904  -0.53607  -0.50030  -0.50030
 Alpha  occ. eigenvalues --   -0.48978  -0.48978  -0.48336  -0.30405  -0.30405
 Alpha virt. eigenvalues --    0.08561   0.09498   0.12287   0.12287   0.15803
 Alpha virt. eigenvalues --    0.15803   0.18323   0.18323   0.21184   0.21580
 Alpha virt. eigenvalues --    0.31761   0.31761   0.31869   0.31869   0.32369
 Alpha virt. eigenvalues --    0.34044   0.41462   0.41462   0.46823   0.52352
 Alpha virt. eigenvalues --    0.52352   0.53493   0.53493   0.53532   0.54497
 Alpha virt. eigenvalues --    0.56254   0.56254   0.59078   0.67612   0.67612
 Alpha virt. eigenvalues --    0.69389   0.69389   0.72968   0.78701   0.82374
 Alpha virt. eigenvalues --    0.89724   0.90913   0.90913   0.92783   0.92783
 Alpha virt. eigenvalues --    0.95638   0.95639   1.06288   1.06622   1.06622
 Alpha virt. eigenvalues --    1.09741   1.09741   1.15944   1.15944   1.17791
 Alpha virt. eigenvalues --    1.17791   1.19461   1.25452   1.29473   1.36910
 Alpha virt. eigenvalues --    1.38590   1.38590   1.39283   1.39283   1.42859
 Alpha virt. eigenvalues --    1.42859   1.45398   1.45398   1.55904   1.59076
 Alpha virt. eigenvalues --    1.59076   1.64656   1.69514   1.74032   1.74032
 Alpha virt. eigenvalues --    2.17488   2.17488   2.26199   2.32015   2.32015
 Alpha virt. eigenvalues --    2.36273   2.36273   2.39585   2.51327   2.57540
 Alpha virt. eigenvalues --    2.57540   2.58547   2.61336   2.65185   2.67980
 Alpha virt. eigenvalues --    2.75559   2.76277   2.76277   2.76821   2.76821
 Alpha virt. eigenvalues --    2.82062   2.83314   2.90373   2.90373   2.91853
 Alpha virt. eigenvalues --    2.93549   2.93549   2.95055   3.01040   3.01040
 Alpha virt. eigenvalues --    3.02309   3.02309   3.07582   3.09890   3.10704
 Alpha virt. eigenvalues --    3.10704   3.11653   3.11653   3.19740   3.19740
 Alpha virt. eigenvalues --    3.21927   3.21927   3.28893   3.32114   3.32114
 Alpha virt. eigenvalues --    3.38332   3.38332   3.40560   3.43302   3.43581
 Alpha virt. eigenvalues --    3.50215   3.50215   3.53498   3.55878   3.55878
 Alpha virt. eigenvalues --    3.59466   3.63110   3.63110   3.64736   3.64736
 Alpha virt. eigenvalues --    3.78521   3.84093   3.84093   3.85369   3.85847
 Alpha virt. eigenvalues --    3.85847   4.01055   4.01400   4.01400   4.07197
 Alpha virt. eigenvalues --    4.07197   4.07325   4.07325   4.08542   4.22523
 Alpha virt. eigenvalues --    4.22609   4.24406   4.24406   4.38000   4.38000
 Alpha virt. eigenvalues --    4.40195   4.43175   4.43175   4.44376   4.54603
 Alpha virt. eigenvalues --    4.58979   4.73627   4.73627   4.93753   4.97257
 Alpha virt. eigenvalues --    4.97257   5.08662   5.09766   5.09766   5.24895
 Alpha virt. eigenvalues --    5.24895   5.34092   5.35015   5.35087   5.35087
 Alpha virt. eigenvalues --    5.37954   5.40194   5.45607   5.48457   5.48457
 Alpha virt. eigenvalues --    5.48680   5.48680   5.79861   5.79861   5.85190
 Alpha virt. eigenvalues --    5.99841   5.99841   6.00372   6.00372   6.10219
 Alpha virt. eigenvalues --    6.81450  13.67753  13.76876  18.40106
  Beta  occ. eigenvalues --  -10.62959 -10.62958 -10.60337 -10.60016  -0.88765
  Beta  occ. eigenvalues --   -0.84303  -0.77904  -0.53607  -0.50030  -0.50030
  Beta  occ. eigenvalues --   -0.48978  -0.48978  -0.48336  -0.30405  -0.30405
  Beta virt. eigenvalues --    0.08561   0.09498   0.12287   0.12287   0.15803
  Beta virt. eigenvalues --    0.15803   0.18323   0.18323   0.21184   0.21580
  Beta virt. eigenvalues --    0.31761   0.31761   0.31869   0.31869   0.32369
  Beta virt. eigenvalues --    0.34044   0.41462   0.41462   0.46823   0.52352
  Beta virt. eigenvalues --    0.52352   0.53493   0.53493   0.53532   0.54497
  Beta virt. eigenvalues --    0.56254   0.56254   0.59078   0.67612   0.67612
  Beta virt. eigenvalues --    0.69389   0.69389   0.72968   0.78701   0.82374
  Beta virt. eigenvalues --    0.89724   0.90913   0.90913   0.92783   0.92783
  Beta virt. eigenvalues --    0.95638   0.95639   1.06288   1.06622   1.06622
  Beta virt. eigenvalues --    1.09741   1.09741   1.15944   1.15944   1.17791
  Beta virt. eigenvalues --    1.17791   1.19461   1.25452   1.29473   1.36910
  Beta virt. eigenvalues --    1.38590   1.38590   1.39283   1.39283   1.42859
  Beta virt. eigenvalues --    1.42859   1.45398   1.45398   1.55904   1.59076
  Beta virt. eigenvalues --    1.59076   1.64656   1.69514   1.74032   1.74032
  Beta virt. eigenvalues --    2.17488   2.17488   2.26199   2.32015   2.32015
  Beta virt. eigenvalues --    2.36273   2.36273   2.39585   2.51327   2.57540
  Beta virt. eigenvalues --    2.57540   2.58547   2.61336   2.65185   2.67980
  Beta virt. eigenvalues --    2.75559   2.76277   2.76277   2.76821   2.76821
  Beta virt. eigenvalues --    2.82062   2.83314   2.90373   2.90373   2.91853
  Beta virt. eigenvalues --    2.93549   2.93549   2.95055   3.01040   3.01040
  Beta virt. eigenvalues --    3.02309   3.02309   3.07582   3.09890   3.10704
  Beta virt. eigenvalues --    3.10704   3.11653   3.11653   3.19740   3.19740
  Beta virt. eigenvalues --    3.21927   3.21927   3.28893   3.32114   3.32114
  Beta virt. eigenvalues --    3.38332   3.38332   3.40560   3.43302   3.43581
  Beta virt. eigenvalues --    3.50215   3.50215   3.53498   3.55878   3.55878
  Beta virt. eigenvalues --    3.59466   3.63110   3.63110   3.64736   3.64736
  Beta virt. eigenvalues --    3.78521   3.84093   3.84093   3.85369   3.85847
  Beta virt. eigenvalues --    3.85847   4.01055   4.01400   4.01400   4.07197
  Beta virt. eigenvalues --    4.07197   4.07325   4.07325   4.08542   4.22523
  Beta virt. eigenvalues --    4.22609   4.24406   4.24406   4.38000   4.38000
  Beta virt. eigenvalues --    4.40195   4.43175   4.43175   4.44376   4.54603
  Beta virt. eigenvalues --    4.58979   4.73627   4.73627   4.93753   4.97257
  Beta virt. eigenvalues --    4.97257   5.08662   5.09766   5.09766   5.24895
  Beta virt. eigenvalues --    5.24895   5.34092   5.35015   5.35087   5.35087
  Beta virt. eigenvalues --    5.37954   5.40194   5.45607   5.48457   5.48457
  Beta virt. eigenvalues --    5.48680   5.48680   5.79861   5.79861   5.85190
  Beta virt. eigenvalues --    5.99841   5.99841   6.00372   6.00372   6.10219
  Beta virt. eigenvalues --    6.81450  13.67753  13.76876  18.40106
          Condensed to atoms (all electrons):
               1          2          3          4          5          6
     1  C    4.746328   0.411974  -0.080755  -0.000551   0.000016   0.000016
     2  C    0.411974   5.262209   0.575809  -0.080755   0.000838   0.000838
     3  C   -0.080755   0.575809   5.262209   0.411974  -0.037574  -0.037574
     4  C   -0.000551  -0.080755   0.411974   4.746328   0.411845   0.411845
     5  H    0.000016   0.000838  -0.037574   0.411845   0.559215  -0.029124
     6  H    0.000016   0.000838  -0.037574   0.411845  -0.029124   0.559215
     7  H    0.000016   0.000838  -0.037574   0.411845  -0.029124  -0.029124
     8  H    0.411845  -0.037574   0.000838   0.000016   0.000034  -0.000032
     9  H    0.411845  -0.037574   0.000838   0.000016  -0.000032   0.000034
    10  H    0.411845  -0.037574   0.000838   0.000016   0.000034   0.000034
               7          8          9         10
     1  C    0.000016   0.411845   0.411845   0.411845
     2  C    0.000838  -0.037574  -0.037574  -0.037574
     3  C   -0.037574   0.000838   0.000838   0.000838
     4  C    0.411845   0.000016   0.000016   0.000016
     5  H   -0.029124   0.000034  -0.000032   0.000034
     6  H   -0.029124  -0.000032   0.000034   0.000034
     7  H    0.559215   0.000034   0.000034  -0.000032
     8  H    0.000034   0.559215  -0.029124  -0.029124
     9  H    0.000034  -0.029124   0.559215  -0.029124
    10  H   -0.000032  -0.029124  -0.029124   0.559215
          Atomic-Atomic Spin Densities.
               1          2          3          4          5          6
     1  C   -0.000000   0.000000   0.000000   0.000000   0.000000   0.000000
     2  C    0.000000  -0.000000   0.000000   0.000000   0.000000   0.000000
     3  C    0.000000   0.000000  -0.000000   0.000000   0.000000   0.000000
     4  C    0.000000   0.000000   0.000000  -0.000000  -0.000000  -0.000000
     5  H    0.000000   0.000000   0.000000  -0.000000   0.000000  -0.000000
     6  H    0.000000   0.000000   0.000000  -0.000000  -0.000000   0.000000
     7  H    0.000000   0.000000   0.000000  -0.000000  -0.000000  -0.000000
     8  H   -0.000000   0.000000   0.000000   0.000000   0.000000   0.000000
     9  H   -0.000000   0.000000   0.000000   0.000000   0.000000   0.000000
    10  H   -0.000000   0.000000   0.000000   0.000000   0.000000   0.000000
               7          8          9         10
     1  C    0.000000  -0.000000  -0.000000  -0.000000
     2  C    0.000000   0.000000   0.000000   0.000000
     3  C    0.000000   0.000000   0.000000   0.000000
     4  C   -0.000000   0.000000   0.000000   0.000000
     5  H   -0.000000   0.000000   0.000000   0.000000
     6  H   -0.000000   0.000000   0.000000   0.000000
     7  H    0.000000   0.000000   0.000000   0.000000
     8  H    0.000000   0.000000  -0.000000  -0.000000
     9  H    0.000000  -0.000000   0.000000  -0.000000
    10  H    0.000000  -0.000000  -0.000000   0.000000
 Mulliken charges and spin densities:
               1          2
     1  C   -0.312580  -0.000000
     2  C   -0.059031   0.000000
     3  C   -0.059031   0.000000
     4  C   -0.312580  -0.000000
     5  H    0.123871  -0.000000
     6  H    0.123871  -0.000000
     7  H    0.123871  -0.000000
     8  H    0.123871  -0.000000
     9  H    0.123871  -0.000000
    10  H    0.123871  -0.000000
 Sum of Mulliken charges =  -0.00000  -0.00000
 Mulliken charges and spin densities with hydrogens summed into heavy atoms:
               1          2
     1  C    0.059031  -0.000000
     2  C   -0.059031   0.000000
     3  C   -0.059031   0.000000
     4  C    0.059031  -0.000000
 Electronic spatial extent (au):  <R**2>=            418.3082
 Charge=             -0.0000 electrons
 Dipole moment (field-independent basis, Debye):
    X=              0.0000    Y=              0.0000    Z=             -0.0000  Tot=              0.0000
 Quadrupole moment (field-independent basis, Debye-Ang):
   XX=            -25.8625   YY=            -25.8625   ZZ=            -18.3823
   XY=              0.0000   XZ=              0.0000   YZ=             -0.0000
 Traceless Quadrupole moment (field-independent basis, Debye-Ang):
   XX=             -2.4934   YY=             -2.4934   ZZ=              4.9868
   XY=              0.0000   XZ=              0.0000   YZ=             -0.0000
 Octapole moment (field-independent basis, Debye-Ang**2):
  XXX=             -0.0000  YYY=              0.0000  ZZZ=             -0.0000  XYY=             -0.0000
  XXY=              0.0000  XXZ=             -0.0000  XZZ=              0.0000  YZZ=              0.0000
  YYZ=             -0.0000  XYZ=             -0.0000
 Hexadecapole moment (field-independent basis, Debye-Ang**3):
 XXXX=            -41.4183 YYYY=            -41.4183 ZZZZ=           -472.0937 XXXY=             -0.0000
 XXXZ=             -0.0000 YYYX=              0.0000 YYYZ=              3.4350 ZZZX=              0.0000
 ZZZY=             -0.0000 XXYY=            -13.8061 XXZZ=            -83.8435 YYZZ=            -83.8435
 XXYZ=             -3.4350 YYXZ=             -0.0000 ZZXY=              0.0000
 N-N= 9.835010787029D+01 E-N=-5.575118103278D+02  KE= 1.548719463942D+02
 Symmetry AG   KE= 7.499616249764D+01
 Symmetry BG   KE= 1.990947350124D+00
 Symmetry AU   KE= 4.272992464955D+00
 Symmetry BU   KE= 7.361184408152D+01
 Symmetry AG   SP= 8.300302562685D-17
 Symmetry BG   SP=-2.560799262984D-15
 Symmetry AU   SP=-1.508996237435D-15
 Symmetry BU   SP=-2.858758935524D-15
                          Isotropic Fermi Contact Couplings
        Atom                 a.u.       MegaHertz       Gauss      10(-4) cm-1
     1  C(13)             -0.00000      -0.00000      -0.00000      -0.00000
     2  C(13)              0.00000       0.00000       0.00000       0.00000
     3  C(13)              0.00000       0.00000       0.00000       0.00000
     4  C(13)             -0.00000      -0.00000      -0.00000      -0.00000
     5  H(1)               0.00000       0.00000       0.00000       0.00000
     6  H(1)               0.00000       0.00000       0.00000       0.00000
     7  H(1)               0.00000       0.00000       0.00000       0.00000
     8  H(1)               0.00000       0.00000       0.00000       0.00000
     9  H(1)               0.00000       0.00000       0.00000       0.00000
    10  H(1)               0.00000       0.00000       0.00000       0.00000
 --------------------------------------------------------
       Center         ----  Spin Dipole Couplings  ----
                      3XX-RR        3YY-RR        3ZZ-RR
 --------------------------------------------------------
     1   Atom        0.000000      0.000000     -0.000000
     2   Atom       -0.000000     -0.000000      0.000000
     3   Atom       -0.000000     -0.000000      0.000000
     4   Atom        0.000000      0.000000     -0.000000
     5   Atom        0.000000      0.000000     -0.000000
     6   Atom       -0.000000      0.000000     -0.000000
     7   Atom        0.000000      0.000000     -0.000000
     8   Atom       -0.000000      0.000000     -0.000000
     9   Atom        0.000000      0.000000     -0.000000
    10   Atom        0.000000      0.000000     -0.000000
 --------------------------------------------------------
                        XY            XZ            YZ
 --------------------------------------------------------
     1   Atom        0.000000      0.000000      0.000000
     2   Atom        0.000000     -0.000000      0.000000
     3   Atom        0.000000     -0.000000      0.000000
     4   Atom        0.000000      0.000000      0.000000
     5   Atom        0.000000     -0.000000     -0.000000
     6   Atom        0.000000      0.000000      0.000000
     7   Atom       -0.000000      0.000000     -0.000000
     8   Atom        0.000000      0.000000      0.000000
     9   Atom        0.000000     -0.000000     -0.000000
    10   Atom       -0.000000      0.000000     -0.000000
 --------------------------------------------------------


 ---------------------------------------------------------------------------------
              Anisotropic Spin Dipole Couplings in Principal Axis System
 ---------------------------------------------------------------------------------

       Atom             a.u.   MegaHertz   Gauss  10(-4) cm-1        Axes

              Baa    -0.0000    -0.000    -0.000    -0.000 -0.0000 -0.0155  0.9999
     1 C(13)  Bbb     0.0000     0.000     0.000     0.000 -0.0007  0.9999  0.0155
              Bcc     0.0000     0.000     0.000     0.000  1.0000  0.0007  0.0001
 
              Baa    -0.0000    -0.000    -0.000    -0.000  0.9998 -0.0184  0.0006
     2 C(13)  Bbb    -0.0000    -0.000    -0.000    -0.000  0.0184  0.9995 -0.0264
              Bcc     0.0000     0.000     0.000     0.000 -0.0001  0.0264  0.9997
 
              Baa    -0.0000    -0.000    -0.000    -0.000  0.9999 -0.0132  0.0005
     3 C(13)  Bbb    -0.0000    -0.000    -0.000    -0.000  0.0132  0.9996 -0.0267
              Bcc     0.0000     0.000     0.000     0.000 -0.0001  0.0267  0.9996
 
              Baa    -0.0000    -0.000    -0.000    -0.000 -0.0000 -0.0155  0.9999
     4 C(13)  Bbb     0.0000     0.000     0.000     0.000 -0.0023  0.9999  0.0155
              Bcc     0.0000     0.000     0.000     0.000  1.0000  0.0023  0.0001
 
              Baa    -0.0000    -0.000    -0.000    -0.000  0.5770  0.3116  0.7549
     5 H(1)   Bbb    -0.0000    -0.000    -0.000    -0.000 -0.5297  0.8463  0.0556
              Bcc     0.0000     0.000     0.000     0.000 -0.6216 -0.4320  0.6534
 
              Baa    -0.0000    -0.000    -0.000    -0.000  0.0000 -0.6612  0.7502
     6 H(1)   Bbb    -0.0000    -0.000    -0.000    -0.000  1.0000 -0.0000 -0.0001
              Bcc     0.0000     0.000     0.000     0.000  0.0001  0.7502  0.6612
 
              Baa    -0.0000    -0.000    -0.000    -0.000 -0.5769  0.3116  0.7551
     7 H(1)   Bbb    -0.0000    -0.000    -0.000    -0.000  0.5298  0.8463  0.0555
              Bcc     0.0000     0.000     0.000     0.000  0.6217 -0.4320  0.6533
 
              Baa    -0.0000    -0.000    -0.000    -0.000  0.0000 -0.6618  0.7497
     8 H(1)   Bbb    -0.0000    -0.000    -0.000    -0.000  1.0000 -0.0000 -0.0000
              Bcc     0.0000     0.000     0.000     0.000  0.0000  0.7497  0.6618
 
              Baa    -0.0000    -0.000    -0.000    -0.000  0.5771  0.3130  0.7543
     9 H(1)   Bbb    -0.0000    -0.000    -0.000    -0.000 -0.5300  0.8463  0.0543
              Bcc     0.0000     0.000     0.000     0.000 -0.6214 -0.4311  0.6543
 
              Baa    -0.0000    -0.000    -0.000    -0.000 -0.5770  0.3130  0.7544
    10 H(1)   Bbb    -0.0000    -0.000    -0.000    -0.000  0.5300  0.8463  0.0542
              Bcc     0.0000     0.000     0.000     0.000  0.6214 -0.4311  0.6542
 

 ---------------------------------------------------------------------------------

 Calling FoFJK, ICntrl=  10002127 FMM=F ISym2X=1 I1Cent= 0 IOpClX= 1 NMat=1 NMatS=1 NMatT=0.
 ***** Axes restored to original set *****
 -------------------------------------------------------------------
 Center     Atomic                   Forces (Hartrees/Bohr)
 Number     Number              X              Y              Z
 -------------------------------------------------------------------
      1        6          -0.048506391    0.010059135    0.019345525
      2        6           0.057300609   -0.011882879   -0.022848902
      3        6          -0.057300609    0.011882879    0.022848902
      4        6           0.048506391   -0.010059135   -0.019345525
      5        1          -0.000046396    0.009553132    0.006640482
      6        1          -0.007733388    0.001664076   -0.008531611
      7        1          -0.003889860   -0.008797186    0.006545151
      8        1           0.007733388   -0.001664076    0.008531611
      9        1           0.000046396   -0.009553132   -0.006640482
     10        1           0.003889860    0.008797186   -0.006545151
 -------------------------------------------------------------------
 Cartesian Forces:  Max     0.057300609 RMS     0.021880013

 GradGradGradGradGradGradGradGradGradGradGradGradGradGradGradGradGradGrad
 Berny optimization.
 FormGI is forming the generalized inverse of G from B-inverse, IUseBI=4.
 Internal  Forces:  Max     0.040387402 RMS     0.011604818
 Search for a local minimum.
 Step number   1 out of a maximum of  100
 All quantities printed in internal units (Hartrees-Bohrs-Radians)
 Mixed Optimization -- RFO/linear search
 Second derivative matrix not updated -- first step.
 ITU=  0
     Eigenvalues ---    0.00230   0.00235   0.00236   0.03304   0.04265
     Eigenvalues ---    0.05776   0.05897   0.07002   0.08048   0.16000
     Eigenvalues ---    0.16000   0.16000   0.16000   0.16000   0.16000
     Eigenvalues ---    0.28519   0.28519   0.37230   0.37230   0.37230
     Eigenvalues ---    0.37230   0.37230   0.37230   1.07376
 RFO step:  Lambda=-1.34994875D-02 EMin= 2.30000000D-03
 Linear search not attempted -- first point.
 Iteration  1 RMS(Cart)=  0.05653561 RMS(Int)=  0.00001947
 Iteration  2 RMS(Cart)=  0.00002780 RMS(Int)=  0.00000182
 Iteration  3 RMS(Cart)=  0.00000000 RMS(Int)=  0.00000182
 ClnCor:  largest displacement from symmetrization is 1.39D-04 for atom     6.
 Variable       Old X    -DE/DX   Delta X   Delta X   Delta X     New X
                                 (Linear)    (Quad)   (Total)
    R1        2.91018  -0.04039   0.00000  -0.13522  -0.13522   2.77496
    R2        2.02201   0.01163   0.00000   0.03014   0.03013   2.05214
    R3        2.02201   0.01163   0.00000   0.03014   0.03013   2.05214
    R4        2.02201   0.01163   0.00000   0.03014   0.03013   2.05214
    R5        2.25822   0.02243   0.00000   0.02063   0.02063   2.27886
    R6        2.91018  -0.04039   0.00000  -0.13522  -0.13522   2.77496
    R7        2.02201   0.01163   0.00000   0.03014   0.03013   2.05214
    R8        2.02201   0.01163   0.00000   0.03014   0.03013   2.05214
    R9        2.02201   0.01163   0.00000   0.03014   0.03013   2.05214
    A1        1.91063   0.00042   0.00000   0.00241   0.00236   1.91299
    A2        1.91063   0.00042   0.00000   0.00240   0.00236   1.91299
    A3        1.91063   0.00042   0.00000   0.00240   0.00236   1.91299
    A4        1.91063  -0.00042   0.00000  -0.00241  -0.00237   1.90827
    A5        1.91063  -0.00042   0.00000  -0.00240  -0.00237   1.90827
    A6        1.91063  -0.00042   0.00000  -0.00241  -0.00237   1.90827
    A7        1.91063   0.00042   0.00000   0.00240   0.00236   1.91299
    A8        1.91063   0.00042   0.00000   0.00241   0.00236   1.91299
    A9        1.91063   0.00042   0.00000   0.00240   0.00236   1.91299
   A10        1.91063  -0.00042   0.00000  -0.00240  -0.00237   1.90827
   A11        1.91063  -0.00042   0.00000  -0.00240  -0.00237   1.90827
   A12        1.91063  -0.00042   0.00000  -0.00241  -0.00237   1.90827
   A13        3.14159   0.00000   0.00000   0.00005   0.00000   3.14159
   A14        3.14159  -0.00000   0.00000  -0.00008   0.00000   3.14159
   A15        3.14159   0.00000   0.00000   0.00000  -0.00000   3.14159
   A16        3.14159   0.00000   0.00000   0.00008  -0.00000   3.14159
    D1        1.04720  -0.00000   0.00000  -0.00001   0.00000   1.04720
    D2        3.14159  -0.00000   0.00000  -0.00002   0.00000   3.14159
    D3       -1.04720   0.00000   0.00000   0.00001   0.00000  -1.04720
    D4        3.14159   0.00000   0.00000   0.00000   0.00000   3.14159
    D5       -1.04720   0.00000   0.00000  -0.00000  -0.00000  -1.04720
    D6        1.04720   0.00000   0.00000   0.00002  -0.00000   1.04720
    D7       -1.04720  -0.00000   0.00000  -0.00001   0.00000  -1.04720
    D8        1.04720  -0.00000   0.00000  -0.00001  -0.00000   1.04720
    D9        3.14159  -0.00000   0.00000   0.00001   0.00000   3.14159
         Item               Value     Threshold  Converged?
 Maximum Force            0.040387     0.000450     NO 
 RMS     Force            0.011605     0.000300     NO 
 Maximum Displacement     0.113918     0.001800     NO 
 RMS     Displacement     0.056542     0.001200     NO 
 Predicted change in Energy=-7.036658D-03
 GradGradGradGradGradGradGradGradGradGradGradGradGradGradGradGradGradGrad

                          Input orientation:                          
 ---------------------------------------------------------------------
 Center     Atomic      Atomic             Coordinates (Angstroms)
 Number     Number       Type             X           Y           Z
 ---------------------------------------------------------------------
      1          6           0       -0.644608    0.377288   -0.453430
      2          6           0       -1.983959    0.655040    0.080731
      3          6           0       -3.083862    0.883135    0.519396
      4          6           0       -4.423214    1.160886    1.053558
      5          1           0       -4.392349    2.056399    1.667060
      6          1           0       -5.118805    1.310839    0.233225
      7          1           0       -4.755577    0.322195    1.658050
      8          1           0        0.050984    0.227335    0.366902
      9          1           0       -0.675472   -0.518224   -1.066932
     10          1           0       -0.312244    1.215980   -1.057923
 ---------------------------------------------------------------------
                    Distance matrix (angstroms):
                    1          2          3          4          5
     1  C    0.000000
     2  C    1.468447   0.000000
     3  C    2.674366   1.205919   0.000000
     4  C    4.142813   2.674366   1.468447   0.000000
     5  H    4.621845   3.206335   2.099004   1.085946   0.000000
     6  H    4.621845   3.206335   2.099004   1.085946   1.771857
     7  H    4.621845   3.206335   2.099004   1.085946   1.771857
     8  H    1.085946   2.099004   3.206335   4.621845   4.977860
     9  H    1.085946   2.099004   3.206335   4.621845   5.283802
    10  H    1.085946   2.099004   3.206335   4.621845   4.977860
                    6          7          8          9         10
     6  H    0.000000
     7  H    1.771857   0.000000
     8  H    5.283802   4.977860   0.000000
     9  H    4.977860   4.977860   1.771857   0.000000
    10  H    4.977860   5.283802   1.771857   1.771857   0.000000
 Stoichiometry    C4H6
 Framework group  D3D[C3(CC.CC),3SGD(H2)]
 Deg. of freedom     4
 Full point group                 D3D     NOp  12
 Largest Abelian subgroup         C2H     NOp   4
 Largest concise Abelian subgroup C2H     NOp   4
                         Standard orientation:                         
 ---------------------------------------------------------------------
 Center     Atomic      Atomic             Coordinates (Angstroms)
 Number     Number       Type             X           Y           Z
 ---------------------------------------------------------------------
      1          6           0        0.000000   -0.000000    2.071407
      2          6           0        0.000000   -0.000000    0.602960
      3          6           0        0.000000    0.000000   -0.602960
      4          6           0        0.000000    0.000000   -2.071407
      5          1           0        0.885929    0.511491   -2.435806
      6          1           0       -0.000000   -1.022982   -2.435806
      7          1           0       -0.885929    0.511491   -2.435806
      8          1           0        0.000000    1.022982    2.435806
      9          1           0       -0.885929   -0.511491    2.435806
     10          1           0        0.885929   -0.511491    2.435806
 ---------------------------------------------------------------------
 Rotational constants (GHZ):          79.8628113           3.3525569           3.3525569
 Standard basis: CC-pVTZ (5D, 7F)
 There are    74 symmetry adapted cartesian basis functions of AG  symmetry.
 There are    41 symmetry adapted cartesian basis functions of BG  symmetry.
 There are    41 symmetry adapted cartesian basis functions of AU  symmetry.
 There are    74 symmetry adapted cartesian basis functions of BU  symmetry.
 There are    64 symmetry adapted basis functions of AG  symmetry.
 There are    38 symmetry adapted basis functions of BG  symmetry.
 There are    38 symmetry adapted basis functions of AU  symmetry.
 There are    64 symmetry adapted basis functions of BU  symmetry.
   204 basis functions,   310 primitive gaussians,   230 cartesian basis functions
    15 alpha electrons       15 beta electrons
       nuclear repulsion energy       100.0008472930 Hartrees.
 NAtoms=   10 NActive=   10 NUniq=    3 SFac= 4.00D+00 NAtFMM=   60 NAOKFM=F Big=F
 Integral buffers will be    131072 words long.
 Raffenetti 2 integral format.
 Two-electron integral symmetry is turned on.
 Nuclear repulsion after empirical dispersion term =       99.9967072879 Hartrees.
 One-electron integrals computed using PRISM.
 NBasis=   204 RedAO= T EigKep=  1.59D-05  NBF=    64    38    38    64
 NBsUse=   204 1.00D-06 EigRej= -1.00D+00 NBFU=    64    38    38    64
 Initial guess from the checkpoint file:  "/localscratch/339752/Gau-4869.chk"
 B after Tr=    -0.000000    0.000000   -0.000000
         Rot=    1.000000   -0.000000    0.000000    0.000000 Ang=   0.00 deg.
 Initial guess orbital symmetries:
 Alpha Orbitals:
       Occupied  (A2U) (A1G) (A1G) (A2U) (A1G) (A2U) (A1G) (A2U)
                 (EU) (EU) (EG) (EG) (A1G) (EU) (EU)
       Virtual   (A1G) (A2U) (EG) (EG) (EU) (EU) (EG) (EG) (A2U)
                 (A1G) (EU) (EU) (EG) (EG) (A1G) (A2U) (EU) (EU)
                 (A2U) (EU) (EU) (EG) (EG) (A1G) (A2U) (EG) (EG)
                 (A1G) (EU) (EU) (EG) (EG) (A1G) (A2U) (A1G) (A2U)
                 (EG) (EG) (EU) (EU) (A2G) (A1U) (A2U) (EG) (EG)
                 (EU) (EU) (EU) (EU) (EG) (EG) (A1G) (A2U) (A2U)
                 (A1G) (EU) (EU) (EG) (EG) (EU) (EU) (EG) (EG)
                 (A1G) (EU) (EU) (A2U) (A1G) (EG) (EG) (EU) (EU)
                 (A2U) (EG) (EG) (EU) (EU) (A1G) (A2U) (EG) (EG)
                 (A2U) (A1G) (A1U) (A2U) (A2U) (EG) (EG) (EU) (EU)
                 (A1G) (A1G) (EG) (EG) (A2G) (EU) (EU) (A1U) (EU)
                 (EU) (EG) (EG) (A1G) (A2G) (EG) (EG) (EU) (EU)
                 (EG) (EG) (EU) (EU) (A1G) (EU) (EU) (EG) (EG)
                 (A2U) (A1U) (A2G) (EG) (EG) (A2U) (EU) (EU) (A1G)
                 (EG) (EG) (EU) (EU) (A2U) (EU) (EU) (A1G) (EG)
                 (EG) (A2U) (EU) (EU) (EG) (EG) (EU) (EU) (A1G)
                 (A1U) (A2G) (EG) (EG) (EG) (EG) (A2U) (EU) (EU)
                 (A1G) (A2U) (A1G) (EU) (EU) (A2U) (EG) (EG) (A1G)
                 (EU) (EU) (EG) (EG) (A1U) (A2G) (EU) (EU) (A2U)
                 (A1G) (A2U) (EG) (EG) (EU) (EU) (EG) (EG) (A1G)
                 (EU) (EU) (EG) (EG) (A2U) (A1G) (A1G) (A2U) (A2U)
 Beta  Orbitals:
       Occupied  (A2U) (A1G) (A1G) (A2U) (A1G) (A2U) (A1G) (A2U)
                 (EU) (EU) (EG) (EG) (A1G) (EU) (EU)
       Virtual   (A1G) (A2U) (EG) (EG) (EU) (EU) (EG) (EG) (A2U)
                 (A1G) (EU) (EU) (EG) (EG) (A1G) (A2U) (EU) (EU)
                 (A2U) (EU) (EU) (EG) (EG) (A1G) (A2U) (EG) (EG)
                 (A1G) (EU) (EU) (EG) (EG) (A1G) (A2U) (A1G) (A2U)
                 (EG) (EG) (EU) (EU) (A2G) (A1U) (A2U) (EG) (EG)
                 (EU) (EU) (EU) (EU) (EG) (EG) (A1G) (A2U) (A2U)
                 (A1G) (EU) (EU) (EG) (EG) (EU) (EU) (EG) (EG)
                 (A1G) (EU) (EU) (A2U) (A1G) (EG) (EG) (EU) (EU)
                 (A2U) (EG) (EG) (EU) (EU) (A1G) (A2U) (EG) (EG)
                 (A2U) (A1G) (A1U) (A2U) (A2U) (EG) (EG) (EU) (EU)
                 (A1G) (A1G) (EG) (EG) (A2G) (EU) (EU) (A1U) (EU)
                 (EU) (EG) (EG) (A1G) (A2G) (EG) (EG) (EU) (EU)
                 (EG) (EG) (EU) (EU) (A1G) (EU) (EU) (EG) (EG)
                 (A2U) (A1U) (A2G) (EG) (EG) (A2U) (EU) (EU) (A1G)
                 (EG) (EG) (EU) (EU) (A2U) (EU) (EU) (A1G) (EG)
                 (EG) (A2U) (EU) (EU) (EG) (EG) (EU) (EU) (A1G)
                 (A1U) (A2G) (EG) (EG) (EG) (EG) (A2U) (EU) (EU)
                 (A1G) (A2U) (A1G) (EU) (EU) (A2U) (EG) (EG) (A1G)
                 (EU) (EU) (EG) (EG) (A1U) (A2G) (EU) (EU) (A2U)
                 (A1G) (A2U) (EG) (EG) (EU) (EU) (EG) (EG) (A1G)
                 (EU) (EU) (EG) (EG) (A2U) (A1G) (A1G) (A2U) (A2U)
 Initial guess <Sx>= 0.0000 <Sy>= 0.0000 <Sz>= 0.0000 <S**2>=-0.0000 S=-0.0000
 ExpMin= 1.03D-01 ExpMax= 8.24D+03 ExpMxC= 2.81D+02 IAcc=3 IRadAn=         5 AccDes= 0.00D+00
 Harris functional with IExCor=  419 and IRadAn=       5 diagonalized for initial guess.
 HarFok:  IExCor=  419 AccDes= 0.00D+00 IRadAn=         5 IDoV= 1 UseB2=F ITyADJ=14
 ICtDFT=  3500011 ScaDFX=  1.000000  1.000000  1.000000  1.000000
 FoFCou: FMM=F IPFlag=           0 FMFlag=      100000 FMFlg1=           0
         NFxFlg=           0 DoJE=T BraDBF=F KetDBF=T FulRan=T
         wScrn=  0.000000 ICntrl=       500 IOpCl=  0 I1Cent=   200000004 NGrid=           0
         NMat0=    1 NMatS0=      1 NMatT0=    0 NMatD0=    1 NMtDS0=    0 NMtDT0=    0
 Petite list used in FoFCou.
 Keep R1 and R2 ints in memory in symmetry-blocked form, NReq=273604057.
 Requested convergence on RMS density matrix=1.00D-08 within 128 cycles.
 Requested convergence on MAX density matrix=1.00D-06.
 Requested convergence on             energy=1.00D-06.
 No special actions if energy rises.
 Integral accuracy reduced to 1.0D-05 until final iterations.
 Initial convergence to 1.0D-05 achieved.  Increase integral accuracy.
 SCF Done:  E(UB2PLYPD3) =  -155.674276237     A.U. after    9 cycles
            NFock=  9  Conv=0.61D-08     -V/T= 2.0048
 <Sx>= 0.0000 <Sy>= 0.0000 <Sz>= 0.0000 <S**2>=-0.0000 S=-0.0000
 <L.S>=  0.00000000000    
 Annihilation of the first spin contaminant:
 S**2 before annihilation    -0.0000,   after     0.0000
 DoSCS=T DFT=T ScalE2(SS,OS)=  0.270000  0.270000
 ExpMin= 1.03D-01 ExpMax= 8.24D+03 ExpMxC= 2.81D+02 IAcc=3 IRadAn=         5 AccDes= 0.00D+00
 HarFok:  IExCor=  205 AccDes= 0.00D+00 IRadAn=         5 IDoV=-2 UseB2=F ITyADJ=14
 ICtDFT= 12500011 ScaDFX=  1.000000  1.000000  1.000000  1.000000
 Range of M.O.s used for correlation:     5   204
 NBasis=   204 NAE=    15 NBE=    15 NFC=     4 NFV=     0
 NROrb=    200 NOA=    11 NOB=    11 NVA=   189 NVB=   189

 **** Warning!!: The largest alpha MO coefficient is  0.62655034D+02


 **** Warning!!: The largest beta MO coefficient is  0.62655034D+02

 DoSCS=T DFT=T ScalE2(SS,OS)=  0.270000  0.270000
 Fully direct method using O(ONN) memory.
 JobTyp=2 Pass  1:  I=   5 to  15 NPSUse= 40 ParTrn=T ParDer=T DoDerP=T.
 JobTyp=3 Pass  1:  I=   5 to  15 NPSUse= 40 ParTrn=T ParDer=T DoDerP=T.
 Spin components of T(2) and E(2):
     alpha-alpha T2 =       0.4344417886D-01 E2=     -0.2512532691D-01
     alpha-beta  T2 =       0.2603204527D+00 E2=     -0.1653394150D+00
     beta-beta   T2 =       0.4344417886D-01 E2=     -0.2512532691D-01
 (S**2,0)=  0.00000D+00           (S**2,1)=  0.00000D+00
 E(PUHF)=      -0.15567427624D+03        E(PMP2)=      -0.15588986631D+03
 E2(B2PLYPD3) =    -0.2155900689D+00 E(B2PLYPD3) =    -0.15588986630607D+03
          IDoAtm=1111111111
          Differentiating once with respect to electric field.
                with respect to dipole field.
          Differentiating once with respect to nuclear coordinates.
 Keep R1 and R2 ints in memory in symmetry-blocked form, NReq=273606019.
          There are     1 degrees of freedom in the 1st order CPHF.  IDoFFX=0 NUNeed=     1.
 LinEq1:  Iter=  0 NonCon=     1 RMS=6.62D-04 Max=1.09D-02 NDo=     1
 AX will form     1 AO Fock derivatives at one time.
 LinEq1:  Iter=  1 NonCon=     1 RMS=2.45D-04 Max=4.81D-03 NDo=     1
 LinEq1:  Iter=  2 NonCon=     1 RMS=4.70D-05 Max=7.27D-04 NDo=     1
 LinEq1:  Iter=  3 NonCon=     1 RMS=5.59D-06 Max=1.09D-04 NDo=     1
 LinEq1:  Iter=  4 NonCon=     1 RMS=7.48D-07 Max=1.56D-05 NDo=     1
 LinEq1:  Iter=  5 NonCon=     1 RMS=3.64D-07 Max=5.46D-06 NDo=     1
 LinEq1:  Iter=  6 NonCon=     1 RMS=5.64D-08 Max=9.85D-07 NDo=     1
 LinEq1:  Iter=  7 NonCon=     1 RMS=9.66D-09 Max=1.49D-07 NDo=     1
 LinEq1:  Iter=  8 NonCon=     1 RMS=9.98D-10 Max=1.29D-08 NDo=     1
 LinEq1:  Iter=  9 NonCon=     0 RMS=7.79D-11 Max=9.73D-10 NDo=     1
 Linear equations converged to 1.000D-10 1.000D-09 after     9 iterations.
 End of Minotr F.D. properties file   721 does not exist.
 End of Minotr F.D. properties file   722 does not exist.
 End of Minotr F.D. properties file   788 does not exist.
 Calling FoFJK, ICntrl=  10002127 FMM=F ISym2X=1 I1Cent= 0 IOpClX= 1 NMat=1 NMatS=1 NMatT=0.
 ***** Axes restored to original set *****
 -------------------------------------------------------------------
 Center     Atomic                   Forces (Hartrees/Bohr)
 Number     Number              X              Y              Z
 -------------------------------------------------------------------
      1        6          -0.012396795    0.002570817    0.004944091
      2        6           0.003735488   -0.000774672   -0.001486708
      3        6          -0.003735488    0.000774672    0.001486708
      4        6           0.012396795   -0.002570817   -0.004944091
      5        1          -0.002853511    0.001101729    0.001491898
      6        1          -0.003264336    0.000680175    0.000681077
      7        1          -0.003058894    0.000121147    0.001486803
      8        1           0.003264336   -0.000680175   -0.000681077
      9        1           0.002853511   -0.001101729   -0.001491898
     10        1           0.003058894   -0.000121147   -0.001486803
 -------------------------------------------------------------------
 Cartesian Forces:  Max     0.012396795 RMS     0.003968581

 GradGradGradGradGradGradGradGradGradGradGradGradGradGradGradGradGradGrad
 Berny optimization.
 Using GEDIIS/GDIIS optimizer.
 FormGI is forming the generalized inverse of G from B-inverse, IUseBI=4.
 Internal  Forces:  Max     0.003530457 RMS     0.002117939
 Search for a local minimum.
 Step number   2 out of a maximum of  100
 All quantities printed in internal units (Hartrees-Bohrs-Radians)
 Mixed Optimization -- RFO/linear search
 Update second derivatives using D2CorX and points    1    2
 DE= -7.72D-03 DEPred=-7.04D-03 R= 1.10D+00
 TightC=F SS=  1.41D+00  RLast= 2.06D-01 DXNew= 5.0454D-01 6.1852D-01
 Trust test= 1.10D+00 RLast= 2.06D-01 DXMaxT set to 5.05D-01
 ITU=  1  0
 Use linear search instead of GDIIS.
     Eigenvalues ---    0.00230   0.00235   0.00236   0.03286   0.04221
     Eigenvalues ---    0.05761   0.05894   0.07031   0.08057   0.14824
     Eigenvalues ---    0.16000   0.16000   0.16000   0.16000   0.16000
     Eigenvalues ---    0.28519   0.29403   0.36563   0.37230   0.37230
     Eigenvalues ---    0.37230   0.37230   0.37230   1.07556
 RFO step:  Lambda=-8.10786811D-04 EMin= 2.30000000D-03
 Quartic linear search produced a step of  0.09585.
 Iteration  1 RMS(Cart)=  0.01141802 RMS(Int)=  0.00020787
 Iteration  2 RMS(Cart)=  0.00018923 RMS(Int)=  0.00012878
 Iteration  3 RMS(Cart)=  0.00000001 RMS(Int)=  0.00012878
 ClnCor:  largest displacement from symmetrization is 6.66D-04 for atom     6.
 Variable       Old X    -DE/DX   Delta X   Delta X   Delta X     New X
                                 (Linear)    (Quad)   (Total)
    R1        2.77496  -0.00353  -0.01296  -0.00605  -0.01901   2.75596
    R2        2.05214   0.00167   0.00289   0.00338   0.00626   2.05840
    R3        2.05214   0.00167   0.00289   0.00338   0.00626   2.05840
    R4        2.05214   0.00167   0.00289   0.00338   0.00626   2.05840
    R5        2.27886   0.00056   0.00198  -0.00026   0.00172   2.28057
    R6        2.77496  -0.00353  -0.01296  -0.00605  -0.01901   2.75596
    R7        2.05214   0.00167   0.00289   0.00338   0.00626   2.05840
    R8        2.05214   0.00167   0.00289   0.00338   0.00626   2.05840
    R9        2.05214   0.00167   0.00289   0.00338   0.00626   2.05840
    A1        1.91299   0.00303   0.00023   0.02046   0.02029   1.93328
    A2        1.91299   0.00303   0.00023   0.02045   0.02029   1.93328
    A3        1.91299   0.00303   0.00023   0.02045   0.02029   1.93328
    A4        1.90827  -0.00304  -0.00023  -0.02056  -0.02082   1.88745
    A5        1.90827  -0.00304  -0.00023  -0.02055  -0.02082   1.88745
    A6        1.90827  -0.00304  -0.00023  -0.02056  -0.02082   1.88745
    A7        1.91299   0.00303   0.00023   0.02045   0.02029   1.93328
    A8        1.91299   0.00303   0.00023   0.02046   0.02029   1.93328
    A9        1.91299   0.00303   0.00023   0.02045   0.02029   1.93328
   A10        1.90827  -0.00304  -0.00023  -0.02056  -0.02082   1.88745
   A11        1.90827  -0.00304  -0.00023  -0.02056  -0.02082   1.88745
   A12        1.90827  -0.00304  -0.00023  -0.02056  -0.02082   1.88745
   A13        3.14159   0.00000   0.00000   0.00005   0.00000   3.14159
   A14        3.14159  -0.00000  -0.00000  -0.00030   0.00000   3.14159
   A15        3.14159   0.00000   0.00000   0.00000   0.00000   3.14159
   A16        3.14159   0.00000   0.00000   0.00031  -0.00000   3.14159
    D1        1.04720  -0.00000  -0.00000  -0.00005  -0.00000   1.04720
    D2        3.14159  -0.00000   0.00000  -0.00006   0.00000   3.14159
    D3       -1.04720   0.00000   0.00000   0.00005   0.00000  -1.04720
    D4        3.14159   0.00000   0.00000  -0.00004   0.00000   3.14159
    D5       -1.04720   0.00000   0.00000  -0.00005  -0.00000  -1.04720
    D6        1.04720   0.00000   0.00000   0.00006   0.00000   1.04720
    D7       -1.04720  -0.00000  -0.00000  -0.00000   0.00000  -1.04720
    D8        1.04720  -0.00000  -0.00000  -0.00001  -0.00000   1.04720
    D9        3.14159  -0.00000   0.00000   0.00010   0.00000   3.14159
         Item               Value     Threshold  Converged?
 Maximum Force            0.003530     0.000450     NO 
 RMS     Force            0.002118     0.000300     NO 
 Maximum Displacement     0.024134     0.001800     NO 
 RMS     Displacement     0.011258     0.001200     NO 
 Predicted change in Energy=-4.940404D-04
 GradGradGradGradGradGradGradGradGradGradGradGradGradGradGradGradGradGrad

                          Input orientation:                          
 ---------------------------------------------------------------------
 Center     Atomic      Atomic             Coordinates (Angstroms)
 Number     Number       Type             X           Y           Z
 ---------------------------------------------------------------------
      1          6           0       -0.653368    0.379105   -0.449937
      2          6           0       -1.983545    0.654954    0.080566
      3          6           0       -3.084276    0.883221    0.519561
      4          6           0       -4.414454    1.159070    1.050064
      5          1           0       -4.405120    2.055075    1.669396
      6          1           0       -5.128376    1.312799    0.241878
      7          1           0       -4.766748    0.328510    1.660427
      8          1           0        0.060555    0.225376    0.358250
      9          1           0       -0.662701   -0.516900   -1.069269
     10          1           0       -0.301073    1.209665   -1.060299
 ---------------------------------------------------------------------
                    Distance matrix (angstroms):
                    1          2          3          4          5
     1  C    0.000000
     2  C    1.458389   0.000000
     3  C    2.665216   1.206827   0.000000
     4  C    4.123605   2.665216   1.458389   0.000000
     5  H    4.623429   3.216947   2.107129   1.089258   0.000000
     6  H    4.623429   3.216947   2.107129   1.089258   1.764053
     7  H    4.623429   3.216947   2.107129   1.089258   1.764053
     8  H    1.089258   2.107129   3.216947   4.623429   5.000916
     9  H    1.089258   2.107129   3.216947   4.623429   5.302928
    10  H    1.089258   2.107129   3.216947   4.623429   5.000916
                    6          7          8          9         10
     6  H    0.000000
     7  H    1.764053   0.000000
     8  H    5.302928   5.000916   0.000000
     9  H    5.000916   5.000916   1.764053   0.000000
    10  H    5.000916   5.302928   1.764053   1.764053   0.000000
 Stoichiometry    C4H6
 Framework group  D3D[C3(CC.CC),3SGD(H2)]
 Deg. of freedom     4
 Full point group                 D3D     NOp  12
 Largest Abelian subgroup         C2H     NOp   4
 Largest concise Abelian subgroup C2H     NOp   4
                         Standard orientation:                         
 ---------------------------------------------------------------------
 Center     Atomic      Atomic             Coordinates (Angstroms)
 Number     Number       Type             X           Y           Z
 ---------------------------------------------------------------------
      1          6           0        0.000000   -0.000000    2.061802
      2          6           0        0.000000   -0.000000    0.603414
      3          6           0        0.000000   -0.000000   -0.603414
      4          6           0        0.000000   -0.000000   -2.061802
      5          1           0        0.882026    0.509238   -2.448054
      6          1           0       -0.000000   -1.018476   -2.448054
      7          1           0       -0.882026    0.509238   -2.448054
      8          1           0        0.000000    1.018476    2.448054
      9          1           0       -0.882026   -0.509238    2.448054
     10          1           0        0.882026   -0.509238    2.448054
 ---------------------------------------------------------------------
 Rotational constants (GHZ):          80.5710442           3.3660812           3.3660812
 Standard basis: CC-pVTZ (5D, 7F)
 There are    74 symmetry adapted cartesian basis functions of AG  symmetry.
 There are    41 symmetry adapted cartesian basis functions of BG  symmetry.
 There are    41 symmetry adapted cartesian basis functions of AU  symmetry.
 There are    74 symmetry adapted cartesian basis functions of BU  symmetry.
 There are    64 symmetry adapted basis functions of AG  symmetry.
 There are    38 symmetry adapted basis functions of BG  symmetry.
 There are    38 symmetry adapted basis functions of AU  symmetry.
 There are    64 symmetry adapted basis functions of BU  symmetry.
   204 basis functions,   310 primitive gaussians,   230 cartesian basis functions
    15 alpha electrons       15 beta electrons
       nuclear repulsion energy       100.1327962624 Hartrees.
 NAtoms=   10 NActive=   10 NUniq=    3 SFac= 4.00D+00 NAtFMM=   60 NAOKFM=F Big=F
 Integral buffers will be    131072 words long.
 Raffenetti 2 integral format.
 Two-electron integral symmetry is turned on.
 Nuclear repulsion after empirical dispersion term =      100.1286594225 Hartrees.
 One-electron integrals computed using PRISM.
 NBasis=   204 RedAO= T EigKep=  1.57D-05  NBF=    64    38    38    64
 NBsUse=   204 1.00D-06 EigRej= -1.00D+00 NBFU=    64    38    38    64
 Initial guess from the checkpoint file:  "/localscratch/339752/Gau-4869.chk"
 B after Tr=     0.000000    0.000000    0.000000
         Rot=    1.000000    0.000000    0.000000   -0.000000 Ang=   0.00 deg.
 Initial guess orbital symmetries:
 Alpha Orbitals:
       Occupied  (A2U) (A1G) (A1G) (A2U) (A1G) (A2U) (A1G) (A2U)
                 (EU) (EU) (A1G) (EG) (EG) (EU) (EU)
       Virtual   (A1G) (A2U) (EG) (EG) (EU) (EU) (EG) (EG) (A1G)
                 (A2U) (EG) (EG) (EU) (EU) (A1G) (A2U) (EU) (EU)
                 (A2U) (EU) (EU) (EG) (EG) (A1G) (A2U) (EG) (EG)
                 (A1G) (EU) (EU) (EG) (EG) (A1G) (A2U) (A1G) (A2U)
                 (EG) (EG) (EU) (EU) (A2G) (A1U) (A2U) (EG) (EG)
                 (EU) (EU) (EU) (EU) (EG) (EG) (A1G) (A2U) (A2U)
                 (EU) (EU) (A1G) (EG) (EG) (EU) (EU) (EG) (EG)
                 (A1G) (EU) (EU) (A2U) (A1G) (EG) (EG) (EU) (EU)
                 (A2U) (EG) (EG) (A1G) (EU) (EU) (A2U) (EG) (EG)
                 (A2U) (A1G) (A1U) (A2U) (A2U) (EU) (EU) (EG) (EG)
                 (A1G) (A1G) (A2G) (EG) (EG) (EU) (EU) (A1U) (EU)
                 (EU) (EG) (EG) (A1G) (A2G) (EG) (EG) (EU) (EU)
                 (EG) (EG) (EU) (EU) (EU) (EU) (A1G) (EG) (EG)
                 (A1U) (A2G) (A2U) (EG) (EG) (A2U) (EU) (EU) (A1G)
                 (EU) (EU) (EG) (EG) (A2U) (EU) (EU) (EG) (EG)
                 (A1G) (EU) (EU) (A2U) (EG) (EG) (EU) (EU) (A1G)
                 (A1U) (A2G) (EG) (EG) (A2U) (A1G) (EG) (EG) (EU)
                 (EU) (A2U) (A1G) (EU) (EU) (EG) (EG) (A2U) (A1G)
                 (EU) (EU) (EG) (EG) (A1U) (A2G) (A1G) (EU) (EU)
                 (A2U) (EG) (EG) (EU) (EU) (A2U) (EG) (EG) (A1G)
                 (EU) (EU) (EG) (EG) (A2U) (A1G) (A1G) (A2U) (A2U)
 Beta  Orbitals:
       Occupied  (A2U) (A1G) (A1G) (A2U) (A1G) (A2U) (A1G) (A2U)
                 (EU) (EU) (A1G) (EG) (EG) (EU) (EU)
       Virtual   (A1G) (A2U) (EG) (EG) (EU) (EU) (EG) (EG) (A1G)
                 (A2U) (EG) (EG) (EU) (EU) (A1G) (A2U) (EU) (EU)
                 (A2U) (EU) (EU) (EG) (EG) (A1G) (A2U) (EG) (EG)
                 (A1G) (EU) (EU) (EG) (EG) (A1G) (A2U) (A1G) (A2U)
                 (EG) (EG) (EU) (EU) (A2G) (A1U) (A2U) (EG) (EG)
                 (EU) (EU) (EU) (EU) (EG) (EG) (A1G) (A2U) (A2U)
                 (EU) (EU) (A1G) (EG) (EG) (EU) (EU) (EG) (EG)
                 (A1G) (EU) (EU) (A2U) (A1G) (EG) (EG) (EU) (EU)
                 (A2U) (EG) (EG) (A1G) (EU) (EU) (A2U) (EG) (EG)
                 (A2U) (A1G) (A1U) (A2U) (A2U) (EU) (EU) (EG) (EG)
                 (A1G) (A1G) (A2G) (EG) (EG) (EU) (EU) (A1U) (EU)
                 (EU) (EG) (EG) (A1G) (A2G) (EG) (EG) (EU) (EU)
                 (EG) (EG) (EU) (EU) (EU) (EU) (A1G) (EG) (EG)
                 (A1U) (A2G) (A2U) (EG) (EG) (A2U) (EU) (EU) (A1G)
                 (EU) (EU) (EG) (EG) (A2U) (EU) (EU) (EG) (EG)
                 (A1G) (EU) (EU) (A2U) (EG) (EG) (EU) (EU) (A1G)
                 (A1U) (A2G) (EG) (EG) (A2U) (A1G) (EG) (EG) (EU)
                 (EU) (A2U) (A1G) (EU) (EU) (EG) (EG) (A2U) (A1G)
                 (EU) (EU) (EG) (EG) (A1U) (A2G) (A1G) (EU) (EU)
                 (A2U) (EG) (EG) (EU) (EU) (A2U) (EG) (EG) (A1G)
                 (EU) (EU) (EG) (EG) (A2U) (A1G) (A1G) (A2U) (A2U)
 Initial guess <Sx>= 0.0000 <Sy>= 0.0000 <Sz>= 0.0000 <S**2>= 0.0000 S= 0.0000
 ExpMin= 1.03D-01 ExpMax= 8.24D+03 ExpMxC= 2.81D+02 IAcc=3 IRadAn=         5 AccDes= 0.00D+00
 Harris functional with IExCor=  419 and IRadAn=       5 diagonalized for initial guess.
 HarFok:  IExCor=  419 AccDes= 0.00D+00 IRadAn=         5 IDoV= 1 UseB2=F ITyADJ=14
 ICtDFT=  3500011 ScaDFX=  1.000000  1.000000  1.000000  1.000000
 FoFCou: FMM=F IPFlag=           0 FMFlag=      100000 FMFlg1=           0
         NFxFlg=           0 DoJE=T BraDBF=F KetDBF=T FulRan=T
         wScrn=  0.000000 ICntrl=       500 IOpCl=  0 I1Cent=   200000004 NGrid=           0
         NMat0=    1 NMatS0=      1 NMatT0=    0 NMatD0=    1 NMtDS0=    0 NMtDT0=    0
 Petite list used in FoFCou.
 Keep R1 and R2 ints in memory in symmetry-blocked form, NReq=273604057.
 Requested convergence on RMS density matrix=1.00D-08 within 128 cycles.
 Requested convergence on MAX density matrix=1.00D-06.
 Requested convergence on             energy=1.00D-06.
 No special actions if energy rises.
 Integral accuracy reduced to 1.0D-05 until final iterations.
 Initial convergence to 1.0D-05 achieved.  Increase integral accuracy.
 SCF Done:  E(UB2PLYPD3) =  -155.674669936     A.U. after    8 cycles
            NFock=  8  Conv=0.56D-08     -V/T= 2.0048
 <Sx>= 0.0000 <Sy>= 0.0000 <Sz>= 0.0000 <S**2>=-0.0000 S=-0.0000
 <L.S>=  0.00000000000    
 Annihilation of the first spin contaminant:
 S**2 before annihilation    -0.0000,   after     0.0000
 DoSCS=T DFT=T ScalE2(SS,OS)=  0.270000  0.270000
 ExpMin= 1.03D-01 ExpMax= 8.24D+03 ExpMxC= 2.81D+02 IAcc=3 IRadAn=         5 AccDes= 0.00D+00
 HarFok:  IExCor=  205 AccDes= 0.00D+00 IRadAn=         5 IDoV=-2 UseB2=F ITyADJ=14
 ICtDFT= 12500011 ScaDFX=  1.000000  1.000000  1.000000  1.000000
 Range of M.O.s used for correlation:     5   204
 NBasis=   204 NAE=    15 NBE=    15 NFC=     4 NFV=     0
 NROrb=    200 NOA=    11 NOB=    11 NVA=   189 NVB=   189

 **** Warning!!: The largest alpha MO coefficient is  0.61882723D+02


 **** Warning!!: The largest beta MO coefficient is  0.61882723D+02

 DoSCS=T DFT=T ScalE2(SS,OS)=  0.270000  0.270000
 Fully direct method using O(ONN) memory.
 JobTyp=2 Pass  1:  I=   5 to  15 NPSUse= 40 ParTrn=T ParDer=T DoDerP=T.
 JobTyp=3 Pass  1:  I=   5 to  15 NPSUse= 40 ParTrn=T ParDer=T DoDerP=T.
 Spin components of T(2) and E(2):
     alpha-alpha T2 =       0.4356189394D-01 E2=     -0.2517103679D-01
     alpha-beta  T2 =       0.2606498317D+00 E2=     -0.1653936895D+00
     beta-beta   T2 =       0.4356189394D-01 E2=     -0.2517103679D-01
 (S**2,0)=  0.00000D+00           (S**2,1)=  0.00000D+00
 E(PUHF)=      -0.15567466994D+03        E(PMP2)=      -0.15589040570D+03
 E2(B2PLYPD3) =    -0.2157357631D+00 E(B2PLYPD3) =    -0.15589040569885D+03
          IDoAtm=1111111111
          Differentiating once with respect to electric field.
                with respect to dipole field.
          Differentiating once with respect to nuclear coordinates.
 Keep R1 and R2 ints in memory in symmetry-blocked form, NReq=273606019.
          There are     1 degrees of freedom in the 1st order CPHF.  IDoFFX=0 NUNeed=     1.
 LinEq1:  Iter=  0 NonCon=     1 RMS=6.64D-04 Max=1.08D-02 NDo=     1
 AX will form     1 AO Fock derivatives at one time.
 LinEq1:  Iter=  1 NonCon=     1 RMS=2.48D-04 Max=4.79D-03 NDo=     1
 LinEq1:  Iter=  2 NonCon=     1 RMS=4.73D-05 Max=7.53D-04 NDo=     1
 LinEq1:  Iter=  3 NonCon=     1 RMS=5.60D-06 Max=1.05D-04 NDo=     1
 LinEq1:  Iter=  4 NonCon=     1 RMS=9.20D-07 Max=2.04D-05 NDo=     1
 LinEq1:  Iter=  5 NonCon=     1 RMS=4.49D-07 Max=6.36D-06 NDo=     1
 LinEq1:  Iter=  6 NonCon=     1 RMS=5.54D-08 Max=9.38D-07 NDo=     1
 LinEq1:  Iter=  7 NonCon=     1 RMS=8.95D-09 Max=1.40D-07 NDo=     1
 LinEq1:  Iter=  8 NonCon=     1 RMS=9.94D-10 Max=1.28D-08 NDo=     1
 LinEq1:  Iter=  9 NonCon=     0 RMS=7.84D-11 Max=9.82D-10 NDo=     1
 Linear equations converged to 1.000D-10 1.000D-09 after     9 iterations.
 End of Minotr F.D. properties file   721 does not exist.
 End of Minotr F.D. properties file   722 does not exist.
 End of Minotr F.D. properties file   788 does not exist.
 Calling FoFJK, ICntrl=  10002127 FMM=F ISym2X=1 I1Cent= 0 IOpClX= 1 NMat=1 NMatS=1 NMatT=0.
 ***** Axes restored to original set *****
 -------------------------------------------------------------------
 Center     Atomic                   Forces (Hartrees/Bohr)
 Number     Number              X              Y              Z
 -------------------------------------------------------------------
      1        6          -0.001247875    0.000258781    0.000497716
      2        6          -0.001528086    0.000316875    0.000612526
      3        6           0.001528086   -0.000316875   -0.000612526
      4        6           0.001247875   -0.000258781   -0.000497716
      5        1          -0.000587419   -0.000031514    0.000127891
      6        1          -0.000463973    0.000095249    0.000371583
      7        1          -0.000525667    0.000263313    0.000129423
      8        1           0.000463973   -0.000095249   -0.000371583
      9        1           0.000587419    0.000031514   -0.000127891
     10        1           0.000525667   -0.000263313   -0.000129423
 -------------------------------------------------------------------
 Cartesian Forces:  Max     0.001528086 RMS     0.000620202

 GradGradGradGradGradGradGradGradGradGradGradGradGradGradGradGradGradGrad
 Berny optimization.
 Using GEDIIS/GDIIS optimizer.
 FormGI is forming the generalized inverse of G from B-inverse, IUseBI=4.
 Internal  Forces:  Max     0.001315620 RMS     0.000433084
 Search for a local minimum.
 Step number   3 out of a maximum of  100
 All quantities printed in internal units (Hartrees-Bohrs-Radians)
 Mixed Optimization -- En-DIIS/RFO-DIIS
 Update second derivatives using D2CorX and points    1    2    3
 DE= -5.39D-04 DEPred=-4.94D-04 R= 1.09D+00
 TightC=F SS=  1.41D+00  RLast= 7.77D-02 DXNew= 8.4853D-01 2.3296D-01
 Trust test= 1.09D+00 RLast= 7.77D-02 DXMaxT set to 5.05D-01
 ITU=  1  1  0
 Use linear search instead of GDIIS.
     Eigenvalues ---    0.00230   0.00235   0.00236   0.03161   0.04151
     Eigenvalues ---    0.05554   0.05714   0.06953   0.08053   0.12747
     Eigenvalues ---    0.16000   0.16000   0.16000   0.16000   0.16000
     Eigenvalues ---    0.28519   0.31344   0.37106   0.37230   0.37230
     Eigenvalues ---    0.37230   0.37230   0.37230   1.08348
 RFO step:  Lambda=-1.13643314D-05 EMin= 2.30000000D-03
 Quartic linear search produced a step of  0.16722.
 Iteration  1 RMS(Cart)=  0.00346123 RMS(Int)=  0.00002702
 Iteration  2 RMS(Cart)=  0.00000806 RMS(Int)=  0.00002587
 Iteration  3 RMS(Cart)=  0.00000000 RMS(Int)=  0.00002587
 ClnCor:  largest displacement from symmetrization is 9.21D-04 for atom     6.
 Variable       Old X    -DE/DX   Delta X   Delta X   Delta X     New X
                                 (Linear)    (Quad)   (Total)
    R1        2.75596   0.00036  -0.00318   0.00291  -0.00027   2.75568
    R2        2.05840   0.00004   0.00105  -0.00051   0.00052   2.05892
[...]
 Vibrational             54.849             11.441             13.599
 Vibration     1          0.593              1.986              6.571
 Vibration     2          0.638              1.839              2.128
 Vibration     3          0.638              1.839              2.128
 Vibration     4          0.750              1.513              1.040
 Vibration     5          0.750              1.513              1.040
                       Q            Log10(Q)             Ln(Q)
 Total Bot       0.437332D-26        -26.359189        -60.694275
 Total V=0       0.309148D+13         12.490167         28.759672
 Vib (Bot)       0.585484D-37        -37.232485        -85.730965
 Vib (Bot)    1  0.100347D+02          1.001503          2.306046
 Vib (Bot)    2  0.994085D+00         -0.002576         -0.005932
 Vib (Bot)    3  0.994084D+00         -0.002577         -0.005934
 Vib (Bot)    4  0.475975D+00         -0.322416         -0.742389
 Vib (Bot)    5  0.475972D+00         -0.322419         -0.742397
 Vib (V=0)       0.413876D+02          1.616870          3.722982
 Vib (V=0)    1  0.105471D+02          1.023134          2.355853
 Vib (V=0)    2  0.161275D+01          0.207566          0.477939
 Vib (V=0)    3  0.161275D+01          0.207566          0.477938
 Vib (V=0)    4  0.119033D+01          0.075667          0.174229
 Vib (V=0)    5  0.119033D+01          0.075666          0.174227
 Electronic      0.100000D+01          0.000000          0.000000
 Translational   0.156175D+08          7.193611         16.563901
 Rotational      0.478284D+04          3.679686          8.472789
 ***** Axes restored to original set *****
 -------------------------------------------------------------------
 Center     Atomic                   Forces (Hartrees/Bohr)
 Number     Number              X              Y              Z
 -------------------------------------------------------------------
      1        6          -0.000089892    0.000018641    0.000035935
      2        6          -0.000124553    0.000025828    0.000049932
      3        6           0.000124553   -0.000025828   -0.000049932
      4        6           0.000089892   -0.000018641   -0.000035935
      5        1          -0.000038325   -0.000052862   -0.000026777
      6        1           0.000010774   -0.000002619    0.000069696
      7        1          -0.000013836    0.000064062   -0.000026169
      8        1          -0.000010774    0.000002619   -0.000069696
      9        1           0.000038325    0.000052862    0.000026777
     10        1           0.000013836   -0.000064062    0.000026169
 -------------------------------------------------------------------
 Cartesian Forces:  Max     0.000124553 RMS     0.000053749
 FormGI is forming the generalized inverse of G from B-inverse, IUseBI=4.

 GradGradGradGradGradGradGradGradGradGradGradGradGradGradGradGradGradGrad
 Berny optimization.
 Internal  Forces:  Max     0.000189773 RMS     0.000048705
 Search for a local minimum.
 Step number   1 out of a maximum of    2
 All quantities printed in internal units (Hartrees-Bohrs-Radians)
 Second derivative matrix not updated -- analytic derivatives used.
 ITU=  0
     Eigenvalues ---   -0.00001   0.01212   0.01572   0.03229   0.03428
     Eigenvalues ---    0.04554   0.04662   0.07706   0.09843   0.12334
     Eigenvalues ---    0.12426   0.15028   0.15071   0.15576   0.16116
     Eigenvalues ---    0.33707   0.33709   0.33752   0.33783   0.33956
     Eigenvalues ---    0.34000   0.36711   0.37055   1.04509
 Eigenvalue     1 is  -1.21D-05 should be greater than     0.000000 Eigenvector:
                          D2        D8        D5        D1        D3
   1                   -0.33333  -0.33333  -0.33333  -0.33333  -0.33333
                          D7        D9        D4        D6        A15
   1                   -0.33333  -0.33333  -0.33333  -0.33333  -0.00000
 Angle between quadratic step and forces=  40.91 degrees.
 Linear search not attempted -- first point.
 Iteration  1 RMS(Cart)=  0.00019275 RMS(Int)=  0.00000006
 Iteration  2 RMS(Cart)=  0.00000007 RMS(Int)=  0.00000003
 ClnCor:  largest displacement from symmetrization is 2.13D-06 for atom     2.
 Variable       Old X    -DE/DX   Delta X   Delta X   Delta X     New X
                                 (Linear)    (Quad)   (Total)
    R1        2.75568  -0.00005   0.00000  -0.00024  -0.00024   2.75544
    R2        2.05892  -0.00006   0.00000  -0.00015  -0.00015   2.05878
    R3        2.05892  -0.00006   0.00000  -0.00015  -0.00015   2.05878
    R4        2.05892  -0.00006   0.00000  -0.00015  -0.00015   2.05878
    R5        2.27945  -0.00019   0.00000  -0.00018  -0.00018   2.27927
    R6        2.75568  -0.00005   0.00000  -0.00024  -0.00024   2.75544
    R7        2.05892  -0.00006   0.00000  -0.00015  -0.00015   2.05878
    R8        2.05892  -0.00006   0.00000  -0.00015  -0.00015   2.05878
    R9        2.05892  -0.00006   0.00000  -0.00015  -0.00015   2.05878
    A1        1.93741   0.00004   0.00000   0.00030   0.00030   1.93771
    A2        1.93741   0.00004   0.00000   0.00030   0.00030   1.93771
    A3        1.93741   0.00004   0.00000   0.00030   0.00030   1.93771
    A4        1.88311  -0.00004   0.00000  -0.00032  -0.00032   1.88279
    A5        1.88311  -0.00004   0.00000  -0.00032  -0.00032   1.88279
    A6        1.88311  -0.00004   0.00000  -0.00032  -0.00032   1.88279
    A7        1.93741   0.00004   0.00000   0.00030   0.00030   1.93771
    A8        1.93741   0.00004   0.00000   0.00030   0.00030   1.93771
    A9        1.93741   0.00004   0.00000   0.00030   0.00030   1.93771
   A10        1.88311  -0.00004   0.00000  -0.00032  -0.00032   1.88279
   A11        1.88311  -0.00004   0.00000  -0.00032  -0.00032   1.88279
   A12        1.88311  -0.00004   0.00000  -0.00032  -0.00032   1.88279
   A13        3.14159   0.00000   0.00000   0.00000  -0.00000   3.14159
   A14        3.14159  -0.00000   0.00000  -0.00000  -0.00000   3.14159
   A15        3.14159   0.00000   0.00000   0.00000  -0.00000   3.14159
   A16        3.14159   0.00000   0.00000   0.00000  -0.00000   3.14159
    D1        1.04720  -0.00000   0.00000  -0.00000  -0.00000   1.04720
    D2        3.14159  -0.00000   0.00000  -0.00000  -0.00000   3.14159
    D3       -1.04720   0.00000   0.00000   0.00000   0.00000  -1.04720
    D4        3.14159   0.00000   0.00000  -0.00000   0.00000   3.14159
    D5       -1.04720   0.00000   0.00000   0.00000  -0.00000  -1.04720
    D6        1.04720   0.00000   0.00000   0.00000   0.00000   1.04720
    D7       -1.04720  -0.00000   0.00000  -0.00000  -0.00000  -1.04720
    D8        1.04720  -0.00000   0.00000  -0.00000  -0.00000   1.04720
    D9        3.14159  -0.00000   0.00000  -0.00000   0.00000  -3.14159
         Item               Value     Threshold  Converged?
 Maximum Force            0.000190     0.000450     YES
 RMS     Force            0.000049     0.000300     YES
 Maximum Displacement     0.000410     0.001800     YES
 RMS     Displacement     0.000193     0.001200     YES
 Predicted change in Energy=-1.294071D-07
 Optimization completed.
    -- Stationary point found.
                           ----------------------------
                           !   Optimized Parameters   !
                           ! (Angstroms and Degrees)  !
 --------------------------                            --------------------------
 ! Name  Definition              Value          Derivative Info.                !
 --------------------------------------------------------------------------------
 ! R1    R(1,2)                  1.4582         -DE/DX =   -0.0001              !
 ! R2    R(1,8)                  1.0895         -DE/DX =   -0.0001              !
 ! R3    R(1,9)                  1.0895         -DE/DX =   -0.0001              !
 ! R4    R(1,10)                 1.0895         -DE/DX =   -0.0001              !
 ! R5    R(2,3)                  1.2062         -DE/DX =   -0.0002              !
 ! R6    R(3,4)                  1.4582         -DE/DX =   -0.0001              !
 ! R7    R(4,5)                  1.0895         -DE/DX =   -0.0001              !
 ! R8    R(4,6)                  1.0895         -DE/DX =   -0.0001              !
 ! R9    R(4,7)                  1.0895         -DE/DX =   -0.0001              !
 ! A1    A(2,1,8)              111.0053         -DE/DX =    0.0                 !
 ! A2    A(2,1,9)              111.0053         -DE/DX =    0.0                 !
 ! A3    A(2,1,10)             111.0053         -DE/DX =    0.0                 !
 ! A4    A(8,1,9)              107.8945         -DE/DX =    0.0                 !
 ! A5    A(8,1,10)             107.8945         -DE/DX =    0.0                 !
 ! A6    A(9,1,10)             107.8945         -DE/DX =    0.0                 !
 ! A7    A(3,4,5)              111.0053         -DE/DX =    0.0                 !
 ! A8    A(3,4,6)              111.0053         -DE/DX =    0.0                 !
 ! A9    A(3,4,7)              111.0053         -DE/DX =    0.0                 !
 ! A10   A(5,4,6)              107.8945         -DE/DX =    0.0                 !
 ! A11   A(5,4,7)              107.8945         -DE/DX =    0.0                 !
 ! A12   A(6,4,7)              107.8945         -DE/DX =    0.0                 !
 ! A13   L(1,2,3,8,-1)         180.0            -DE/DX =    0.0                 !
 ! A14   L(2,3,4,5,-1)         180.0            -DE/DX =    0.0                 !
 ! A15   L(1,2,3,8,-2)         180.0            -DE/DX =    0.0                 !
 ! A16   L(2,3,4,5,-2)         180.0            -DE/DX =    0.0                 !
 ! D1    D(8,1,4,5)             60.0            -DE/DX =    0.0                 !
 ! D2    D(8,1,4,6)            180.0            -DE/DX =    0.0                 !
 ! D3    D(8,1,4,7)            -60.0            -DE/DX =    0.0                 !
 ! D4    D(9,1,4,5)            180.0            -DE/DX =    0.0                 !
 ! D5    D(9,1,4,6)            -60.0            -DE/DX =    0.0                 !
 ! D6    D(9,1,4,7)             60.0            -DE/DX =    0.0                 !
 ! D7    D(10,1,4,5)           -60.0            -DE/DX =    0.0                 !
 ! D8    D(10,1,4,6)            60.0            -DE/DX =    0.0                 !
 ! D9    D(10,1,4,7)          -180.0            -DE/DX =    0.0                 !
 --------------------------------------------------------------------------------
 GradGradGradGradGradGradGradGradGradGradGradGradGradGradGradGradGradGrad

 Dipole is zero, so no output in dipole orientation.

 ----------------------------------------------------------------------

 Electric dipole moment (input orientation):
 (Debye = 10**-18 statcoulomb cm , SI units = C m)
                  (au)            (Debye)         (10**-30 SI)
   Tot        0.000000D+00      0.000000D+00      0.000000D+00
   x          0.000000D+00      0.000000D+00      0.000000D+00
   y          0.000000D+00      0.000000D+00      0.000000D+00
   z          0.000000D+00      0.000000D+00      0.000000D+00

 Dipole polarizability, Alpha (input orientation).
 (esu units = cm**3 , SI units = C**2 m**2 J**-1)
 Alpha(0;0):
               (au)            (10**-24 esu)      (10**-40 SI)
   iso        0.456608D+02      0.676624D+01      0.752846D+01
   aniso      0.354287D+02      0.524999D+01      0.584140D+01
   xx         0.633244D+02      0.938371D+01      0.104408D+02
   yx        -0.611209D+01     -0.905718D+00     -0.100775D+01
   yy         0.351187D+02      0.520406D+01      0.579030D+01
   zx        -0.117546D+02     -0.174185D+01     -0.193807D+01
   zy         0.243764D+01      0.361221D+00      0.401912D+00
   zz         0.385393D+02      0.571094D+01      0.635428D+01

 ----------------------------------------------------------------------
 1\1\GINC-N73\Freq\UB2PLYPD3-FC\CC-pVTZ\C4H6\ROOT\02-Jun-2019\0\\#N Geo
 m=AllCheck Guess=TCheck SCRF=Check GenChk UB2PLYPD3(FC)/CC-pVTZ Freq\\
 Title Card Required\\0,1\C,-0.6537692148,0.3791882048,-0.4497767368\C,
 -1.9838157672,0.6550099841,0.0806741782\C,-3.0840058368,0.8831646919,0
 .5194534285\C,-4.4140523892,1.1589864712,1.0499043435\H,-4.4091163884,
 2.0547191499,1.6701685594\H,-5.1314187938,1.3134224168,0.2445323342\H,
 -4.7702675852,0.3304309404,1.6612107803\H,0.0635971898,0.2247522592,0.
 3555952725\H,-0.6587052156,-0.5165444739,-1.0700409528\H,-0.2975540188
 ,1.2077437356,-1.0610831737\\Version=ES64L-G16RevB.01\State=1-A1G\HF=-
 155.6747068\MP2=-155.8904227\PUHF=-155.6747068\PMP2-0=-155.8904227\S2=
 0.\S2-1=0.\S2A=0.\RMSD=2.196e-09\RMSF=5.375e-05\ZeroPoint=0.0844611\Th
 ermal=0.0902399\Dipole=0.,0.,0.\DipoleDeriv=0.1766562,-0.0070371,-0.01
 35381,-0.0070371,0.1441816,0.0028075,-0.0135407,0.002808,0.1481224,-0.
 0497777,-0.0252273,-0.0485137,-0.0252273,-0.1661954,0.0100607,-0.04851
 53,0.010061,-0.1520794,-0.0497777,-0.0252273,-0.0485137,-0.0252273,-0.
 1661954,0.0100607,-0.0485153,0.010061,-0.1520795,0.1766562,-0.0070371,
 -0.0135381,-0.0070371,0.1441816,0.0028075,-0.0135407,0.002808,0.148122
 4,-0.010165,0.0005685,0.0252297,0.0385485,-0.0374406,-0.0963514,0.0515
 846,-0.0866681,0.0139692,-0.087479,0.0367269,-0.0248144,0.036967,0.079
 4825,0.0057838,-0.0710397,0.0154657,-0.0256384,-0.0292345,-0.0050309,0
 .0616365,-0.0432511,-0.0200281,0.0776994,0.0815112,0.0583333,0.0156263
 ,-0.087479,0.0367269,-0.0248144,0.036967,0.0794825,0.0057838,-0.071039
 7,0.0154657,-0.0256384,-0.010165,0.0005685,0.0252297,0.0385485,-0.0374
 406,-0.0963514,0.0515846,-0.0866681,0.0139692,-0.0292345,-0.0050309,0.
 0616365,-0.0432511,-0.0200281,0.0776994,0.0815112,0.0583333,0.0156263\
 Polar=63.3244446,-6.1120855,35.1187246,-11.7545964,2.4376385,38.539346
 6\PG=D03D [C3(C1C1.C1C1),3SGD(H2)]\NImag=0\\0.52079891,0.00455951,0.54
 183989,0.00876901,-0.00181850,0.53928884,-0.24938428,0.03879927,0.0746
 1732,1.17058478,0.03879926,-0.07033553,-0.01547396,-0.22520852,0.13130
 484,0.07461803,-0.01547411,-0.09204813,-0.43311059,0.08981741,0.257334
 86,-0.00272053,0.00126784,0.00243825,-0.86951976,0.17364664,0.33394855
 ,1.17058478,0.00126784,0.00313023,-0.00050564,0.17364664,-0.06818479,-
 0.06925343,-0.22520852,0.13130484,0.00243765,-0.00050551,0.00242044,0.
 33394855,-0.06925343,-0.16535976,-0.43311059,0.08981741,0.25733486,0.0
 0249273,0.00057550,0.00110677,-0.00272053,0.00126784,0.00243765,-0.249
 38428,0.03879926,0.07461803,0.52079891,0.00057550,0.00514853,-0.000229
 52,0.00126784,0.00313023,-0.00050551,0.03879927,-0.07033553,-0.0154741
 1,0.00455951,0.54183989,0.00110677,-0.00022952,0.00482650,0.00243825,-
 0.00050564,0.00242044,0.07461732,-0.01547396,-0.09204813,0.00876901,-0
 .00181850,0.53928884,-0.00039100,-0.00078093,-0.00033663,-0.00058100,-
 0.00066960,-0.00020547,-0.00474385,0.02894240,0.02095665,-0.04488654,-
 0.00442851,-0.00324057,0.05236257,0.00016034,0.00015198,-0.00022276,-0
 .00160530,0.00045301,0.00042146,0.00564512,-0.00312325,-0.00269462,-0.
 00590935,-0.22632681,-0.12393293,0.00317341,0.24444359,0.00031651,0.00
 001720,0.00034534,-0.00085484,0.00018315,0.00078014,0.00479144,-0.0086
 3401,-0.00852583,-0.00426810,-0.12431049,-0.13071222,0.00034672,0.1375
 1999,0.14041799,0.00010180,0.00006094,0.00086120,0.00126817,-0.0001758
 0,0.00025188,-0.02807332,0.00570134,-0.01857603,-0.15543788,0.02369376
 ,-0.13025306,-0.00027967,-0.00075513,-0.00023094,0.17521361,0.00006689
 ,0.00040101,-0.00017617,-0.00018172,0.00047335,-0.00004484,0.00555403,
 -0.00249653,0.00381027,0.02368440,-0.05065106,0.02806221,-0.01850992,0
 .00468720,-0.02060147,-0.02797973,0.05110174,-0.00028449,0.00006380,-0
 .00039648,0.00139050,-0.00028332,-0.00108923,0.00978028,-0.00212895,0.
 01417676,-0.12845077,0.02768472,-0.19583649,-0.01092027,0.00347144,-0.
 01389183,0.13944187,-0.03006748,0.21090880,-0.00007560,0.00088301,-0.0
 0021104,0.00042420,0.00068649,-0.00035126,-0.01725442,-0.02299006,0.02
 003059,-0.07049762,-0.06463039,0.04624875,-0.00087663,-0.00080093,-0.0
 0029100,0.00760804,0.01730585,-0.01117897,0.08118949,-0.00006421,-0.00
 016548,0.00033391,0.00162812,-0.00054830,-0.00031341,0.00045454,0.0093
 2697,-0.00576323,-0.06314019,-0.20319275,0.11396336,-0.00766381,-0.020
 28670,0.01573407,-0.00060460,-0.00339575,0.00130592,0.06925625,0.21834
 545,0.00028150,-0.00014601,0.00034739,-0.00084107,0.00016350,0.0007762
 4,0.00784015,0.00611523,-0.00846549,0.04547388,0.11471843,-0.12823519,
 -0.00668317,-0.01461464,0.01167917,0.00809473,0.01910308,-0.01369660,-
 0.05430396,-0.12518010,0.13768921,-0.15543788,0.02369376,-0.13025306,-
 0.02807332,0.00570134,-0.01857603,0.00126817,-0.00017580,0.00025188,0.
 00010180,0.00006094,0.00086120,-0.00026877,-0.00002420,0.00020969,0.00
 006382,-0.00003149,0.00002354,-0.00019579,0.00011492,0.00017713,0.1752
 1361,0.02368440,-0.05065106,0.02806221,0.00555403,-0.00249653,0.003810
 27,-0.00018172,0.00047335,-0.00004484,0.00006689,0.00040101,-0.0001761
 7,-0.00005127,0.00001577,0.00003951,-0.00003149,-0.00007934,-0.0000053
 7,0.00014296,-0.00005640,-0.00011974,-0.02797973,0.05110174,-0.1284507
 7,0.02768472,-0.19583649,0.00978028,-0.00212895,0.01417676,0.00139050,
 -0.00028332,-0.00108923,-0.00028449,0.00006380,-0.00039648,0.00009843,
 -0.00002125,-0.00008623,0.00002354,-0.00000537,-0.00000166,0.00009988,
 -0.00001950,-0.00008705,0.13944187,-0.03006748,0.21090880,-0.04488654,
 -0.00442851,-0.00324057,-0.00474385,0.02894240,0.02095665,-0.00058100,
 -0.00066960,-0.00020547,-0.00039100,-0.00078093,-0.00033663,0.00000917
 ,-0.00001915,-0.00003754,-0.00026877,-0.00005127,0.00009843,-0.0003442
 8,0.00000738,0.00002185,-0.00027967,-0.01850992,-0.01092027,0.05236257
 ,-0.00590935,-0.22632681,-0.12393293,0.00564512,-0.00312325,-0.0026946
 2,-0.00160530,0.00045301,0.00042146,0.00016034,0.00015198,-0.00022276,
 -0.00001915,0.00000355,0.00006699,-0.00002420,0.00001577,-0.00002125,0
 .00013520,-0.00001834,0.00000632,-0.00075513,0.00468720,0.00347144,0.0
 0317341,0.24444360,-0.00426810,-0.12431049,-0.13071222,0.00479144,-0.0
 0863401,-0.00852583,-0.00085484,0.00018315,0.00078014,0.00031651,0.000
 01720,0.00034534,-0.00003754,0.00006699,-0.00002990,0.00020969,0.00003
 951,-0.00008623,0.00001805,-0.00001496,0.00002338,-0.00023094,-0.02060
 147,-0.01389183,0.00034672,0.13751999,0.14041799,-0.07049762,-0.064630
 39,0.04624875,-0.01725442,-0.02299006,0.02003059,0.00042420,0.00068649
 ,-0.00035126,-0.00007559,0.00088301,-0.00021104,-0.00034428,0.00013520
 ,0.00001805,-0.00019579,0.00014296,0.00009988,0.00002260,0.00001162,-0
 .00006104,0.00760804,0.01730585,-0.01117898,-0.00087663,-0.00080093,-0
 .00029100,0.08118949,-0.06314019,-0.20319275,0.11396336,0.00045454,0.0
 0932697,-0.00576323,0.00162812,-0.00054830,-0.00031341,-0.00006421,-0.
 00016548,0.00033391,0.00000738,-0.00001834,-0.00001496,0.00011492,-0.0
 0005640,-0.00001950,0.00001162,-0.00000870,-0.00004606,-0.00060460,-0.
 00339575,0.00130592,-0.00766381,-0.02028670,0.01573407,0.06925625,0.21
 834545,0.04547388,0.11471843,-0.12823519,0.00784015,0.00611523,-0.0084
 6549,-0.00084107,0.00016350,0.00077624,0.00028150,-0.00014601,0.000347
 39,0.00002185,0.00000632,0.00002338,0.00017713,-0.00011974,-0.00008705
 ,-0.00006104,-0.00004606,-0.00003108,0.00809473,0.01910308,-0.01369660
 ,-0.00668317,-0.01461464,0.01167917,-0.05430396,-0.12518010,0.13768921
 \\0.00008989,-0.00001864,-0.00003593,0.00012455,-0.00002583,-0.0000499
 3,-0.00012455,0.00002583,0.00004993,-0.00008989,0.00001864,0.00003593,
 0.00003833,0.00005286,0.00002678,-0.00001077,0.00000262,-0.00006970,0.
 00001384,-0.00006406,0.00002617,0.00001077,-0.00000262,0.00006970,-0.0
 0003833,-0.00005286,-0.00002678,-0.00001384,0.00006406,-0.00002617\\\@


 LEARN FROM YESTERDAY,
 LIVE FOR TODAY,
 LOOK TO TOMORROW,
 REST THIS AFTERNOON.

           -- SNOOPY
 Job cpu time:       0 days  4 hours 29 minutes 46.1 seconds.
 Elapsed time:       0 days  0 hours  6 minutes 49.7 seconds.
 File lengths (MBytes):  RWF=  11253 Int=      0 D2E=      0 Chk=      8 Scr=      1
 Normal termination of Gaussian 16 at Sun Jun  2 16:35:49 2019.
