 Entering Gaussian System, Link 0=g16
 Initial command:
 /ichec/packages/gaussian/16b01/l1.exe "/localscratch/339767/Gau-15582.inp" -scrdir="/localscratch/339767/"
 Entering Link 1 = /ichec/packages/gaussian/16b01/l1.exe PID=     15636.
  
 Copyright (c) 1988-2017, Gaussian, Inc.  All Rights Reserved.
  
 This is part of the Gaussian(R) 16 program.  It is based on
 the Gaussian(R) 09 system (copyright 2009, Gaussian, Inc.),
 the Gaussian(R) 03 system (copyright 2003, Gaussian, Inc.),
 the Gaussian(R) 98 system (copyright 1998, Gaussian, Inc.),
 the Gaussian(R) 94 system (copyright 1995, Gaussian, Inc.),
 the Gaussian 92(TM) system (copyright 1992, Gaussian, Inc.),
 the Gaussian 90(TM) system (copyright 1990, Gaussian, Inc.),
 the Gaussian 88(TM) system (copyright 1988, Gaussian, Inc.),
 the Gaussian 86(TM) system (copyright 1986, Carnegie Mellon
 University), and the Gaussian 82(TM) system (copyright 1983,
 Carnegie Mellon University). Gaussian is a federally registered
 trademark of Gaussian, Inc.
  
 This software contains proprietary and confidential information,
 including trade secrets, belonging to Gaussian, Inc.
  
 This software is provided under written license and may be
 used, copied, transmitted, or stored only in accord with that
 written license.
  
 The following legend is applicable only to US Government
 contracts under FAR:
  
                    RESTRICTED RIGHTS LEGEND
  
 Use, reproduction and disclosure by the US Government is
 subject to restrictions as set forth in subparagraphs (a)
 and (c) of the Commercial Computer Software - Restricted
 Rights clause in FAR 52.227-19.
  
 Gaussian, Inc.
 340 Quinnipiac St., Bldg. 40, Wallingford CT 06492
  
  
 ---------------------------------------------------------------
 Warning -- This program may not be used in any manner that
 competes with the business of Gaussian, Inc. or will provide
 assistance to any competitor of Gaussian, Inc.  The licensee
 of this program is prohibited from giving any competitor of
 Gaussian, Inc. access to this program.  By using this program,
 the user acknowledges that Gaussian, Inc. is engaged in the
 business of creating and licensing software in the field of
 computational chemistry and represents and warrants to the
 licensee that it is not a competitor of Gaussian, Inc. and that
 it will not use this program in any manner prohibited above.
 ---------------------------------------------------------------
  

 Cite this work as:
 Gaussian 16, Revision B.01,
 M. J. Frisch, G. W. Trucks, H. B. Schlegel, G. E. Scuseria, 
 M. A. Robb, J. R. Cheeseman, G. Scalmani, V. Barone, 
 G. A. Petersson, H. Nakatsuji, X. Li, M. Caricato, A. V. Marenich, 
 J. Bloino, B. G. Janesko, R. Gomperts, B. Mennucci, H. P. Hratchian, 
 J. V. Ortiz, A. F. Izmaylov, J. L. Sonnenberg, D. Williams-Young, 
 F. Ding, F. Lipparini, F. Egidi, J. Goings, B. Peng, A. Petrone, 
 T. Henderson, D. Ranasinghe, V. G. Zakrzewski, J. Gao, N. Rega, 
 G. Zheng, W. Liang, M. Hada, M. Ehara, K. Toyota, R. Fukuda, 
 J. Hasegawa, M. Ishida, T. Nakajima, Y. Honda, O. Kitao, H. Nakai, 
 T. Vreven, K. Throssell, J. A. Montgomery, Jr., J. E. Peralta, 
 F. Ogliaro, M. J. Bearpark, J. J. Heyd, E. N. Brothers, K. N. Kudin, 
 V. N. Staroverov, T. A. Keith, R. Kobayashi, J. Normand, 
 K. Raghavachari, A. P. Rendell, J. C. Burant, S. S. Iyengar, 
 J. Tomasi, M. Cossi, J. M. Millam, M. Klene, C. Adamo, R. Cammi, 
 J. W. Ochterski, R. L. Martin, K. Morokuma, O. Farkas, 
 J. B. Foresman, and D. J. Fox, Gaussian, Inc., Wallingford CT, 2016.
 
 ******************************************
 Gaussian 16:  ES64L-G16RevB.01 20-Dec-2017
                 2-Jun-2019 
 ******************************************
 %mem=80GB
 %nproc=40
 Will use up to   40 processors via shared memory.
 -----------------------------------------------
 # opt=maxcyc=500 freq=noraman uB2PLYPD3/cc-pvtz
 -----------------------------------------------
 1/6=500,18=20,19=15,38=1/1,3;
 2/9=110,12=2,17=6,18=5,40=1/2;
 3/5=16,6=1,11=2,25=1,30=1,71=1,74=-60,116=2/1,2,3;
 4//1;
 5/5=2,38=5/2;
 8/6=4,10=1/1;
 9/15=2,16=-3/6;
 10/5=1/2;
 6/7=2,8=2,9=2,10=2/1;
 7/12=2/1,2,3,16;
 1/6=500,18=20,19=15/3(2);
 2/9=110/2;
 99//99;
 2/9=110/2;
 3/5=16,6=1,11=2,25=1,30=1,71=1,74=-60,116=2/1,2,3;
 4/5=5,16=3,69=1/1;
 5/5=2,38=5/2;
 8/6=4,10=1/1;
 9/15=2,16=-3/6;
 10/5=1/2;
 7/12=2/1,2,3,16;
 1/6=500,18=20,19=15/3(-8);
 2/9=110/2;
 6/7=2,8=2,9=2,10=2/1;
 99/9=10/99;
 -------------------
 Title Card Required
 -------------------
 Symbolic Z-matrix:
 Charge =  0 Multiplicity = 1
 C                    -0.00003  -0.00001   2.06111 
 C                    -0.00003  -0.00003   0.60307 
 C                     0.00003  0.        -0.60307 
 C                     0.00003   0.00001  -2.06111 
 H                     1.01697  -0.00009  -2.45196 
 H                    -0.50856  -0.88065  -2.45191 
 H                    -0.50845   0.88073  -2.45192 
 H                    -0.50851   0.8807    2.45192 
 H                    -0.5084   -0.88076   2.45198 
 H                     1.01695   0.0001    2.4519 
 

 GradGradGradGradGradGradGradGradGradGradGradGradGradGradGradGradGradGrad
 Berny optimization.
 Initialization pass.
                           ----------------------------
                           !    Initial Parameters    !
                           ! (Angstroms and Degrees)  !
 --------------------------                            --------------------------
 ! Name  Definition              Value          Derivative Info.                !
 --------------------------------------------------------------------------------
 ! R1    R(1,2)                  1.458          estimate D2E/DX2                !
 ! R2    R(1,8)                  1.0895         estimate D2E/DX2                !
 ! R3    R(1,9)                  1.0895         estimate D2E/DX2                !
 ! R4    R(1,10)                 1.0895         estimate D2E/DX2                !
 ! R5    R(2,3)                  1.2061         estimate D2E/DX2                !
 ! R6    R(3,4)                  1.458          estimate D2E/DX2                !
 ! R7    R(4,5)                  1.0895         estimate D2E/DX2                !
 ! R8    R(4,6)                  1.0895         estimate D2E/DX2                !
 ! R9    R(4,7)                  1.0895         estimate D2E/DX2                !
 ! A1    A(2,1,8)              111.0218         estimate D2E/DX2                !
 ! A2    A(2,1,9)              111.0235         estimate D2E/DX2                !
 ! A3    A(2,1,10)             111.02           estimate D2E/DX2                !
 ! A4    A(8,1,9)              107.8808         estimate D2E/DX2                !
 ! A5    A(8,1,10)             107.8736         estimate D2E/DX2                !
 ! A6    A(9,1,10)             107.877          estimate D2E/DX2                !
 ! A7    A(3,4,5)              111.0236         estimate D2E/DX2                !
 ! A8    A(3,4,6)              111.0199         estimate D2E/DX2                !
 ! A9    A(3,4,7)              111.0219         estimate D2E/DX2                !
 ! A10   A(5,4,6)              107.8772         estimate D2E/DX2                !
 ! A11   A(5,4,7)              107.8807         estimate D2E/DX2                !
 ! A12   A(6,4,7)              107.8735         estimate D2E/DX2                !
 ! A13   L(1,2,3,10,-1)        179.997          estimate D2E/DX2                !
 ! A14   L(2,3,4,6,-1)         179.9981         estimate D2E/DX2                !
 ! A15   L(1,2,3,10,-2)        180.0045         estimate D2E/DX2                !
 ! A16   L(2,3,4,6,-2)         179.9957         estimate D2E/DX2                !
 ! D1    D(8,1,4,5)            120.0059         estimate D2E/DX2                !
 ! D2    D(8,1,4,6)           -119.9936         estimate D2E/DX2                !
 ! D3    D(8,1,4,7)              0.0001         estimate D2E/DX2                !
 ! D4    D(9,1,4,5)           -119.9876         estimate D2E/DX2                !
 ! D5    D(9,1,4,6)              0.0128         estimate D2E/DX2                !
 ! D6    D(9,1,4,7)            120.0066         estimate D2E/DX2                !
 ! D7    D(10,1,4,5)             0.0125         estimate D2E/DX2                !
 ! D8    D(10,1,4,6)           120.013          estimate D2E/DX2                !
 ! D9    D(10,1,4,7)          -119.9933         estimate D2E/DX2                !
 --------------------------------------------------------------------------------
 Trust Radius=3.00D-01 FncErr=1.00D-07 GrdErr=1.00D-07 EigMax=2.50D+02 EigMin=1.00D-04
 Number of steps in this run=    100 maximum allowed number of steps=    100.
 GradGradGradGradGradGradGradGradGradGradGradGradGradGradGradGradGradGrad

                          Input orientation:                          
 ---------------------------------------------------------------------
 Center     Atomic      Atomic             Coordinates (Angstroms)
 Number     Number       Type             X           Y           Z
 ---------------------------------------------------------------------
      1          6           0       -0.000028   -0.000011    2.061114
      2          6           0       -0.000032   -0.000032    0.603066
      3          6           0        0.000027   -0.000004   -0.603066
      4          6           0        0.000028    0.000014   -2.061114
      5          1           0        1.016973   -0.000091   -2.451962
      6          1           0       -0.508555   -0.880654   -2.451911
      7          1           0       -0.508445    0.880734   -2.451924
      8          1           0       -0.508513    0.880704    2.451922
      9          1           0       -0.508403   -0.880761    2.451975
     10          1           0        1.016949    0.000102    2.451899
 ---------------------------------------------------------------------
                    Distance matrix (angstroms):
                    1          2          3          4          5
     1  C    0.000000
     2  C    1.458048   0.000000
     3  C    2.664180   1.206132   0.000000
     4  C    4.122228   2.664180   1.458048   0.000000
     5  H    4.626245   3.219860   2.110117   1.089467   0.000000
     6  H    4.626178   3.219779   2.110078   1.089475   1.761428
     7  H    4.626198   3.219813   2.110099   1.089470   1.761463
     8  H    1.089471   2.110099   3.219815   4.626200   5.210661
     9  H    1.089467   2.110116   3.219862   4.626255   5.210657
    10  H    1.089475   2.110079   3.219774   4.626166   4.903861
                    6          7          8          9         10
     6  H    0.000000
     7  H    1.761388   0.000000
     8  H    5.210562   4.903846   0.000000
     9  H    4.903886   5.210671   1.761465   0.000000
    10  H    5.210590   5.210549   1.761390   1.761425   0.000000
 This structure is nearly, but not quite of a higher symmetry.
 Consider Symm=Loose if the higher symmetry is desired.
 Stoichiometry    C4H6
 Framework group  C1[X(C4H6)]
 Deg. of freedom    24
 Full point group                 C1      NOp   1
 Largest Abelian subgroup         C1      NOp   1
 Largest concise Abelian subgroup C1      NOp   1
                         Standard orientation:                         
 ---------------------------------------------------------------------
 Center     Atomic      Atomic             Coordinates (Angstroms)
 Number     Number       Type             X           Y           Z
 ---------------------------------------------------------------------
      1          6           0       -2.061114    0.000087    0.000040
      2          6           0       -0.603066    0.000059    0.000017
      3          6           0        0.603066   -0.000037   -0.000028
      4          6           0        2.061114   -0.000100   -0.000034
      5          1           0        2.451935   -0.575104   -0.838824
      6          1           0        2.451943    1.013821   -0.078597
      7          1           0        2.451919   -0.438948    0.917369
      8          1           0       -2.451927   -0.438725    0.917458
      9          1           0       -2.451943    1.013984   -0.078733
     10          1           0       -2.451926   -0.575089   -0.838645
 ---------------------------------------------------------------------
 Rotational constants (GHZ):          80.8114746           3.3654667           3.3654667
 Standard basis: CC-pVTZ (5D, 7F)
 There are   230 symmetry adapted cartesian basis functions of A   symmetry.
 There are   204 symmetry adapted basis functions of A   symmetry.
   204 basis functions,   310 primitive gaussians,   230 cartesian basis functions
    15 alpha electrons       15 beta electrons
       nuclear repulsion energy       100.1327097809 Hartrees.
 NAtoms=   10 NActive=   10 NUniq=   10 SFac= 1.00D+00 NAtFMM=   60 NAOKFM=F Big=F
 Integral buffers will be    131072 words long.
 Raffenetti 2 integral format.
 Two-electron integral symmetry is turned on.
 Nuclear repulsion after empirical dispersion term =      100.1285746213 Hartrees.
 One-electron integrals computed using PRISM.
 NBasis=   204 RedAO= T EigKep=  1.57D-05  NBF=   204
 NBsUse=   204 1.00D-06 EigRej= -1.00D+00 NBFU=   204
 ExpMin= 1.03D-01 ExpMax= 8.24D+03 ExpMxC= 2.81D+02 IAcc=3 IRadAn=         5 AccDes= 0.00D+00
 Harris functional with IExCor=  419 and IRadAn=       5 diagonalized for initial guess.
 HarFok:  IExCor=  419 AccDes= 0.00D+00 IRadAn=         5 IDoV= 1 UseB2=F ITyADJ=14
 ICtDFT=  3500011 ScaDFX=  1.000000  1.000000  1.000000  1.000000
 FoFCou: FMM=F IPFlag=           0 FMFlag=      100000 FMFlg1=           0
         NFxFlg=           0 DoJE=T BraDBF=F KetDBF=T FulRan=T
         wScrn=  0.000000 ICntrl=       500 IOpCl=  0 I1Cent=   200000004 NGrid=           0
         NMat0=    1 NMatS0=      1 NMatT0=    0 NMatD0=    1 NMtDS0=    0 NMtDT0=    0
 Petite list used in FoFCou.
 Initial guess <Sx>= 0.0000 <Sy>= 0.0000 <Sz>= 0.0000 <S**2>= 0.0000 S= 0.0000
 Keep R1 and R2 ints in memory in canonical form, NReq=479624312.
 Requested convergence on RMS density matrix=1.00D-08 within 128 cycles.
 Requested convergence on MAX density matrix=1.00D-06.
 Requested convergence on             energy=1.00D-06.
 No special actions if energy rises.
 Integral accuracy reduced to 1.0D-05 until final iterations.
 Initial convergence to 1.0D-05 achieved.  Increase integral accuracy.
 SCF Done:  E(UB2PLYPD3) =  -155.674739843     A.U. after   10 cycles
            NFock= 10  Conv=0.33D-08     -V/T= 2.0048
 <Sx>= 0.0000 <Sy>= 0.0000 <Sz>= 0.0000 <S**2>=-0.0000 S=-0.0000
 <L.S>=  0.00000000000    
 Annihilation of the first spin contaminant:
 S**2 before annihilation    -0.0000,   after    -0.0000
 DoSCS=T DFT=T ScalE2(SS,OS)=  0.270000  0.270000
 ExpMin= 1.03D-01 ExpMax= 8.24D+03 ExpMxC= 2.81D+02 IAcc=3 IRadAn=         5 AccDes= 0.00D+00
 HarFok:  IExCor=  205 AccDes= 0.00D+00 IRadAn=         5 IDoV=-2 UseB2=F ITyADJ=14
 ICtDFT= 12500011 ScaDFX=  1.000000  1.000000  1.000000  1.000000
 Range of M.O.s used for correlation:     5   204
 NBasis=   204 NAE=    15 NBE=    15 NFC=     4 NFV=     0
 NROrb=    200 NOA=    11 NOB=    11 NVA=   189 NVB=   189

 **** Warning!!: The largest alpha MO coefficient is  0.61948138D+02


 **** Warning!!: The largest beta MO coefficient is  0.61948138D+02

 DoSCS=T DFT=T ScalE2(SS,OS)=  0.270000  0.270000
 Fully direct method using O(ONN) memory.
 JobTyp=2 Pass  1:  I=   5 to  15 NPSUse= 40 ParTrn=T ParDer=T DoDerP=T.
 JobTyp=3 Pass  1:  I=   5 to  15 NPSUse= 40 ParTrn=T ParDer=T DoDerP=T.
 Spin components of T(2) and E(2):
     alpha-alpha T2 =       0.4354676643D-01 E2=     -0.2516823278D-01
     alpha-beta  T2 =       0.2605502951D+00 E2=     -0.1653708759D+00
     beta-beta   T2 =       0.4354676643D-01 E2=     -0.2516823278D-01
 (S**2,0)=  0.00000D+00           (S**2,1)=  0.00000D+00
 E(PUHF)=      -0.15567473984D+03        E(PMP2)=      -0.15589044718D+03
 E2(B2PLYPD3) =    -0.2157073415D+00 E(B2PLYPD3) =    -0.15589044718494D+03
          IDoAtm=1111111111
          Differentiating once with respect to electric field.
                with respect to dipole field.
          Differentiating once with respect to nuclear coordinates.
 Keep R1 and R2 ints in memory in canonical form, NReq=479631602.
          There are     1 degrees of freedom in the 1st order CPHF.  IDoFFX=0 NUNeed=     1.
 LinEq1:  Iter=  0 NonCon=     1 RMS=6.63D-04 Max=1.06D-02 NDo=     1
 AX will form     1 AO Fock derivatives at one time.
 LinEq1:  Iter=  1 NonCon=     1 RMS=2.48D-04 Max=4.79D-03 NDo=     1
 LinEq1:  Iter=  2 NonCon=     1 RMS=4.73D-05 Max=6.32D-04 NDo=     1
 LinEq1:  Iter=  3 NonCon=     1 RMS=5.60D-06 Max=1.04D-04 NDo=     1
 LinEq1:  Iter=  4 NonCon=     1 RMS=9.66D-07 Max=2.17D-05 NDo=     1
 LinEq1:  Iter=  5 NonCon=     1 RMS=4.62D-07 Max=5.30D-06 NDo=     1
 LinEq1:  Iter=  6 NonCon=     1 RMS=5.51D-08 Max=9.28D-07 NDo=     1
 LinEq1:  Iter=  7 NonCon=     1 RMS=8.84D-09 Max=1.16D-07 NDo=     1
 LinEq1:  Iter=  8 NonCon=     1 RMS=1.02D-09 Max=1.27D-08 NDo=     1
 LinEq1:  Iter=  9 NonCon=     1 RMS=3.74D-10 Max=8.98D-09 NDo=     1
 LinEq1:  Iter= 10 NonCon=     1 RMS=1.48D-10 Max=2.51D-09 NDo=     1
 LinEq1:  Iter= 11 NonCon=     0 RMS=2.87D-11 Max=6.62D-10 NDo=     1
 Linear equations converged to 1.000D-10 1.000D-09 after    11 iterations.
 End of Minotr F.D. properties file   721 does not exist.
 End of Minotr F.D. properties file   722 does not exist.
 End of Minotr F.D. properties file   788 does not exist.

 **********************************************************************

            Population analysis using the SCF Density.

 **********************************************************************

 Orbital symmetries:
 Alpha Orbitals:
       Occupied  (A) (A) (A) (A) (A) (A) (A) (A) (A) (A) (A) (A)
                 (A) (A) (A)
       Virtual   (A) (A) (A) (A) (A) (A) (A) (A) (A) (A) (A) (A)
                 (A) (A) (A) (A) (A) (A) (A) (A) (A) (A) (A) (A)
                 (A) (A) (A) (A) (A) (A) (A) (A) (A) (A) (A) (A)
                 (A) (A) (A) (A) (A) (A) (A) (A) (A) (A) (A) (A)
                 (A) (A) (A) (A) (A) (A) (A) (A) (A) (A) (A) (A)
                 (A) (A) (A) (A) (A) (A) (A) (A) (A) (A) (A) (A)
                 (A) (A) (A) (A) (A) (A) (A) (A) (A) (A) (A) (A)
                 (A) (A) (A) (A) (A) (A) (A) (A) (A) (A) (A) (A)
                 (A) (A) (A) (A) (A) (A) (A) (A) (A) (A) (A) (A)
                 (A) (A) (A) (A) (A) (A) (A) (A) (A) (A) (A) (A)
                 (A) (A) (A) (A) (A) (A) (A) (A) (A) (A) (A) (A)
                 (A) (A) (A) (A) (A) (A) (A) (A) (A) (A) (A) (A)
                 (A) (A) (A) (A) (A) (A) (A) (A) (A) (A) (A) (A)
                 (A) (A) (A) (A) (A) (A) (A) (A) (A) (A) (A) (A)
                 (A) (A) (A) (A) (A) (A) (A) (A) (A) (A) (A) (A)
                 (A) (A) (A) (A) (A) (A) (A) (A) (A)
 Beta  Orbitals:
       Occupied  (A) (A) (A) (A) (A) (A) (A) (A) (A) (A) (A) (A)
                 (A) (A) (A)
       Virtual   (A) (A) (A) (A) (A) (A) (A) (A) (A) (A) (A) (A)
                 (A) (A) (A) (A) (A) (A) (A) (A) (A) (A) (A) (A)
                 (A) (A) (A) (A) (A) (A) (A) (A) (A) (A) (A) (A)
                 (A) (A) (A) (A) (A) (A) (A) (A) (A) (A) (A) (A)
                 (A) (A) (A) (A) (A) (A) (A) (A) (A) (A) (A) (A)
                 (A) (A) (A) (A) (A) (A) (A) (A) (A) (A) (A) (A)
                 (A) (A) (A) (A) (A) (A) (A) (A) (A) (A) (A) (A)
                 (A) (A) (A) (A) (A) (A) (A) (A) (A) (A) (A) (A)
                 (A) (A) (A) (A) (A) (A) (A) (A) (A) (A) (A) (A)
                 (A) (A) (A) (A) (A) (A) (A) (A) (A) (A) (A) (A)
                 (A) (A) (A) (A) (A) (A) (A) (A) (A) (A) (A) (A)
                 (A) (A) (A) (A) (A) (A) (A) (A) (A) (A) (A) (A)
                 (A) (A) (A) (A) (A) (A) (A) (A) (A) (A) (A) (A)
                 (A) (A) (A) (A) (A) (A) (A) (A) (A) (A) (A) (A)
                 (A) (A) (A) (A) (A) (A) (A) (A) (A) (A) (A) (A)
                 (A) (A) (A) (A) (A) (A) (A) (A) (A)
 The electronic state is 1-A.
 Alpha  occ. eigenvalues --  -10.62748 -10.62748 -10.60236 -10.59938  -0.89889
 Alpha  occ. eigenvalues --   -0.85276  -0.77153  -0.55279  -0.50315  -0.49896
 Alpha  occ. eigenvalues --   -0.49896  -0.48442  -0.48442  -0.29740  -0.29740
 Alpha virt. eigenvalues --    0.08448   0.09523   0.11326   0.11326   0.15243
 Alpha virt. eigenvalues --    0.15243   0.19255   0.19255   0.21591   0.22970
 Alpha virt. eigenvalues --    0.31808   0.31809   0.32280   0.32280   0.34378
 Alpha virt. eigenvalues --    0.35158   0.41664   0.41664   0.47288   0.50561
 Alpha virt. eigenvalues --    0.50561   0.52935   0.53097   0.53097   0.53972
 Alpha virt. eigenvalues --    0.56920   0.56920   0.61550   0.66172   0.66173
 Alpha virt. eigenvalues --    0.73150   0.73150   0.73731   0.79275   0.82106
 Alpha virt. eigenvalues --    0.85664   0.85664   0.89188   0.95377   0.95378
 Alpha virt. eigenvalues --    0.99589   0.99590   1.06003   1.07847   1.07847
 Alpha virt. eigenvalues --    1.09642   1.09642   1.10273   1.10273   1.24784
 Alpha virt. eigenvalues --    1.27072   1.29927   1.29928   1.31598   1.31669
 Alpha virt. eigenvalues --    1.31669   1.38020   1.39194   1.39194   1.40305
 Alpha virt. eigenvalues --    1.40305   1.48959   1.50041   1.50041   1.59882
 Alpha virt. eigenvalues --    1.59882   1.60171   1.68143   1.78843   1.78844
 Alpha virt. eigenvalues --    2.15500   2.15500   2.29210   2.32651   2.32652
 Alpha virt. eigenvalues --    2.35884   2.43562   2.43563   2.51407   2.57121
 Alpha virt. eigenvalues --    2.57122   2.61296   2.61848   2.64323   2.66858
 Alpha virt. eigenvalues --    2.74559   2.77901   2.77901   2.82596   2.82597
 Alpha virt. eigenvalues --    2.83105   2.87864   2.87865   2.88889   2.90306
 Alpha virt. eigenvalues --    2.94318   2.94640   2.94640   2.99088   2.99088
 Alpha virt. eigenvalues --    2.99675   2.99675   3.05762   3.07904   3.07904
 Alpha virt. eigenvalues --    3.10201   3.16190   3.16190   3.18637   3.18638
 Alpha virt. eigenvalues --    3.29466   3.29466   3.30573   3.30573   3.35545
 Alpha virt. eigenvalues --    3.38610   3.38611   3.43890   3.44209   3.45431
 Alpha virt. eigenvalues --    3.50060   3.50060   3.54682   3.54682   3.57648
 Alpha virt. eigenvalues --    3.57848   3.62478   3.62478   3.75339   3.75340
 Alpha virt. eigenvalues --    3.79744   3.82283   3.82284   3.92414   3.94275
 Alpha virt. eigenvalues --    3.94277   3.95364   3.95364   4.01399   4.09240
 Alpha virt. eigenvalues --    4.09787   4.09787   4.10000   4.10000   4.22302
 Alpha virt. eigenvalues --    4.22416   4.23865   4.23865   4.39803   4.40749
 Alpha virt. eigenvalues --    4.40750   4.43148   4.50547   4.50548   4.51728
 Alpha virt. eigenvalues --    4.52029   4.74486   4.74487   4.96853   4.96853
 Alpha virt. eigenvalues --    4.98744   5.07791   5.10739   5.10740   5.20726
 Alpha virt. eigenvalues --    5.22183   5.28805   5.28806   5.32155   5.37008
 Alpha virt. eigenvalues --    5.37009   5.38484   5.45081   5.45082   5.46801
 Alpha virt. eigenvalues --    5.50162   5.50162   5.86415   5.86415   5.87142
 Alpha virt. eigenvalues --    5.97978   5.97978   6.05936   6.05937   6.12271
 Alpha virt. eigenvalues --    7.44144  13.84678  14.02188  18.17070
  Beta  occ. eigenvalues --  -10.62748 -10.62748 -10.60236 -10.59938  -0.89889
  Beta  occ. eigenvalues --   -0.85276  -0.77153  -0.55279  -0.50315  -0.49896
  Beta  occ. eigenvalues --   -0.49896  -0.48442  -0.48442  -0.29740  -0.29740
  Beta virt. eigenvalues --    0.08448   0.09523   0.11326   0.11326   0.15243
  Beta virt. eigenvalues --    0.15243   0.19255   0.19255   0.21591   0.22970
  Beta virt. eigenvalues --    0.31808   0.31809   0.32280   0.32280   0.34378
  Beta virt. eigenvalues --    0.35158   0.41664   0.41664   0.47288   0.50561
  Beta virt. eigenvalues --    0.50561   0.52935   0.53097   0.53097   0.53972
  Beta virt. eigenvalues --    0.56920   0.56920   0.61550   0.66172   0.66173
  Beta virt. eigenvalues --    0.73150   0.73150   0.73731   0.79275   0.82106
  Beta virt. eigenvalues --    0.85664   0.85664   0.89188   0.95377   0.95378
  Beta virt. eigenvalues --    0.99589   0.99590   1.06003   1.07847   1.07847
  Beta virt. eigenvalues --    1.09642   1.09642   1.10273   1.10273   1.24784
  Beta virt. eigenvalues --    1.27072   1.29927   1.29928   1.31598   1.31669
  Beta virt. eigenvalues --    1.31669   1.38020   1.39194   1.39194   1.40305
  Beta virt. eigenvalues --    1.40305   1.48959   1.50041   1.50041   1.59882
  Beta virt. eigenvalues --    1.59882   1.60171   1.68143   1.78843   1.78844
  Beta virt. eigenvalues --    2.15500   2.15500   2.29210   2.32651   2.32652
  Beta virt. eigenvalues --    2.35884   2.43562   2.43563   2.51407   2.57121
  Beta virt. eigenvalues --    2.57122   2.61296   2.61848   2.64323   2.66858
  Beta virt. eigenvalues --    2.74559   2.77901   2.77901   2.82596   2.82597
  Beta virt. eigenvalues --    2.83105   2.87864   2.87865   2.88889   2.90306
  Beta virt. eigenvalues --    2.94318   2.94640   2.94640   2.99088   2.99088
  Beta virt. eigenvalues --    2.99675   2.99675   3.05762   3.07904   3.07904
  Beta virt. eigenvalues --    3.10201   3.16190   3.16190   3.18637   3.18638
  Beta virt. eigenvalues --    3.29466   3.29466   3.30573   3.30573   3.35545
  Beta virt. eigenvalues --    3.38610   3.38611   3.43890   3.44209   3.45431
  Beta virt. eigenvalues --    3.50060   3.50060   3.54682   3.54682   3.57648
  Beta virt. eigenvalues --    3.57848   3.62478   3.62478   3.75339   3.75340
  Beta virt. eigenvalues --    3.79744   3.82283   3.82284   3.92414   3.94275
  Beta virt. eigenvalues --    3.94277   3.95364   3.95364   4.01399   4.09240
  Beta virt. eigenvalues --    4.09787   4.09787   4.10000   4.10000   4.22302
  Beta virt. eigenvalues --    4.22416   4.23865   4.23865   4.39803   4.40749
  Beta virt. eigenvalues --    4.40750   4.43148   4.50547   4.50548   4.51728
  Beta virt. eigenvalues --    4.52029   4.74486   4.74487   4.96853   4.96853
  Beta virt. eigenvalues --    4.98744   5.07791   5.10739   5.10740   5.20726
  Beta virt. eigenvalues --    5.22183   5.28805   5.28806   5.32155   5.37008
  Beta virt. eigenvalues --    5.37009   5.38484   5.45081   5.45082   5.46801
  Beta virt. eigenvalues --    5.50162   5.50162   5.86415   5.86415   5.87142
  Beta virt. eigenvalues --    5.97978   5.97978   6.05936   6.05937   6.12271
  Beta virt. eigenvalues --    7.44144  13.84678  14.02188  18.17070
          Condensed to atoms (all electrons):
               1          2          3          4          5          6
     1  C    4.767717   0.440004  -0.103442  -0.001128   0.000059   0.000060
     2  C    0.440004   5.289665   0.519930  -0.103442   0.000860   0.000885
     3  C   -0.103442   0.519930   5.289664   0.440004  -0.044106  -0.044105
     4  C   -0.001128  -0.103442   0.440004   4.767717   0.409310   0.409274
     5  H    0.000059   0.000860  -0.044106   0.409310   0.577889  -0.029989
     6  H    0.000060   0.000885  -0.044105   0.409274  -0.029989   0.577910
     7  H    0.000059   0.000874  -0.044104   0.409289  -0.029985  -0.029993
     8  H    0.409291  -0.044105   0.000872   0.000059  -0.000035  -0.000035
     9  H    0.409307  -0.044106   0.000862   0.000059  -0.000035   0.000144
    10  H    0.409274  -0.044104   0.000884   0.000060   0.000144  -0.000035
               7          8          9         10
     1  C    0.000059   0.409291   0.409307   0.409274
     2  C    0.000874  -0.044105  -0.044106  -0.044104
     3  C   -0.044104   0.000872   0.000862   0.000884
     4  C    0.409289   0.000059   0.000059   0.000060
     5  H   -0.029985  -0.000035  -0.000035   0.000144
     6  H   -0.029993  -0.000035   0.000144  -0.000035
     7  H    0.577899   0.000144  -0.000035  -0.000035
     8  H    0.000144   0.577899  -0.029986  -0.029993
     9  H   -0.000035  -0.029986   0.577890  -0.029989
    10  H   -0.000035  -0.029993  -0.029989   0.577909
          Atomic-Atomic Spin Densities.
               1          2          3          4          5          6
     1  C    0.000000   0.000000  -0.000000  -0.000000  -0.000000   0.000000
     2  C    0.000000   0.000000  -0.000000  -0.000000  -0.000000   0.000000
     3  C   -0.000000  -0.000000   0.000000   0.000000   0.000000   0.000000
     4  C   -0.000000  -0.000000   0.000000   0.000000   0.000000  -0.000000
     5  H   -0.000000  -0.000000   0.000000   0.000000   0.000000   0.000000
     6  H    0.000000   0.000000   0.000000  -0.000000   0.000000  -0.000000
     7  H   -0.000000   0.000000   0.000000   0.000000  -0.000000  -0.000000
     8  H    0.000000  -0.000000  -0.000000  -0.000000  -0.000000  -0.000000
     9  H    0.000000  -0.000000  -0.000000  -0.000000   0.000000  -0.000000
    10  H    0.000000  -0.000000  -0.000000  -0.000000  -0.000000   0.000000
               7          8          9         10
     1  C   -0.000000   0.000000   0.000000   0.000000
     2  C    0.000000  -0.000000  -0.000000  -0.000000
     3  C    0.000000  -0.000000  -0.000000  -0.000000
     4  C    0.000000  -0.000000  -0.000000  -0.000000
     5  H   -0.000000  -0.000000   0.000000  -0.000000
     6  H   -0.000000  -0.000000  -0.000000   0.000000
     7  H    0.000000  -0.000000  -0.000000   0.000000
     8  H   -0.000000   0.000000  -0.000000  -0.000000
     9  H   -0.000000  -0.000000   0.000000  -0.000000
    10  H    0.000000  -0.000000  -0.000000   0.000000
 Mulliken charges and spin densities:
               1          2
     1  C   -0.331201   0.000000
     2  C   -0.016461  -0.000000
     3  C   -0.016461   0.000000
     4  C   -0.331201   0.000000
     5  H    0.115889   0.000000
     6  H    0.115885   0.000000
     7  H    0.115888   0.000000
     8  H    0.115887   0.000000
     9  H    0.115889   0.000000
    10  H    0.115885   0.000000
 Sum of Mulliken charges =  -0.00000  -0.00000
 Mulliken charges and spin densities with hydrogens summed into heavy atoms:
               1          2
     1  C    0.016461   0.000000
     2  C   -0.016461  -0.000000
     3  C   -0.016461   0.000000
     4  C    0.016461   0.000000
 Electronic spatial extent (au):  <R**2>=            401.3063
 Charge=             -0.0000 electrons
 Dipole moment (field-independent basis, Debye):
    X=             -0.0000    Y=             -0.0000    Z=              0.0000  Tot=              0.0000
 Quadrupole moment (field-independent basis, Debye-Ang):
   XX=            -19.1367   YY=            -25.8735   ZZ=            -25.8735
   XY=             -0.0002   XZ=             -0.0000   YZ=             -0.0000
 Traceless Quadrupole moment (field-independent basis, Debye-Ang):
   XX=              4.4912   YY=             -2.2456   ZZ=             -2.2456
   XY=             -0.0002   XZ=             -0.0000   YZ=             -0.0000
 Octapole moment (field-independent basis, Debye-Ang**2):
  XXX=              0.0000  YYY=              1.2855  ZZZ=              0.3042  XYY=             -0.0005
  XXY=             -0.0000  XXZ=              0.0000  XZZ=              0.0005  YZZ=             -1.2857
  YYZ=             -0.3041  XYZ=              0.0004
 Hexadecapole moment (field-independent basis, Debye-Ang**3):
 XXXX=           -455.5541 YYYY=            -42.0220 ZZZZ=            -42.0219 XXXY=              0.0090
 XXXZ=              0.0036 YYYX=              0.0088 YYYZ=              0.0000 ZZZX=              0.0027
 ZZZY=             -0.0000 XXYY=            -80.7893 XXZZ=            -80.7894 YYZZ=            -14.0073
 XXYZ=              0.0000 YYXZ=              0.0019 ZZXY=              0.0027
 N-N= 1.001285746213D+02 E-N=-5.610987209915D+02  KE= 1.549257554150D+02
                          Isotropic Fermi Contact Couplings
        Atom                 a.u.       MegaHertz       Gauss      10(-4) cm-1
     1  C(13)             -0.00000      -0.00000      -0.00000      -0.00000
     2  C(13)             -0.00000      -0.00000      -0.00000      -0.00000
     3  C(13)             -0.00000      -0.00000      -0.00000      -0.00000
     4  C(13)             -0.00000      -0.00000      -0.00000      -0.00000
     5  H(1)              -0.00000      -0.00000      -0.00000      -0.00000
     6  H(1)               0.00000       0.00000       0.00000       0.00000
     7  H(1)               0.00000       0.00000       0.00000       0.00000
     8  H(1)              -0.00000      -0.00000      -0.00000      -0.00000
     9  H(1)              -0.00000      -0.00000      -0.00000      -0.00000
    10  H(1)              -0.00000      -0.00000      -0.00000      -0.00000
 --------------------------------------------------------
       Center         ----  Spin Dipole Couplings  ----
                      3XX-RR        3YY-RR        3ZZ-RR
 --------------------------------------------------------
     1   Atom        0.000000     -0.000000     -0.000000
     2   Atom       -0.000000      0.000000      0.000000
     3   Atom        0.000000     -0.000000     -0.000000
     4   Atom       -0.000000      0.000000      0.000000
     5   Atom       -0.000000      0.000000      0.000000
     6   Atom       -0.000000      0.000000      0.000000
     7   Atom       -0.000000      0.000000      0.000000
     8   Atom       -0.000000     -0.000000      0.000000
     9   Atom       -0.000000      0.000000     -0.000000
    10   Atom        0.000000     -0.000000     -0.000000
 --------------------------------------------------------
                        XY            XZ            YZ
 --------------------------------------------------------
     1   Atom       -0.000000     -0.000000      0.000000
     2   Atom        0.000000      0.000000      0.000000
     3   Atom       -0.000000     -0.000000      0.000000
     4   Atom       -0.000000      0.000000      0.000000
     5   Atom        0.000000      0.000000      0.000000
     6   Atom       -0.000000      0.000000      0.000000
     7   Atom        0.000000     -0.000000     -0.000000
     8   Atom       -0.000000      0.000000     -0.000000
     9   Atom        0.000000     -0.000000      0.000000
    10   Atom       -0.000000     -0.000000      0.000000
 --------------------------------------------------------


 ---------------------------------------------------------------------------------
              Anisotropic Spin Dipole Couplings in Principal Axis System
 ---------------------------------------------------------------------------------

       Atom             a.u.   MegaHertz   Gauss  10(-4) cm-1        Axes

              Baa    -0.0000    -0.000    -0.000    -0.000  0.1554 -0.5690  0.8075
     1 C(13)  Bbb    -0.0000    -0.000    -0.000    -0.000  0.2559  0.8128  0.5234
              Bcc     0.0000     0.000     0.000     0.000  0.9541 -0.1253 -0.2719
 
              Baa    -0.0000    -0.000    -0.000    -0.000  0.9950 -0.0242 -0.0969
     2 C(13)  Bbb     0.0000     0.000     0.000     0.000  0.0710 -0.5111  0.8566
              Bcc     0.0000     0.000     0.000     0.000  0.0702  0.8592  0.5068
 
              Baa    -0.0000    -0.000    -0.000    -0.000  0.4555  0.3176  0.8316
     3 C(13)  Bbb    -0.0000    -0.000    -0.000    -0.000  0.2123  0.8685 -0.4480
              Bcc     0.0000     0.000     0.000     0.000  0.8645 -0.3806 -0.3282
 
              Baa    -0.0000    -0.000    -0.000    -0.000  0.9969  0.0146 -0.0768
     4 C(13)  Bbb     0.0000     0.000     0.000     0.000 -0.0630  0.7318 -0.6786
              Bcc     0.0000     0.000     0.000     0.000  0.0463  0.6814  0.7304
 
              Baa    -0.0000    -0.000    -0.000    -0.000  0.8247 -0.2668 -0.4986
     5 H(1)   Bbb     0.0000     0.000     0.000     0.000 -0.0145  0.8714 -0.4903
              Bcc     0.0000     0.000     0.000     0.000  0.5653  0.4116  0.7148
 
              Baa    -0.0000    -0.000    -0.000    -0.000  0.9249  0.3791 -0.0296
     6 H(1)   Bbb     0.0000     0.000     0.000     0.000  0.0153  0.0407  0.9991
              Bcc     0.0000     0.000     0.000     0.000 -0.3800  0.9245 -0.0318
 
              Baa    -0.0000    -0.000    -0.000    -0.000  0.9341 -0.1286  0.3330
     7 H(1)   Bbb     0.0000     0.000     0.000     0.000 -0.0036  0.9294  0.3691
              Bcc     0.0000     0.000     0.000     0.000 -0.3570 -0.3460  0.8677
 
              Baa    -0.0000    -0.000    -0.000    -0.000  0.8813  0.3254 -0.3428
     8 H(1)   Bbb    -0.0000    -0.000    -0.000    -0.000 -0.1264  0.8611  0.4925
              Bcc     0.0000     0.000     0.000     0.000  0.4554 -0.3907  0.8000
 
              Baa    -0.0000    -0.000    -0.000    -0.000  0.7807 -0.3697  0.5039
     9 H(1)   Bbb    -0.0000    -0.000    -0.000    -0.000 -0.4305  0.2665  0.8624
              Bcc     0.0000     0.000     0.000     0.000  0.4531  0.8901 -0.0489
 
              Baa    -0.0000    -0.000    -0.000    -0.000  0.3312 -0.5816  0.7430
    10 H(1)   Bbb    -0.0000    -0.000    -0.000    -0.000  0.7153  0.6683  0.2043
              Bcc     0.0000     0.000     0.000     0.000 -0.6154  0.4638  0.6373
 

 ---------------------------------------------------------------------------------

 Calling FoFJK, ICntrl=  10002127 FMM=F ISym2X=0 I1Cent= 0 IOpClX= 1 NMat=1 NMatS=1 NMatT=0.
 ***** Axes restored to original set *****
 -------------------------------------------------------------------
 Center     Atomic                   Forces (Hartrees/Bohr)
 Number     Number              X              Y              Z
 -------------------------------------------------------------------
      1        6           0.000011562    0.000005920   -0.000003875
      2        6           0.000000219    0.000000983    0.000002397
      3        6          -0.000000798    0.000001122   -0.000002426
      4        6          -0.000011226   -0.000007907    0.000003837
      5        1           0.000000898    0.000003100   -0.000000497
      6        1           0.000003614   -0.000001692   -0.000000242
      7        1           0.000005524    0.000004437    0.000000051
      8        1          -0.000006083   -0.000003016    0.000000007
      9        1          -0.000003421    0.000000540    0.000000909
     10        1          -0.000000289   -0.000003487   -0.000000161
 -------------------------------------------------------------------
 Cartesian Forces:  Max     0.000011562 RMS     0.000004280

 GradGradGradGradGradGradGradGradGradGradGradGradGradGradGradGradGradGrad
 Berny optimization.
 FormGI is forming the generalized inverse of G from B-inverse, IUseBI=4.
 Internal  Forces:  Max     0.000005891 RMS     0.000002068
 Search for a local minimum.
 Step number   1 out of a maximum of  100
 All quantities printed in internal units (Hartrees-Bohrs-Radians)
 Mixed Optimization -- En-DIIS/RFO-DIIS
 Second derivative matrix not updated -- first step.
 ITU=  0
     Eigenvalues ---    0.00230   0.01002   0.01218   0.03114   0.04073
     Eigenvalues ---    0.05527   0.05694   0.07001   0.08040   0.16000
     Eigenvalues ---    0.16000   0.16000   0.16000   0.16000   0.16000
     Eigenvalues ---    0.34873   0.34873   0.34874   0.34874   0.34874
     Eigenvalues ---    0.34874   0.37210   0.37210   1.01801
 RFO step:  Lambda= 0.00000000D+00 EMin= 2.30000000D-03
 Linear search not attempted -- first point.
 Iteration  1 RMS(Cart)=  0.00004263 RMS(Int)=  0.00000000
 Iteration  2 RMS(Cart)=  0.00000001 RMS(Int)=  0.00000000
 Variable       Old X    -DE/DX   Delta X   Delta X   Delta X     New X
                                 (Linear)    (Quad)   (Total)
    R1        2.75531  -0.00000   0.00000  -0.00001  -0.00001   2.75530
    R2        2.05880   0.00000   0.00000   0.00000   0.00000   2.05880
    R3        2.05879   0.00000   0.00000   0.00000   0.00000   2.05880
    R4        2.05881  -0.00000   0.00000  -0.00000  -0.00000   2.05881
    R5        2.27926  -0.00000   0.00000  -0.00000  -0.00000   2.27926
    R6        2.75531  -0.00000   0.00000  -0.00001  -0.00001   2.75530
    R7        2.05880   0.00000   0.00000   0.00000   0.00000   2.05880
    R8        2.05881  -0.00000   0.00000  -0.00000  -0.00000   2.05881
    R9        2.05880   0.00000   0.00000   0.00000   0.00000   2.05880
    A1        1.93770  -0.00000   0.00000  -0.00000  -0.00000   1.93770
    A2        1.93773  -0.00000   0.00000  -0.00002  -0.00002   1.93770
    A3        1.93766   0.00000   0.00000   0.00002   0.00002   1.93769
    A4        1.88288  -0.00000   0.00000  -0.00005  -0.00005   1.88283
    A5        1.88275   0.00000   0.00000   0.00005   0.00005   1.88280
    A6        1.88281  -0.00000   0.00000  -0.00000  -0.00000   1.88281
    A7        1.93773  -0.00000   0.00000  -0.00003  -0.00003   1.93770
    A8        1.93766   0.00000   0.00000   0.00003   0.00003   1.93769
    A9        1.93770  -0.00000   0.00000  -0.00000  -0.00000   1.93769
   A10        1.88281  -0.00000   0.00000  -0.00000  -0.00000   1.88281
   A11        1.88287  -0.00000   0.00000  -0.00005  -0.00005   1.88282
   A12        1.88275   0.00000   0.00000   0.00005   0.00005   1.88280
   A13        3.14154   0.00000   0.00000   0.00002   0.00002   3.14157
   A14        3.14156  -0.00000   0.00000   0.00006   0.00006   3.14162
   A15        3.14167  -0.00000   0.00000  -0.00003  -0.00003   3.14164
   A16        3.14152   0.00000   0.00000   0.00012   0.00012   3.14164
    D1        2.09450   0.00000   0.00000   0.00002   0.00002   2.09452
    D2       -2.09428   0.00000   0.00000   0.00001   0.00001  -2.09428
    D3        0.00000   0.00001   0.00000   0.00012   0.00012   0.00012
    D4       -2.09418  -0.00000   0.00000  -0.00005  -0.00005  -2.09423
    D5        0.00022  -0.00000   0.00000  -0.00006  -0.00006   0.00016
    D6        2.09451   0.00000   0.00000   0.00005   0.00005   2.09456
    D7        0.00022  -0.00000   0.00000  -0.00006  -0.00006   0.00016
    D8        2.09462  -0.00000   0.00000  -0.00007  -0.00007   2.09455
    D9       -2.09428   0.00000   0.00000   0.00005   0.00005  -2.09423
         Item               Value     Threshold  Converged?
 Maximum Force            0.000006     0.000450     YES
 RMS     Force            0.000002     0.000300     YES
 Maximum Displacement     0.000133     0.001800     YES
 RMS     Displacement     0.000043     0.001200     YES
 Predicted change in Energy=-1.269199D-09
 Optimization completed.
    -- Stationary point found.
                           ----------------------------
                           !   Optimized Parameters   !
                           ! (Angstroms and Degrees)  !
 --------------------------                            --------------------------
 ! Name  Definition              Value          Derivative Info.                !
 --------------------------------------------------------------------------------
 ! R1    R(1,2)                  1.458          -DE/DX =    0.0                 !
 ! R2    R(1,8)                  1.0895         -DE/DX =    0.0                 !
 ! R3    R(1,9)                  1.0895         -DE/DX =    0.0                 !
 ! R4    R(1,10)                 1.0895         -DE/DX =    0.0                 !
 ! R5    R(2,3)                  1.2061         -DE/DX =    0.0                 !
 ! R6    R(3,4)                  1.458          -DE/DX =    0.0                 !
 ! R7    R(4,5)                  1.0895         -DE/DX =    0.0                 !
 ! R8    R(4,6)                  1.0895         -DE/DX =    0.0                 !
 ! R9    R(4,7)                  1.0895         -DE/DX =    0.0                 !
 ! A1    A(2,1,8)              111.0218         -DE/DX =    0.0                 !
 ! A2    A(2,1,9)              111.0235         -DE/DX =    0.0                 !
 ! A3    A(2,1,10)             111.02           -DE/DX =    0.0                 !
 ! A4    A(8,1,9)              107.8808         -DE/DX =    0.0                 !
 ! A5    A(8,1,10)             107.8736         -DE/DX =    0.0                 !
 ! A6    A(9,1,10)             107.877          -DE/DX =    0.0                 !
 ! A7    A(3,4,5)              111.0236         -DE/DX =    0.0                 !
 ! A8    A(3,4,6)              111.0199         -DE/DX =    0.0                 !
 ! A9    A(3,4,7)              111.0219         -DE/DX =    0.0                 !
 ! A10   A(5,4,6)              107.8772         -DE/DX =    0.0                 !
 ! A11   A(5,4,7)              107.8807         -DE/DX =    0.0                 !
 ! A12   A(6,4,7)              107.8735         -DE/DX =    0.0                 !
 ! A13   L(1,2,3,10,-1)        179.997          -DE/DX =    0.0                 !
 ! A14   L(2,3,4,6,-1)         179.9981         -DE/DX =    0.0                 !
 ! A15   L(1,2,3,10,-2)        180.0045         -DE/DX =    0.0                 !
 ! A16   L(2,3,4,6,-2)         179.9957         -DE/DX =    0.0                 !
 ! D1    D(8,1,4,5)            120.0059         -DE/DX =    0.0                 !
 ! D2    D(8,1,4,6)           -119.9936         -DE/DX =    0.0                 !
 ! D3    D(8,1,4,7)              0.0001         -DE/DX =    0.0                 !
 ! D4    D(9,1,4,5)           -119.9876         -DE/DX =    0.0                 !
 ! D5    D(9,1,4,6)              0.0128         -DE/DX =    0.0                 !
 ! D6    D(9,1,4,7)            120.0066         -DE/DX =    0.0                 !
 ! D7    D(10,1,4,5)             0.0125         -DE/DX =    0.0                 !
 ! D8    D(10,1,4,6)           120.013          -DE/DX =    0.0                 !
 ! D9    D(10,1,4,7)          -119.9933         -DE/DX =    0.0                 !
 --------------------------------------------------------------------------------
 GradGradGradGradGradGradGradGradGradGradGradGradGradGradGradGradGradGrad

                          Input orientation:                          
 ---------------------------------------------------------------------
 Center     Atomic      Atomic             Coordinates (Angstroms)
 Number     Number       Type             X           Y           Z
 ---------------------------------------------------------------------
      1          6           0       -0.000028   -0.000011    2.061114
      2          6           0       -0.000032   -0.000032    0.603066
      3          6           0        0.000027   -0.000004   -0.603066
      4          6           0        0.000028    0.000014   -2.061114
      5          1           0        1.016973   -0.000091   -2.451962
      6          1           0       -0.508555   -0.880654   -2.451911
      7          1           0       -0.508445    0.880734   -2.451924
      8          1           0       -0.508513    0.880704    2.451922
      9          1           0       -0.508403   -0.880761    2.451975
     10          1           0        1.016949    0.000102    2.451899
 ---------------------------------------------------------------------
                    Distance matrix (angstroms):
                    1          2          3          4          5
     1  C    0.000000
     2  C    1.458048   0.000000
     3  C    2.664180   1.206132   0.000000
     4  C    4.122228   2.664180   1.458048   0.000000
     5  H    4.626245   3.219860   2.110117   1.089467   0.000000
     6  H    4.626178   3.219779   2.110078   1.089475   1.761428
     7  H    4.626198   3.219813   2.110099   1.089470   1.761463
     8  H    1.089471   2.110099   3.219815   4.626200   5.210661
     9  H    1.089467   2.110116   3.219862   4.626255   5.210657
    10  H    1.089475   2.110079   3.219774   4.626166   4.903861
                    6          7          8          9         10
     6  H    0.000000
     7  H    1.761388   0.000000
     8  H    5.210562   4.903846   0.000000
     9  H    4.903886   5.210671   1.761465   0.000000
    10  H    5.210590   5.210549   1.761390   1.761425   0.000000
 This structure is nearly, but not quite of a higher symmetry.
 Consider Symm=Loose if the higher symmetry is desired.
 Stoichiometry    C4H6
 Framework group  C1[X(C4H6)]
 Deg. of freedom    24
 Full point group                 C1      NOp   1
 Largest Abelian subgroup         C1      NOp   1
 Largest concise Abelian subgroup C1      NOp   1
                         Standard orientation:                         
 ---------------------------------------------------------------------
 Center     Atomic      Atomic             Coordinates (Angstroms)
 Number     Number       Type             X           Y           Z
 ---------------------------------------------------------------------
      1          6           0       -2.061114    0.000087    0.000040
      2          6           0       -0.603066    0.000059    0.000017
      3          6           0        0.603066   -0.000037   -0.000028
      4          6           0        2.061114   -0.000100   -0.000034
      5          1           0        2.451935   -0.575104   -0.838824
      6          1           0        2.451943    1.013821   -0.078597
      7          1           0        2.451919   -0.438948    0.917369
      8          1           0       -2.451927   -0.438725    0.917458
      9          1           0       -2.451943    1.013984   -0.078733
     10          1           0       -2.451926   -0.575089   -0.838645
 ---------------------------------------------------------------------
 Rotational constants (GHZ):          80.8114746           3.3654667           3.3654667
 1\1\GINC-N60\FOpt\UB2PLYPD3-FC\CC-pVTZ\C4H6\ROOT\02-Jun-2019\0\\# opt=
 maxcyc=500 freq=noraman uB2PLYPD3/cc-pvtz\\Title Card Required\\0,1\C,
 -0.000028,-0.000011,2.061114\C,-0.000032,-0.000032,0.603066\C,0.000027
 ,-0.000004,-0.603066\C,0.000028,0.000014,-2.061114\H,1.016973,-0.00009
 1,-2.451962\H,-0.508555,-0.880654,-2.451911\H,-0.508445,0.880734,-2.45
 1924\H,-0.508513,0.880704,2.451922\H,-0.508403,-0.880761,2.451975\H,1.
 016949,0.000102,2.451899\\Version=ES64L-G16RevB.01\State=1-A\HF=-155.6
 747398\MP2=-155.8904472\PUHF=-155.6747398\PMP2-0=-155.8904472\S2=0.\S2
 -1=0.\S2A=0.\RMSD=3.328e-09\RMSF=4.280e-06\Dipole=0.000002,0.0000155,0
 .\PG=C01 [X(C4H6)]\\@


 DESK:  A WASTEBASKET WITH DRAWERS.
 Job cpu time:       0 days  0 hours 23 minutes 45.4 seconds.
 Elapsed time:       0 days  0 hours  0 minutes 50.2 seconds.
 File lengths (MBytes):  RWF=     32 Int=      0 D2E=      0 Chk=      7 Scr=      1
 Normal termination of Gaussian 16 at Sun Jun  2 17:18:41 2019.
 Link1:  Proceeding to internal job step number  2.
 ----------------------------------------------------------------------
 #N Geom=AllCheck Guess=TCheck SCRF=Check GenChk UB2PLYPD3(FC)/CC-pVTZ 
 Freq
 ----------------------------------------------------------------------
 1/6=500,10=4,29=7,30=1,38=1,40=1/1,3;
 2/12=2,40=1/2;
 3/5=16,6=1,11=2,14=-4,25=1,30=1,70=2,71=2,74=-60,116=2,140=1/1,2,3;
 4/5=101/1;
 5/5=2,38=6,98=1/2;
 8/6=3,8=1,10=1,19=11,30=-1/1;
 9/15=3,16=-3/6;
 11/6=1,8=1,15=11,17=12,24=-1,27=1,28=-2,29=300,32=6,42=3/1,2,10;
 10/6=2,21=1/2;
 8/6=4,8=1,10=1,19=11,30=-1/11,4;
 10/5=1,20=4/2;
 11/12=2,14=11,16=1,17=2,28=-2,42=3,76=2/2,10,12;
 6/7=2,8=2,9=2,10=2/1;
 7/8=1,10=1,12=2,25=1,44=2/1,2,3,16;
 1/6=500,10=4,30=1/3;
 99//99;
 Structure from the checkpoint file:  "/localscratch/339767/Gau-15636.chk"
 -------------------
 Title Card Required
 -------------------
 Charge =  0 Multiplicity = 1
 Redundant internal coordinates found in file.  (old form).
 C,0,-0.000028,-0.000011,2.061114
 C,0,-0.000032,-0.000032,0.603066
 C,0,0.000027,-0.000004,-0.603066
 C,0,0.000028,0.000014,-2.061114
 H,0,1.016973,-0.000091,-2.451962
 H,0,-0.508555,-0.880654,-2.451911
 H,0,-0.508445,0.880734,-2.451924
 H,0,-0.508513,0.880704,2.451922
 H,0,-0.508403,-0.880761,2.451975
 H,0,1.016949,0.000102,2.451899
 Recover connectivity data from disk.

 GradGradGradGradGradGradGradGradGradGradGradGradGradGradGradGradGradGrad
 Berny optimization.
 Initialization pass.
                           ----------------------------
                           !    Initial Parameters    !
                           ! (Angstroms and Degrees)  !
 --------------------------                            --------------------------
 ! Name  Definition              Value          Derivative Info.                !
 --------------------------------------------------------------------------------
 ! R1    R(1,2)                  1.458          calculate D2E/DX2 analytically  !
 ! R2    R(1,8)                  1.0895         calculate D2E/DX2 analytically  !
 ! R3    R(1,9)                  1.0895         calculate D2E/DX2 analytically  !
 ! R4    R(1,10)                 1.0895         calculate D2E/DX2 analytically  !
 ! R5    R(2,3)                  1.2061         calculate D2E/DX2 analytically  !
 ! R6    R(3,4)                  1.458          calculate D2E/DX2 analytically  !
 ! R7    R(4,5)                  1.0895         calculate D2E/DX2 analytically  !
 ! R8    R(4,6)                  1.0895         calculate D2E/DX2 analytically  !
 ! R9    R(4,7)                  1.0895         calculate D2E/DX2 analytically  !
 ! A1    A(2,1,8)              111.0218         calculate D2E/DX2 analytically  !
 ! A2    A(2,1,9)              111.0235         calculate D2E/DX2 analytically  !
 ! A3    A(2,1,10)             111.02           calculate D2E/DX2 analytically  !
 ! A4    A(8,1,9)              107.8808         calculate D2E/DX2 analytically  !
 ! A5    A(8,1,10)             107.8736         calculate D2E/DX2 analytically  !
 ! A6    A(9,1,10)             107.877          calculate D2E/DX2 analytically  !
 ! A7    A(3,4,5)              111.0236         calculate D2E/DX2 analytically  !
 ! A8    A(3,4,6)              111.0199         calculate D2E/DX2 analytically  !
 ! A9    A(3,4,7)              111.0219         calculate D2E/DX2 analytically  !
 ! A10   A(5,4,6)              107.8772         calculate D2E/DX2 analytically  !
 ! A11   A(5,4,7)              107.8807         calculate D2E/DX2 analytically  !
 ! A12   A(6,4,7)              107.8735         calculate D2E/DX2 analytically  !
 ! A13   L(1,2,3,10,-1)        179.997          calculate D2E/DX2 analytically  !
 ! A14   L(2,3,4,6,-1)         179.9981         calculate D2E/DX2 analytically  !
 ! A15   L(1,2,3,10,-2)        180.0045         calculate D2E/DX2 analytically  !
 ! A16   L(2,3,4,6,-2)         179.9957         calculate D2E/DX2 analytically  !
 ! D1    D(8,1,4,5)            120.0059         calculate D2E/DX2 analytically  !
 ! D2    D(8,1,4,6)           -119.9936         calculate D2E/DX2 analytically  !
 ! D3    D(8,1,4,7)              0.0001         calculate D2E/DX2 analytically  !
 ! D4    D(9,1,4,5)           -119.9876         calculate D2E/DX2 analytically  !
 ! D5    D(9,1,4,6)              0.0128         calculate D2E/DX2 analytically  !
 ! D6    D(9,1,4,7)            120.0066         calculate D2E/DX2 analytically  !
 ! D7    D(10,1,4,5)             0.0125         calculate D2E/DX2 analytically  !
 ! D8    D(10,1,4,6)           120.013          calculate D2E/DX2 analytically  !
 ! D9    D(10,1,4,7)          -119.9933         calculate D2E/DX2 analytically  !
 --------------------------------------------------------------------------------
 Trust Radius=3.00D-01 FncErr=1.00D-07 GrdErr=1.00D-07 EigMax=2.50D+02 EigMin=1.00D-04
 Number of steps in this run=      2 maximum allowed number of steps=      2.
 GradGradGradGradGradGradGradGradGradGradGradGradGradGradGradGradGradGrad

                          Input orientation:                          
 ---------------------------------------------------------------------
 Center     Atomic      Atomic             Coordinates (Angstroms)
 Number     Number       Type             X           Y           Z
 ---------------------------------------------------------------------
      1          6           0       -0.000028   -0.000011    2.061114
      2          6           0       -0.000032   -0.000032    0.603066
      3          6           0        0.000027   -0.000004   -0.603066
      4          6           0        0.000028    0.000014   -2.061114
      5          1           0        1.016973   -0.000091   -2.451962
      6          1           0       -0.508555   -0.880654   -2.451911
      7          1           0       -0.508445    0.880734   -2.451924
      8          1           0       -0.508513    0.880704    2.451922
      9          1           0       -0.508403   -0.880761    2.451975
     10          1           0        1.016949    0.000102    2.451899
 ---------------------------------------------------------------------
                    Distance matrix (angstroms):
                    1          2          3          4          5
     1  C    0.000000
     2  C    1.458048   0.000000
     3  C    2.664180   1.206132   0.000000
     4  C    4.122228   2.664180   1.458048   0.000000
     5  H    4.626245   3.219860   2.110117   1.089467   0.000000
     6  H    4.626178   3.219779   2.110078   1.089475   1.761428
     7  H    4.626198   3.219813   2.110099   1.089470   1.761463
     8  H    1.089471   2.110099   3.219815   4.626200   5.210661
     9  H    1.089467   2.110116   3.219862   4.626255   5.210657
    10  H    1.089475   2.110079   3.219774   4.626166   4.903861
                    6          7          8          9         10
     6  H    0.000000
     7  H    1.761388   0.000000
     8  H    5.210562   4.903846   0.000000
     9  H    4.903886   5.210671   1.761465   0.000000
    10  H    5.210590   5.210549   1.761390   1.761425   0.000000
 This structure is nearly, but not quite of a higher symmetry.
 Consider Symm=Loose if the higher symmetry is desired.
 Stoichiometry    C4H6
 Framework group  C1[X(C4H6)]
 Deg. of freedom    24
 Full point group                 C1      NOp   1
 Largest Abelian subgroup         C1      NOp   1
 Largest concise Abelian subgroup C1      NOp   1
                         Standard orientation:                         
 ---------------------------------------------------------------------
 Center     Atomic      Atomic             Coordinates (Angstroms)
 Number     Number       Type             X           Y           Z
 ---------------------------------------------------------------------
      1          6           0       -2.061114    0.000087    0.000040
      2          6           0       -0.603066    0.000059    0.000017
      3          6           0        0.603066   -0.000037   -0.000028
      4          6           0        2.061114   -0.000100   -0.000034
      5          1           0        2.451935   -0.575104   -0.838824
      6          1           0        2.451943    1.013821   -0.078597
      7          1           0        2.451919   -0.438948    0.917369
      8          1           0       -2.451927   -0.438725    0.917458
      9          1           0       -2.451943    1.013984   -0.078733
     10          1           0       -2.451926   -0.575089   -0.838645
 ---------------------------------------------------------------------
 Rotational constants (GHZ):          80.8114746           3.3654667           3.3654667
 Standard basis: CC-pVTZ (5D, 7F)
 There are   230 symmetry adapted cartesian basis functions of A   symmetry.
 There are   204 symmetry adapted basis functions of A   symmetry.
   204 basis functions,   310 primitive gaussians,   230 cartesian basis functions
    15 alpha electrons       15 beta electrons
       nuclear repulsion energy       100.1327097809 Hartrees.
 NAtoms=   10 NActive=   10 NUniq=   10 SFac= 1.00D+00 NAtFMM=   60 NAOKFM=F Big=F
 Integral buffers will be    131072 words long.
 Raffenetti 2 integral format.
 Two-electron integral symmetry is turned on.
 Nuclear repulsion after empirical dispersion term =      100.1285746213 Hartrees.
 One-electron integrals computed using PRISM.
 NBasis=   204 RedAO= T EigKep=  1.57D-05  NBF=   204
 NBsUse=   204 1.00D-06 EigRej= -1.00D+00 NBFU=   204
 Initial guess from the checkpoint file:  "/localscratch/339767/Gau-15636.chk"
 B after Tr=     0.000000    0.000000   -0.000000
         Rot=    1.000000   -0.000000    0.000000   -0.000000 Ang=   0.00 deg.
 Initial guess <Sx>= 0.0000 <Sy>= 0.0000 <Sz>= 0.0000 <S**2>=-0.0000 S=-0.0000
 Keep R1 and R2 ints in memory in canonical form, NReq=479624312.
 Requested convergence on RMS density matrix=1.00D-08 within 128 cycles.
 Requested convergence on MAX density matrix=1.00D-06.
 Requested convergence on             energy=1.00D-06.
 No special actions if energy rises.
 SCF Done:  E(UB2PLYPD3) =  -155.674739843     A.U. after    1 cycles
            NFock=  1  Conv=0.18D-08     -V/T= 2.0048
 <Sx>= 0.0000 <Sy>= 0.0000 <Sz>= 0.0000 <S**2>=-0.0000 S=-0.0000
 <L.S>=  0.00000000000    
 Annihilation of the first spin contaminant:
 S**2 before annihilation    -0.0000,   after     0.0000
 DoSCS=T DFT=T ScalE2(SS,OS)=  0.270000  0.270000
 ExpMin= 1.03D-01 ExpMax= 8.24D+03 ExpMxC= 2.81D+02 IAcc=3 IRadAn=         5 AccDes= 0.00D+00
 HarFok:  IExCor=  205 AccDes= 0.00D+00 IRadAn=         5 IDoV=-2 UseB2=F ITyADJ=14
 ICtDFT= 12500011 ScaDFX=  1.000000  1.000000  1.000000  1.000000
 Range of M.O.s used for correlation:     5   204
 NBasis=   204 NAE=    15 NBE=    15 NFC=     4 NFV=     0
 NROrb=    200 NOA=    11 NOB=    11 NVA=   189 NVB=   189

 **** Warning!!: The largest alpha MO coefficient is  0.61948139D+02


 **** Warning!!: The largest beta MO coefficient is  0.61948139D+02

 DoSCS=T DFT=T ScalE2(SS,OS)=  0.270000  0.270000
 Disk-based method using ON**2 memory for 11 occupieds at a time.
 Permanent disk used for amplitudes=    11768085 words.
 Estimated scratch disk usage=   231085120 words.
 Actual    scratch disk usage=   223277632 words.
 JobTyp=2 Pass  1:  I=   5 to  15 NPSUse= 40 ParTrn=T ParDer=T DoDerP=T.
 (rs|ai) integrals will be sorted in core.
 Actual    scratch disk usage=   223277632 words.
 JobTyp=3 Pass  1:  I=   5 to  15 NPSUse= 40 ParTrn=T ParDer=T DoDerP=T.
 (rs|ai) integrals will be sorted in core.
 Spin components of T(2) and E(2):
     alpha-alpha T2 =       0.4354676671D-01 E2=     -0.2516823270D-01
     alpha-beta  T2 =       0.2605502956D+00 E2=     -0.1653708751D+00
     beta-beta   T2 =       0.4354676671D-01 E2=     -0.2516823270D-01
 (S**2,0)=  0.00000D+00           (S**2,1)=  0.00000D+00
 E(PUHF)=      -0.15567473984D+03        E(PMP2)=      -0.15589044718D+03
 E2(B2PLYPD3) =    -0.2157073405D+00 E(B2PLYPD3) =    -0.15589044718396D+03
 G2DrvN: will do    11 centers at a time, making    1 passes.
 Calling FoFCou, ICntrl=  3107 FMM=F I1Cent=   0 AccDes= 0.00D+00.
 End of G2Drv F.D. properties file   721 does not exist.
 End of G2Drv F.D. properties file   722 does not exist.
 End of G2Drv F.D. properties file   788 does not exist.
          IDoAtm=1111111111
          Differentiating once with respect to electric field.
                with respect to dipole field.
          Differentiating once with respect to nuclear coordinates.
 Keep R1 and R2 ints in memory in canonical form, NReq=479494129.
          There are    33 degrees of freedom in the 1st order CPHF.  IDoFFX=6 NUNeed=    33.
     30 vectors produced by pass  0 Test12= 1.72D-14 3.03D-09 XBig12= 7.53D+01 3.35D+00.
 AX will form    30 AO Fock derivatives at one time.
     30 vectors produced by pass  1 Test12= 1.72D-14 3.03D-09 XBig12= 1.23D+01 7.18D-01.
     30 vectors produced by pass  2 Test12= 1.72D-14 3.03D-09 XBig12= 2.07D-01 8.05D-02.
     30 vectors produced by pass  3 Test12= 1.72D-14 3.03D-09 XBig12= 1.16D-03 5.35D-03.
     30 vectors produced by pass  4 Test12= 1.72D-14 3.03D-09 XBig12= 6.99D-06 4.46D-04.
     30 vectors produced by pass  5 Test12= 1.72D-14 3.03D-09 XBig12= 3.55D-08 3.53D-05.
     13 vectors produced by pass  6 Test12= 1.72D-14 3.03D-09 XBig12= 8.18D-11 1.25D-06.
      3 vectors produced by pass  7 Test12= 1.72D-14 3.03D-09 XBig12= 1.65D-13 7.01D-08.
      1 vectors produced by pass  8 Test12= 1.72D-14 3.03D-09 XBig12= 3.22D-16 4.09D-09.
 InvSVY:  IOpt=1 It=  1 EMax= 3.55D-15
 Solved reduced A of dimension   197 with    33 vectors.
 End of Minotr F.D. properties file   721 does not exist.
 End of Minotr F.D. properties file   722 does not exist.
 End of Minotr F.D. properties file   788 does not exist.
 MDV= 10737418240.
 DoSCS=T DFT=T ScalE2(SS,OS)=  0.270000  0.270000
 Form MO integral derivatives with frozen-active canonical formalism.
 Discarding MO integrals.
 Reordered first order wavefunction length =     47645010
 In DefCFB: NBatch=  1 ICI= 15 ICA=189 LFMax= 63
            Large arrays: LIAPS=  1064145600 LIARS=   319504500 words.
 In DefCFB: NBatch=  1 ICI= 15 ICA=189 LFMax= 63
            Large arrays: LIAPS=  1064145600 LIARS=   319504500 words.
 Semi-Direct transformation.
 ModeAB=           4 MOrb=            15 LenV=   10736056469
 LASXX=     60572505 LTotXX=    60572505 LenRXX=   122361555
 LTotAB=    61789050 MaxLAS=    75750300 LenRXY=           0
 NonZer=   182934060 LenScr=   275477504 LnRSAI=    75750300
 LnScr1=   114401280 LExtra=           0 Total=    587990639
 MaxDsk=          -1 SrtSym=           T ITran=            4
 JobTyp=1 Pass  1:  I=   1 to  15.
 (rs|ai) integrals will be sorted in core.
 ModeAB=           4 MOrb=            15 LenV=   10736056469
 LASXX=     60572505 LTotXX=    60572505 LenRXX=   113629530
 LTotAB=    53057025 MaxLAS=    75750300 LenRXY=           0
 NonZer=   174202035 LenScr=   262328320 LnRSAI=    75750300
 LnScr1=   114401280 LExtra=           0 Total=    566109430
 MaxDsk=          -1 SrtSym=           T ITran=            4
 JobTyp=2 Pass  1:  I=   1 to  15.
 (rs|ai) integrals will be sorted in core.
 SymMOI:  orbitals are not symmetric.
 DoSCS=T DFT=T ScalE2(SS,OS)=  0.270000  0.270000
 Spin components of T(2) and E(2):
     alpha-alpha T2 =       0.4354676671D-01 E2=     -0.2516823270D-01
     alpha-beta  T2 =       0.2605502956D+00 E2=     -0.1653708751D+00
     beta-beta   T2 =       0.4354676671D-01 E2=     -0.2516823270D-01
 E2(B2PLYPD3) =    -0.2157073405D+00 E(B2PLYPD3) =    -0.15589044718396D+03
 (S**2,0)=  0.00000D+00           (S**2,1)=  0.00000D+00
 E(PUHF)=      -0.15567473984D+03        E(PMP2)=      -0.15589044718D+03
          IDoAtm=1111111111
          Differentiating once with respect to electric field.
                with respect to dipole field.
          Differentiating once with respect to nuclear coordinates.
 Keep R1 and R2 ints in memory in canonical form, NReq=479631602.
          There are     1 degrees of freedom in the 1st order CPHF.  IDoFFX=0 NUNeed=     1.
 LinEq1:  Iter=  0 NonCon=     1 RMS=6.63D-04 Max=1.06D-02 NDo=     1
 AX will form     1 AO Fock derivatives at one time.
 LinEq1:  Iter=  1 NonCon=     1 RMS=2.48D-04 Max=4.79D-03 NDo=     1
 LinEq1:  Iter=  2 NonCon=     1 RMS=4.73D-05 Max=6.32D-04 NDo=     1
 LinEq1:  Iter=  3 NonCon=     1 RMS=5.60D-06 Max=1.04D-04 NDo=     1
 LinEq1:  Iter=  4 NonCon=     1 RMS=9.66D-07 Max=2.17D-05 NDo=     1
 LinEq1:  Iter=  5 NonCon=     1 RMS=4.62D-07 Max=5.30D-06 NDo=     1
 LinEq1:  Iter=  6 NonCon=     1 RMS=5.51D-08 Max=9.28D-07 NDo=     1
 LinEq1:  Iter=  7 NonCon=     1 RMS=8.84D-09 Max=1.16D-07 NDo=     1
 LinEq1:  Iter=  8 NonCon=     1 RMS=1.00D-09 Max=1.27D-08 NDo=     1
 LinEq1:  Iter=  9 NonCon=     1 RMS=1.72D-10 Max=3.99D-09 NDo=     1
 LinEq1:  Iter= 10 NonCon=     1 RMS=1.31D-10 Max=2.43D-09 NDo=     1
 LinEq1:  Iter= 11 NonCon=     0 RMS=2.87D-11 Max=6.70D-10 NDo=     1
 Linear equations converged to 1.000D-10 1.000D-09 after    11 iterations.
 End of Minotr F.D. properties file   721 does not exist.
 End of Minotr F.D. properties file   722 does not exist.
 End of Minotr F.D. properties file   788 does not exist.
 Symmetrizing basis deriv contribution to polar:
 IMax=3 JMax=2 DiffMx= 0.00D+00
 G2DrvN: will do    11 centers at a time, making    1 passes.
 Calling FoFCou, ICntrl=  3107 FMM=F I1Cent=   0 AccDes= 0.00D+00.
 End of G2Drv F.D. properties file   721 does not exist.
 End of G2Drv F.D. properties file   722 does not exist.
 End of G2Drv F.D. properties file   788 does not exist.
 DoSCS=T DFT=T ScalE2(SS,OS)=  0.270000  0.270000
 R2 and R3 integrals will be kept in memory, NReq=   711888870.
 DD1Dir will call FoFMem   1 times, MxPair=       660
 NAB=   225 NAA=   105 NBB=   105.
 Discarding MO integrals.

 **********************************************************************

            Population analysis using the SCF Density.

 **********************************************************************

 Orbital symmetries:
 Alpha Orbitals:
       Occupied  (A) (A) (A) (A) (A) (A) (A) (A) (A) (A) (A) (A)
                 (A) (A) (A)
       Virtual   (A) (A) (A) (A) (A) (A) (A) (A) (A) (A) (A) (A)
                 (A) (A) (A) (A) (A) (A) (A) (A) (A) (A) (A) (A)
                 (A) (A) (A) (A) (A) (A) (A) (A) (A) (A) (A) (A)
                 (A) (A) (A) (A) (A) (A) (A) (A) (A) (A) (A) (A)
                 (A) (A) (A) (A) (A) (A) (A) (A) (A) (A) (A) (A)
                 (A) (A) (A) (A) (A) (A) (A) (A) (A) (A) (A) (A)
                 (A) (A) (A) (A) (A) (A) (A) (A) (A) (A) (A) (A)
                 (A) (A) (A) (A) (A) (A) (A) (A) (A) (A) (A) (A)
                 (A) (A) (A) (A) (A) (A) (A) (A) (A) (A) (A) (A)
                 (A) (A) (A) (A) (A) (A) (A) (A) (A) (A) (A) (A)
                 (A) (A) (A) (A) (A) (A) (A) (A) (A) (A) (A) (A)
                 (A) (A) (A) (A) (A) (A) (A) (A) (A) (A) (A) (A)
                 (A) (A) (A) (A) (A) (A) (A) (A) (A) (A) (A) (A)
                 (A) (A) (A) (A) (A) (A) (A) (A) (A) (A) (A) (A)
                 (A) (A) (A) (A) (A) (A) (A) (A) (A) (A) (A) (A)
                 (A) (A) (A) (A) (A) (A) (A) (A) (A)
 Beta  Orbitals:
       Occupied  (A) (A) (A) (A) (A) (A) (A) (A) (A) (A) (A) (A)
                 (A) (A) (A)
       Virtual   (A) (A) (A) (A) (A) (A) (A) (A) (A) (A) (A) (A)
                 (A) (A) (A) (A) (A) (A) (A) (A) (A) (A) (A) (A)
                 (A) (A) (A) (A) (A) (A) (A) (A) (A) (A) (A) (A)
                 (A) (A) (A) (A) (A) (A) (A) (A) (A) (A) (A) (A)
                 (A) (A) (A) (A) (A) (A) (A) (A) (A) (A) (A) (A)
                 (A) (A) (A) (A) (A) (A) (A) (A) (A) (A) (A) (A)
                 (A) (A) (A) (A) (A) (A) (A) (A) (A) (A) (A) (A)
                 (A) (A) (A) (A) (A) (A) (A) (A) (A) (A) (A) (A)
                 (A) (A) (A) (A) (A) (A) (A) (A) (A) (A) (A) (A)
                 (A) (A) (A) (A) (A) (A) (A) (A) (A) (A) (A) (A)
                 (A) (A) (A) (A) (A) (A) (A) (A) (A) (A) (A) (A)
                 (A) (A) (A) (A) (A) (A) (A) (A) (A) (A) (A) (A)
                 (A) (A) (A) (A) (A) (A) (A) (A) (A) (A) (A) (A)
                 (A) (A) (A) (A) (A) (A) (A) (A) (A) (A) (A) (A)
                 (A) (A) (A) (A) (A) (A) (A) (A) (A) (A) (A) (A)
                 (A) (A) (A) (A) (A) (A) (A) (A) (A)
 The electronic state is 1-A.
 Alpha  occ. eigenvalues --  -10.62748 -10.62748 -10.60236 -10.59938  -0.89889
 Alpha  occ. eigenvalues --   -0.85276  -0.77153  -0.55279  -0.50315  -0.49896
 Alpha  occ. eigenvalues --   -0.49896  -0.48442  -0.48442  -0.29740  -0.29740
 Alpha virt. eigenvalues --    0.08448   0.09523   0.11326   0.11326   0.15243
 Alpha virt. eigenvalues --    0.15243   0.19255   0.19255   0.21591   0.22970
 Alpha virt. eigenvalues --    0.31808   0.31809   0.32280   0.32280   0.34378
 Alpha virt. eigenvalues --    0.35158   0.41664   0.41664   0.47288   0.50561
 Alpha virt. eigenvalues --    0.50561   0.52935   0.53097   0.53097   0.53972
 Alpha virt. eigenvalues --    0.56920   0.56920   0.61550   0.66172   0.66173
 Alpha virt. eigenvalues --    0.73150   0.73150   0.73731   0.79275   0.82106
 Alpha virt. eigenvalues --    0.85664   0.85664   0.89188   0.95377   0.95378
 Alpha virt. eigenvalues --    0.99589   0.99590   1.06003   1.07847   1.07847
 Alpha virt. eigenvalues --    1.09642   1.09642   1.10273   1.10273   1.24784
 Alpha virt. eigenvalues --    1.27072   1.29927   1.29928   1.31598   1.31669
 Alpha virt. eigenvalues --    1.31669   1.38020   1.39194   1.39194   1.40305
 Alpha virt. eigenvalues --    1.40305   1.48959   1.50041   1.50041   1.59882
 Alpha virt. eigenvalues --    1.59882   1.60171   1.68143   1.78843   1.78844
 Alpha virt. eigenvalues --    2.15500   2.15500   2.29210   2.32651   2.32652
 Alpha virt. eigenvalues --    2.35884   2.43562   2.43563   2.51407   2.57121
 Alpha virt. eigenvalues --    2.57122   2.61296   2.61848   2.64323   2.66858
 Alpha virt. eigenvalues --    2.74559   2.77901   2.77901   2.82596   2.82597
 Alpha virt. eigenvalues --    2.83105   2.87864   2.87865   2.88889   2.90306
 Alpha virt. eigenvalues --    2.94318   2.94640   2.94640   2.99088   2.99088
 Alpha virt. eigenvalues --    2.99675   2.99675   3.05762   3.07904   3.07904
 Alpha virt. eigenvalues --    3.10201   3.16190   3.16190   3.18637   3.18638
 Alpha virt. eigenvalues --    3.29466   3.29466   3.30573   3.30573   3.35545
 Alpha virt. eigenvalues --    3.38610   3.38611   3.43890   3.44209   3.45431
 Alpha virt. eigenvalues --    3.50060   3.50060   3.54682   3.54682   3.57648
 Alpha virt. eigenvalues --    3.57848   3.62478   3.62478   3.75339   3.75340
 Alpha virt. eigenvalues --    3.79744   3.82283   3.82284   3.92414   3.94275
 Alpha virt. eigenvalues --    3.94277   3.95364   3.95364   4.01399   4.09240
 Alpha virt. eigenvalues --    4.09787   4.09787   4.10000   4.10000   4.22302
 Alpha virt. eigenvalues --    4.22416   4.23865   4.23865   4.39803   4.40749
 Alpha virt. eigenvalues --    4.40750   4.43148   4.50547   4.50548   4.51728
 Alpha virt. eigenvalues --    4.52029   4.74486   4.74487   4.96853   4.96853
 Alpha virt. eigenvalues --    4.98744   5.07791   5.10739   5.10740   5.20726
 Alpha virt. eigenvalues --    5.22183   5.28805   5.28806   5.32155   5.37008
 Alpha virt. eigenvalues --    5.37009   5.38484   5.45081   5.45082   5.46801
 Alpha virt. eigenvalues --    5.50162   5.50162   5.86415   5.86415   5.87142
 Alpha virt. eigenvalues --    5.97978   5.97978   6.05936   6.05937   6.12271
 Alpha virt. eigenvalues --    7.44144  13.84678  14.02188  18.17070
  Beta  occ. eigenvalues --  -10.62748 -10.62748 -10.60236 -10.59938  -0.89889
  Beta  occ. eigenvalues --   -0.85276  -0.77153  -0.55279  -0.50315  -0.49896
  Beta  occ. eigenvalues --   -0.49896  -0.48442  -0.48442  -0.29740  -0.29740
  Beta virt. eigenvalues --    0.08448   0.09523   0.11326   0.11326   0.15243
  Beta virt. eigenvalues --    0.15243   0.19255   0.19255   0.21591   0.22970
  Beta virt. eigenvalues --    0.31808   0.31809   0.32280   0.32280   0.34378
  Beta virt. eigenvalues --    0.35158   0.41664   0.41664   0.47288   0.50561
  Beta virt. eigenvalues --    0.50561   0.52935   0.53097   0.53097   0.53972
  Beta virt. eigenvalues --    0.56920   0.56920   0.61550   0.66172   0.66173
  Beta virt. eigenvalues --    0.73150   0.73150   0.73731   0.79275   0.82106
  Beta virt. eigenvalues --    0.85664   0.85664   0.89188   0.95377   0.95378
  Beta virt. eigenvalues --    0.99589   0.99590   1.06003   1.07847   1.07847
  Beta virt. eigenvalues --    1.09642   1.09642   1.10273   1.10273   1.24784
  Beta virt. eigenvalues --    1.27072   1.29927   1.29928   1.31598   1.31669
  Beta virt. eigenvalues --    1.31669   1.38020   1.39194   1.39194   1.40305
  Beta virt. eigenvalues --    1.40305   1.48959   1.50041   1.50041   1.59882
  Beta virt. eigenvalues --    1.59882   1.60171   1.68143   1.78843   1.78844
  Beta virt. eigenvalues --    2.15500   2.15500   2.29210   2.32651   2.32652
  Beta virt. eigenvalues --    2.35884   2.43562   2.43563   2.51407   2.57121
  Beta virt. eigenvalues --    2.57122   2.61296   2.61848   2.64323   2.66858
  Beta virt. eigenvalues --    2.74559   2.77901   2.77901   2.82596   2.82597
  Beta virt. eigenvalues --    2.83105   2.87864   2.87865   2.88889   2.90306
  Beta virt. eigenvalues --    2.94318   2.94640   2.94640   2.99088   2.99088
  Beta virt. eigenvalues --    2.99675   2.99675   3.05762   3.07904   3.07904
  Beta virt. eigenvalues --    3.10201   3.16190   3.16190   3.18637   3.18638
  Beta virt. eigenvalues --    3.29466   3.29466   3.30573   3.30573   3.35545
  Beta virt. eigenvalues --    3.38610   3.38611   3.43890   3.44209   3.45431
  Beta virt. eigenvalues --    3.50060   3.50060   3.54682   3.54682   3.57648
  Beta virt. eigenvalues --    3.57848   3.62478   3.62478   3.75339   3.75340
  Beta virt. eigenvalues --    3.79744   3.82283   3.82284   3.92414   3.94275
  Beta virt. eigenvalues --    3.94277   3.95364   3.95364   4.01399   4.09240
  Beta virt. eigenvalues --    4.09787   4.09787   4.10000   4.10000   4.22302
  Beta virt. eigenvalues --    4.22416   4.23865   4.23865   4.39803   4.40749
  Beta virt. eigenvalues --    4.40750   4.43148   4.50547   4.50548   4.51728
  Beta virt. eigenvalues --    4.52029   4.74486   4.74487   4.96853   4.96853
  Beta virt. eigenvalues --    4.98744   5.07791   5.10739   5.10740   5.20726
  Beta virt. eigenvalues --    5.22183   5.28805   5.28806   5.32155   5.37008
  Beta virt. eigenvalues --    5.37009   5.38484   5.45081   5.45082   5.46801
  Beta virt. eigenvalues --    5.50162   5.50162   5.86415   5.86415   5.87142
  Beta virt. eigenvalues --    5.97978   5.97978   6.05936   6.05937   6.12271
  Beta virt. eigenvalues --    7.44144  13.84678  14.02188  18.17070
          Condensed to atoms (all electrons):
               1          2          3          4          5          6
     1  C    4.767717   0.440004  -0.103442  -0.001128   0.000059   0.000060
     2  C    0.440004   5.289665   0.519931  -0.103442   0.000860   0.000885
     3  C   -0.103442   0.519931   5.289664   0.440004  -0.044106  -0.044105
     4  C   -0.001128  -0.103442   0.440004   4.767717   0.409310   0.409274
     5  H    0.000059   0.000860  -0.044106   0.409310   0.577889  -0.029989
     6  H    0.000060   0.000885  -0.044105   0.409274  -0.029989   0.577910
     7  H    0.000059   0.000874  -0.044104   0.409289  -0.029985  -0.029993
     8  H    0.409291  -0.044105   0.000872   0.000059  -0.000035  -0.000035
     9  H    0.409307  -0.044106   0.000862   0.000059  -0.000035   0.000144
    10  H    0.409274  -0.044104   0.000884   0.000060   0.000144  -0.000035
               7          8          9         10
     1  C    0.000059   0.409291   0.409307   0.409274
     2  C    0.000874  -0.044105  -0.044106  -0.044104
     3  C   -0.044104   0.000872   0.000862   0.000884
     4  C    0.409289   0.000059   0.000059   0.000060
     5  H   -0.029985  -0.000035  -0.000035   0.000144
     6  H   -0.029993  -0.000035   0.000144  -0.000035
     7  H    0.577899   0.000144  -0.000035  -0.000035
     8  H    0.000144   0.577899  -0.029986  -0.029993
     9  H   -0.000035  -0.029986   0.577890  -0.029989
    10  H   -0.000035  -0.029993  -0.029989   0.577909
          Atomic-Atomic Spin Densities.
               1          2          3          4          5          6
     1  C   -0.000000  -0.000000   0.000000   0.000000   0.000000  -0.000000
     2  C   -0.000000  -0.000000   0.000000   0.000000   0.000000  -0.000000
     3  C    0.000000   0.000000  -0.000000  -0.000000   0.000000  -0.000000
     4  C    0.000000   0.000000  -0.000000  -0.000000  -0.000000   0.000000
     5  H    0.000000   0.000000   0.000000  -0.000000   0.000000  -0.000000
     6  H   -0.000000  -0.000000  -0.000000   0.000000  -0.000000  -0.000000
     7  H    0.000000   0.000000   0.000000  -0.000000   0.000000  -0.000000
     8  H    0.000000  -0.000000  -0.000000  -0.000000  -0.000000  -0.000000
     9  H    0.000000  -0.000000  -0.000000  -0.000000  -0.000000  -0.000000
    10  H    0.000000  -0.000000  -0.000000  -0.000000  -0.000000  -0.000000
               7          8          9         10
     1  C    0.000000   0.000000   0.000000   0.000000
     2  C    0.000000  -0.000000  -0.000000  -0.000000
     3  C    0.000000  -0.000000  -0.000000  -0.000000
     4  C   -0.000000  -0.000000  -0.000000  -0.000000
     5  H    0.000000  -0.000000  -0.000000  -0.000000
     6  H   -0.000000  -0.000000  -0.000000  -0.000000
     7  H    0.000000  -0.000000  -0.000000  -0.000000
     8  H   -0.000000   0.000000   0.000000  -0.000000
     9  H   -0.000000   0.000000   0.000000  -0.000000
[...]
 Vib (V=0)    4  0.119142D+01          0.076065          0.175146
 Vib (V=0)    5  0.119141D+01          0.076063          0.175141
 Electronic      0.100000D+01          0.000000          0.000000
 Translational   0.156175D+08          7.193611         16.563901
 Rotational      0.286871D+05          4.457686         10.264202
 ***** Axes restored to original set *****
 -------------------------------------------------------------------
 Center     Atomic                   Forces (Hartrees/Bohr)
 Number     Number              X              Y              Z
 -------------------------------------------------------------------
      1        6           0.000011561    0.000005920   -0.000003852
      2        6           0.000000219    0.000000984    0.000002387
      3        6          -0.000000798    0.000001123   -0.000002433
      4        6          -0.000011226   -0.000007907    0.000003824
      5        1           0.000000891    0.000003100   -0.000000494
      6        1           0.000003617   -0.000001687   -0.000000239
      7        1           0.000005528    0.000004431    0.000000055
      8        1          -0.000006082   -0.000003018    0.000000005
      9        1          -0.000003420    0.000000541    0.000000908
     10        1          -0.000000291   -0.000003487   -0.000000162
 -------------------------------------------------------------------
 Cartesian Forces:  Max     0.000011561 RMS     0.000004279
 FormGI is forming the generalized inverse of G from B-inverse, IUseBI=4.

 GradGradGradGradGradGradGradGradGradGradGradGradGradGradGradGradGradGrad
 Berny optimization.
 Internal  Forces:  Max     0.000005891 RMS     0.000002067
 Search for a local minimum.
 Step number   1 out of a maximum of    2
 All quantities printed in internal units (Hartrees-Bohrs-Radians)
 Second derivative matrix not updated -- analytic derivatives used.
 ITU=  0
     Eigenvalues ---    0.00001   0.01211   0.01572   0.03251   0.03433
     Eigenvalues ---    0.04500   0.04628   0.07724   0.09853   0.12329
     Eigenvalues ---    0.12423   0.14887   0.14938   0.15721   0.16289
     Eigenvalues ---    0.33727   0.33728   0.33757   0.33787   0.33961
     Eigenvalues ---    0.34017   0.36740   0.37071   1.04572
 Angle between quadratic step and forces=  61.20 degrees.
 Linear search not attempted -- first point.
 Iteration  1 RMS(Cart)=  0.00007307 RMS(Int)=  0.00000001
 Iteration  2 RMS(Cart)=  0.00000001 RMS(Int)=  0.00000000
 Variable       Old X    -DE/DX   Delta X   Delta X   Delta X     New X
                                 (Linear)    (Quad)   (Total)
    R1        2.75531  -0.00000   0.00000  -0.00001  -0.00001   2.75530
    R2        2.05880   0.00000   0.00000   0.00000   0.00000   2.05880
    R3        2.05879   0.00000   0.00000   0.00001   0.00001   2.05880
    R4        2.05881  -0.00000   0.00000  -0.00001  -0.00001   2.05880
    R5        2.27926  -0.00000   0.00000  -0.00000  -0.00000   2.27926
    R6        2.75531  -0.00000   0.00000  -0.00001  -0.00001   2.75530
    R7        2.05880   0.00000   0.00000   0.00001   0.00001   2.05880
    R8        2.05881  -0.00000   0.00000  -0.00001  -0.00001   2.05880
    R9        2.05880   0.00000   0.00000   0.00000   0.00000   2.05880
    A1        1.93770  -0.00000   0.00000   0.00000   0.00000   1.93770
    A2        1.93773  -0.00000   0.00000  -0.00003  -0.00003   1.93770
    A3        1.93766   0.00000   0.00000   0.00003   0.00003   1.93769
    A4        1.88288  -0.00000   0.00000  -0.00006  -0.00006   1.88281
    A5        1.88275   0.00000   0.00000   0.00006   0.00006   1.88281
    A6        1.88281  -0.00000   0.00000  -0.00000  -0.00000   1.88281
    A7        1.93773  -0.00000   0.00000  -0.00003  -0.00003   1.93769
    A8        1.93766   0.00000   0.00000   0.00004   0.00004   1.93770
    A9        1.93770  -0.00000   0.00000   0.00000   0.00000   1.93770
   A10        1.88281  -0.00000   0.00000  -0.00001  -0.00001   1.88281
   A11        1.88287  -0.00000   0.00000  -0.00006  -0.00006   1.88281
   A12        1.88275   0.00000   0.00000   0.00007   0.00007   1.88281
   A13        3.14154   0.00000   0.00000   0.00004   0.00004   3.14158
   A14        3.14156  -0.00000   0.00000   0.00004   0.00004   3.14159
   A15        3.14167  -0.00000   0.00000  -0.00009  -0.00009   3.14158
   A16        3.14152   0.00000   0.00000   0.00010   0.00010   3.14162
    D1        2.09450   0.00000   0.00000  -0.00011  -0.00011   2.09439
    D2       -2.09428   0.00000   0.00000  -0.00013  -0.00013  -2.09441
    D3        0.00000   0.00001   0.00000  -0.00000  -0.00000  -0.00000
    D4       -2.09418  -0.00000   0.00000  -0.00020  -0.00020  -2.09438
    D5        0.00022  -0.00000   0.00000  -0.00022  -0.00022  -0.00000
    D6        2.09451   0.00000   0.00000  -0.00010  -0.00010   2.09441
    D7        0.00022  -0.00000   0.00000  -0.00022  -0.00022  -0.00000
    D8        2.09462  -0.00000   0.00000  -0.00024  -0.00024   2.09438
    D9       -2.09428   0.00000   0.00000  -0.00012  -0.00012  -2.09439
         Item               Value     Threshold  Converged?
 Maximum Force            0.000006     0.000450     YES
 RMS     Force            0.000002     0.000300     YES
 Maximum Displacement     0.000188     0.001800     YES
 RMS     Displacement     0.000073     0.001200     YES
 Predicted change in Energy=-1.566052D-09
 Optimization completed.
    -- Stationary point found.
                           ----------------------------
                           !   Optimized Parameters   !
                           ! (Angstroms and Degrees)  !
 --------------------------                            --------------------------
 ! Name  Definition              Value          Derivative Info.                !
 --------------------------------------------------------------------------------
 ! R1    R(1,2)                  1.458          -DE/DX =    0.0                 !
 ! R2    R(1,8)                  1.0895         -DE/DX =    0.0                 !
 ! R3    R(1,9)                  1.0895         -DE/DX =    0.0                 !
 ! R4    R(1,10)                 1.0895         -DE/DX =    0.0                 !
 ! R5    R(2,3)                  1.2061         -DE/DX =    0.0                 !
 ! R6    R(3,4)                  1.458          -DE/DX =    0.0                 !
 ! R7    R(4,5)                  1.0895         -DE/DX =    0.0                 !
 ! R8    R(4,6)                  1.0895         -DE/DX =    0.0                 !
 ! R9    R(4,7)                  1.0895         -DE/DX =    0.0                 !
 ! A1    A(2,1,8)              111.0218         -DE/DX =    0.0                 !
 ! A2    A(2,1,9)              111.0235         -DE/DX =    0.0                 !
 ! A3    A(2,1,10)             111.02           -DE/DX =    0.0                 !
 ! A4    A(8,1,9)              107.8808         -DE/DX =    0.0                 !
 ! A5    A(8,1,10)             107.8736         -DE/DX =    0.0                 !
 ! A6    A(9,1,10)             107.877          -DE/DX =    0.0                 !
 ! A7    A(3,4,5)              111.0236         -DE/DX =    0.0                 !
 ! A8    A(3,4,6)              111.0199         -DE/DX =    0.0                 !
 ! A9    A(3,4,7)              111.0219         -DE/DX =    0.0                 !
 ! A10   A(5,4,6)              107.8772         -DE/DX =    0.0                 !
 ! A11   A(5,4,7)              107.8807         -DE/DX =    0.0                 !
 ! A12   A(6,4,7)              107.8735         -DE/DX =    0.0                 !
 ! A13   L(1,2,3,10,-1)        179.997          -DE/DX =    0.0                 !
 ! A14   L(2,3,4,6,-1)         179.9981         -DE/DX =    0.0                 !
 ! A15   L(1,2,3,10,-2)        180.0045         -DE/DX =    0.0                 !
 ! A16   L(2,3,4,6,-2)         179.9957         -DE/DX =    0.0                 !
 ! D1    D(8,1,4,5)            120.0059         -DE/DX =    0.0                 !
 ! D2    D(8,1,4,6)           -119.9936         -DE/DX =    0.0                 !
 ! D3    D(8,1,4,7)              0.0001         -DE/DX =    0.0                 !
 ! D4    D(9,1,4,5)           -119.9876         -DE/DX =    0.0                 !
 ! D5    D(9,1,4,6)              0.0128         -DE/DX =    0.0                 !
 ! D6    D(9,1,4,7)            120.0066         -DE/DX =    0.0                 !
 ! D7    D(10,1,4,5)             0.0125         -DE/DX =    0.0                 !
 ! D8    D(10,1,4,6)           120.013          -DE/DX =    0.0                 !
 ! D9    D(10,1,4,7)          -119.9933         -DE/DX =    0.0                 !
 --------------------------------------------------------------------------------
 GradGradGradGradGradGradGradGradGradGradGradGradGradGradGradGradGradGrad


 ----------------------------------------------------------------------

 Electric dipole moment (input orientation):
 (Debye = 10**-18 statcoulomb cm , SI units = C m)
                  (au)            (Debye)         (10**-30 SI)
   Tot        0.155158D-04      0.394372D-04      0.131548D-03
   x          0.000000D+00      0.000000D+00      0.000000D+00
   y          0.155158D-04      0.394372D-04      0.131548D-03
   z          0.000000D+00      0.000000D+00      0.000000D+00

 Dipole polarizability, Alpha (input orientation).
 (esu units = cm**3 , SI units = C**2 m**2 J**-1)
 Alpha(0;0):
               (au)            (10**-24 esu)      (10**-40 SI)
   iso        0.456342D+02      0.676230D+01      0.752407D+01
   aniso      0.354926D+02      0.525946D+01      0.585194D+01
   xx         0.338034D+02      0.500914D+01      0.557342D+01
   yx         0.288281D-04      0.427188D-05      0.475311D-05
   yy         0.338034D+02      0.500915D+01      0.557343D+01
   zx        -0.600426D-03     -0.889740D-04     -0.989969D-04
   zy        -0.234488D-03     -0.347476D-04     -0.386619D-04
   zz         0.692960D+02      0.102686D+02      0.114254D+02

 ----------------------------------------------------------------------

 Dipole orientation:
     6         -0.50975183         -3.86134109         -0.02762689
     6         -0.14918655         -1.12979318         -0.00814322
     6          0.14918615          1.12979373          0.00807454
     6          0.50975109          3.86134115          0.02763251
     1          2.49503430          4.34246921          0.28415456
     1         -0.12066644          4.70213530         -1.74277210
     1         -0.55536575          4.73595483          1.55708811
     1         -1.76817970         -4.45102924          1.49135011
     1         -1.33306270         -4.48497951         -1.80860049
     1          1.28224329         -4.84454955          0.21884501

 Electric dipole moment (dipole orientation):
 (Debye = 10**-18 statcoulomb cm , SI units = C m)
                  (au)            (Debye)         (10**-30 SI)
   Tot        0.156508D-04      0.397803D-04      0.132693D-03
   x          0.000000D+00      0.000000D+00      0.000000D+00
   y          0.000000D+00      0.000000D+00      0.000000D+00
   z          0.156508D-04      0.397803D-04      0.132693D-03

 Dipole polarizability, Alpha (dipole orientation).
 (esu units = cm**3 , SI units = C**2 m**2 J**-1)
 Alpha(0;0):
               (au)            (10**-24 esu)      (10**-40 SI)
   iso        0.456342D+02      0.676230D+01      0.752407D+01
   aniso      0.354926D+02      0.525946D+01      0.585194D+01
   xx         0.344113D+02      0.509923D+01      0.567366D+01
   yx         0.460515D+01      0.682412D+00      0.759286D+00
   yy         0.686862D+02      0.101783D+02      0.113248D+02
   zx         0.329809D-01      0.488726D-02      0.543781D-02
   zy         0.249634D+00      0.369920D-01      0.411591D-01
   zz         0.338052D+02      0.500941D+01      0.557372D+01

 ----------------------------------------------------------------------
 1\1\GINC-N60\Freq\UB2PLYPD3-FC\CC-pVTZ\C4H6\ROOT\02-Jun-2019\0\\#N Geo
 m=AllCheck Guess=TCheck SCRF=Check GenChk UB2PLYPD3(FC)/CC-pVTZ Freq\\
 Title Card Required\\0,1\C,-0.000028,-0.000011,2.061114\C,-0.000032,-0
 .000032,0.603066\C,0.000027,-0.000004,-0.603066\C,0.000028,0.000014,-2
 .061114\H,1.016973,-0.000091,-2.451962\H,-0.508555,-0.880654,-2.451911
 \H,-0.508445,0.880734,-2.451924\H,-0.508513,0.880704,2.451922\H,-0.508
 403,-0.880761,2.451975\H,1.016949,0.000102,2.451899\\Version=ES64L-G16
 RevB.01\State=1-A\HF=-155.6747398\MP2=-155.8904472\PUHF=-155.6747398\P
 MP2-0=-155.8904472\S2=0.\S2-1=0.\S2A=0.\RMSD=1.814e-09\RMSF=4.279e-06\
 ZeroPoint=0.0844673\Thermal=0.0902445\Dipole=0.000002,0.0000155,-0.000
 0001\DipoleDeriv=0.1498406,0.0000007,-0.0000367,0.0000056,0.1498476,-0
 .0000224,-0.0000066,0.0000003,0.1834854,-0.1748391,-0.0000014,0.000036
 5,-0.0000029,-0.1748425,0.0000331,-0.0000017,0.0000056,-0.0248874,-0.1
 748437,0.0000005,0.0000315,0.0000019,-0.1748376,0.0000017,-0.0000047,-
 0.0000081,-0.0248875,0.1498495,-0.0000013,-0.0000447,-0.0000025,0.1498
 385,-0.0000191,-0.0000086,-0.0000088,0.1834856,-0.0687254,0.0000109,0.
 0833072,0.0000183,0.0854046,-0.0000005,0.0335953,0.0000002,-0.0528612,
 0.0468484,-0.0667581,-0.041654,-0.0667547,-0.0302,-0.0721429,-0.016797
 5,-0.0290906,-0.0528709,0.0468722,0.0667477,-0.0416397,0.0667367,-0.03
 02064,0.0721501,-0.0167875,0.029097,-0.052866,0.0468646,0.0667421,0.04
 16596,0.066751,-0.0301989,-0.072139,0.0168031,-0.0290883,-0.0528651,0.
 0468853,-0.0667272,0.0416477,-0.0667359,-0.0302047,0.0721459,0.0167995
 ,0.0290935,-0.0528605,-0.0687524,-0.0000139,-0.0833074,-0.0000174,0.08
 53994,-0.0000068,-0.0335913,-0.000001,-0.0528723\Polar=33.8033626,0.00
 00288,33.8033876,-0.0006004,-0.0002345,69.2959848\PG=C01 [X(C4H6)]\NIm
 ag=0\\0.54281084,0.00001433,0.54286606,-0.00001427,-0.00000675,0.51681
 927,-0.06235016,-0.00000055,0.00000051,0.08459949,-0.00000077,-0.06235
 278,-0.00000157,0.00000046,0.08459961,-0.00000186,-0.00000361,-0.28746
 831,-0.00003908,-0.00001561,1.39091619,0.00221670,-0.00000029,-0.00000
 083,-0.03160061,-0.00000048,0.00004069,0.08459969,0.00000009,0.0022160
 1,-0.00000065,-0.00000070,-0.03160037,0.00002028,0.00000040,0.08459942
 ,0.00000337,0.00000165,-0.00405469,0.00004085,0.00001861,-1.03925278,-
 0.00004129,-0.00002197,1.39091615,0.00722718,0.00000032,-0.00000011,0.
 00221630,-0.00000023,0.00000315,-0.06235312,0.00000089,-0.00000084,0.5
 4285947,-0.00000055,0.00722708,-0.00000016,0.00000045,0.00221640,0.000
 00134,0.00000115,-0.06234985,0.00000238,-0.00001407,0.54281765,0.00000
 002,0.00000012,0.00199965,-0.00000135,-0.00000046,-0.00405471,0.000004
 35,0.00000376,-0.28746830,-0.00000985,-0.00000843,0.51681948,-0.000088
 30,0.00000003,0.00022498,-0.00012156,0.00000011,-0.00202710,0.00540475
 ,-0.00000039,0.00353597,-0.28087726,0.00002314,0.08450439,0.30370126,0
 .00000022,-0.00013880,-0.00000004,0.00000004,0.00078338,0.00000025,-0.
 00000053,-0.00130945,-0.00000063,0.00002321,-0.04551199,-0.00000724,-0
 .00002396,0.04506247,-0.00187987,-0.00000011,-0.00016684,-0.00048848,0
 .00000013,0.00042143,0.03253251,-0.00000251,-0.02046810,0.08635973,-0.
 00000748,-0.07560360,-0.09494041,0.00000859,0.08853475,-0.00012630,0.0
 0002187,-0.00011253,0.00055720,-0.00039151,0.00101385,0.00037007,0.002
 90543,-0.00176943,-0.10437852,-0.10192769,-0.04225370,-0.01395607,-0.0
 2571797,-0.01092885,0.10974964,0.00002201,-0.00010078,-0.00019487,-0.0
 0039177,0.00010495,0.00175536,0.00290575,0.00372525,-0.00306289,-0.101
 92717,-0.22201432,-0.07316468,0.00067479,0.00050866,0.00125270,0.11200
 713,0.23902245,0.00093981,0.00162808,-0.00016693,0.00024463,0.00042370
 ,0.00042242,-0.01627059,-0.02817532,-0.02046991,-0.04318068,-0.0747715
 6,-0.07559381,0.00438248,0.01009266,0.00394259,0.04747265,0.08220134,0
 .08852631,-0.00012619,-0.00002191,-0.00011254,0.00055732,0.00039172,0.
 00101373,0.00036944,-0.00290565,-0.00176909,-0.10435361,0.10191741,-0.
 04224370,-0.01395009,0.02571902,-0.01092954,0.00773695,-0.01319850,0.0
 0654914,0.10971915,-0.00002191,-0.00010085,0.00019485,0.00039165,0.000
 10480,-0.00175547,-0.00290612,0.00372598,0.00306249,0.10191723,-0.2220
 4422,0.07317702,-0.00067373,0.00050550,-0.00125144,0.01319494,-0.02118
 674,0.00883935,-0.11199430,0.23905501,0.00093993,-0.00162803,-0.000166
 85,0.00024436,-0.00042335,0.00042212,-0.01626493,0.02817659,-0.0204683
 5,-0.04317130,0.07478395,-0.07559809,0.00438045,-0.01009358,0.00394293
 ,0.00654753,-0.00883958,0.00394249,0.04746153,-0.08221417,0.08852894,-
 0.10435690,0.10191860,0.04224896,0.00037026,-0.00290709,0.00176721,0.0
 0055731,0.00039182,-0.00101331,-0.00012619,-0.00002188,0.00011246,-0.0
 0001461,0.00005038,0.00009217,0.00001875,-0.00003115,-0.00007727,0.000
 04291,0.00007298,-0.00004533,0.10972945,0.10191876,-0.22204015,-0.0731
 7280,-0.00290552,0.00372509,-0.00306371,0.00039154,0.00010481,0.001755
 71,-0.00002191,-0.00010083,-0.00019489,-0.00001189,0.00000760,0.000035
 99,0.00003114,-0.00002573,-0.00006184,0.00007297,-0.00004137,0.0000785
 1,-0.11199980,0.23904376,0.04317615,-0.07477998,-0.07559772,0.01626847
 ,-0.02817460,-0.02046823,-0.00024468,0.00042314,0.00042198,-0.00093998
 ,0.00162801,-0.00016685,0.00001492,-0.00009783,0.00004587,0.00007725,-
 0.00006185,0.00004584,0.00004535,-0.00007850,-0.00069491,-0.04746526,0
 .08221091,0.08852863,-0.10433514,-0.10190556,0.04225046,0.00036937,0.0
 0290668,0.00176695,0.00055722,-0.00039170,-0.00101328,-0.00012608,0.00
 002203,0.00011243,-0.00001462,-0.00005041,0.00009213,0.00004288,-0.000
 07298,-0.00004528,0.00001873,0.00003114,-0.00007729,0.00773617,0.01319
 805,-0.00655085,0.10970282,-0.10190526,-0.22206257,0.07319014,0.002906
 01,0.00372785,0.00306241,-0.00039154,0.00010475,-0.00175576,0.00002183
 ,-0.00010100,0.00019485,0.00001188,0.00000763,-0.00003593,-0.00007299,
 -0.00004135,-0.00007854,-0.00003114,-0.00002572,0.00006184,-0.01319431
 ,-0.02118102,0.00884038,0.11198359,0.23906767,0.04317682,0.07479721,-0
 .07560797,0.01626494,0.02817584,-0.02046838,-0.00024425,-0.00042333,0.
 00042114,-0.00094000,-0.00162796,-0.00016692,0.00001497,0.00009776,0.0
 0004586,0.00004541,0.00007845,-0.00069490,0.00007729,0.00006183,0.0000
 4587,-0.00654888,-0.00883982,0.00394315,-0.04746676,-0.08222866,0.0885
 3953,-0.28087173,-0.00002685,-0.08448463,0.00540239,0.00000111,-0.0035
 3754,-0.00012145,-0.00000018,0.00202705,-0.00008818,0.00000002,-0.0002
 2505,-0.00008350,0.,0.00009063,-0.00001460,0.00001189,-0.00001491,-0.0
 0001461,-0.00001188,-0.00001494,-0.01395713,-0.00067333,-0.00438137,-0
 .01395134,0.00067192,-0.00437954,0.30370016,-0.00002692,-0.04551322,-0
 .00000816,-0.00000006,-0.00130894,-0.00000124,0.00000012,0.00078345,0.
 00000040,-0.00000012,-0.00013893,-0.00000004,0.,0.00008499,0.00000007,
 -0.00005034,0.00000760,-0.00009785,0.00005039,0.00000761,0.00009782,0.
 02572046,0.00050785,0.01009033,-0.02572083,0.00050377,-0.01009132,0.00
 002730,0.04506582,-0.08634009,-0.00000858,-0.07558961,-0.03253485,-0.0
 0000269,-0.02046975,0.00048901,0.00000003,0.00042285,0.00187988,-0.000
 00010,-0.00016686,-0.00009065,0.00000008,-0.00069489,-0.00009218,0.000
 03603,0.00004589,-0.00009216,-0.00003597,0.00004584,0.01092926,0.00125
 194,0.00394224,0.01093148,-0.00125073,0.00394261,0.09492030,0.00000999
 ,0.08852167\\-0.00001156,-0.00000592,0.00000385,-0.00000022,-0.0000009
 8,-0.00000239,0.00000080,-0.00000112,0.00000243,0.00001123,0.00000791,
 -0.00000382,-0.00000089,-0.00000310,0.00000049,-0.00000362,0.00000169,
 0.00000024,-0.00000553,-0.00000443,-0.00000005,0.00000608,0.00000302,0
 .,0.00000342,-0.00000054,-0.00000091,0.00000029,0.00000349,0.00000016\
 \\@


 WORK FAITHFULLY FOR EIGHT HOURS A DAY AND DON'T WORRY.
 IN TIME YOU MAY BECOME BOSS AND WORK TWELVE HOURS A DAY
 AND HAVE ALL THE WORRY.
 Job cpu time:       0 days  5 hours 28 minutes 12.0 seconds.
 Elapsed time:       0 days  0 hours  8 minutes 25.6 seconds.
 File lengths (MBytes):  RWF=  11250 Int=      0 D2E=      0 Chk=      8 Scr=      1
 Normal termination of Gaussian 16 at Sun Jun  2 17:27:10 2019.
