 Entering Gaussian System, Link 0=g16
 Initial command:
 /ichec/packages/gaussian/16b01/l1.exe "/localscratch/339543/Gau-13149.inp" -scrdir="/localscratch/339543/"
 Entering Link 1 = /ichec/packages/gaussian/16b01/l1.exe PID=     13168.
  
 Copyright (c) 1988-2017, Gaussian, Inc.  All Rights Reserved.
  
 This is part of the Gaussian(R) 16 program.  It is based on
 the Gaussian(R) 09 system (copyright 2009, Gaussian, Inc.),
 the Gaussian(R) 03 system (copyright 2003, Gaussian, Inc.),
 the Gaussian(R) 98 system (copyright 1998, Gaussian, Inc.),
 the Gaussian(R) 94 system (copyright 1995, Gaussian, Inc.),
 the Gaussian 92(TM) system (copyright 1992, Gaussian, Inc.),
 the Gaussian 90(TM) system (copyright 1990, Gaussian, Inc.),
 the Gaussian 88(TM) system (copyright 1988, Gaussian, Inc.),
 the Gaussian 86(TM) system (copyright 1986, Carnegie Mellon
 University), and the Gaussian 82(TM) system (copyright 1983,
 Carnegie Mellon University). Gaussian is a federally registered
 trademark of Gaussian, Inc.
  
 This software contains proprietary and confidential information,
 including trade secrets, belonging to Gaussian, Inc.
  
 This software is provided under written license and may be
 used, copied, transmitted, or stored only in accord with that
 written license.
  
 The following legend is applicable only to US Government
 contracts under FAR:
  
                    RESTRICTED RIGHTS LEGEND
  
 Use, reproduction and disclosure by the US Government is
 subject to restrictions as set forth in subparagraphs (a)
 and (c) of the Commercial Computer Software - Restricted
 Rights clause in FAR 52.227-19.
  
 Gaussian, Inc.
 340 Quinnipiac St., Bldg. 40, Wallingford CT 06492
  
  
 ---------------------------------------------------------------
 Warning -- This program may not be used in any manner that
 competes with the business of Gaussian, Inc. or will provide
 assistance to any competitor of Gaussian, Inc.  The licensee
 of this program is prohibited from giving any competitor of
 Gaussian, Inc. access to this program.  By using this program,
 the user acknowledges that Gaussian, Inc. is engaged in the
 business of creating and licensing software in the field of
 computational chemistry and represents and warrants to the
 licensee that it is not a competitor of Gaussian, Inc. and that
 it will not use this program in any manner prohibited above.
 ---------------------------------------------------------------
  

 Cite this work as:
 Gaussian 16, Revision B.01,
 M. J. Frisch, G. W. Trucks, H. B. Schlegel, G. E. Scuseria, 
 M. A. Robb, J. R. Cheeseman, G. Scalmani, V. Barone, 
 G. A. Petersson, H. Nakatsuji, X. Li, M. Caricato, A. V. Marenich, 
 J. Bloino, B. G. Janesko, R. Gomperts, B. Mennucci, H. P. Hratchian, 
 J. V. Ortiz, A. F. Izmaylov, J. L. Sonnenberg, D. Williams-Young, 
 F. Ding, F. Lipparini, F. Egidi, J. Goings, B. Peng, A. Petrone, 
 T. Henderson, D. Ranasinghe, V. G. Zakrzewski, J. Gao, N. Rega, 
 G. Zheng, W. Liang, M. Hada, M. Ehara, K. Toyota, R. Fukuda, 
 J. Hasegawa, M. Ishida, T. Nakajima, Y. Honda, O. Kitao, H. Nakai, 
 T. Vreven, K. Throssell, J. A. Montgomery, Jr., J. E. Peralta, 
 F. Ogliaro, M. J. Bearpark, J. J. Heyd, E. N. Brothers, K. N. Kudin, 
 V. N. Staroverov, T. A. Keith, R. Kobayashi, J. Normand, 
 K. Raghavachari, A. P. Rendell, J. C. Burant, S. S. Iyengar, 
 J. Tomasi, M. Cossi, J. M. Millam, M. Klene, C. Adamo, R. Cammi, 
 J. W. Ochterski, R. L. Martin, K. Morokuma, O. Farkas, 
 J. B. Foresman, and D. J. Fox, Gaussian, Inc., Wallingford CT, 2016.
 
 ******************************************
 Gaussian 16:  ES64L-G16RevB.01 20-Dec-2017
                31-May-2019 
 ******************************************
 %mem=80GB
 %nproc=40
 Will use up to   40 processors via shared memory.
 ----------------------------------------------------------------------
 # opt=(maxcyc=500,modredundant) uB2PLYPD3/cc-pvtz scf=maxcyc=500 nosym
 m
 ----------------------------------------------------------------------
 1/6=500,18=120,19=15,38=1/1,3;
 2/9=110,12=2,15=1,17=6,18=5,40=1/2;
 3/5=16,6=1,11=2,25=1,30=1,71=1,74=-60,116=2/1,2,3;
 4//1;
 5/5=2,7=500,38=5/2;
 8/6=4,10=1/1;
 9/15=2,16=-3/6;
 10/5=1,31=1/2;
 6/7=2,8=2,9=2,10=2/1;
 7/12=2,30=1/1,2,3,16;
 1/6=500,18=20,19=15/3(2);
 2/9=110,15=1/2;
 99//99;
 2/9=110,15=1/2;
 3/5=16,6=1,11=2,25=1,30=1,71=1,74=-60,116=2/1,2,3;
 4/5=5,16=3,69=1/1;
 5/5=2,7=500,38=5/2;
 8/6=4,10=1/1;
 9/15=2,16=-3/6;
 10/5=1,31=1/2;
 7/12=2,30=1/1,2,3,16;
 1/6=500,18=20,19=15/3(-8);
 2/9=110,15=1/2;
 6/7=2,8=2,9=2,10=2/1;
 99/9=10/99;
 -------------------
 Title Card Required
 -------------------
 Symbolic Z-matrix:
 Charge =  0 Multiplicity = 1
 C                    -0.5335   -0.39644  -0.00002 
 C                     0.5335    0.39644  -0.00004 
 C                     1.95551  -0.07881   0.00001 
 C                    -1.95551   0.07881   0.00002 
 H                    -0.38085  -1.475    -0.00006 
 H                     0.38085   1.475    -0.00004 
 H                     2.00574  -1.169    -0.00107 
 H                     2.49276   0.28952  -0.87832 
 H                     2.49207   0.28769   0.87955 
 H                    -2.49237  -0.28841  -0.87902 
 H                    -2.49245  -0.2888    0.87885 
 H                    -2.00574   1.169     0.00026 
 
 The following ModRedundant input section has been read:
 D    *          2       3    *    R                                           
 D       6       2       3       8 S  36 10.000                                
 

 GradGradGradGradGradGradGradGradGradGradGradGradGradGradGradGradGradGrad
 Berny optimization.
 Initialization pass.
                           ----------------------------
                           !    Initial Parameters    !
                           ! (Angstroms and Degrees)  !
 --------------------------                            --------------------------
 ! Name  Definition              Value          Derivative Info.                !
 --------------------------------------------------------------------------------
 ! R1    R(1,2)                  1.3293         estimate D2E/DX2                !
 ! R2    R(1,4)                  1.4993         estimate D2E/DX2                !
 ! R3    R(1,5)                  1.0893         estimate D2E/DX2                !
 ! R4    R(2,3)                  1.4993         estimate D2E/DX2                !
 ! R5    R(2,6)                  1.0893         estimate D2E/DX2                !
 ! R6    R(3,7)                  1.0913         estimate D2E/DX2                !
 ! R7    R(3,8)                  1.0935         estimate D2E/DX2                !
 ! R8    R(3,9)                  1.0935         estimate D2E/DX2                !
 ! R9    R(4,10)                 1.0935         estimate D2E/DX2                !
 ! R10   R(4,11)                 1.0935         estimate D2E/DX2                !
 ! R11   R(4,12)                 1.0913         estimate D2E/DX2                !
 ! A1    A(2,1,4)              124.9038         estimate D2E/DX2                !
 ! A2    A(2,1,5)              118.5606         estimate D2E/DX2                !
 ! A3    A(4,1,5)              116.5356         estimate D2E/DX2                !
 ! A4    A(1,2,3)              124.9039         estimate D2E/DX2                !
 ! A5    A(1,2,6)              118.5605         estimate D2E/DX2                !
 ! A6    A(3,2,6)              116.5356         estimate D2E/DX2                !
 ! A7    A(2,3,7)              111.1185         estimate D2E/DX2                !
 ! A8    A(2,3,8)              111.0496         estimate D2E/DX2                !
 ! A9    A(2,3,9)              111.0487         estimate D2E/DX2                !
 ! A10   A(7,3,8)              108.2434         estimate D2E/DX2                !
 ! A11   A(7,3,9)              108.241          estimate D2E/DX2                !
 ! A12   A(8,3,9)              106.9825         estimate D2E/DX2                !
 ! A13   A(1,4,10)             111.0492         estimate D2E/DX2                !
 ! A14   A(1,4,11)             111.0491         estimate D2E/DX2                !
 ! A15   A(1,4,12)             111.1185         estimate D2E/DX2                !
 ! A16   A(10,4,11)            106.9826         estimate D2E/DX2                !
 ! A17   A(10,4,12)            108.2421         estimate D2E/DX2                !
 ! A18   A(11,4,12)            108.2423         estimate D2E/DX2                !
 ! D1    D(4,1,2,3)            179.9956         estimate D2E/DX2                !
 ! D2    D(4,1,2,6)             -0.0006         estimate D2E/DX2                !
 ! D3    D(5,1,2,3)             -0.006          estimate D2E/DX2                !
 ! D4    D(5,1,2,6)            179.9978         estimate D2E/DX2                !
 ! D5    D(2,1,4,10)           120.5317         estimate D2E/DX2                !
 ! D6    D(2,1,4,11)          -120.5573         estimate D2E/DX2                !
 ! D7    D(2,1,4,12)            -0.0127         estimate D2E/DX2                !
 ! D8    D(5,1,4,10)           -59.4667         estimate D2E/DX2                !
 ! D9    D(5,1,4,11)            59.4443         estimate D2E/DX2                !
 ! D10   D(5,1,4,12)           179.989          estimate D2E/DX2                !
 ! D11   D(6,2,3,8)            -59.3927         Scan                            !
 --------------------------------------------------------------------------------
 Trust Radius=3.00D-01 FncErr=1.00D-07 GrdErr=1.00D-07 EigMax=2.50D+02 EigMin=1.00D-04
 Number of optimizations in scan=  37
 Number of steps in this run=    100 maximum allowed number of steps=    100.
 GradGradGradGradGradGradGradGradGradGradGradGradGradGradGradGradGradGrad

                          Input orientation:                          
 ---------------------------------------------------------------------
 Center     Atomic      Atomic             Coordinates (Angstroms)
 Number     Number       Type             X           Y           Z
 ---------------------------------------------------------------------
      1          6           0       -0.533497   -0.396441   -0.000019
      2          6           0        0.533497    0.396440   -0.000040
      3          6           0        1.955506   -0.078810    0.000014
      4          6           0       -1.955506    0.078810    0.000021
      5          1           0       -0.380851   -1.475004   -0.000059
      6          1           0        0.380850    1.475004   -0.000037
      7          1           0        2.005742   -1.168997   -0.001074
      8          1           0        2.492757    0.289516   -0.878319
      9          1           0        2.492066    0.287689    0.879548
     10          1           0       -2.492372   -0.288409   -0.879019
     11          1           0       -2.492450   -0.288795    0.878849
     12          1           0       -2.005741    1.168998    0.000256
 ---------------------------------------------------------------------
                    Distance matrix (angstroms):
                    1          2          3          4          5
     1  C    0.000000
     2  C    1.329337   0.000000
     3  C    2.509188   1.499324   0.000000
     4  C    1.499324   2.509188   3.914187   0.000000
     5  H    1.089311   2.082867   2.721750   2.212211   0.000000
     6  H    2.082867   1.089312   2.212211   2.721749   3.046758
     7  H    2.654163   2.148976   1.091344   4.153132   2.406131
     8  H    3.224928   2.149769   1.093513   4.539044   3.484608
     9  H    3.224237   2.149766   1.093526   4.538512   3.483453
    10  H    2.149768   3.224516   4.538750   1.093520   2.576645
    11  H    2.149766   3.224647   4.538806   1.093518   2.576513
    12  H    2.148977   2.654162   4.153132   1.091345   3.103388
                    6          7          8          9         10
     6  H    0.000000
     7  H    3.103388   0.000000
     8  H    2.576221   1.770311   0.000000
     9  H    2.576940   1.770294   1.757868   0.000000
    10  H    3.483912   4.666825   5.018517   5.316866   0.000000
    11  H    3.484147   4.667200   5.317365   5.017742   1.757868
    12  H    2.406129   4.643083   4.667105   4.666918   1.770302
                   11         12
    11  H    0.000000
    12  H    1.770303   0.000000
 Symmetry turned off by external request.
 Stoichiometry    C4H8
 Framework group  C1[X(C4H8)]
 Deg. of freedom    30
 Full point group                 C1      NOp   1
 Rotational constants (GHZ):          34.8368332           3.7388590           3.5230869
 Standard basis: CC-pVTZ (5D, 7F)
   232 basis functions,   344 primitive gaussians,   260 cartesian basis functions
    16 alpha electrons       16 beta electrons
       nuclear repulsion energy       115.9885539990 Hartrees.
 NAtoms=   12 NActive=   12 NUniq=   12 SFac= 1.00D+00 NAtFMM=   60 NAOKFM=F Big=F
 Integral buffers will be    131072 words long.
 Raffenetti 2 integral format.
 Two-electron integral symmetry is turned off.
 Nuclear repulsion after empirical dispersion term =      115.9830919967 Hartrees.
 One-electron integrals computed using PRISM.
 NBasis=   232 RedAO= T EigKep=  3.10D-04  NBF=   232
 NBsUse=   232 1.00D-06 EigRej= -1.00D+00 NBFU=   232
 ExpMin= 1.03D-01 ExpMax= 8.24D+03 ExpMxC= 2.81D+02 IAcc=3 IRadAn=         5 AccDes= 0.00D+00
 Harris functional with IExCor=  419 and IRadAn=       5 diagonalized for initial guess.
 HarFok:  IExCor=  419 AccDes= 0.00D+00 IRadAn=         5 IDoV= 1 UseB2=F ITyADJ=14
 ICtDFT=  3500011 ScaDFX=  1.000000  1.000000  1.000000  1.000000
 FoFCou: FMM=F IPFlag=           0 FMFlag=      100000 FMFlg1=           0
         NFxFlg=           0 DoJE=T BraDBF=F KetDBF=T FulRan=T
         wScrn=  0.000000 ICntrl=       500 IOpCl=  0 I1Cent=   200000004 NGrid=           0
         NMat0=    1 NMatS0=      1 NMatT0=    0 NMatD0=    1 NMtDS0=    0 NMtDT0=    0
 Symmetry not used in FoFCou.
 Initial guess <Sx>= 0.0000 <Sy>= 0.0000 <Sz>= 0.0000 <S**2>= 0.0000 S= 0.0000
 Keep R1 and R2 ints in memory in canonical form, NReq=774238648.
 Requested convergence on RMS density matrix=1.00D-08 within 500 cycles.
 Requested convergence on MAX density matrix=1.00D-06.
 Requested convergence on             energy=1.00D-06.
 No special actions if energy rises.
 Integral accuracy reduced to 1.0D-05 until final iterations.
 Initial convergence to 1.0D-05 achieved.  Increase integral accuracy.
 SCF Done:  E(UB2PLYPD3) =  -156.906049092     A.U. after   10 cycles
            NFock= 10  Conv=0.31D-08     -V/T= 2.0050
 <Sx>= 0.0000 <Sy>= 0.0000 <Sz>= 0.0000 <S**2>=-0.0000 S=-0.0000
 <L.S>=  0.00000000000    
 Annihilation of the first spin contaminant:
 S**2 before annihilation    -0.0000,   after     0.0000
 DoSCS=T DFT=T ScalE2(SS,OS)=  0.270000  0.270000
 ExpMin= 1.03D-01 ExpMax= 8.24D+03 ExpMxC= 2.81D+02 IAcc=3 IRadAn=         5 AccDes= 0.00D+00
 HarFok:  IExCor=  205 AccDes= 0.00D+00 IRadAn=         5 IDoV=-2 UseB2=F ITyADJ=14
 ICtDFT= 12500011 ScaDFX=  1.000000  1.000000  1.000000  1.000000
 Range of M.O.s used for correlation:     5   232
 NBasis=   232 NAE=    16 NBE=    16 NFC=     4 NFV=     0
 NROrb=    228 NOA=    12 NOB=    12 NVA=   216 NVB=   216

 **** Warning!!: The largest alpha MO coefficient is  0.15568094D+02


 **** Warning!!: The largest beta MO coefficient is  0.15568094D+02

 DoSCS=T DFT=T ScalE2(SS,OS)=  0.270000  0.270000
 Fully direct method using O(ONN) memory.
 JobTyp=2 Pass  1:  I=   5 to  16 NPSUse= 40 ParTrn=T ParDer=T DoDerP=T.
 JobTyp=3 Pass  1:  I=   5 to  16 NPSUse= 40 ParTrn=T ParDer=T DoDerP=T.
 Spin components of T(2) and E(2):
     alpha-alpha T2 =       0.3996369844D-01 E2=     -0.2499465483D-01
     alpha-beta  T2 =       0.2583920000D+00 E2=     -0.1736034173D+00
     beta-beta   T2 =       0.3996369844D-01 E2=     -0.2499465483D-01
 (S**2,0)=  0.00000D+00           (S**2,1)=  0.00000D+00
 E(PUHF)=      -0.15690604909D+03        E(PMP2)=      -0.15712964182D+03
 E2(B2PLYPD3) =    -0.2235927270D+00 E(B2PLYPD3) =    -0.15712964181847D+03
          IDoAtm=111111111111
          Differentiating once with respect to electric field.
                with respect to dipole field.
          Differentiating once with respect to nuclear coordinates.
 Keep R1 and R2 ints in memory in canonical form, NReq=774247682.
          There are     1 degrees of freedom in the 1st order CPHF.  IDoFFX=0 NUNeed=     1.
 LinEq1:  Iter=  0 NonCon=     1 RMS=5.56D-04 Max=1.04D-02 NDo=     1
 AX will form     1 AO Fock derivatives at one time.
 LinEq1:  Iter=  1 NonCon=     1 RMS=2.18D-04 Max=3.25D-03 NDo=     1
 LinEq1:  Iter=  2 NonCon=     1 RMS=4.11D-05 Max=8.06D-04 NDo=     1
 LinEq1:  Iter=  3 NonCon=     1 RMS=8.56D-06 Max=1.68D-04 NDo=     1
 LinEq1:  Iter=  4 NonCon=     1 RMS=3.18D-06 Max=7.31D-05 NDo=     1
 LinEq1:  Iter=  5 NonCon=     1 RMS=8.82D-07 Max=1.14D-05 NDo=     1
 LinEq1:  Iter=  6 NonCon=     1 RMS=1.56D-07 Max=2.49D-06 NDo=     1
 LinEq1:  Iter=  7 NonCon=     1 RMS=2.75D-08 Max=4.86D-07 NDo=     1
 LinEq1:  Iter=  8 NonCon=     1 RMS=3.07D-09 Max=2.87D-08 NDo=     1
 LinEq1:  Iter=  9 NonCon=     1 RMS=6.37D-10 Max=8.85D-09 NDo=     1
 LinEq1:  Iter= 10 NonCon=     1 RMS=1.50D-10 Max=5.67D-09 NDo=     1
 LinEq1:  Iter= 11 NonCon=     1 RMS=7.57D-11 Max=1.35D-09 NDo=     1
 LinEq1:  Iter= 12 NonCon=     0 RMS=8.37D-12 Max=1.65D-10 NDo=     1
 Linear equations converged to 1.000D-10 1.000D-09 after    12 iterations.
 End of Minotr F.D. properties file   721 does not exist.
 End of Minotr F.D. properties file   722 does not exist.
 End of Minotr F.D. properties file   788 does not exist.

 **********************************************************************

            Population analysis using the SCF Density.

 **********************************************************************

 Alpha  occ. eigenvalues --  -10.60849 -10.60722 -10.60487 -10.60486  -0.91387
 Alpha  occ. eigenvalues --   -0.83397  -0.74078  -0.62820  -0.51145  -0.50975
 Alpha  occ. eigenvalues --   -0.48141  -0.46604  -0.43537  -0.42280  -0.39836
 Alpha  occ. eigenvalues --   -0.28598
 Alpha virt. eigenvalues --    0.08528   0.08956   0.09890   0.11156   0.15400
 Alpha virt. eigenvalues --    0.15605   0.16134   0.17429   0.18441   0.23323
 Alpha virt. eigenvalues --    0.26614   0.28866   0.31573   0.33199   0.33526
 Alpha virt. eigenvalues --    0.36561   0.36636   0.42713   0.43192   0.43760
 Alpha virt. eigenvalues --    0.48838   0.50358   0.51815   0.51929   0.53077
 Alpha virt. eigenvalues --    0.53297   0.53908   0.54400   0.55517   0.56927
 Alpha virt. eigenvalues --    0.63003   0.63189   0.64287   0.68178   0.73483
 Alpha virt. eigenvalues --    0.74405   0.75623   0.75744   0.81129   0.89242
 Alpha virt. eigenvalues --    0.89372   0.89565   0.95749   0.95889   0.96597
 Alpha virt. eigenvalues --    1.05796   1.07265   1.08001   1.08957   1.10398
 Alpha virt. eigenvalues --    1.10966   1.12527   1.13413   1.17500   1.18074
 Alpha virt. eigenvalues --    1.20479   1.22892   1.23525   1.25726   1.27125
 Alpha virt. eigenvalues --    1.34347   1.34672   1.36941   1.37591   1.40069
 Alpha virt. eigenvalues --    1.41605   1.44032   1.45286   1.47892   1.49849
 Alpha virt. eigenvalues --    1.52484   1.55602   1.55887   1.58841   1.61545
 Alpha virt. eigenvalues --    1.62938   1.65538   1.78844   1.84958   2.01468
 Alpha virt. eigenvalues --    2.16321   2.25543   2.28618   2.32726   2.35704
 Alpha virt. eigenvalues --    2.38275   2.44929   2.46660   2.47450   2.50979
 Alpha virt. eigenvalues --    2.55998   2.60669   2.64019   2.64148   2.64393
 Alpha virt. eigenvalues --    2.79019   2.79387   2.79945   2.80959   2.82054
 Alpha virt. eigenvalues --    2.89306   2.90931   2.91399   2.94847   2.95658
 Alpha virt. eigenvalues --    2.95685   3.01159   3.02826   3.04964   3.06447
 Alpha virt. eigenvalues --    3.08636   3.09626   3.09752   3.11551   3.15185
 Alpha virt. eigenvalues --    3.15873   3.16438   3.18736   3.19330   3.19631
 Alpha virt. eigenvalues --    3.24947   3.27146   3.31768   3.36971   3.37698
 Alpha virt. eigenvalues --    3.39129   3.39876   3.40189   3.45688   3.46380
 Alpha virt. eigenvalues --    3.49681   3.52506   3.54808   3.56886   3.57472
 Alpha virt. eigenvalues --    3.60579   3.60910   3.61263   3.62776   3.68818
 Alpha virt. eigenvalues --    3.69452   3.74365   3.82337   3.82685   3.83915
 Alpha virt. eigenvalues --    3.85186   3.89416   3.90809   3.92529   3.93850
 Alpha virt. eigenvalues --    3.97055   4.00934   4.01526   4.03175   4.05838
 Alpha virt. eigenvalues --    4.08095   4.09108   4.09251   4.16465   4.19001
 Alpha virt. eigenvalues --    4.19079   4.21971   4.22738   4.23642   4.26782
 Alpha virt. eigenvalues --    4.27000   4.33197   4.34156   4.38274   4.39633
 Alpha virt. eigenvalues --    4.45944   4.48848   4.49776   4.50628   4.55957
 Alpha virt. eigenvalues --    4.57010   4.62850   4.67248   4.72521   4.81608
 Alpha virt. eigenvalues --    4.89485   4.90822   4.94217   4.98461   4.99254
 Alpha virt. eigenvalues --    4.99513   5.05759   5.08240   5.08251   5.12834
 Alpha virt. eigenvalues --    5.24329   5.27333   5.33376   5.34317   5.35242
 Alpha virt. eigenvalues --    5.35390   5.44129   5.44871   5.47256   5.50131
 Alpha virt. eigenvalues --    5.51368   5.56239   5.57768   5.64007   5.68537
 Alpha virt. eigenvalues --    5.86159   5.91261   6.00740   6.01273   6.01896
 Alpha virt. eigenvalues --    6.14049   6.17864  10.94216  13.70576  13.74871
 Alpha virt. eigenvalues --   14.08433
  Beta  occ. eigenvalues --  -10.60849 -10.60722 -10.60487 -10.60486  -0.91387
  Beta  occ. eigenvalues --   -0.83397  -0.74078  -0.62820  -0.51145  -0.50975
  Beta  occ. eigenvalues --   -0.48141  -0.46604  -0.43537  -0.42280  -0.39836
  Beta  occ. eigenvalues --   -0.28598
  Beta virt. eigenvalues --    0.08528   0.08956   0.09890   0.11156   0.15400
  Beta virt. eigenvalues --    0.15605   0.16134   0.17429   0.18441   0.23323
  Beta virt. eigenvalues --    0.26614   0.28866   0.31573   0.33199   0.33526
  Beta virt. eigenvalues --    0.36561   0.36636   0.42713   0.43192   0.43760
  Beta virt. eigenvalues --    0.48838   0.50358   0.51815   0.51929   0.53077
  Beta virt. eigenvalues --    0.53297   0.53908   0.54400   0.55517   0.56927
  Beta virt. eigenvalues --    0.63003   0.63189   0.64287   0.68178   0.73483
  Beta virt. eigenvalues --    0.74405   0.75623   0.75744   0.81129   0.89242
  Beta virt. eigenvalues --    0.89372   0.89565   0.95749   0.95889   0.96597
  Beta virt. eigenvalues --    1.05796   1.07265   1.08001   1.08957   1.10398
  Beta virt. eigenvalues --    1.10966   1.12527   1.13413   1.17500   1.18074
  Beta virt. eigenvalues --    1.20479   1.22892   1.23525   1.25726   1.27125
  Beta virt. eigenvalues --    1.34347   1.34672   1.36941   1.37591   1.40069
  Beta virt. eigenvalues --    1.41605   1.44032   1.45286   1.47892   1.49849
  Beta virt. eigenvalues --    1.52484   1.55602   1.55887   1.58841   1.61545
  Beta virt. eigenvalues --    1.62938   1.65538   1.78844   1.84958   2.01468
  Beta virt. eigenvalues --    2.16321   2.25543   2.28618   2.32726   2.35704
  Beta virt. eigenvalues --    2.38275   2.44929   2.46660   2.47450   2.50979
  Beta virt. eigenvalues --    2.55998   2.60669   2.64019   2.64148   2.64393
  Beta virt. eigenvalues --    2.79019   2.79387   2.79945   2.80959   2.82054
  Beta virt. eigenvalues --    2.89306   2.90931   2.91399   2.94847   2.95658
  Beta virt. eigenvalues --    2.95685   3.01159   3.02826   3.04964   3.06447
  Beta virt. eigenvalues --    3.08636   3.09626   3.09752   3.11551   3.15185
  Beta virt. eigenvalues --    3.15873   3.16438   3.18736   3.19330   3.19631
  Beta virt. eigenvalues --    3.24947   3.27146   3.31768   3.36971   3.37698
  Beta virt. eigenvalues --    3.39129   3.39876   3.40189   3.45688   3.46380
  Beta virt. eigenvalues --    3.49681   3.52506   3.54808   3.56886   3.57472
  Beta virt. eigenvalues --    3.60579   3.60910   3.61263   3.62776   3.68818
  Beta virt. eigenvalues --    3.69452   3.74365   3.82337   3.82685   3.83915
  Beta virt. eigenvalues --    3.85186   3.89416   3.90809   3.92529   3.93850
  Beta virt. eigenvalues --    3.97055   4.00934   4.01526   4.03175   4.05838
  Beta virt. eigenvalues --    4.08095   4.09108   4.09251   4.16465   4.19001
  Beta virt. eigenvalues --    4.19079   4.21971   4.22738   4.23642   4.26782
  Beta virt. eigenvalues --    4.27000   4.33197   4.34156   4.38274   4.39633
  Beta virt. eigenvalues --    4.45944   4.48848   4.49776   4.50628   4.55957
  Beta virt. eigenvalues --    4.57010   4.62850   4.67248   4.72521   4.81608
  Beta virt. eigenvalues --    4.89485   4.90822   4.94217   4.98461   4.99254
  Beta virt. eigenvalues --    4.99513   5.05759   5.08240   5.08251   5.12834
  Beta virt. eigenvalues --    5.24329   5.27333   5.33376   5.34317   5.35242
  Beta virt. eigenvalues --    5.35390   5.44129   5.44871   5.47256   5.50131
  Beta virt. eigenvalues --    5.51368   5.56239   5.57768   5.64007   5.68537
  Beta virt. eigenvalues --    5.86159   5.91261   6.00740   6.01273   6.01896
  Beta virt. eigenvalues --    6.14049   6.17864  10.94216  13.70576  13.74871
  Beta virt. eigenvalues --   14.08433
          Condensed to atoms (all electrons):
               1          2          3          4          5          6
     1  C    4.960376   0.647587  -0.059650   0.358012   0.403417  -0.047692
     2  C    0.647587   4.960376   0.358012  -0.059650  -0.047692   0.403417
     3  C   -0.059650   0.358012   4.781146   0.006860  -0.007935  -0.039840
     4  C    0.358012  -0.059650   0.006860   4.781146  -0.039840  -0.007935
     5  H    0.403417  -0.047692  -0.007935  -0.039840   0.559622   0.007818
     6  H   -0.047692   0.403417  -0.039840  -0.007935   0.007818   0.559623
     7  H   -0.001694  -0.041722   0.409829  -0.000082   0.005558   0.005816
     8  H    0.000464  -0.043112   0.410802  -0.000255   0.000097  -0.002608
     9  H    0.000431  -0.043108   0.410773  -0.000254   0.000097  -0.002588
    10  H   -0.043109   0.000440  -0.000254   0.410788  -0.002594   0.000097
    11  H   -0.043111   0.000455  -0.000255   0.410788  -0.002601   0.000097
    12  H   -0.041722  -0.001694  -0.000082   0.409829   0.005816   0.005558
               7          8          9         10         11         12
     1  C   -0.001694   0.000464   0.000431  -0.043109  -0.043111  -0.041722
     2  C   -0.041722  -0.043112  -0.043108   0.000440   0.000455  -0.001694
     3  C    0.409829   0.410802   0.410773  -0.000254  -0.000255  -0.000082
     4  C   -0.000082  -0.000255  -0.000254   0.410788   0.410788   0.409829
     5  H    0.005558   0.000097   0.000097  -0.002594  -0.002601   0.005816
     6  H    0.005816  -0.002608  -0.002588   0.000097   0.000097   0.005558
     7  H    0.586435  -0.028658  -0.028656  -0.000011  -0.000011   0.000050
     8  H   -0.028658   0.607386  -0.039842   0.000116  -0.000042  -0.000011
     9  H   -0.028656  -0.039842   0.607411  -0.000042   0.000116  -0.000011
    10  H   -0.000011   0.000116  -0.000042   0.607398  -0.039842  -0.028656
    11  H   -0.000011  -0.000042   0.000116  -0.039842   0.607399  -0.028658
    12  H    0.000050  -0.000011  -0.000011  -0.028656  -0.028658   0.586436
          Atomic-Atomic Spin Densities.
               1          2          3          4          5          6
     1  C    0.000000  -0.000000   0.000000   0.000000  -0.000000  -0.000000
     2  C   -0.000000   0.000000  -0.000000  -0.000000   0.000000   0.000000
     3  C    0.000000  -0.000000   0.000000  -0.000000  -0.000000  -0.000000
     4  C    0.000000  -0.000000  -0.000000  -0.000000   0.000000   0.000000
     5  H   -0.000000   0.000000  -0.000000   0.000000   0.000000  -0.000000
     6  H   -0.000000   0.000000  -0.000000   0.000000  -0.000000  -0.000000
     7  H   -0.000000   0.000000   0.000000  -0.000000   0.000000   0.000000
     8  H    0.000000  -0.000000   0.000000   0.000000  -0.000000  -0.000000
     9  H    0.000000  -0.000000  -0.000000   0.000000  -0.000000  -0.000000
    10  H   -0.000000   0.000000   0.000000  -0.000000   0.000000   0.000000
    11  H    0.000000  -0.000000  -0.000000   0.000000  -0.000000   0.000000
    12  H   -0.000000   0.000000   0.000000   0.000000  -0.000000  -0.000000
               7          8          9         10         11         12
     1  C   -0.000000   0.000000   0.000000  -0.000000   0.000000  -0.000000
     2  C    0.000000  -0.000000  -0.000000   0.000000  -0.000000   0.000000
     3  C    0.000000   0.000000  -0.000000   0.000000  -0.000000   0.000000
     4  C   -0.000000   0.000000   0.000000  -0.000000   0.000000   0.000000
     5  H    0.000000  -0.000000  -0.000000   0.000000  -0.000000  -0.000000
     6  H    0.000000  -0.000000  -0.000000   0.000000   0.000000  -0.000000
     7  H   -0.000000   0.000000   0.000000   0.000000   0.000000  -0.000000
     8  H    0.000000   0.000000  -0.000000  -0.000000  -0.000000  -0.000000
     9  H    0.000000  -0.000000  -0.000000  -0.000000  -0.000000  -0.000000
    10  H    0.000000  -0.000000  -0.000000  -0.000000  -0.000000   0.000000
    11  H    0.000000  -0.000000  -0.000000  -0.000000   0.000000   0.000000
    12  H   -0.000000  -0.000000  -0.000000   0.000000   0.000000  -0.000000
 Mulliken charges and spin densities:
               1          2
     1  C   -0.133310  -0.000000
     2  C   -0.133309   0.000000
     3  C   -0.269407   0.000000
     4  C   -0.269407  -0.000000
     5  H    0.118239   0.000000
     6  H    0.118238  -0.000000
     7  H    0.093145  -0.000000
     8  H    0.095661   0.000000
     9  H    0.095672  -0.000000
    10  H    0.095669  -0.000000
    11  H    0.095665   0.000000
    12  H    0.093145  -0.000000
 Sum of Mulliken charges =  -0.00000  -0.00000
 Mulliken charges and spin densities with hydrogens summed into heavy atoms:
               1          2
     1  C   -0.015071  -0.000000
     2  C   -0.015071   0.000000
     3  C    0.015071  -0.000000
     4  C    0.015071  -0.000000
 Electronic spatial extent (au):  <R**2>=            398.4804
 Charge=             -0.0000 electrons
 Dipole moment (field-independent basis, Debye):
    X=              0.0000    Y=             -0.0000    Z=              0.0001  Tot=              0.0001
 Quadrupole moment (field-independent basis, Debye-Ang):
   XX=            -25.8820   YY=            -25.7419   ZZ=            -28.2520
   XY=              0.3839   XZ=              0.0001   YZ=              0.0000
 Traceless Quadrupole moment (field-independent basis, Debye-Ang):
   XX=              0.7433   YY=              0.8834   ZZ=             -1.6267
   XY=              0.3839   XZ=              0.0001   YZ=              0.0000
 Octapole moment (field-independent basis, Debye-Ang**2):
  XXX=              0.0000  YYY=              0.0000  ZZZ=              0.0019  XYY=             -0.0000
  XXY=              0.0000  XXZ=             -0.0002  XZZ=             -0.0000  YZZ=             -0.0000
  YYZ=             -0.0014  XYZ=             -0.0004
 Hexadecapole moment (field-independent basis, Debye-Ang**3):
 XXXX=           -448.3463 YYYY=            -68.2224 ZZZZ=            -45.6486 XXXY=              3.4289
 XXXZ=             -0.0020 YYYX=             -1.7728 YYYZ=              0.0016 ZZZX=              0.0056
 ZZZY=             -0.0005 XXYY=            -86.0035 XXZZ=            -77.0367 YYZZ=            -20.8304
 XXYZ=             -0.0032 YYXZ=             -0.0047 ZZXY=              2.1788
 N-N= 1.159830919967D+02 E-N=-5.952965940739D+02  KE= 1.561305995038D+02
                          Isotropic Fermi Contact Couplings
        Atom                 a.u.       MegaHertz       Gauss      10(-4) cm-1
     1  C(13)             -0.00000      -0.00000      -0.00000      -0.00000
     2  C(13)             -0.00000      -0.00000      -0.00000      -0.00000
     3  C(13)              0.00000       0.00000       0.00000       0.00000
     4  C(13)              0.00000       0.00000       0.00000       0.00000
     5  H(1)              -0.00000      -0.00000      -0.00000      -0.00000
     6  H(1)              -0.00000      -0.00000      -0.00000      -0.00000
     7  H(1)               0.00000       0.00000       0.00000       0.00000
     8  H(1)               0.00000       0.00000       0.00000       0.00000
     9  H(1)              -0.00000      -0.00000      -0.00000      -0.00000
    10  H(1)              -0.00000      -0.00000      -0.00000      -0.00000
    11  H(1)              -0.00000      -0.00000      -0.00000      -0.00000
    12  H(1)              -0.00000      -0.00000      -0.00000      -0.00000
 --------------------------------------------------------
       Center         ----  Spin Dipole Couplings  ----
                      3XX-RR        3YY-RR        3ZZ-RR
 --------------------------------------------------------
     1   Atom        0.000000      0.000000      0.000000
     2   Atom        0.000000      0.000000      0.000000
     3   Atom        0.000000      0.000000      0.000000
     4   Atom        0.000000      0.000000      0.000000
     5   Atom        0.000000      0.000000      0.000000
     6   Atom        0.000000      0.000000      0.000000
     7   Atom        0.000000      0.000000      0.000000
     8   Atom        0.000000      0.000000      0.000000
     9   Atom        0.000000      0.000000      0.000000
    10   Atom        0.000000      0.000000      0.000000
    11   Atom        0.000000      0.000000      0.000000
    12   Atom        0.000000      0.000000      0.000000
 --------------------------------------------------------
                        XY            XZ            YZ
 --------------------------------------------------------
     1   Atom        0.000000      0.000000      0.000000
     2   Atom        0.000000      0.000000      0.000000
     3   Atom        0.000000      0.000000      0.000000
     4   Atom        0.000000      0.000000      0.000000
     5   Atom        0.000000      0.000000      0.000000
     6   Atom        0.000000      0.000000      0.000000
     7   Atom        0.000000      0.000000      0.000000
     8   Atom        0.000000      0.000000      0.000000
     9   Atom        0.000000      0.000000      0.000000
    10   Atom        0.000000      0.000000      0.000000
    11   Atom        0.000000      0.000000      0.000000
    12   Atom        0.000000      0.000000      0.000000
 --------------------------------------------------------


 ---------------------------------------------------------------------------------
              Anisotropic Spin Dipole Couplings in Principal Axis System
 ---------------------------------------------------------------------------------

       Atom             a.u.   MegaHertz   Gauss  10(-4) cm-1        Axes

              Baa     0.0000     0.000     0.000     0.000  1.0000  0.0000  0.0000
     1 C(13)  Bbb     0.0000     0.000     0.000     0.000 -0.0000  1.0000  0.0000
              Bcc     0.0000     0.000     0.000     0.000  0.0000  0.0000  1.0000
 
              Baa     0.0000     0.000     0.000     0.000  1.0000  0.0000  0.0000
     2 C(13)  Bbb     0.0000     0.000     0.000     0.000 -0.0000  1.0000  0.0000
              Bcc     0.0000     0.000     0.000     0.000  0.0000  0.0000  1.0000
 
              Baa     0.0000     0.000     0.000     0.000  1.0000  0.0000  0.0000
     3 C(13)  Bbb     0.0000     0.000     0.000     0.000 -0.0000  1.0000  0.0000
              Bcc     0.0000     0.000     0.000     0.000  0.0000  0.0000  1.0000
 
              Baa     0.0000     0.000     0.000     0.000  1.0000  0.0000  0.0000
     4 C(13)  Bbb     0.0000     0.000     0.000     0.000 -0.0000  1.0000  0.0000
              Bcc     0.0000     0.000     0.000     0.000  0.0000  0.0000  1.0000
 
              Baa     0.0000     0.000     0.000     0.000  1.0000  0.0000  0.0000
     5 H(1)   Bbb     0.0000     0.000     0.000     0.000 -0.0000  1.0000  0.0000
              Bcc     0.0000     0.000     0.000     0.000  0.0000  0.0000  1.0000
 
              Baa     0.0000     0.000     0.000     0.000  1.0000  0.0000  0.0000
     6 H(1)   Bbb     0.0000     0.000     0.000     0.000 -0.0000  1.0000  0.0000
              Bcc     0.0000     0.000     0.000     0.000  0.0000  0.0000  1.0000
 
              Baa     0.0000     0.000     0.000     0.000  1.0000  0.0000  0.0000
     7 H(1)   Bbb     0.0000     0.000     0.000     0.000 -0.0000  1.0000  0.0000
              Bcc     0.0000     0.000     0.000     0.000  0.0000  0.0000  1.0000
 
              Baa     0.0000     0.000     0.000     0.000  1.0000  0.0000  0.0000
     8 H(1)   Bbb     0.0000     0.000     0.000     0.000 -0.0000  1.0000  0.0000
              Bcc     0.0000     0.000     0.000     0.000  0.0000  0.0000  1.0000
 
              Baa     0.0000     0.000     0.000     0.000  1.0000  0.0000  0.0000
     9 H(1)   Bbb     0.0000     0.000     0.000     0.000 -0.0000  1.0000  0.0000
              Bcc     0.0000     0.000     0.000     0.000  0.0000  0.0000  1.0000
 
              Baa     0.0000     0.000     0.000     0.000  1.0000  0.0000  0.0000
    10 H(1)   Bbb     0.0000     0.000     0.000     0.000 -0.0000  1.0000  0.0000
              Bcc     0.0000     0.000     0.000     0.000  0.0000  0.0000  1.0000
 
              Baa     0.0000     0.000     0.000     0.000  1.0000  0.0000  0.0000
    11 H(1)   Bbb     0.0000     0.000     0.000     0.000 -0.0000  1.0000  0.0000
              Bcc     0.0000     0.000     0.000     0.000  0.0000  0.0000  1.0000
 
              Baa     0.0000     0.000     0.000     0.000  1.0000  0.0000  0.0000
    12 H(1)   Bbb     0.0000     0.000     0.000     0.000 -0.0000  1.0000  0.0000
              Bcc     0.0000     0.000     0.000     0.000  0.0000  0.0000  1.0000
 

 ---------------------------------------------------------------------------------

 Calling FoFJK, ICntrl=  10002127 FMM=F ISym2X=0 I1Cent= 0 IOpClX= 1 NMat=1 NMatS=1 NMatT=0.
 -------------------------------------------------------------------
 Center     Atomic                   Forces (Hartrees/Bohr)
 Number     Number              X              Y              Z
 -------------------------------------------------------------------
      1        6          -0.002154971   -0.002192939   -0.000004251
      2        6           0.002154744    0.002193754    0.000001513
      3        6          -0.000516924    0.000106673    0.000001808
      4        6           0.000517460   -0.000106203   -0.000000841
      5        1          -0.000388530    0.002312826   -0.000000398
      6        1           0.000388672   -0.002313539    0.000004315
      7        1           0.000082948    0.001713254    0.000003556
      8        1          -0.000445557   -0.000569137    0.001357027
      9        1          -0.000444479   -0.000561634   -0.001363377
     10        1           0.000444668    0.000564507    0.001360681
     11        1           0.000444878    0.000565964   -0.001359269
     12        1          -0.000082910   -0.001713527   -0.000000765
 -------------------------------------------------------------------
 Cartesian Forces:  Max     0.002313539 RMS     0.001128228

 GradGradGradGradGradGradGradGradGradGradGradGradGradGradGradGradGradGrad
 Berny optimization.
 FormGI is forming the generalized inverse of G from B-inverse, IUseBI=4.
 Internal  Forces:  Max     0.002345211 RMS     0.000910414
 Search for a local minimum.
 Step number   1 out of a maximum of  100 on scan point     1 out of    37
 All quantities printed in internal units (Hartrees-Bohrs-Radians)
 Mixed Optimization -- En-DIIS/RFO-DIIS
 Second derivative matrix not updated -- first step.
 ITU=  0
     Eigenvalues ---    0.00775   0.01694   0.03023   0.03023   0.07188
     Eigenvalues ---    0.07266   0.16000   0.16000   0.16000   0.16000
     Eigenvalues ---    0.16000   0.16000   0.16000   0.16000   0.16000
     Eigenvalues ---    0.16000   0.22000   0.22000   0.32448   0.32448
     Eigenvalues ---    0.34408   0.34409   0.34409   0.34410   0.34658
     Eigenvalues ---    0.34658   0.34892   0.34892   0.596631000.00000
     Eigenvalues --- 1000.000001000.000001000.000001000.000001000.00000
     Eigenvalues --- 1000.000001000.000001000.000001000.000001000.00000
 RFO step:  Lambda=-9.81516819D-05 EMin= 7.74886826D-03
 Linear search not attempted -- first point.
 Iteration  1 RMS(Cart)=  0.00299843 RMS(Int)=  0.00000338
 Iteration  2 RMS(Cart)=  0.00000449 RMS(Int)=  0.00000066
 Iteration  3 RMS(Cart)=  0.00000000 RMS(Int)=  0.00000066
 Iteration  1 RMS(Cart)=  0.00000000 RMS(Int)=  0.00000000
 Variable       Old X    -DE/DX   Delta X   Delta X   Delta X     New X
                                 (Linear)    (Quad)   (Total)
    R1        2.51208   0.00132   0.00000   0.00221   0.00221   2.51429
    R2        2.83331  -0.00147   0.00000  -0.00454  -0.00454   2.82877
    R3        2.05850  -0.00234   0.00000  -0.00672  -0.00672   2.05178
    R4        2.83331  -0.00147   0.00000  -0.00454  -0.00454   2.82877
    R5        2.05850  -0.00235   0.00000  -0.00672  -0.00672   2.05178
    R6        2.06234  -0.00171   0.00000  -0.00493  -0.00493   2.05742
    R7        2.06644  -0.00150   0.00000  -0.00436  -0.00436   2.06208
    R8        2.06646  -0.00150   0.00000  -0.00437  -0.00437   2.06210
    R9        2.06645  -0.00150   0.00000  -0.00436  -0.00436   2.06209
   R10        2.06645  -0.00150   0.00000  -0.00436  -0.00436   2.06209
   R11        2.06234  -0.00171   0.00000  -0.00493  -0.00493   2.05742
    A1        2.17998   0.00027   0.00000   0.00122   0.00122   2.18120
    A2        2.06927  -0.00007   0.00000  -0.00022  -0.00022   2.06905
    A3        2.03393  -0.00020   0.00000  -0.00100  -0.00100   2.03293
    A4        2.17998   0.00027   0.00000   0.00122   0.00122   2.18120
    A5        2.06927  -0.00007   0.00000  -0.00022  -0.00022   2.06905
    A6        2.03393  -0.00020   0.00000  -0.00100  -0.00100   2.03293
    A7        1.93938   0.00014   0.00000   0.00085   0.00085   1.94023
    A8        1.93818   0.00032   0.00000   0.00202   0.00202   1.94020
    A9        1.93817   0.00032   0.00000   0.00200   0.00200   1.94016
   A10        1.88920  -0.00018   0.00000  -0.00114  -0.00114   1.88806
   A11        1.88916  -0.00019   0.00000  -0.00117  -0.00117   1.88799
   A12        1.86720  -0.00045   0.00000  -0.00284  -0.00284   1.86436
   A13        1.93817   0.00034   0.00000   0.00203   0.00203   1.94020
   A14        1.93817   0.00034   0.00000   0.00203   0.00203   1.94020
   A15        1.93938   0.00011   0.00000   0.00081   0.00081   1.94019
   A16        1.86720  -0.00040   0.00000  -0.00276  -0.00276   1.86444
   A17        1.88918  -0.00021   0.00000  -0.00119  -0.00119   1.88799
   A18        1.88918  -0.00021   0.00000  -0.00119  -0.00120   1.88799
    D1        3.14152   0.00000   0.00000   0.00014   0.00014  -3.14153
    D2       -0.00001  -0.00000   0.00000  -0.00013  -0.00013  -0.00013
    D3       -0.00011   0.00000   0.00000   0.00014   0.00014   0.00004
    D4        3.14155  -0.00000   0.00000  -0.00012  -0.00012   3.14143
    D5        2.10368   0.00003   0.00000   0.00048   0.00048   2.10416
    D6       -2.10412  -0.00003   0.00000  -0.00034  -0.00034  -2.10446
    D7       -0.00022   0.00000   0.00000   0.00007   0.00007  -0.00015
    D8       -1.03789   0.00003   0.00000   0.00048   0.00048  -1.03741
    D9        1.03750  -0.00003   0.00000  -0.00034  -0.00034   1.03716
   D10        3.14140   0.00000   0.00000   0.00007   0.00007   3.14147
   D11       -1.03660  -0.00002   0.00000   0.00000   0.00000  -1.03660
         Item               Value     Threshold  Converged?
 Maximum Force            0.002345     0.000450     NO 
 RMS     Force            0.000922     0.000300     NO 
 Maximum Displacement     0.006842     0.001800     NO 
 RMS     Displacement     0.002999     0.001200     NO 
 Predicted change in Energy=-4.909083D-05
 GradGradGradGradGradGradGradGradGradGradGradGradGradGradGradGradGradGrad

                          Input orientation:                          
 ---------------------------------------------------------------------
 Center     Atomic      Atomic             Coordinates (Angstroms)
 Number     Number       Type             X           Y           Z
 ---------------------------------------------------------------------
      1          6           0       -0.534390   -0.396233   -0.000057
      2          6           0        0.534383    0.396212    0.000150
      3          6           0        1.954188   -0.078050    0.000028
      4          6           0       -1.954195    0.078030   -0.000012
      5          1           0       -0.383146   -1.471404   -0.000299
      6          1           0        0.383139    1.471383    0.000240
      7          1           0        2.005400   -1.165583   -0.000635
      8          1           0        2.491982    0.288607   -0.875798
      9          1           0        2.491708    0.287455    0.876514
     10          1           0       -2.491778   -0.287682   -0.876368
     11          1           0       -2.491927   -0.288300    0.875993
     12          1           0       -2.005364    1.165565    0.000367
 ---------------------------------------------------------------------
                    Distance matrix (angstroms):
                    1          2          3          4          5
     1  C    0.000000
     2  C    1.330506   0.000000
     3  C    2.508837   1.496921   0.000000
     4  C    1.496921   2.508837   3.911499   0.000000
     5  H    1.085757   2.080829   2.721133   2.206568   0.000000
     6  H    2.080829   1.085757   2.206568   2.721133   3.040919
     7  H    2.653758   2.145483   1.088738   4.150297   2.408044
     8  H    3.224106   2.147337   1.091206   4.536501   3.482886
     9  H    3.223829   2.147315   1.091215   4.536321   3.482409
    10  H    2.147341   3.223918   4.536368   1.091211   2.571969
    11  H    2.147339   3.224006   4.536459   1.091210   2.571882
    12  H    2.145455   2.653718   4.150257   1.088738   3.095997
                    6          7          8          9         10
     6  H    0.000000
     7  H    3.096017   0.000000
     8  H    2.571697   1.765599   0.000000
     9  H    2.572082   1.765561   1.752313   0.000000
    10  H    3.482514   4.665001   5.016969   5.313992   0.000000
    11  H    3.482734   4.665196   5.314221   5.016782   1.752362
    12  H    2.408001   4.639017   4.665066   4.665015   1.765557
                   11         12
    11  H    0.000000
    12  H    1.765557   0.000000
 Symmetry turned off by external request.
 Stoichiometry    C4H8
 Framework group  C1[X(C4H8)]
 Deg. of freedom    30
 Full point group                 C1      NOp   1
 Rotational constants (GHZ):          34.9965408           3.7424613           3.5269514
 Standard basis: CC-pVTZ (5D, 7F)
   232 basis functions,   344 primitive gaussians,   260 cartesian basis functions
    16 alpha electrons       16 beta electrons
       nuclear repulsion energy       116.1139541703 Hartrees.
 NAtoms=   12 NActive=   12 NUniq=   12 SFac= 1.00D+00 NAtFMM=   60 NAOKFM=F Big=F
 Integral buffers will be    131072 words long.
 Raffenetti 2 integral format.
 Two-electron integral symmetry is turned off.
 Nuclear repulsion after empirical dispersion term =      116.1084897744 Hartrees.
 One-electron integrals computed using PRISM.
 NBasis=   232 RedAO= T EigKep=  3.10D-04  NBF=   232
 NBsUse=   232 1.00D-06 EigRej= -1.00D+00 NBFU=   232
 Initial guess from the checkpoint file:  "/localscratch/339543/Gau-13168.chk"
 B after Tr=    -0.000004   -0.000012    0.000039
         Rot=    1.000000   -0.000017    0.000006   -0.000051 Ang=  -0.01 deg.
 Initial guess <Sx>= 0.0000 <Sy>= 0.0000 <Sz>= 0.0000 <S**2>= 0.0000 S= 0.0000
 Keep R1 and R2 ints in memory in canonical form, NReq=774238648.
 Requested convergence on RMS density matrix=1.00D-08 within 500 cycles.
 Requested convergence on MAX density matrix=1.00D-06.
 Requested convergence on             energy=1.00D-06.
 No special actions if energy rises.
 SCF Done:  E(UB2PLYPD3) =  -156.906185223     A.U. after    7 cycles
            NFock=  7  Conv=0.35D-08     -V/T= 2.0047
 <Sx>= 0.0000 <Sy>= 0.0000 <Sz>= 0.0000 <S**2>=-0.0000 S=-0.0000
 <L.S>=  0.00000000000    
 Annihilation of the first spin contaminant:
 S**2 before annihilation    -0.0000,   after    -0.0000
 DoSCS=T DFT=T ScalE2(SS,OS)=  0.270000  0.270000
 ExpMin= 1.03D-01 ExpMax= 8.24D+03 ExpMxC= 2.81D+02 IAcc=3 IRadAn=         5 AccDes= 0.00D+00
 HarFok:  IExCor=  205 AccDes= 0.00D+00 IRadAn=         5 IDoV=-2 UseB2=F ITyADJ=14
 ICtDFT= 12500011 ScaDFX=  1.000000  1.000000  1.000000  1.000000
 Range of M.O.s used for correlation:     5   232
 NBasis=   232 NAE=    16 NBE=    16 NFC=     4 NFV=     0
 NROrb=    228 NOA=    12 NOB=    12 NVA=   216 NVB=   216

 **** Warning!!: The largest alpha MO coefficient is  0.15508210D+02


 **** Warning!!: The largest beta MO coefficient is  0.15508210D+02

 DoSCS=T DFT=T ScalE2(SS,OS)=  0.270000  0.270000
 Fully direct method using O(ONN) memory.
 JobTyp=2 Pass  1:  I=   5 to  16 NPSUse= 40 ParTrn=T ParDer=T DoDerP=T.
 JobTyp=3 Pass  1:  I=   5 to  16 NPSUse= 40 ParTrn=T ParDer=T DoDerP=T.
 Spin components of T(2) and E(2):
     alpha-alpha T2 =       0.3990310008D-01 E2=     -0.2499469872D-01
     alpha-beta  T2 =       0.2578037546D+00 E2=     -0.1735169845D+00
     beta-beta   T2 =       0.3990310008D-01 E2=     -0.2499469872D-01
 (S**2,0)=  0.00000D+00           (S**2,1)=  0.00000D+00
 E(PUHF)=      -0.15690618522D+03        E(PMP2)=      -0.15712969160D+03
 E2(B2PLYPD3) =    -0.2235063819D+00 E(B2PLYPD3) =    -0.15712969160481D+03
          IDoAtm=111111111111
          Differentiating once with respect to electric field.
                with respect to dipole field.
          Differentiating once with respect to nuclear coordinates.
 Keep R1 and R2 ints in memory in canonical form, NReq=774247682.
          There are     1 degrees of freedom in the 1st order CPHF.  IDoFFX=0 NUNeed=     1.
 LinEq1:  Iter=  0 NonCon=     1 RMS=5.56D-04 Max=1.04D-02 NDo=     1
 AX will form     1 AO Fock derivatives at one time.
 LinEq1:  Iter=  1 NonCon=     1 RMS=2.16D-04 Max=3.22D-03 NDo=     1
 LinEq1:  Iter=  2 NonCon=     1 RMS=4.10D-05 Max=8.05D-04 NDo=     1
 LinEq1:  Iter=  3 NonCon=     1 RMS=8.54D-06 Max=1.69D-04 NDo=     1
 LinEq1:  Iter=  4 NonCon=     1 RMS=3.16D-06 Max=7.25D-05 NDo=     1
 LinEq1:  Iter=  5 NonCon=     1 RMS=8.76D-07 Max=1.13D-05 NDo=     1
 LinEq1:  Iter=  6 NonCon=     1 RMS=1.55D-07 Max=2.47D-06 NDo=     1
 LinEq1:  Iter=  7 NonCon=     1 RMS=2.73D-08 Max=4.84D-07 NDo=     1
 LinEq1:  Iter=  8 NonCon=     1 RMS=3.05D-09 Max=2.81D-08 NDo=     1
 LinEq1:  Iter=  9 NonCon=     1 RMS=6.67D-10 Max=1.06D-08 NDo=     1
 LinEq1:  Iter= 10 NonCon=     1 RMS=2.83D-10 Max=1.09D-08 NDo=     1
 LinEq1:  Iter= 11 NonCon=     1 RMS=8.07D-11 Max=1.38D-09 NDo=     1
 LinEq1:  Iter= 12 NonCon=     0 RMS=8.30D-12 Max=1.62D-10 NDo=     1
 Linear equations converged to 1.000D-10 1.000D-09 after    12 iterations.
 End of Minotr F.D. properties file   721 does not exist.
 End of Minotr F.D. properties file   722 does not exist.
 End of Minotr F.D. properties file   788 does not exist.
 Calling FoFJK, ICntrl=  10002127 FMM=F ISym2X=0 I1Cent= 0 IOpClX= 1 NMat=1 NMatS=1 NMatT=0.
 -------------------------------------------------------------------
 Center     Atomic                   Forces (Hartrees/Bohr)
 Number     Number              X              Y              Z
 -------------------------------------------------------------------
      1        6          -0.000339881   -0.000080572   -0.000000065
      2        6           0.000338774    0.000076874   -0.000017015
      3        6          -0.000467061   -0.000009738    0.000012061
      4        6           0.000470403    0.000021197    0.000000490
      5        1           0.000082216   -0.000004716    0.000001374
      6        1          -0.000081666    0.000004618    0.000008917
      7        1           0.000105863   -0.000040222   -0.000001715
      8        1           0.000082334    0.000005141   -0.000019494
      9        1           0.000084843    0.000008405    0.000015267
     10        1          -0.000084473   -0.000012003   -0.000013122
     11        1          -0.000084912   -0.000011131    0.000013627
     12        1          -0.000106440    0.000042147   -0.000000325
 -------------------------------------------------------------------
 Cartesian Forces:  Max     0.000470403 RMS     0.000144553

 GradGradGradGradGradGradGradGradGradGradGradGradGradGradGradGradGradGrad
 Berny optimization.
 Using GEDIIS/GDIIS optimizer.
 FormGI is forming the generalized inverse of G from B-inverse, IUseBI=4.
 Internal  Forces:  Max     0.000172352 RMS     0.000071481
 Search for a local minimum.
 Step number   2 out of a maximum of  100 on scan point     1 out of    37
 All quantities printed in internal units (Hartrees-Bohrs-Radians)
 Mixed Optimization -- En-DIIS/RFO-DIIS
 Swapping is turned off.
 Update second derivatives using D2CorX and points    1    2
 DE= -4.98D-05 DEPred=-4.91D-05 R= 1.01D+00
 TightC=F SS=  1.41D+00  RLast= 1.75D-02 DXNew= 5.0454D-01 5.2462D-02
 Trust test= 1.01D+00 RLast= 1.75D-02 DXMaxT set to 3.00D-01
 ITU=  1  0
     Eigenvalues ---    0.00775   0.01695   0.03023   0.03024   0.07172
     Eigenvalues ---    0.07235   0.15408   0.16000   0.16000   0.16000
     Eigenvalues ---    0.16000   0.16000   0.16000   0.16000   0.16000
     Eigenvalues ---    0.16118   0.22000   0.22076   0.31403   0.32448
     Eigenvalues ---    0.34409   0.34409   0.34410   0.34531   0.34658
     Eigenvalues ---    0.34758   0.34892   0.36521   0.594941000.00000
     Eigenvalues --- 1000.000001000.000001000.000001000.000001000.00000
     Eigenvalues --- 1000.000001000.000001000.000001000.000001000.00000
 En-DIIS/RFO-DIIS/Sim-DIIS IScMMF=       -3 using points:     2    1
 RFO step:  Lambda=-1.04188377D-06.
 DidBck=F Rises=F RFO-DIIS coefs:    1.03708   -0.03708
 Iteration  1 RMS(Cart)=  0.00035663 RMS(Int)=  0.00000020
 Iteration  2 RMS(Cart)=  0.00000018 RMS(Int)=  0.00000011
 Iteration  1 RMS(Cart)=  0.00000000 RMS(Int)=  0.00000000
 Variable       Old X    -DE/DX   Delta X   Delta X   Delta X     New X
                                 (Linear)    (Quad)   (Total)
    R1        2.51429   0.00008   0.00008   0.00007   0.00015   2.51445
    R2        2.82877  -0.00017  -0.00017  -0.00041  -0.00058   2.82819
    R3        2.05178   0.00002  -0.00025   0.00023  -0.00002   2.05176
    R4        2.82877  -0.00017  -0.00017  -0.00042  -0.00059   2.82819
    R5        2.05178   0.00002  -0.00025   0.00023  -0.00002   2.05176
    R6        2.05742   0.00005  -0.00018   0.00026   0.00008   2.05750
    R7        2.06208   0.00006  -0.00016   0.00029   0.00012   2.06221
    R8        2.06210   0.00006  -0.00016   0.00028   0.00012   2.06222
    R9        2.06209   0.00006  -0.00016   0.00028   0.00012   2.06221
   R10        2.06209   0.00006  -0.00016   0.00028   0.00012   2.06221
   R11        2.05742   0.00005  -0.00018   0.00027   0.00009   2.05750
    A1        2.18120  -0.00005   0.00005  -0.00028  -0.00023   2.18097
    A2        2.06905  -0.00006  -0.00001  -0.00039  -0.00040   2.06865
    A3        2.03293   0.00011  -0.00004   0.00067   0.00064   2.03357
    A4        2.18120  -0.00005   0.00005  -0.00028  -0.00023   2.18097
    A5        2.06905  -0.00006  -0.00001  -0.00039  -0.00040   2.06865
    A6        2.03293   0.00011  -0.00004   0.00067   0.00063   2.03356
    A7        1.94023   0.00015   0.00003   0.00092   0.00095   1.94118
    A8        1.94020   0.00003   0.00007   0.00014   0.00022   1.94042
    A9        1.94016   0.00004   0.00007   0.00018   0.00026   1.94042
   A10        1.88806  -0.00006  -0.00004  -0.00037  -0.00041   1.88765
   A11        1.88799  -0.00006  -0.00004  -0.00034  -0.00038   1.88761
   A12        1.86436  -0.00011  -0.00011  -0.00063  -0.00073   1.86363
   A13        1.94020   0.00004   0.00008   0.00015   0.00023   1.94043
   A14        1.94020   0.00004   0.00008   0.00016   0.00024   1.94044
   A15        1.94019   0.00013   0.00003   0.00094   0.00096   1.94116
   A16        1.86444  -0.00008  -0.00010  -0.00065  -0.00075   1.86368
   A17        1.88799  -0.00008  -0.00004  -0.00034  -0.00039   1.88760
   A18        1.88799  -0.00008  -0.00004  -0.00034  -0.00039   1.88760
    D1       -3.14153  -0.00000   0.00001  -0.00012  -0.00012   3.14154
    D2       -0.00013   0.00000  -0.00000   0.00013   0.00012  -0.00001
    D3        0.00004  -0.00000   0.00001  -0.00007  -0.00007  -0.00003
    D4        3.14143   0.00000  -0.00000   0.00018   0.00017  -3.14158
    D5        2.10416   0.00002   0.00002   0.00038   0.00040   2.10455
    D6       -2.10446  -0.00002  -0.00001  -0.00023  -0.00025  -2.10470
    D7       -0.00015   0.00000   0.00000   0.00007   0.00008  -0.00007
    D8       -1.03741   0.00002   0.00002   0.00033   0.00035  -1.03707
    D9        1.03716  -0.00002  -0.00001  -0.00028  -0.00030   1.03686
   D10        3.14147   0.00000   0.00000   0.00003   0.00003   3.14149
   D11       -1.03660  -0.00001   0.00000   0.00000   0.00000  -1.03660
         Item               Value     Threshold  Converged?
 Maximum Force            0.000172     0.000450     YES
 RMS     Force            0.000072     0.000300     YES
 Maximum Displacement     0.000866     0.001800     YES
 RMS     Displacement     0.000357     0.001200     YES
 Predicted change in Energy=-5.209608D-07
 Optimization completed.
    -- Stationary point found.
                           ----------------------------
                           !   Optimized Parameters   !
                           ! (Angstroms and Degrees)  !
 --------------------------                            --------------------------
 ! Name  Definition              Value          Derivative Info.                !
 --------------------------------------------------------------------------------
 ! R1    R(1,2)                  1.3305         -DE/DX =    0.0001              !
 ! R2    R(1,4)                  1.4969         -DE/DX =   -0.0002              !
 ! R3    R(1,5)                  1.0858         -DE/DX =    0.0                 !
 ! R4    R(2,3)                  1.4969         -DE/DX =   -0.0002              !
 ! R5    R(2,6)                  1.0858         -DE/DX =    0.0                 !
 ! R6    R(3,7)                  1.0887         -DE/DX =    0.0                 !
 ! R7    R(3,8)                  1.0912         -DE/DX =    0.0001              !
 ! R8    R(3,9)                  1.0912         -DE/DX =    0.0001              !
 ! R9    R(4,10)                 1.0912         -DE/DX =    0.0001              !
 ! R10   R(4,11)                 1.0912         -DE/DX =    0.0001              !
 ! R11   R(4,12)                 1.0887         -DE/DX =    0.0                 !
 ! A1    A(2,1,4)              124.9737         -DE/DX =   -0.0001              !
 ! A2    A(2,1,5)              118.548          -DE/DX =   -0.0001              !
 ! A3    A(4,1,5)              116.4783         -DE/DX =    0.0001              !
 ! A4    A(1,2,3)              124.9737         -DE/DX =   -0.0001              !
 ! A5    A(1,2,6)              118.5479         -DE/DX =   -0.0001              !
 ! A6    A(3,2,6)              116.4783         -DE/DX =    0.0001              !
 ! A7    A(2,3,7)              111.1671         -DE/DX =    0.0001              !
 ! A8    A(2,3,8)              111.1655         -DE/DX =    0.0                 !
 ! A9    A(2,3,9)              111.1632         -DE/DX =    0.0                 !
 ! A10   A(7,3,8)              108.1779         -DE/DX =   -0.0001              !
 ! A11   A(7,3,9)              108.1738         -DE/DX =   -0.0001              !
 ! A12   A(8,3,9)              106.82           -DE/DX =   -0.0001              !
 ! A13   A(1,4,10)             111.1655         -DE/DX =    0.0                 !
 ! A14   A(1,4,11)             111.1654         -DE/DX =    0.0                 !
 ! A15   A(1,4,12)             111.1649         -DE/DX =    0.0001              !
 ! A16   A(10,4,11)            106.8243         -DE/DX =   -0.0001              !
 ! A17   A(10,4,12)            108.1737         -DE/DX =   -0.0001              !
 ! A18   A(11,4,12)            108.1738         -DE/DX =   -0.0001              !
 ! D1    D(4,1,2,3)            180.0036         -DE/DX =    0.0                 !
 ! D2    D(4,1,2,6)             -0.0077         -DE/DX =    0.0                 !
 ! D3    D(5,1,2,3)              0.0022         -DE/DX =    0.0                 !
 ! D4    D(5,1,2,6)           -180.0091         -DE/DX =    0.0                 !
 ! D5    D(2,1,4,10)           120.5592         -DE/DX =    0.0                 !
 ! D6    D(2,1,4,11)          -120.5766         -DE/DX =    0.0                 !
 ! D7    D(2,1,4,12)            -0.0087         -DE/DX =    0.0                 !
 ! D8    D(5,1,4,10)           -59.4394         -DE/DX =    0.0                 !
 ! D9    D(5,1,4,11)            59.4248         -DE/DX =    0.0                 !
 ! D10   D(5,1,4,12)           179.9927         -DE/DX =    0.0                 !
 ! D11   D(6,2,3,8)            -59.3927         -DE/DX =    0.0                 !
 --------------------------------------------------------------------------------
 Iteration  1 RMS(Cart)=  0.07705425 RMS(Int)=  0.00413563
 Iteration  2 RMS(Cart)=  0.00464726 RMS(Int)=  0.00001004
 Iteration  3 RMS(Cart)=  0.00001603 RMS(Int)=  0.00000000
 Iteration  4 RMS(Cart)=  0.00000000 RMS(Int)=  0.00000000
 Iteration  1 RMS(Cart)=  0.00000000 RMS(Int)=  0.00000000
 GradGradGradGradGradGradGradGradGradGradGradGradGradGradGradGradGradGrad

                          Input orientation:                          
 ---------------------------------------------------------------------
 Center     Atomic      Atomic             Coordinates (Angstroms)
 Number     Number       Type             X           Y           Z
 ---------------------------------------------------------------------
      1          6           0       -0.534350   -0.395757    0.021066
      2          6           0        0.534359    0.395757   -0.021709
      3          6           0        1.953816   -0.078297   -0.005644
      4          6           0       -1.953807    0.078305    0.005070
      5          1           0       -0.382516   -1.469642    0.071642
      6          1           0        0.382527    1.469643   -0.072273
      7          1           0        2.010060   -1.158364   -0.131083
      8          1           0        2.534049    0.387398   -0.803975
      9          1           0        2.445437    0.180950    0.933499
     10          1           0       -2.495885   -0.329010   -0.849988
     11          1           0       -2.487754   -0.245601    0.899980
     12          1           0       -2.005934    1.164619   -0.046464
 ---------------------------------------------------------------------
                    Distance matrix (angstroms):
                    1          2          3          4          5
     1  C    0.000000
     2  C    1.330587   0.000000
     3  C    2.508478   1.496611   0.000000
     4  C    1.496612   2.508478   3.910774   0.000000
     5  H    1.085744   2.080646   2.720342   2.206700   0.000000
     6  H    2.080647   1.085744   2.206696   2.720341   3.040624
     7  H    2.660590   2.145915   1.088781   4.154531   2.421242
     8  H    3.272476   2.147271   1.091272   4.570661   3.566743
     9  H    3.169267   2.147274   1.091279   4.497317   3.385937
    10  H    2.147280   3.223928   4.536035   1.091274   2.572308
    11  H    2.147283   3.223975   4.536043   1.091274   2.572245
    12  H    2.145901   2.654213   4.150437   1.088784   3.096573
                    6          7          8          9         10
     6  H    0.000000
     7  H    3.091722   0.000000
     8  H    2.517079   1.765426   0.000000
     9  H    2.632092   1.765403   1.751939   0.000000
    10  H    3.482132   4.637693   5.080904   5.278025   0.000000
    11  H    3.482219   4.703887   5.340660   4.951711   1.751974
    12  H    2.407997   4.640217   4.667905   4.662900   1.765398
                   11         12
    11  H    0.000000
    12  H    1.765397   0.000000
 Symmetry turned off by external request.
 Stoichiometry    C4H8
 Framework group  C1[X(C4H8)]
 Deg. of freedom    30
 Full point group                 C1      NOp   1
 Rotational constants (GHZ):          34.9950571           3.7433315           3.5276902
 Standard basis: CC-pVTZ (5D, 7F)
   232 basis functions,   344 primitive gaussians,   260 cartesian basis functions
    16 alpha electrons       16 beta electrons
       nuclear repulsion energy       116.1198446407 Hartrees.
 NAtoms=   12 NActive=   12 NUniq=   12 SFac= 1.00D+00 NAtFMM=   60 NAOKFM=F Big=F
 Integral buffers will be    131072 words long.
 Raffenetti 2 integral format.
 Two-electron integral symmetry is turned off.
 Nuclear repulsion after empirical dispersion term =      116.1143798370 Hartrees.
 One-electron integrals computed using PRISM.
 NBasis=   232 RedAO= T EigKep=  3.13D-04  NBF=   232
 NBsUse=   232 1.00D-06 EigRej= -1.00D+00 NBFU=   232
 Initial guess from the checkpoint file:  "/localscratch/339543/Gau-13168.chk"
 B after Tr=     0.000009    0.000014   -0.000391
         Rot=    0.999993    0.003366   -0.001294    0.000038 Ang=   0.41 deg.
 Initial guess <Sx>= 0.0000 <Sy>= 0.0000 <Sz>= 0.0000 <S**2>=-0.0000 S=-0.0000
 Keep R1 and R2 ints in memory in canonical form, NReq=774238648.
 Requested convergence on RMS density matrix=1.00D-08 within 500 cycles.
 Requested convergence on MAX density matrix=1.00D-06.
 Requested convergence on             energy=1.00D-06.
 No special actions if energy rises.
 SCF Done:  E(UB2PLYPD3) =  -156.905959391     A.U. after    9 cycles
            NFock=  9  Conv=0.65D-08     -V/T= 2.0047
 <Sx>= 0.0000 <Sy>= 0.0000 <Sz>= 0.0000 <S**2>=-0.0000 S=-0.0000
 <L.S>=  0.00000000000    
 Annihilation of the first spin contaminant:
 S**2 before annihilation    -0.0000,   after    -0.0000
 DoSCS=T DFT=T ScalE2(SS,OS)=  0.270000  0.270000
 ExpMin= 1.03D-01 ExpMax= 8.24D+03 ExpMxC= 2.81D+02 IAcc=3 IRadAn=         5 AccDes= 0.00D+00
 HarFok:  IExCor=  205 AccDes= 0.00D+00 IRadAn=         5 IDoV=-2 UseB2=F ITyADJ=14
 ICtDFT= 12500011 ScaDFX=  1.000000  1.000000  1.000000  1.000000
 Range of M.O.s used for correlation:     5   232
 NBasis=   232 NAE=    16 NBE=    16 NFC=     4 NFV=     0
 NROrb=    228 NOA=    12 NOB=    12 NVA=   216 NVB=   216

 **** Warning!!: The largest alpha MO coefficient is  0.12211074D+02


 **** Warning!!: The largest beta MO coefficient is  0.12211074D+02

 DoSCS=T DFT=T ScalE2(SS,OS)=  0.270000  0.270000
 Fully direct method using O(ONN) memory.
 JobTyp=2 Pass  1:  I=   5 to  16 NPSUse= 40 ParTrn=T ParDer=T DoDerP=T.
 JobTyp=3 Pass  1:  I=   5 to  16 NPSUse= 40 ParTrn=T ParDer=T DoDerP=T.
 Spin components of T(2) and E(2):
     alpha-alpha T2 =       0.3990154478D-01 E2=     -0.2499522088D-01
     alpha-beta  T2 =       0.2578360016D+00 E2=     -0.1735245050D+00
     beta-beta   T2 =       0.3990154478D-01 E2=     -0.2499522088D-01
 (S**2,0)=  0.00000D+00           (S**2,1)=  0.00000D+00
 E(PUHF)=      -0.15690595939D+03        E(PMP2)=      -0.15712947434D+03
 E2(B2PLYPD3) =    -0.2235149468D+00 E(B2PLYPD3) =    -0.15712947433774D+03
          IDoAtm=111111111111
          Differentiating once with respect to electric field.
                with respect to dipole field.
          Differentiating once with respect to nuclear coordinates.
 Keep R1 and R2 ints in memory in canonical form, NReq=774247682.
          There are     1 degrees of freedom in the 1st order CPHF.  IDoFFX=0 NUNeed=     1.
 LinEq1:  Iter=  0 NonCon=     1 RMS=5.55D-04 Max=1.04D-02 NDo=     1
 AX will form     1 AO Fock derivatives at one time.
 LinEq1:  Iter=  1 NonCon=     1 RMS=2.16D-04 Max=3.22D-03 NDo=     1
 LinEq1:  Iter=  2 NonCon=     1 RMS=4.10D-05 Max=8.05D-04 NDo=     1
 LinEq1:  Iter=  3 NonCon=     1 RMS=8.53D-06 Max=1.29D-04 NDo=     1
 LinEq1:  Iter=  4 NonCon=     1 RMS=3.16D-06 Max=4.99D-05 NDo=     1
 LinEq1:  Iter=  5 NonCon=     1 RMS=8.77D-07 Max=9.17D-06 NDo=     1
 LinEq1:  Iter=  6 NonCon=     1 RMS=1.56D-07 Max=2.15D-06 NDo=     1
 LinEq1:  Iter=  7 NonCon=     1 RMS=3.16D-08 Max=6.37D-07 NDo=     1
 LinEq1:  Iter=  8 NonCon=     1 RMS=1.77D-08 Max=6.50D-07 NDo=     1
 LinEq1:  Iter=  9 NonCon=     1 RMS=3.61D-09 Max=3.14D-08 NDo=     1
 LinEq1:  Iter= 10 NonCon=     1 RMS=7.46D-10 Max=1.03D-08 NDo=     1
 LinEq1:  Iter= 11 NonCon=     1 RMS=9.60D-11 Max=1.40D-09 NDo=     1
 LinEq1:  Iter= 12 NonCon=     0 RMS=2.81D-11 Max=3.65D-10 NDo=     1
 Linear equations converged to 1.000D-10 1.000D-09 after    12 iterations.
 End of Minotr F.D. properties file   721 does not exist.
 End of Minotr F.D. properties file   722 does not exist.
 End of Minotr F.D. properties file   788 does not exist.
 Calling FoFJK, ICntrl=  10002127 FMM=F ISym2X=0 I1Cent= 0 IOpClX= 1 NMat=1 NMatS=1 NMatT=0.
 -------------------------------------------------------------------
 Center     Atomic                   Forces (Hartrees/Bohr)
 Number     Number              X              Y              Z
 -------------------------------------------------------------------
      1        6          -0.000112361    0.000039131   -0.000306069
      2        6          -0.000188457    0.000212796   -0.000503551
      3        6           0.000218217    0.000082114   -0.000461185
      4        6           0.000158280   -0.000018528    0.000236407
      5        1           0.000002656   -0.000063324   -0.000342654
      6        1          -0.000097040   -0.000003396    0.000548587
      7        1           0.000074832   -0.000066819    0.000610701
      8        1          -0.000306125   -0.000451766    0.000058204
      9        1           0.000344185    0.000268030    0.000127084
     10        1          -0.000002057   -0.000024759   -0.000011307
     11        1          -0.000087478    0.000010486    0.000028928
     12        1          -0.000004654    0.000016036    0.000014855
 -------------------------------------------------------------------
 Cartesian Forces:  Max     0.000610701 RMS     0.000242833

 GradGradGradGradGradGradGradGradGradGradGradGradGradGradGradGradGradGrad
 Berny optimization.
 FormGI is forming the generalized inverse of G from B-inverse, IUseBI=4.
 Internal  Forces:  Max     0.002440343 RMS     0.000513114
 Search for a local minimum.
 Step number   1 out of a maximum of  100 on scan point     2 out of    37
 All quantities printed in internal units (Hartrees-Bohrs-Radians)
 Mixed Optimization -- RFO/linear search
 Second derivative matrix not updated -- first step.
 ITU=  0
     Eigenvalues ---    0.00775   0.01694   0.03023   0.03024   0.07163
     Eigenvalues ---    0.07233   0.15408   0.16000   0.16000   0.16000
     Eigenvalues ---    0.16000   0.16000   0.16000   0.16000   0.16000
     Eigenvalues ---    0.16118   0.22000   0.22076   0.31403   0.32448
     Eigenvalues ---    0.34409   0.34409   0.34410   0.34531   0.34658
     Eigenvalues ---    0.34758   0.34892   0.36521   0.594941000.00000
     Eigenvalues --- 1000.000001000.000001000.000001000.000001000.00000
     Eigenvalues --- 1000.000001000.000001000.000001000.000001000.00000
 RFO step:  Lambda=-5.47620034D-05 EMin= 7.74884277D-03
 Linear search not attempted -- first point.
 Iteration  1 RMS(Cart)=  0.01373115 RMS(Int)=  0.00013514
 Iteration  2 RMS(Cart)=  0.00014106 RMS(Int)=  0.00002828
 Iteration  3 RMS(Cart)=  0.00000002 RMS(Int)=  0.00002828
 Iteration  1 RMS(Cart)=  0.00000000 RMS(Int)=  0.00000000
 Variable       Old X    -DE/DX   Delta X   Delta X   Delta X     New X
                                 (Linear)    (Quad)   (Total)
    R1        2.51445   0.00005   0.00000   0.00010   0.00010   2.51454
    R2        2.82819  -0.00007   0.00000  -0.00025  -0.00025   2.82794
    R3        2.05176   0.00005   0.00000   0.00009   0.00009   2.05185
    R4        2.82819   0.00037   0.00000   0.00111   0.00111   2.82929
    R5        2.05176  -0.00002   0.00000  -0.00009  -0.00009   2.05167
    R6        2.05750  -0.00000   0.00000  -0.00003  -0.00003   2.05746
    R7        2.06221  -0.00040   0.00000  -0.00119  -0.00119   2.06102
    R8        2.06222   0.00033   0.00000   0.00092   0.00092   2.06314
    R9        2.06221   0.00002   0.00000   0.00003   0.00003   2.06224
   R10        2.06221   0.00006   0.00000   0.00015   0.00015   2.06236
   R11        2.05750   0.00002   0.00000   0.00001   0.00001   2.05751
    A1        2.18097  -0.00001   0.00000  -0.00005  -0.00005   2.18092
    A2        2.06865   0.00001   0.00000   0.00004   0.00004   2.06869
    A3        2.03357   0.00000   0.00000   0.00001   0.00001   2.03357
    A4        2.18097  -0.00004   0.00000  -0.00019  -0.00029   2.18068
    A5        2.06865  -0.00008   0.00000  -0.00056  -0.00066   2.06799
    A6        2.03356   0.00013   0.00000   0.00075   0.00065   2.03421
    A7        1.94118   0.00063   0.00000   0.00396   0.00395   1.94513
    A8        1.94042   0.00006   0.00000   0.00037   0.00036   1.94078
    A9        1.94042  -0.00046   0.00000  -0.00284  -0.00285   1.93757
   A10        1.88765   0.00113   0.00000   0.00704   0.00703   1.89468
   A11        1.88761  -0.00036   0.00000  -0.00223  -0.00224   1.88537
   A12        1.86363  -0.00104   0.00000  -0.00651  -0.00652   1.85710
   A13        1.94043  -0.00004   0.00000  -0.00025  -0.00025   1.94018
   A14        1.94044   0.00010   0.00000   0.00067   0.00067   1.94111
   A15        1.94116  -0.00001   0.00000  -0.00003  -0.00003   1.94113
   A16        1.86368  -0.00003   0.00000  -0.00023  -0.00023   1.86346
   A17        1.88760   0.00001   0.00000   0.00002   0.00002   1.88762
   A18        1.88760  -0.00004   0.00000  -0.00021  -0.00021   1.88739
    D1        3.14154   0.00014   0.00000   0.00504   0.00504  -3.13661
    D2       -0.00001  -0.00069   0.00000  -0.02257  -0.02257  -0.02258
    D3       -0.00003   0.00012   0.00000   0.00369   0.00369   0.00366
    D4       -3.14158  -0.00072   0.00000  -0.02392  -0.02392   3.11768
    D5        2.10455  -0.00002   0.00000  -0.00091  -0.00091   2.10364
    D6       -2.10470  -0.00002   0.00000  -0.00092  -0.00092  -2.10562
    D7       -0.00007  -0.00000   0.00000  -0.00075  -0.00075  -0.00082
    D8       -1.03707   0.00001   0.00000   0.00042   0.00042  -1.03665
    D9        1.03686   0.00001   0.00000   0.00041   0.00041   1.03728
   D10        3.14149   0.00002   0.00000   0.00058   0.00058  -3.14111
   D11       -0.86207  -0.00244   0.00000   0.00000   0.00000  -0.86207
         Item               Value     Threshold  Converged?
 Maximum Force            0.001129     0.000450     NO 
 RMS     Force            0.000343     0.000300     NO 
 Maximum Displacement     0.045056     0.001800     NO 
 RMS     Displacement     0.013737     0.001200     NO 
 Predicted change in Energy=-2.741035D-05
 GradGradGradGradGradGradGradGradGradGradGradGradGradGradGradGradGradGrad

                          Input orientation:                          
 ---------------------------------------------------------------------
 Center     Atomic      Atomic             Coordinates (Angstroms)
 Number     Number       Type             X           Y           Z
 ---------------------------------------------------------------------
      1          6           0       -0.534989   -0.396124    0.019287
      2          6           0        0.534108    0.395462   -0.012733
      3          6           0        1.953764   -0.080058   -0.005144
      4          6           0       -1.954107    0.078612    0.005602
      5          1           0       -0.383652   -1.470647    0.057191
      6          1           0        0.382114    1.468751   -0.073418
      7          1           0        2.011600   -1.162479   -0.107240
      8          1           0        2.526741    0.375929   -0.813400
      9          1           0        2.455135    0.198898    0.923709
     10          1           0       -2.494148   -0.318556   -0.855516
     11          1           0       -2.490880   -0.255265    0.895240
     12          1           0       -2.005685    1.165477   -0.033457
 ---------------------------------------------------------------------
                    Distance matrix (angstroms):
                    1          2          3          4          5
     1  C    0.000000
     2  C    1.330639   0.000000
     3  C    2.508861   1.497198   0.000000
     4  C    1.496482   2.508374   3.911106   0.000000
     5  H    1.085790   2.080754   2.720503   2.206625   0.000000
     6  H    2.080247   1.085696   2.207613   2.719680   3.040316
     7  H    2.662410   2.149208   1.088762   4.156906   2.420586
     8  H    3.265520   2.147565   1.090644   4.564773   3.555019
     9  H    3.180074   2.146138   1.091768   4.505419   3.405429
    10  H    2.146998   3.223420   4.534747   1.091288   2.571875
    11  H    2.147707   3.224657   4.538309   1.091355   2.572915
    12  H    2.145769   2.654035   4.150831   1.088789   3.096508
                    6          7          8          9         10
     6  H    0.000000
     7  H    3.095116   0.000000
     8  H    2.518185   1.769387   0.000000
     9  H    2.627585   1.764349   1.747574   0.000000
    10  H    3.475489   4.644770   5.068866   5.284770   0.000000
    11  H    3.487782   4.701099   5.338012   4.966904   1.751903
    12  H    2.407313   4.643641   4.666324   4.663620   1.765427
                   11         12
    11  H    0.000000
    12  H    1.765333   0.000000
 Symmetry turned off by external request.
 Stoichiometry    C4H8
 Framework group  C1[X(C4H8)]
 Deg. of freedom    30
 Full point group                 C1      NOp   1
 Rotational constants (GHZ):          34.9980594           3.7425038           3.5265499
 Standard basis: CC-pVTZ (5D, 7F)
   232 basis functions,   344 primitive gaussians,   260 cartesian basis functions
    16 alpha electrons       16 beta electrons
       nuclear repulsion energy       116.1091215423 Hartrees.
 NAtoms=   12 NActive=   12 NUniq=   12 SFac= 1.00D+00 NAtFMM=   60 NAOKFM=F Big=F
 Integral buffers will be    131072 words long.
 Raffenetti 2 integral format.
 Two-electron integral symmetry is turned off.
 Nuclear repulsion after empirical dispersion term =      116.1036575952 Hartrees.
 One-electron integrals computed using PRISM.
 NBasis=   232 RedAO= T EigKep=  3.13D-04  NBF=   232
 NBsUse=   232 1.00D-06 EigRej= -1.00D+00 NBFU=   232
 Initial guess from the checkpoint file:  "/localscratch/339543/Gau-13168.chk"
 B after Tr=    -0.000367   -0.000626    0.002429
         Rot=    1.000000   -0.000860    0.000166    0.000115 Ang=  -0.10 deg.
 Initial guess <Sx>= 0.0000 <Sy>= 0.0000 <Sz>= 0.0000 <S**2>=-0.0000 S=-0.0000
 ExpMin= 1.03D-01 ExpMax= 8.24D+03 ExpMxC= 2.81D+02 IAcc=3 IRadAn=         5 AccDes= 0.00D+00
 Harris functional with IExCor=  419 and IRadAn=       5 diagonalized for initial guess.
 HarFok:  IExCor=  419 AccDes= 0.00D+00 IRadAn=         5 IDoV= 1 UseB2=F ITyADJ=14
 ICtDFT=  3500011 ScaDFX=  1.000000  1.000000  1.000000  1.000000
 FoFCou: FMM=F IPFlag=           0 FMFlag=      100000 FMFlg1=           0
         NFxFlg=           0 DoJE=T BraDBF=F KetDBF=T FulRan=T
         wScrn=  0.000000 ICntrl=       500 IOpCl=  0 I1Cent=   200000004 NGrid=           0
         NMat0=    1 NMatS0=      1 NMatT0=    0 NMatD0=    1 NMtDS0=    0 NMtDT0=    0
 Symmetry not used in FoFCou.
 Keep R1 and R2 ints in memory in canonical form, NReq=774238648.
 Requested convergence on RMS density matrix=1.00D-08 within 500 cycles.
 Requested convergence on MAX density matrix=1.00D-06.
 Requested convergence on             energy=1.00D-06.
 No special actions if energy rises.
[...]
  Beta virt. eigenvalues --    0.15636   0.16164   0.17459   0.18476   0.23378
  Beta virt. eigenvalues --    0.26662   0.28865   0.31605   0.33238   0.33542
  Beta virt. eigenvalues --    0.36597   0.36707   0.42756   0.43249   0.43824
  Beta virt. eigenvalues --    0.48865   0.50361   0.51928   0.51996   0.53100
  Beta virt. eigenvalues --    0.53387   0.53979   0.54500   0.55680   0.57042
  Beta virt. eigenvalues --    0.63071   0.63316   0.64302   0.68184   0.73523
  Beta virt. eigenvalues --    0.74464   0.75599   0.75810   0.81286   0.89250
  Beta virt. eigenvalues --    0.89378   0.89620   0.95908   0.96050   0.96684
  Beta virt. eigenvalues --    1.05883   1.07304   1.08161   1.09037   1.10542
  Beta virt. eigenvalues --    1.10971   1.12664   1.13486   1.17607   1.18031
  Beta virt. eigenvalues --    1.20443   1.23013   1.23594   1.25710   1.27275
  Beta virt. eigenvalues --    1.34524   1.34748   1.37056   1.37635   1.40205
  Beta virt. eigenvalues --    1.41756   1.44193   1.45383   1.48047   1.50121
  Beta virt. eigenvalues --    1.52730   1.55804   1.56131   1.59109   1.61685
  Beta virt. eigenvalues --    1.63258   1.65722   1.79162   1.84938   2.01855
  Beta virt. eigenvalues --    2.16379   2.25237   2.28391   2.32733   2.35538
  Beta virt. eigenvalues --    2.38199   2.44887   2.46659   2.47534   2.50885
  Beta virt. eigenvalues --    2.56004   2.60710   2.64122   2.64285   2.64388
  Beta virt. eigenvalues --    2.79143   2.79550   2.80026   2.81080   2.82151
  Beta virt. eigenvalues --    2.89472   2.91043   2.91658   2.95025   2.95747
  Beta virt. eigenvalues --    2.95881   3.01344   3.02837   3.05161   3.06426
  Beta virt. eigenvalues --    3.08629   3.09702   3.09742   3.11559   3.15203
  Beta virt. eigenvalues --    3.15992   3.16359   3.18694   3.19493   3.19800
  Beta virt. eigenvalues --    3.25092   3.27330   3.32071   3.37308   3.37874
  Beta virt. eigenvalues --    3.39268   3.40018   3.40247   3.46029   3.46573
  Beta virt. eigenvalues --    3.50027   3.52707   3.55158   3.57197   3.57752
  Beta virt. eigenvalues --    3.60790   3.61323   3.61633   3.63159   3.69194
  Beta virt. eigenvalues --    3.69968   3.74537   3.82713   3.83061   3.84257
  Beta virt. eigenvalues --    3.85255   3.89391   3.91298   3.92675   3.93847
  Beta virt. eigenvalues --    3.97237   4.01165   4.01884   4.03399   4.06123
  Beta virt. eigenvalues --    4.08298   4.09575   4.09582   4.16822   4.19342
  Beta virt. eigenvalues --    4.19513   4.22624   4.23212   4.24342   4.27425
  Beta virt. eigenvalues --    4.27615   4.33619   4.34746   4.38794   4.40194
  Beta virt. eigenvalues --    4.46459   4.49512   4.50190   4.51190   4.56692
  Beta virt. eigenvalues --    4.57878   4.63277   4.67678   4.72807   4.82247
  Beta virt. eigenvalues --    4.90405   4.91452   4.94793   4.98792   5.00071
  Beta virt. eigenvalues --    5.00310   5.06449   5.09027   5.09192   5.13637
  Beta virt. eigenvalues --    5.25139   5.27998   5.33707   5.35052   5.35573
  Beta virt. eigenvalues --    5.36044   5.44741   5.45809   5.48411   5.51232
  Beta virt. eigenvalues --    5.52631   5.57268   5.58737   5.64818   5.69431
  Beta virt. eigenvalues --    5.86914   5.91713   6.01288   6.01691   6.02458
  Beta virt. eigenvalues --    6.14505   6.19004  11.00735  13.75552  13.78175
  Beta virt. eigenvalues --   14.10583
          Condensed to atoms (all electrons):
               1          2          3          4          5          6
     1  C    4.961449   0.647676  -0.059717   0.357863   0.403875  -0.047820
     2  C    0.647676   4.961492   0.357859  -0.059743  -0.047802   0.403888
     3  C   -0.059717   0.357859   4.782069   0.006850  -0.007795  -0.039898
     4  C    0.357863  -0.059743   0.006850   4.782056  -0.039914  -0.007797
     5  H    0.403875  -0.047802  -0.007795  -0.039914   0.557869   0.007813
     6  H   -0.047820   0.403888  -0.039898  -0.007797   0.007813   0.557855
     7  H   -0.001690  -0.041772   0.410173  -0.000078   0.005551   0.005846
     8  H    0.000440  -0.043191   0.411107  -0.000252   0.000085  -0.002664
     9  H    0.000436  -0.043178   0.411098  -0.000252   0.000084  -0.002660
    10  H   -0.043203   0.000437  -0.000252   0.411105  -0.002664   0.000085
    11  H   -0.043206   0.000438  -0.000252   0.411101  -0.002666   0.000085
    12  H   -0.041806  -0.001697  -0.000078   0.410180   0.005851   0.005556
               7          8          9         10         11         12
     1  C   -0.001690   0.000440   0.000436  -0.043203  -0.043206  -0.041806
     2  C   -0.041772  -0.043191  -0.043178   0.000437   0.000438  -0.001697
     3  C    0.410173   0.411107   0.411098  -0.000252  -0.000252  -0.000078
     4  C   -0.000078  -0.000252  -0.000252   0.411105   0.411101   0.410180
     5  H    0.005551   0.000085   0.000084  -0.002664  -0.002666   0.005851
     6  H    0.005846  -0.002664  -0.002660   0.000085   0.000085   0.005556
     7  H    0.585796  -0.028785  -0.028796  -0.000011  -0.000012   0.000051
     8  H   -0.028785   0.607451  -0.040295   0.000117  -0.000043  -0.000011
     9  H   -0.028796  -0.040295   0.607458  -0.000043   0.000117  -0.000012
    10  H   -0.000011   0.000117  -0.000043   0.607491  -0.040310  -0.028776
    11  H   -0.000012  -0.000043   0.000117  -0.040310   0.607509  -0.028780
    12  H    0.000051  -0.000011  -0.000012  -0.028776  -0.028780   0.585810
          Atomic-Atomic Spin Densities.
               1          2          3          4          5          6
     1  C    0.000000   0.000000  -0.000000  -0.000000   0.000000   0.000000
     2  C    0.000000  -0.000000   0.000000   0.000000  -0.000000  -0.000000
     3  C   -0.000000   0.000000  -0.000000   0.000000  -0.000000   0.000000
     4  C   -0.000000   0.000000   0.000000   0.000000  -0.000000  -0.000000
     5  H    0.000000  -0.000000  -0.000000  -0.000000   0.000000  -0.000000
     6  H    0.000000  -0.000000   0.000000  -0.000000  -0.000000   0.000000
     7  H    0.000000  -0.000000   0.000000  -0.000000   0.000000  -0.000000
     8  H   -0.000000   0.000000  -0.000000  -0.000000   0.000000   0.000000
     9  H   -0.000000   0.000000  -0.000000   0.000000  -0.000000   0.000000
    10  H    0.000000  -0.000000  -0.000000   0.000000   0.000000   0.000000
    11  H    0.000000  -0.000000  -0.000000  -0.000000   0.000000   0.000000
    12  H   -0.000000   0.000000   0.000000   0.000000  -0.000000  -0.000000
               7          8          9         10         11         12
     1  C    0.000000  -0.000000  -0.000000   0.000000   0.000000  -0.000000
     2  C   -0.000000   0.000000   0.000000  -0.000000  -0.000000   0.000000
     3  C    0.000000  -0.000000  -0.000000  -0.000000  -0.000000   0.000000
     4  C   -0.000000  -0.000000   0.000000   0.000000  -0.000000   0.000000
     5  H    0.000000   0.000000  -0.000000   0.000000   0.000000  -0.000000
     6  H   -0.000000   0.000000   0.000000   0.000000   0.000000  -0.000000
     7  H   -0.000000   0.000000   0.000000  -0.000000  -0.000000   0.000000
     8  H    0.000000   0.000000   0.000000  -0.000000   0.000000   0.000000
     9  H    0.000000   0.000000  -0.000000   0.000000   0.000000  -0.000000
    10  H   -0.000000  -0.000000   0.000000  -0.000000  -0.000000   0.000000
    11  H   -0.000000   0.000000   0.000000  -0.000000  -0.000000   0.000000
    12  H    0.000000   0.000000  -0.000000   0.000000   0.000000  -0.000000
 Mulliken charges and spin densities:
               1          2
     1  C   -0.134299   0.000000
     2  C   -0.134409  -0.000000
     3  C   -0.271163  -0.000000
     4  C   -0.271117  -0.000000
     5  H    0.119714  -0.000000
     6  H    0.119712   0.000000
     7  H    0.093727   0.000000
     8  H    0.096041   0.000000
     9  H    0.096042   0.000000
    10  H    0.096023  -0.000000
    11  H    0.096019   0.000000
    12  H    0.093711  -0.000000
 Sum of Mulliken charges =  -0.00000   0.00000
 Mulliken charges and spin densities with hydrogens summed into heavy atoms:
               1          2
     1  C   -0.014585   0.000000
     2  C   -0.014697   0.000000
     3  C    0.014646   0.000000
     4  C    0.014636  -0.000000
 Electronic spatial extent (au):  <R**2>=            397.9524
 Charge=              0.0000 electrons
 Dipole moment (field-independent basis, Debye):
    X=             -0.0001    Y=             -0.0001    Z=              0.0002  Tot=              0.0002
 Quadrupole moment (field-independent basis, Debye-Ang):
   XX=            -25.9260   YY=            -28.1483   ZZ=            -25.7273
   XY=             -0.2711   XZ=             -0.3231   YZ=              0.4420
 Traceless Quadrupole moment (field-independent basis, Debye-Ang):
   XX=              0.6745   YY=             -1.5477   ZZ=              0.8732
   XY=             -0.2711   XZ=             -0.3231   YZ=              0.4420
 Octapole moment (field-independent basis, Debye-Ang**2):
  XXX=              0.0032  YYY=             -0.0012  ZZZ=              0.0003  XYY=              0.0007
  XXY=              0.0001  XXZ=              0.0018  XZZ=             -0.0005  YZZ=             -0.0011
  YYZ=             -0.0003  XYZ=              0.0000
 Hexadecapole moment (field-independent basis, Debye-Ang**3):
 XXXX=           -440.2406 YYYY=            -50.2390 ZZZZ=            -71.4349 XXXY=             22.1796
 XXXZ=             13.8486 YYYX=             18.8117 YYYZ=             -3.6003 ZZZX=             18.5192
 ZZZY=             -3.2698 XXYY=            -77.4663 XXZZ=            -83.7195 YYZZ=            -21.5934
 XXYZ=             -1.9622 YYXZ=              3.3530 ZZXY=              7.9781
 N-N= 1.161135957617D+02 E-N=-5.955835093483D+02  KE= 1.561653859030D+02
                          Isotropic Fermi Contact Couplings
        Atom                 a.u.       MegaHertz       Gauss      10(-4) cm-1
     1  C(13)              0.00000       0.00000       0.00000       0.00000
     2  C(13)              0.00000       0.00000       0.00000       0.00000
     3  C(13)             -0.00000      -0.00000      -0.00000      -0.00000
     4  C(13)              0.00000       0.00000       0.00000       0.00000
     5  H(1)              -0.00000      -0.00000      -0.00000      -0.00000
     6  H(1)              -0.00000      -0.00000      -0.00000      -0.00000
     7  H(1)              -0.00000      -0.00000      -0.00000      -0.00000
     8  H(1)              -0.00000      -0.00000      -0.00000      -0.00000
     9  H(1)               0.00000       0.00000       0.00000       0.00000
    10  H(1)               0.00000       0.00000       0.00000       0.00000
    11  H(1)               0.00000       0.00000       0.00000       0.00000
    12  H(1)               0.00000       0.00000       0.00000       0.00000
 --------------------------------------------------------
       Center         ----  Spin Dipole Couplings  ----
                      3XX-RR        3YY-RR        3ZZ-RR
 --------------------------------------------------------
     1   Atom        0.000000      0.000000      0.000000
     2   Atom        0.000000      0.000000      0.000000
     3   Atom        0.000000      0.000000      0.000000
     4   Atom        0.000000      0.000000      0.000000
     5   Atom        0.000000      0.000000      0.000000
     6   Atom        0.000000      0.000000      0.000000
     7   Atom        0.000000      0.000000      0.000000
     8   Atom        0.000000      0.000000      0.000000
     9   Atom        0.000000      0.000000      0.000000
    10   Atom        0.000000      0.000000      0.000000
    11   Atom        0.000000      0.000000      0.000000
    12   Atom        0.000000      0.000000      0.000000
 --------------------------------------------------------
                        XY            XZ            YZ
 --------------------------------------------------------
     1   Atom        0.000000      0.000000      0.000000
     2   Atom        0.000000      0.000000      0.000000
     3   Atom        0.000000      0.000000      0.000000
     4   Atom        0.000000      0.000000      0.000000
     5   Atom        0.000000      0.000000      0.000000
     6   Atom        0.000000      0.000000      0.000000
     7   Atom        0.000000      0.000000      0.000000
     8   Atom        0.000000      0.000000      0.000000
     9   Atom        0.000000      0.000000      0.000000
    10   Atom        0.000000      0.000000      0.000000
    11   Atom        0.000000      0.000000      0.000000
    12   Atom        0.000000      0.000000      0.000000
 --------------------------------------------------------


 ---------------------------------------------------------------------------------
              Anisotropic Spin Dipole Couplings in Principal Axis System
 ---------------------------------------------------------------------------------

       Atom             a.u.   MegaHertz   Gauss  10(-4) cm-1        Axes

              Baa     0.0000     0.000     0.000     0.000  1.0000  0.0000  0.0000
     1 C(13)  Bbb     0.0000     0.000     0.000     0.000 -0.0000  1.0000  0.0000
              Bcc     0.0000     0.000     0.000     0.000  0.0000  0.0000  1.0000
 
              Baa     0.0000     0.000     0.000     0.000  1.0000  0.0000  0.0000
     2 C(13)  Bbb     0.0000     0.000     0.000     0.000 -0.0000  1.0000  0.0000
              Bcc     0.0000     0.000     0.000     0.000  0.0000  0.0000  1.0000
 
              Baa     0.0000     0.000     0.000     0.000  1.0000  0.0000  0.0000
     3 C(13)  Bbb     0.0000     0.000     0.000     0.000 -0.0000  1.0000  0.0000
              Bcc     0.0000     0.000     0.000     0.000  0.0000  0.0000  1.0000
 
              Baa     0.0000     0.000     0.000     0.000  1.0000  0.0000  0.0000
     4 C(13)  Bbb     0.0000     0.000     0.000     0.000 -0.0000  1.0000  0.0000
              Bcc     0.0000     0.000     0.000     0.000  0.0000  0.0000  1.0000
 
              Baa     0.0000     0.000     0.000     0.000  1.0000  0.0000  0.0000
     5 H(1)   Bbb     0.0000     0.000     0.000     0.000 -0.0000  1.0000  0.0000
              Bcc     0.0000     0.000     0.000     0.000  0.0000  0.0000  1.0000
 
              Baa     0.0000     0.000     0.000     0.000  1.0000  0.0000  0.0000
     6 H(1)   Bbb     0.0000     0.000     0.000     0.000 -0.0000  1.0000  0.0000
              Bcc     0.0000     0.000     0.000     0.000  0.0000  0.0000  1.0000
 
              Baa     0.0000     0.000     0.000     0.000  1.0000  0.0000  0.0000
     7 H(1)   Bbb     0.0000     0.000     0.000     0.000 -0.0000  1.0000  0.0000
              Bcc     0.0000     0.000     0.000     0.000  0.0000  0.0000  1.0000
 
              Baa     0.0000     0.000     0.000     0.000  1.0000  0.0000  0.0000
     8 H(1)   Bbb     0.0000     0.000     0.000     0.000 -0.0000  1.0000  0.0000
              Bcc     0.0000     0.000     0.000     0.000  0.0000  0.0000  1.0000
 
              Baa     0.0000     0.000     0.000     0.000  1.0000  0.0000  0.0000
     9 H(1)   Bbb     0.0000     0.000     0.000     0.000 -0.0000  1.0000  0.0000
              Bcc     0.0000     0.000     0.000     0.000  0.0000  0.0000  1.0000
 
              Baa     0.0000     0.000     0.000     0.000  1.0000  0.0000  0.0000
    10 H(1)   Bbb     0.0000     0.000     0.000     0.000 -0.0000  1.0000  0.0000
              Bcc     0.0000     0.000     0.000     0.000  0.0000  0.0000  1.0000
 
              Baa     0.0000     0.000     0.000     0.000  1.0000  0.0000  0.0000
    11 H(1)   Bbb     0.0000     0.000     0.000     0.000 -0.0000  1.0000  0.0000
              Bcc     0.0000     0.000     0.000     0.000  0.0000  0.0000  1.0000
 
              Baa     0.0000     0.000     0.000     0.000  1.0000  0.0000  0.0000
    12 H(1)   Bbb     0.0000     0.000     0.000     0.000 -0.0000  1.0000  0.0000
              Bcc     0.0000     0.000     0.000     0.000  0.0000  0.0000  1.0000
 

 ---------------------------------------------------------------------------------

 1\1\GINC-N69\Scan\UB2PLYPD3-FC\CC-pVTZ\C4H8\ROOT\01-Jun-2019\0\\# opt=
 (maxcyc=500,modredundant) uB2PLYPD3/cc-pvtz scf=maxcyc=500 nosymm\\Tit
 le Card Required\\0,1\C,-0.486341203,0.1174071255,0.4386614569\C,0.486
 1761849,-0.1173346967,-0.4386516051\C,1.9424394836,-0.1996917799,-0.10
 309002\C,-1.9423596684,0.1996985333,0.1030876685\H,-0.220063898,0.2625
 569203,1.4812320249\H,0.2198293035,-0.2627134334,-1.4811500328\H,2.111
 4938572,-0.0420417887,0.9608899791\H,2.3546644122,-1.173721618,-0.3719
 085449\H,2.5168885584,0.5479162299,-0.6526804155\H,-2.5168574905,-0.54
 77770109,0.6528679105\H,-2.3546702665,1.1737917726,0.3717820611\H,-2.1
 111982733,0.041910746,-0.9609194826\\Version=ES64L-G16RevB.01\HF=-156.
 9061852,-156.9059795,-156.9054133,-156.904607,-156.903759,-156.9031175
 ,-156.9028964,-156.9031766,-156.9038557,-156.904711,-156.9054995,-156.
 9060269,-156.9061794,-156.9059293,-156.9053336,-156.9045253,-156.90370
 43,-156.9031001,-156.9028972,-156.9031646,-156.9038148,-156.9046524,-1
 56.905447,-156.906,-156.9061821,-156.9059527,-156.9053627,-156.9045497
 ,-156.9037202,-156.9031064,-156.9028964,-156.9031562,-156.9037995,-156
 .9046297,-156.9054207,-156.9059807,-156.9061835\MP2=-157.1296916,-157.
 1294969,-157.1289493,-157.1281667,-157.1273417,-157.1267133,-157.12649
 54,-157.1267703,-157.1274355,-157.1282686,-157.1290327,-157.1295427,-1
 57.1296914,-157.1294517,-157.1288769,-157.1280938,-157.1272936,-157.12
 66989,-157.1264966,-157.126755,-157.1273902,-157.1282074,-157.1289808,
 -157.1295171,-157.129693,-157.1294702,-157.1288973,-157.1281069,-157.1
 272987,-157.1266997,-157.1264957,-157.1267531,-157.127385,-157.1281952
 ,-157.1289619,-157.1295011,-157.1296944\PUHF=-156.9061852,-156.9059795
 ,-156.9054133,-156.904607,-156.903759,-156.9031175,-156.9028964,-156.9
 031766,-156.9038557,-156.904711,-156.9054995,-156.9060269,-156.9061794
 ,-156.9059293,-156.9053336,-156.9045253,-156.9037043,-156.9031001,-156
 .9028972,-156.9031646,-156.9038148,-156.9046524,-156.905447,-156.906,-
 156.9061821,-156.9059527,-156.9053627,-156.9045497,-156.9037202,-156.9
 031064,-156.9028964,-156.9031562,-156.9037995,-156.9046297,-156.905420
 7,-156.9059807,-156.9061835\PMP2-0=-157.1296916,-157.1294969,-157.1289
 493,-157.1281667,-157.1273417,-157.1267133,-157.1264954,-157.1267703,-
 157.1274355,-157.1282686,-157.1290327,-157.1295427,-157.1296914,-157.1
 294517,-157.1288769,-157.1280938,-157.1272936,-157.1266989,-157.126496
 6,-157.126755,-157.1273902,-157.1282074,-157.1289808,-157.1295171,-157
 .129693,-157.1294702,-157.1288973,-157.1281069,-157.1272987,-157.12669
 97,-157.1264957,-157.1267531,-157.127385,-157.1281952,-157.1289619,-15
 7.1295011,-157.1296944\S2=0.,0.,0.,0.,0.,0.,0.,0.,0.,0.,0.,0.,0.,0.,0.
 ,0.,0.,0.,0.,0.,0.,0.,0.,0.,0.,0.,0.,0.,0.,0.,0.,0.,0.,0.,0.,0.,0.\S2-
 1=0.,0.,0.,0.,0.,0.,0.,0.,0.,0.,0.,0.,0.,0.,0.,0.,0.,0.,0.,0.,0.,0.,0.
 ,0.,0.,0.,0.,0.,0.,0.,0.,0.,0.,0.,0.,0.,0.\S2A=0.,0.,0.,0.,0.,0.,0.,0.
 ,0.,0.,0.,0.,0.,0.,0.,0.,0.,0.,0.,0.,0.,0.,0.,0.,0.,0.,0.,0.,0.,0.,0.,
 0.,0.,0.,0.,0.,0.\RMSD=3.471e-09,4.503e-09,3.880e-09,3.248e-09,7.770e-
 09,1.364e-09,9.428e-09,8.831e-09,1.424e-09,2.859e-09,8.815e-09,8.238e-
 09,3.459e-09,5.430e-09,6.048e-09,3.469e-09,8.234e-09,3.460e-09,5.831e-
 09,5.035e-09,1.009e-09,9.606e-09,3.384e-09,9.136e-09,5.070e-09,7.398e-
 09,5.335e-09,3.092e-09,2.962e-09,5.155e-09,6.230e-09,5.740e-09,4.971e-
 09,6.557e-09,3.923e-09,5.868e-09,4.907e-09\PG=C01 [X(C4H8)]\\@


 Standing in the middle of the road is very dangerous;
 you get knocked down by the traffic from both sides.
                                -- Margaret Thatcher
 Job cpu time:       2 days  4 hours 30 minutes 13.2 seconds.
 Elapsed time:       0 days  1 hours 52 minutes 54.9 seconds.
 File lengths (MBytes):  RWF=     51 Int=      0 D2E=      0 Chk=     12 Scr=      1
 Normal termination of Gaussian 16 at Sat Jun  1 00:27:14 2019.
