 Entering Gaussian System, Link 0=g16
 Initial command:
 /ichec/packages/gaussian/16b01/l1.exe "/localscratch/339542/Gau-41054.inp" -scrdir="/localscratch/339542/"
 Entering Link 1 = /ichec/packages/gaussian/16b01/l1.exe PID=     41063.
  
 Copyright (c) 1988-2017, Gaussian, Inc.  All Rights Reserved.
  
 This is part of the Gaussian(R) 16 program.  It is based on
 the Gaussian(R) 09 system (copyright 2009, Gaussian, Inc.),
 the Gaussian(R) 03 system (copyright 2003, Gaussian, Inc.),
 the Gaussian(R) 98 system (copyright 1998, Gaussian, Inc.),
 the Gaussian(R) 94 system (copyright 1995, Gaussian, Inc.),
 the Gaussian 92(TM) system (copyright 1992, Gaussian, Inc.),
 the Gaussian 90(TM) system (copyright 1990, Gaussian, Inc.),
 the Gaussian 88(TM) system (copyright 1988, Gaussian, Inc.),
 the Gaussian 86(TM) system (copyright 1986, Carnegie Mellon
 University), and the Gaussian 82(TM) system (copyright 1983,
 Carnegie Mellon University). Gaussian is a federally registered
 trademark of Gaussian, Inc.
  
 This software contains proprietary and confidential information,
 including trade secrets, belonging to Gaussian, Inc.
  
 This software is provided under written license and may be
 used, copied, transmitted, or stored only in accord with that
 written license.
  
 The following legend is applicable only to US Government
 contracts under FAR:
  
                    RESTRICTED RIGHTS LEGEND
  
 Use, reproduction and disclosure by the US Government is
 subject to restrictions as set forth in subparagraphs (a)
 and (c) of the Commercial Computer Software - Restricted
 Rights clause in FAR 52.227-19.
  
 Gaussian, Inc.
 340 Quinnipiac St., Bldg. 40, Wallingford CT 06492
  
  
 ---------------------------------------------------------------
 Warning -- This program may not be used in any manner that
 competes with the business of Gaussian, Inc. or will provide
 assistance to any competitor of Gaussian, Inc.  The licensee
 of this program is prohibited from giving any competitor of
 Gaussian, Inc. access to this program.  By using this program,
 the user acknowledges that Gaussian, Inc. is engaged in the
 business of creating and licensing software in the field of
 computational chemistry and represents and warrants to the
 licensee that it is not a competitor of Gaussian, Inc. and that
 it will not use this program in any manner prohibited above.
 ---------------------------------------------------------------
  

 Cite this work as:
 Gaussian 16, Revision B.01,
 M. J. Frisch, G. W. Trucks, H. B. Schlegel, G. E. Scuseria, 
 M. A. Robb, J. R. Cheeseman, G. Scalmani, V. Barone, 
 G. A. Petersson, H. Nakatsuji, X. Li, M. Caricato, A. V. Marenich, 
 J. Bloino, B. G. Janesko, R. Gomperts, B. Mennucci, H. P. Hratchian, 
 J. V. Ortiz, A. F. Izmaylov, J. L. Sonnenberg, D. Williams-Young, 
 F. Ding, F. Lipparini, F. Egidi, J. Goings, B. Peng, A. Petrone, 
 T. Henderson, D. Ranasinghe, V. G. Zakrzewski, J. Gao, N. Rega, 
 G. Zheng, W. Liang, M. Hada, M. Ehara, K. Toyota, R. Fukuda, 
 J. Hasegawa, M. Ishida, T. Nakajima, Y. Honda, O. Kitao, H. Nakai, 
 T. Vreven, K. Throssell, J. A. Montgomery, Jr., J. E. Peralta, 
 F. Ogliaro, M. J. Bearpark, J. J. Heyd, E. N. Brothers, K. N. Kudin, 
 V. N. Staroverov, T. A. Keith, R. Kobayashi, J. Normand, 
 K. Raghavachari, A. P. Rendell, J. C. Burant, S. S. Iyengar, 
 J. Tomasi, M. Cossi, J. M. Millam, M. Klene, C. Adamo, R. Cammi, 
 J. W. Ochterski, R. L. Martin, K. Morokuma, O. Farkas, 
 J. B. Foresman, and D. J. Fox, Gaussian, Inc., Wallingford CT, 2016.
 
 ******************************************
 Gaussian 16:  ES64L-G16RevB.01 20-Dec-2017
                31-May-2019 
 ******************************************
 %mem=80GB
 %nproc=40
 Will use up to   40 processors via shared memory.
 -----------------------------------------------
 # opt=maxcyc=500 freq=noraman uB2PLYPD3/cc-pvtz
 -----------------------------------------------
 1/6=500,18=20,19=15,38=1/1,3;
 2/9=110,12=2,17=6,18=5,40=1/2;
 3/5=16,6=1,11=2,25=1,30=1,71=1,74=-60,116=2/1,2,3;
 4//1;
 5/5=2,38=5/2;
 8/6=4,10=1/1;
 9/15=2,16=-3/6;
 10/5=1/2;
 6/7=2,8=2,9=2,10=2/1;
 7/12=2/1,2,3,16;
 1/6=500,18=20,19=15/3(2);
 2/9=110/2;
 99//99;
 2/9=110/2;
 3/5=16,6=1,11=2,25=1,30=1,71=1,74=-60,116=2/1,2,3;
 4/5=5,16=3,69=1/1;
 5/5=2,38=5/2;
 8/6=4,10=1/1;
 9/15=2,16=-3/6;
 10/5=1/2;
 7/12=2/1,2,3,16;
 1/6=500,18=20,19=15/3(-8);
 2/9=110/2;
 6/7=2,8=2,9=2,10=2/1;
 99/9=10/99;
 -------------------
 Title Card Required
 -------------------
 Symbolic Z-matrix:
 Charge =  0 Multiplicity = 2
 C                    -0.5335   -0.39644  -0.00002 
 C                     0.5335    0.39644  -0.00004 
 C                     1.95551  -0.07881   0.00001 
 C                    -1.95551   0.07881   0.00002 
 H                    -0.38085  -1.475    -0.00006 
 H                     0.38085   1.475    -0.00004 
 H                     2.00574  -1.169    -0.00107 
 H                     2.49207   0.28769   0.87955 
 H                    -2.49237  -0.28841  -0.87902 
 H                    -2.49245  -0.2888    0.87885 
 H                    -2.00574   1.169     0.00026 
 

 GradGradGradGradGradGradGradGradGradGradGradGradGradGradGradGradGradGrad
 Berny optimization.
 Initialization pass.
                           ----------------------------
                           !    Initial Parameters    !
                           ! (Angstroms and Degrees)  !
 --------------------------                            --------------------------
 ! Name  Definition              Value          Derivative Info.                !
 --------------------------------------------------------------------------------
 ! R1    R(1,2)                  1.3293         estimate D2E/DX2                !
 ! R2    R(1,4)                  1.4993         estimate D2E/DX2                !
 ! R3    R(1,5)                  1.0893         estimate D2E/DX2                !
 ! R4    R(2,3)                  1.4993         estimate D2E/DX2                !
 ! R5    R(2,6)                  1.0893         estimate D2E/DX2                !
 ! R6    R(3,7)                  1.0913         estimate D2E/DX2                !
 ! R7    R(3,8)                  1.0935         estimate D2E/DX2                !
 ! R8    R(4,9)                  1.0935         estimate D2E/DX2                !
 ! R9    R(4,10)                 1.0935         estimate D2E/DX2                !
 ! R10   R(4,11)                 1.0913         estimate D2E/DX2                !
 ! A1    A(2,1,4)              124.9038         estimate D2E/DX2                !
 ! A2    A(2,1,5)              118.5606         estimate D2E/DX2                !
 ! A3    A(4,1,5)              116.5356         estimate D2E/DX2                !
 ! A4    A(1,2,3)              124.9039         estimate D2E/DX2                !
 ! A5    A(1,2,6)              118.5605         estimate D2E/DX2                !
 ! A6    A(3,2,6)              116.5356         estimate D2E/DX2                !
 ! A7    A(2,3,7)              111.1185         estimate D2E/DX2                !
 ! A8    A(2,3,8)              111.0487         estimate D2E/DX2                !
 ! A9    A(7,3,8)              108.241          estimate D2E/DX2                !
 ! A10   A(1,4,9)              111.0492         estimate D2E/DX2                !
 ! A11   A(1,4,10)             111.0491         estimate D2E/DX2                !
 ! A12   A(1,4,11)             111.1185         estimate D2E/DX2                !
 ! A13   A(9,4,10)             106.9826         estimate D2E/DX2                !
 ! A14   A(9,4,11)             108.2421         estimate D2E/DX2                !
 ! A15   A(10,4,11)            108.2423         estimate D2E/DX2                !
 ! D1    D(4,1,2,3)            179.9956         estimate D2E/DX2                !
 ! D2    D(4,1,2,6)             -0.0006         estimate D2E/DX2                !
 ! D3    D(5,1,2,3)             -0.006          estimate D2E/DX2                !
 ! D4    D(5,1,2,6)            179.9978         estimate D2E/DX2                !
 ! D5    D(2,1,4,9)            120.5317         estimate D2E/DX2                !
 ! D6    D(2,1,4,10)          -120.5573         estimate D2E/DX2                !
 ! D7    D(2,1,4,11)            -0.0127         estimate D2E/DX2                !
 ! D8    D(5,1,4,9)            -59.4667         estimate D2E/DX2                !
 ! D9    D(5,1,4,10)            59.4443         estimate D2E/DX2                !
 ! D10   D(5,1,4,11)           179.989          estimate D2E/DX2                !
 ! D11   D(1,2,3,7)              0.0646         estimate D2E/DX2                !
 ! D12   D(1,2,3,8)           -120.4781         estimate D2E/DX2                !
 ! D13   D(6,2,3,7)           -179.9392         estimate D2E/DX2                !
 ! D14   D(6,2,3,8)             59.5181         estimate D2E/DX2                !
 --------------------------------------------------------------------------------
 Trust Radius=3.00D-01 FncErr=1.00D-07 GrdErr=1.00D-07 EigMax=2.50D+02 EigMin=1.00D-04
 Number of steps in this run=    100 maximum allowed number of steps=    100.
 GradGradGradGradGradGradGradGradGradGradGradGradGradGradGradGradGradGrad

                          Input orientation:                          
 ---------------------------------------------------------------------
 Center     Atomic      Atomic             Coordinates (Angstroms)
 Number     Number       Type             X           Y           Z
 ---------------------------------------------------------------------
      1          6           0       -0.533497   -0.396441   -0.000019
      2          6           0        0.533497    0.396440   -0.000040
      3          6           0        1.955506   -0.078810    0.000014
      4          6           0       -1.955506    0.078810    0.000021
      5          1           0       -0.380851   -1.475004   -0.000059
      6          1           0        0.380850    1.475004   -0.000037
      7          1           0        2.005742   -1.168997   -0.001074
      8          1           0        2.492066    0.287689    0.879548
      9          1           0       -2.492372   -0.288409   -0.879019
     10          1           0       -2.492450   -0.288795    0.878849
     11          1           0       -2.005741    1.168998    0.000256
 ---------------------------------------------------------------------
                    Distance matrix (angstroms):
                    1          2          3          4          5
     1  C    0.000000
     2  C    1.329337   0.000000
     3  C    2.509188   1.499324   0.000000
     4  C    1.499324   2.509188   3.914187   0.000000
     5  H    1.089311   2.082867   2.721750   2.212211   0.000000
     6  H    2.082867   1.089312   2.212211   2.721749   3.046758
     7  H    2.654163   2.148976   1.091344   4.153132   2.406131
     8  H    3.224237   2.149766   1.093526   4.538512   3.483453
     9  H    2.149768   3.224516   4.538750   1.093520   2.576645
    10  H    2.149766   3.224647   4.538806   1.093518   2.576513
    11  H    2.148977   2.654162   4.153132   1.091345   3.103388
                    6          7          8          9         10
     6  H    0.000000
     7  H    3.103388   0.000000
     8  H    2.576940   1.770294   0.000000
     9  H    3.483912   4.666825   5.316866   0.000000
    10  H    3.484147   4.667200   5.017742   1.757868   0.000000
    11  H    2.406129   4.643083   4.666918   1.770302   1.770303
                   11
    11  H    0.000000
 Stoichiometry    C4H7(2)
 Framework group  C1[X(C4H7)]
 Deg. of freedom    27
 Full point group                 C1      NOp   1
 Largest Abelian subgroup         C1      NOp   1
 Largest concise Abelian subgroup C1      NOp   1
                         Standard orientation:                         
 ---------------------------------------------------------------------
 Center     Atomic      Atomic             Coordinates (Angstroms)
 Number     Number       Type             X           Y           Z
 ---------------------------------------------------------------------
      1          6           0       -0.449448   -0.392343    0.001313
      2          6           0        0.608248    0.410272   -0.063697
      3          6           0        2.034744   -0.050666   -0.088527
      4          6           0       -1.875942    0.068600    0.026237
      5          1           0       -0.285002   -1.468474    0.040006
      6          1           0        0.443799    1.486403   -0.102427
      7          1           0        2.096931   -1.139455   -0.047241
      8          1           0        2.593849    0.356478    0.758488
      9          1           0       -2.435329   -0.339246   -0.820246
     10          1           0       -2.381709   -0.268238    0.935369
     11          1           0       -1.938153    1.157355   -0.015901
 ---------------------------------------------------------------------
 Rotational constants (GHZ):          37.1814545           3.9486108           3.6880051
 Standard basis: CC-pVTZ (5D, 7F)
 There are   245 symmetry adapted cartesian basis functions of A   symmetry.
 There are   218 symmetry adapted basis functions of A   symmetry.
   218 basis functions,   327 primitive gaussians,   245 cartesian basis functions
    16 alpha electrons       15 beta electrons
       nuclear repulsion energy       108.6484715731 Hartrees.
 NAtoms=   11 NActive=   11 NUniq=   11 SFac= 1.00D+00 NAtFMM=   60 NAOKFM=F Big=F
 Integral buffers will be    131072 words long.
 Raffenetti 2 integral format.
 Two-electron integral symmetry is turned on.
 Nuclear repulsion after empirical dispersion term =      108.6433230119 Hartrees.
 One-electron integrals computed using PRISM.
 NBasis=   218 RedAO= T EigKep=  3.19D-04  NBF=   218
 NBsUse=   218 1.00D-06 EigRej= -1.00D+00 NBFU=   218
 ExpMin= 1.03D-01 ExpMax= 8.24D+03 ExpMxC= 2.81D+02 IAcc=3 IRadAn=         5 AccDes= 0.00D+00
 Harris functional with IExCor=  419 and IRadAn=       5 diagonalized for initial guess.
 HarFok:  IExCor=  419 AccDes= 0.00D+00 IRadAn=         5 IDoV= 1 UseB2=F ITyADJ=14
 ICtDFT=  3500011 ScaDFX=  1.000000  1.000000  1.000000  1.000000
 FoFCou: FMM=F IPFlag=           0 FMFlag=      100000 FMFlg1=           0
         NFxFlg=           0 DoJE=T BraDBF=F KetDBF=T FulRan=T
         wScrn=  0.000000 ICntrl=       500 IOpCl=  0 I1Cent=   200000004 NGrid=           0
         NMat0=    1 NMatS0=      1 NMatT0=    0 NMatD0=    1 NMtDS0=    0 NMtDT0=    0
 Petite list used in FoFCou.
 Initial guess <Sx>= 0.0000 <Sy>= 0.0000 <Sz>= 0.5000 <S**2>= 0.7500 S= 0.5000
 Keep R1 and R2 ints in memory in canonical form, NReq=612885869.
 Requested convergence on RMS density matrix=1.00D-08 within 128 cycles.
 Requested convergence on MAX density matrix=1.00D-06.
 Requested convergence on             energy=1.00D-06.
 No special actions if energy rises.
 Integral accuracy reduced to 1.0D-05 until final iterations.
 Initial convergence to 1.0D-05 achieved.  Increase integral accuracy.
 SCF Done:  E(UB2PLYPD3) =  -156.246077967     A.U. after   18 cycles
            NFock= 18  Conv=0.37D-08     -V/T= 2.0051
 <Sx>= 0.0000 <Sy>= 0.0000 <Sz>= 0.5000 <S**2>= 0.7980 S= 0.5237
 <L.S>=  0.00000000000    
 Annihilation of the first spin contaminant:
 S**2 before annihilation     0.7980,   after     0.7504
 DoSCS=T DFT=T ScalE2(SS,OS)=  0.270000  0.270000
 ExpMin= 1.03D-01 ExpMax= 8.24D+03 ExpMxC= 2.81D+02 IAcc=3 IRadAn=         5 AccDes= 0.00D+00
 HarFok:  IExCor=  205 AccDes= 0.00D+00 IRadAn=         5 IDoV=-2 UseB2=F ITyADJ=14
 ICtDFT= 12500011 ScaDFX=  1.000000  1.000000  1.000000  1.000000
 Range of M.O.s used for correlation:     5   218
 NBasis=   218 NAE=    16 NBE=    15 NFC=     4 NFV=     0
 NROrb=    214 NOA=    12 NOB=    11 NVA=   202 NVB=   203

 **** Warning!!: The largest alpha MO coefficient is  0.15476652D+02


 **** Warning!!: The largest beta MO coefficient is  0.15505296D+02

 DoSCS=T DFT=T ScalE2(SS,OS)=  0.270000  0.270000
 Fully direct method using O(ONN) memory.
 JobTyp=2 Pass  1:  I=   5 to  16 NPSUse= 40 ParTrn=T ParDer=T DoDerP=T.
 JobTyp=3 Pass  1:  I=   5 to  15 NPSUse= 40 ParTrn=T ParDer=T DoDerP=T.
 Spin components of T(2) and E(2):
     alpha-alpha T2 =       0.4190593690D-01 E2=     -0.2614263358D-01
     alpha-beta  T2 =       0.2431373548D+00 E2=     -0.1628163504D+00
     beta-beta   T2 =       0.3653792833D-01 E2=     -0.2210034880D-01
 (S**2,0)=  0.79803D+00           (S**2,1)=  0.75958D+00
 Scaling Projection term by:   0.270000
 E(PUHF)=      -0.15625226531D+03        E(PMP2)=      -0.15645814299D+03
 E2(B2PLYPD3) =    -0.2110593328D+00 E(B2PLYPD3) =    -0.15645713729985D+03
          IDoAtm=11111111111
          Differentiating once with respect to electric field.
                with respect to dipole field.
          Differentiating once with respect to nuclear coordinates.
 Keep R1 and R2 ints in memory in canonical form, NReq=612894013.
          There are     1 degrees of freedom in the 1st order CPHF.  IDoFFX=0 NUNeed=     1.
 LinEq1:  Iter=  0 NonCon=     1 RMS=8.92D-04 Max=2.76D-02 NDo=     1
 AX will form     1 AO Fock derivatives at one time.
 LinEq1:  Iter=  1 NonCon=     1 RMS=3.16D-04 Max=6.79D-03 NDo=     1
 LinEq1:  Iter=  2 NonCon=     1 RMS=1.98D-04 Max=5.55D-03 NDo=     1
 LinEq1:  Iter=  3 NonCon=     1 RMS=5.88D-05 Max=2.21D-03 NDo=     1
 LinEq1:  Iter=  4 NonCon=     1 RMS=3.82D-05 Max=2.05D-03 NDo=     1
 LinEq1:  Iter=  5 NonCon=     1 RMS=1.25D-05 Max=2.15D-04 NDo=     1
 LinEq1:  Iter=  6 NonCon=     1 RMS=5.86D-06 Max=1.20D-04 NDo=     1
 LinEq1:  Iter=  7 NonCon=     1 RMS=2.59D-06 Max=4.78D-05 NDo=     1
 LinEq1:  Iter=  8 NonCon=     1 RMS=9.18D-07 Max=1.08D-05 NDo=     1
 LinEq1:  Iter=  9 NonCon=     1 RMS=3.15D-07 Max=4.57D-06 NDo=     1
 LinEq1:  Iter= 10 NonCon=     1 RMS=1.35D-07 Max=2.01D-06 NDo=     1
 LinEq1:  Iter= 11 NonCon=     1 RMS=4.51D-08 Max=7.03D-07 NDo=     1
 LinEq1:  Iter= 12 NonCon=     1 RMS=1.17D-08 Max=1.46D-07 NDo=     1
 LinEq1:  Iter= 13 NonCon=     1 RMS=3.38D-09 Max=5.41D-08 NDo=     1
 LinEq1:  Iter= 14 NonCon=     1 RMS=8.19D-10 Max=9.50D-09 NDo=     1
 LinEq1:  Iter= 15 NonCon=     1 RMS=1.98D-10 Max=3.22D-09 NDo=     1
 LinEq1:  Iter= 16 NonCon=     0 RMS=5.97D-11 Max=9.74D-10 NDo=     1
 Linear equations converged to 1.000D-10 1.000D-09 after    16 iterations.
 End of Minotr F.D. properties file   721 does not exist.
 End of Minotr F.D. properties file   722 does not exist.
 End of Minotr F.D. properties file   788 does not exist.

 **********************************************************************

            Population analysis using the SCF Density.

 **********************************************************************

 Orbital symmetries:
 Alpha Orbitals:
       Occupied  (A) (A) (A) (A) (A) (A) (A) (A) (A) (A) (A) (A)
                 (A) (A) (A) (A)
       Virtual   (A) (A) (A) (A) (A) (A) (A) (A) (A) (A) (A) (A)
                 (A) (A) (A) (A) (A) (A) (A) (A) (A) (A) (A) (A)
                 (A) (A) (A) (A) (A) (A) (A) (A) (A) (A) (A) (A)
                 (A) (A) (A) (A) (A) (A) (A) (A) (A) (A) (A) (A)
                 (A) (A) (A) (A) (A) (A) (A) (A) (A) (A) (A) (A)
                 (A) (A) (A) (A) (A) (A) (A) (A) (A) (A) (A) (A)
                 (A) (A) (A) (A) (A) (A) (A) (A) (A) (A) (A) (A)
                 (A) (A) (A) (A) (A) (A) (A) (A) (A) (A) (A) (A)
                 (A) (A) (A) (A) (A) (A) (A) (A) (A) (A) (A) (A)
                 (A) (A) (A) (A) (A) (A) (A) (A) (A) (A) (A) (A)
                 (A) (A) (A) (A) (A) (A) (A) (A) (A) (A) (A) (A)
                 (A) (A) (A) (A) (A) (A) (A) (A) (A) (A) (A) (A)
                 (A) (A) (A) (A) (A) (A) (A) (A) (A) (A) (A) (A)
                 (A) (A) (A) (A) (A) (A) (A) (A) (A) (A) (A) (A)
                 (A) (A) (A) (A) (A) (A) (A) (A) (A) (A) (A) (A)
                 (A) (A) (A) (A) (A) (A) (A) (A) (A) (A) (A) (A)
                 (A) (A) (A) (A) (A) (A) (A) (A) (A) (A)
 Beta  Orbitals:
       Occupied  (A) (A) (A) (A) (A) (A) (A) (A) (A) (A) (A) (A)
                 (A) (A) (A)
       Virtual   (A) (A) (A) (A) (A) (A) (A) (A) (A) (A) (A) (A)
                 (A) (A) (A) (A) (A) (A) (A) (A) (A) (A) (A) (A)
                 (A) (A) (A) (A) (A) (A) (A) (A) (A) (A) (A) (A)
                 (A) (A) (A) (A) (A) (A) (A) (A) (A) (A) (A) (A)
                 (A) (A) (A) (A) (A) (A) (A) (A) (A) (A) (A) (A)
                 (A) (A) (A) (A) (A) (A) (A) (A) (A) (A) (A) (A)
                 (A) (A) (A) (A) (A) (A) (A) (A) (A) (A) (A) (A)
                 (A) (A) (A) (A) (A) (A) (A) (A) (A) (A) (A) (A)
                 (A) (A) (A) (A) (A) (A) (A) (A) (A) (A) (A) (A)
                 (A) (A) (A) (A) (A) (A) (A) (A) (A) (A) (A) (A)
                 (A) (A) (A) (A) (A) (A) (A) (A) (A) (A) (A) (A)
                 (A) (A) (A) (A) (A) (A) (A) (A) (A) (A) (A) (A)
                 (A) (A) (A) (A) (A) (A) (A) (A) (A) (A) (A) (A)
                 (A) (A) (A) (A) (A) (A) (A) (A) (A) (A) (A) (A)
                 (A) (A) (A) (A) (A) (A) (A) (A) (A) (A) (A) (A)
                 (A) (A) (A) (A) (A) (A) (A) (A) (A) (A) (A) (A)
                 (A) (A) (A) (A) (A) (A) (A) (A) (A) (A) (A)
 The electronic state is 2-A.
 Alpha  occ. eigenvalues --  -10.62941 -10.62368 -10.61508 -10.61253  -0.92508
 Alpha  occ. eigenvalues --   -0.83492  -0.74072  -0.63572  -0.51803  -0.51433
 Alpha  occ. eigenvalues --   -0.48711  -0.44874  -0.43837  -0.40684  -0.35656
 Alpha  occ. eigenvalues --   -0.26792
 Alpha virt. eigenvalues --    0.08568   0.08820   0.10314   0.11149   0.15193
 Alpha virt. eigenvalues --    0.15344   0.17152   0.17996   0.23278   0.26473
 Alpha virt. eigenvalues --    0.29939   0.31621   0.33601   0.34681   0.36120
 Alpha virt. eigenvalues --    0.37326   0.40842   0.43291   0.43672   0.47837
 Alpha virt. eigenvalues --    0.48440   0.51106   0.51651   0.52121   0.52906
 Alpha virt. eigenvalues --    0.53317   0.54105   0.55674   0.58472   0.62760
 Alpha virt. eigenvalues --    0.63729   0.65626   0.69979   0.73412   0.74916
 Alpha virt. eigenvalues --    0.75435   0.80251   0.85067   0.89175   0.90967
 Alpha virt. eigenvalues --    0.95133   0.95378   0.99791   1.00820   1.06359
 Alpha virt. eigenvalues --    1.07467   1.08518   1.09751   1.11489   1.12120
 Alpha virt. eigenvalues --    1.15209   1.17542   1.20935   1.21942   1.23621
 Alpha virt. eigenvalues --    1.25868   1.26986   1.31593   1.34052   1.37063
 Alpha virt. eigenvalues --    1.37971   1.40363   1.42418   1.43791   1.47394
 Alpha virt. eigenvalues --    1.51386   1.53097   1.53789   1.55752   1.58918
 Alpha virt. eigenvalues --    1.60286   1.65517   1.75945   1.82772   1.99801
 Alpha virt. eigenvalues --    2.15049   2.23586   2.24857   2.29991   2.34956
 Alpha virt. eigenvalues --    2.35901   2.39000   2.43926   2.44261   2.48722
 Alpha virt. eigenvalues --    2.52944   2.57100   2.59891   2.61829   2.63499
 Alpha virt. eigenvalues --    2.75043   2.76387   2.78538   2.80715   2.81679
 Alpha virt. eigenvalues --    2.86397   2.89690   2.90195   2.94048   2.94636
 Alpha virt. eigenvalues --    2.95832   2.99621   3.01165   3.03015   3.05441
 Alpha virt. eigenvalues --    3.07470   3.08797   3.10114   3.11770   3.13367
 Alpha virt. eigenvalues --    3.15140   3.16804   3.17167   3.18532   3.23141
 Alpha virt. eigenvalues --    3.25537   3.27069   3.30561   3.36629   3.37224
 Alpha virt. eigenvalues --    3.37991   3.39088   3.40805   3.45751   3.47048
 Alpha virt. eigenvalues --    3.49832   3.53205   3.55732   3.57325   3.58399
 Alpha virt. eigenvalues --    3.60199   3.63389   3.66649   3.71135   3.71628
 Alpha virt. eigenvalues --    3.75456   3.81519   3.84327   3.86341   3.87592
 Alpha virt. eigenvalues --    3.90267   3.92888   3.93914   3.96086   4.00628
 Alpha virt. eigenvalues --    4.01975   4.03073   4.06748   4.07845   4.13645
 Alpha virt. eigenvalues --    4.14589   4.16851   4.19895   4.20363   4.21600
 Alpha virt. eigenvalues --    4.22414   4.25159   4.30822   4.31446   4.36584
 Alpha virt. eigenvalues --    4.39160   4.46209   4.47158   4.49382   4.52870
 Alpha virt. eigenvalues --    4.54612   4.61160   4.67431   4.70410   4.80614
 Alpha virt. eigenvalues --    4.84277   4.92818   4.95238   4.95998   4.99168
 Alpha virt. eigenvalues --    5.02007   5.06442   5.08968   5.10092   5.18701
 Alpha virt. eigenvalues --    5.23078   5.26022   5.32333   5.33637   5.38169
 Alpha virt. eigenvalues --    5.39613   5.44373   5.48326   5.52245   5.56003
 Alpha virt. eigenvalues --    5.63113   5.67035   5.83606   5.89375   5.98157
 Alpha virt. eigenvalues --    6.00351   6.12690   6.15112  10.85687  12.13976
 Alpha virt. eigenvalues --   13.69492  14.01500
  Beta  occ. eigenvalues --  -10.61965 -10.61686 -10.61299 -10.61237  -0.91495
  Beta  occ. eigenvalues --   -0.82115  -0.71388  -0.63112  -0.51350  -0.50811
  Beta  occ. eigenvalues --   -0.47828  -0.44012  -0.43292  -0.40242  -0.31239
  Beta virt. eigenvalues --   -0.01321   0.08838   0.10439   0.10718   0.11265
  Beta virt. eigenvalues --    0.15397   0.15497   0.17310   0.18397   0.23649
  Beta virt. eigenvalues --    0.26957   0.30224   0.31837   0.34265   0.36042
  Beta virt. eigenvalues --    0.36690   0.39493   0.42463   0.43890   0.45026
  Beta virt. eigenvalues --    0.48397   0.49154   0.51481   0.52380   0.52508
  Beta virt. eigenvalues --    0.53169   0.53995   0.55011   0.55989   0.59419
  Beta virt. eigenvalues --    0.63392   0.64537   0.66383   0.71093   0.73614
  Beta virt. eigenvalues --    0.75161   0.75671   0.80478   0.85601   0.89777
  Beta virt. eigenvalues --    0.91870   0.95361   0.96259   1.01094   1.01168
  Beta virt. eigenvalues --    1.06599   1.07669   1.09014   1.10312   1.11760
  Beta virt. eigenvalues --    1.12974   1.15677   1.17849   1.21448   1.22383
  Beta virt. eigenvalues --    1.24106   1.26653   1.28058   1.32414   1.34314
  Beta virt. eigenvalues --    1.37352   1.38469   1.40622   1.42716   1.44870
  Beta virt. eigenvalues --    1.47761   1.51671   1.53679   1.54595   1.56396
  Beta virt. eigenvalues --    1.59321   1.60602   1.66130   1.76215   1.83147
  Beta virt. eigenvalues --    2.00527   2.15831   2.24067   2.26859   2.30736
  Beta virt. eigenvalues --    2.35986   2.38311   2.39354   2.44423   2.45300
  Beta virt. eigenvalues --    2.49562   2.53520   2.57589   2.60828   2.62645
  Beta virt. eigenvalues --    2.63930   2.75892   2.77181   2.78858   2.81563
  Beta virt. eigenvalues --    2.82337   2.87506   2.90181   2.91109   2.94312
  Beta virt. eigenvalues --    2.95349   2.97246   3.00362   3.02479   3.03625
  Beta virt. eigenvalues --    3.05902   3.07969   3.10129   3.10895   3.12385
  Beta virt. eigenvalues --    3.14862   3.15903   3.16977   3.18331   3.19014
  Beta virt. eigenvalues --    3.24478   3.26744   3.28630   3.31816   3.37435
  Beta virt. eigenvalues --    3.37688   3.38781   3.39549   3.41456   3.45992
  Beta virt. eigenvalues --    3.47594   3.50452   3.53519   3.55982   3.57428
  Beta virt. eigenvalues --    3.58677   3.60606   3.63750   3.67319   3.71284
  Beta virt. eigenvalues --    3.72167   3.75639   3.81912   3.84525   3.86494
  Beta virt. eigenvalues --    3.88419   3.90703   3.93206   3.94601   3.96337
  Beta virt. eigenvalues --    4.00928   4.02259   4.03388   4.06812   4.08115
  Beta virt. eigenvalues --    4.14013   4.15177   4.17146   4.20184   4.20950
  Beta virt. eigenvalues --    4.21936   4.22666   4.25385   4.31045   4.31724
  Beta virt. eigenvalues --    4.36824   4.39331   4.46629   4.47423   4.49572
  Beta virt. eigenvalues --    4.53177   4.55085   4.61395   4.67807   4.70728
  Beta virt. eigenvalues --    4.80765   4.84615   4.93161   4.95518   4.97017
  Beta virt. eigenvalues --    4.99583   5.02260   5.06738   5.09340   5.10502
  Beta virt. eigenvalues --    5.19139   5.23810   5.26626   5.32514   5.33798
  Beta virt. eigenvalues --    5.38498   5.40146   5.44492   5.48599   5.52442
  Beta virt. eigenvalues --    5.56216   5.63278   5.67316   5.83863   5.89831
  Beta virt. eigenvalues --    5.98536   6.00482   6.12869   6.15295  10.85849
  Beta virt. eigenvalues --   12.15422  13.69489  14.01701
          Condensed to atoms (all electrons):
               1          2          3          4          5          6
     1  C    4.986874   0.601275  -0.065099   0.355802   0.402891  -0.051691
     2  C    0.601275   4.920594   0.402707  -0.057844  -0.046275   0.404050
     3  C   -0.065099   0.402707   5.121659   0.006652  -0.006560  -0.034257
     4  C    0.355802  -0.057844   0.006652   4.781161  -0.038596  -0.007299
     5  H    0.402891  -0.046275  -0.006560  -0.038596   0.551593   0.007332
     6  H   -0.051691   0.404050  -0.034257  -0.007299   0.007332   0.554353
     7  H    0.000088  -0.055959   0.413733  -0.000080   0.005362   0.005628
     8  H    0.003106  -0.047566   0.406348  -0.000419   0.000255  -0.003595
     9  H   -0.042010   0.001139  -0.000322   0.409747  -0.002641   0.000141
    10  H   -0.041945   0.000684  -0.000150   0.409670  -0.002412   0.000067
    11  H   -0.041917  -0.001113  -0.000024   0.410440   0.005593   0.005155
               7          8          9         10         11
     1  C    0.000088   0.003106  -0.042010  -0.041945  -0.041917
     2  C   -0.055959  -0.047566   0.001139   0.000684  -0.001113
     3  C    0.413733   0.406348  -0.000322  -0.000150  -0.000024
     4  C   -0.000080  -0.000419   0.409747   0.409670   0.410440
     5  H    0.005362   0.000255  -0.002641  -0.002412   0.005593
     6  H    0.005628  -0.003595   0.000141   0.000067   0.005155
     7  H    0.580883  -0.045859   0.000032  -0.000039   0.000039
     8  H   -0.045859   0.579862  -0.000022   0.000090  -0.000002
     9  H    0.000032  -0.000022   0.599889  -0.038286  -0.028178
    10  H   -0.000039   0.000090  -0.038286   0.601743  -0.028165
    11  H    0.000039  -0.000002  -0.028178  -0.028165   0.581978
          Atomic-Atomic Spin Densities.
               1          2          3          4          5          6
     1  C    0.405583   0.023823  -0.026239  -0.010970   0.003757  -0.001687
     2  C    0.023823  -0.268972  -0.035956   0.000136   0.001810  -0.001254
     3  C   -0.026239  -0.035956   0.998837   0.000921   0.000180  -0.002004
     4  C   -0.010970   0.000136   0.000921  -0.025720   0.001679   0.000197
     5  H    0.003757   0.001810   0.000180   0.001679  -0.022452  -0.000072
     6  H   -0.001687  -0.001254  -0.002004   0.000197  -0.000072   0.015587
     7  H   -0.000197   0.001951   0.004977   0.000019  -0.000039  -0.000146
     8  H   -0.002111   0.003666   0.001791   0.000086   0.000007   0.000527
     9  H   -0.008572   0.000179  -0.000292   0.003227  -0.000099  -0.000003
    10  H   -0.009116  -0.000306   0.000414   0.005383   0.000142  -0.000019
    11  H   -0.000742   0.000064   0.000031   0.000454  -0.000127   0.000062
               7          8          9         10         11
     1  C   -0.000197  -0.002111  -0.008572  -0.009116  -0.000742
     2  C    0.001951   0.003666   0.000179  -0.000306   0.000064
     3  C    0.004977   0.001791  -0.000292   0.000414   0.000031
     4  C    0.000019   0.000086   0.003227   0.005383   0.000454
     5  H   -0.000039   0.000007  -0.000099   0.000142  -0.000127
     6  H   -0.000146   0.000527  -0.000003  -0.000019   0.000062
     7  H   -0.034073   0.006876  -0.000025   0.000017   0.000003
     8  H    0.006876  -0.031799  -0.000013   0.000014   0.000003
     9  H   -0.000025  -0.000013   0.029528  -0.006671  -0.000515
    10  H    0.000017   0.000014  -0.006671   0.021788   0.000145
    11  H    0.000003   0.000003  -0.000515   0.000145   0.000961
 Mulliken charges and spin densities:
               1          2
     1  C   -0.107375   0.373528
     2  C   -0.121693  -0.274857
     3  C   -0.244685   0.942660
     4  C   -0.269235  -0.024588
     5  H    0.123457  -0.015215
     6  H    0.120114   0.011188
     7  H    0.096170  -0.020638
     8  H    0.107801  -0.020951
     9  H    0.100511   0.016744
    10  H    0.098742   0.011790
    11  H    0.096193   0.000339
 Sum of Mulliken charges =  -0.00000   1.00000
 Mulliken charges and spin densities with hydrogens summed into heavy atoms:
               1          2
     1  C    0.016082   0.358314
     2  C   -0.001578  -0.263669
     3  C   -0.040715   0.901070
     4  C    0.026211   0.004285
 Electronic spatial extent (au):  <R**2>=            372.2448
 Charge=             -0.0000 electrons
 Dipole moment (field-independent basis, Debye):
    X=             -0.8993    Y=             -0.2005    Z=              0.5149  Tot=              1.0555
 Quadrupole moment (field-independent basis, Debye-Ang):
   XX=            -26.8602   YY=            -24.8567   ZZ=            -27.9207
   XY=             -0.1441   XZ=              1.4341   YZ=              0.0940
 Traceless Quadrupole moment (field-independent basis, Debye-Ang):
   XX=             -0.3143   YY=              1.6892   ZZ=             -1.3748
   XY=             -0.1441   XZ=              1.4341   YZ=              0.0940
 Octapole moment (field-independent basis, Debye-Ang**2):
  XXX=             -7.8914  YYY=             -0.1575  ZZZ=              1.3709  XYY=             -0.5594
  XXY=             -1.3649  XXZ=              4.0800  XZZ=             -2.2652  YZZ=             -0.2715
  YYZ=              0.1616  XYZ=              0.5185
 Hexadecapole moment (field-independent basis, Debye-Ang**3):
 XXXX=           -435.0112 YYYY=            -66.4134 ZZZZ=            -41.8294 XXXY=             -0.4756
 XXXZ=             12.4359 YYYX=             -2.3147 YYYZ=             -0.2446 ZZZX=              2.6620
 ZZZY=              0.3131 XXYY=            -81.2500 XXZZ=            -75.2263 YYZZ=            -19.8548
 XXYZ=              1.6232 YYXZ=              0.8288 ZZXY=              1.5459
 N-N= 1.086433230119D+02 E-N=-5.791795055345D+02  KE= 1.554477101194D+02
                          Isotropic Fermi Contact Couplings
        Atom                 a.u.       MegaHertz       Gauss      10(-4) cm-1
     1  C(13)              0.02138      24.03237       8.57535       8.01634
     2  C(13)             -0.01554     -17.46757      -6.23286      -5.82655
     3  C(13)              0.23389     262.94020      93.82360      87.70741
     4  C(13)             -0.00629      -7.06895      -2.52238      -2.35795
     5  H(1)              -0.00315     -14.08545      -5.02604      -4.69840
     6  H(1)               0.00231      10.31106       3.67924       3.43940
     7  H(1)              -0.00350     -15.63415      -5.57865      -5.21499
     8  H(1)              -0.00306     -13.66169      -4.87483      -4.55705
     9  H(1)               0.00733      32.75662      11.68838      10.92643
    10  H(1)               0.00503      22.47819       8.02078       7.49792
    11  H(1)               0.00003       0.13985       0.04990       0.04665
 --------------------------------------------------------
       Center         ----  Spin Dipole Couplings  ----
                      3XX-RR        3YY-RR        3ZZ-RR
 --------------------------------------------------------
     1   Atom       -0.128962     -0.151105      0.280067
     2   Atom        0.084838      0.029624     -0.114463
     3   Atom       -0.216139     -0.317320      0.533459
     4   Atom        0.007577     -0.007447     -0.000130
     5   Atom       -0.012067      0.017195     -0.005128
     6   Atom        0.010109      0.000036     -0.010145
     7   Atom       -0.044437      0.060674     -0.016237
     8   Atom       -0.007700     -0.027613      0.035313
     9   Atom        0.004576     -0.002489     -0.002087
    10   Atom        0.005579     -0.003559     -0.002021
    11   Atom        0.002726      0.000385     -0.003111
 --------------------------------------------------------
                        XY            XZ            YZ
 --------------------------------------------------------
     1   Atom        0.008110      0.082030      0.041342
     2   Atom        0.002172     -0.024564     -0.002008
     3   Atom        0.186721     -0.494035     -0.371358
     4   Atom       -0.004375      0.004965     -0.002281
     5   Atom        0.000236      0.000062      0.004436
     6   Atom       -0.006903     -0.002174      0.001744
     7   Atom       -0.004853     -0.020018     -0.004987
     8   Atom        0.038460      0.026647      0.018944
     9   Atom       -0.000020      0.002361      0.001144
    10   Atom        0.000053     -0.003874     -0.000124
    11   Atom       -0.004109      0.000190      0.000135
 --------------------------------------------------------


 ---------------------------------------------------------------------------------
              Anisotropic Spin Dipole Couplings in Principal Axis System
 ---------------------------------------------------------------------------------

       Atom             a.u.   MegaHertz   Gauss  10(-4) cm-1        Axes

              Baa    -0.1550   -20.805    -7.424    -6.940 -0.0296  0.9956 -0.0890
     1 C(13)  Bbb    -0.1448   -19.431    -6.933    -6.481  0.9816  0.0122 -0.1907
              Bcc     0.2998    40.236    14.357    13.421  0.1888  0.0930  0.9776
 
              Baa    -0.1175   -15.763    -5.625    -5.258  0.1204  0.0118  0.9927
     2 C(13)  Bbb     0.0295     3.965     1.415     1.323 -0.0422  0.9991 -0.0067
              Bcc     0.0879    11.798     4.210     3.935  0.9918  0.0411 -0.1208
 
              Baa    -0.4622   -62.025   -22.132   -20.689  0.8865 -0.3413  0.3126
     3 C(13)  Bbb    -0.4564   -61.238   -21.851   -20.427  0.1900  0.8843  0.4266
              Bcc     0.9186   123.263    43.983    41.116 -0.4220 -0.3188  0.8487
 
              Baa    -0.0087    -1.174    -0.419    -0.392  0.2198  0.9669  0.1292
     4 C(13)  Bbb    -0.0026    -0.343    -0.123    -0.115 -0.4461 -0.0182  0.8948
              Bcc     0.0113     1.517     0.541     0.506  0.8675 -0.2544  0.4274
 
              Baa    -0.0121    -6.439    -2.298    -2.148  1.0000 -0.0074 -0.0042
     5 H(1)   Bbb    -0.0060    -3.189    -1.138    -1.064  0.0028 -0.1880  0.9822
              Bcc     0.0180     9.628     3.436     3.212  0.0081  0.9821  0.1880
 
              Baa    -0.0105    -5.602    -1.999    -1.869  0.0635 -0.1223  0.9905
     6 H(1)   Bbb    -0.0034    -1.829    -0.652    -0.610  0.4630  0.8828  0.0793
              Bcc     0.0139     7.431     2.651     2.479  0.8841 -0.4535 -0.1127
 
              Baa    -0.0552   -29.451   -10.509    -9.824  0.8850  0.0569  0.4620
     7 H(1)   Bbb    -0.0059    -3.160    -1.128    -1.054 -0.4642  0.0325  0.8852
              Bcc     0.0611    32.612    11.637    10.878 -0.0354  0.9978 -0.0552
 
              Baa    -0.0574   -30.630   -10.929   -10.217 -0.6175  0.7864  0.0168
     8 H(1)   Bbb    -0.0046    -2.468    -0.881    -0.823 -0.6024 -0.4865  0.6327
              Bcc     0.0620    33.098    11.810    11.040  0.5058  0.3806  0.7742
 
              Baa    -0.0038    -2.016    -0.719    -0.673 -0.2079 -0.6507  0.7303
     9 H(1)   Bbb    -0.0016    -0.834    -0.298    -0.278 -0.2319  0.7581  0.6095
              Bcc     0.0053     2.850     1.017     0.951  0.9502  0.0426  0.3086
 
              Baa    -0.0037    -1.978    -0.706    -0.660  0.3224  0.5362  0.7801
    10 H(1)   Bbb    -0.0035    -1.868    -0.666    -0.623 -0.2146  0.8440 -0.4915
              Bcc     0.0072     3.845     1.372     1.283  0.9220  0.0090 -0.3872
 
              Baa    -0.0032    -1.713    -0.611    -0.572 -0.2528 -0.3232  0.9120
    11 H(1)   Bbb    -0.0026    -1.396    -0.498    -0.466  0.5467  0.7299  0.4102
              Bcc     0.0058     3.110     1.110     1.037  0.7982 -0.6023  0.0079
 

 ---------------------------------------------------------------------------------

 Calling FoFJK, ICntrl=  10002127 FMM=F ISym2X=0 I1Cent= 0 IOpClX= 1 NMat=1 NMatS=1 NMatT=0.
 ***** Axes restored to original set *****
 -------------------------------------------------------------------
 Center     Atomic                   Forces (Hartrees/Bohr)
 Number     Number              X              Y              Z
 -------------------------------------------------------------------
      1        6          -0.012463585   -0.011524796   -0.004688307
      2        6           0.041263532    0.008464753   -0.010211823
      3        6          -0.047211010   -0.008623588    0.037553874
      4        6           0.001805433    0.000881912    0.002111807
      5        1          -0.000466283    0.002494119   -0.000777699
      6        1           0.000249145   -0.002366299    0.002633512
      7        1           0.005253905    0.002018413   -0.011483874
      8        1           0.010301742    0.010202690   -0.014841338
      9        1           0.001029326   -0.000000685    0.001185486
     10        1           0.000266596    0.000349670   -0.001470735
     11        1          -0.000028801   -0.001896190   -0.000010905
 -------------------------------------------------------------------
 Cartesian Forces:  Max     0.047211010 RMS     0.014070053

 GradGradGradGradGradGradGradGradGradGradGradGradGradGradGradGradGradGrad
 Berny optimization.
 FormGI is forming the generalized inverse of G from B-inverse, IUseBI=4.
 Internal  Forces:  Max     0.031163005 RMS     0.008016287
 Search for a local minimum.
 Step number   1 out of a maximum of  100
 All quantities printed in internal units (Hartrees-Bohrs-Radians)
 Mixed Optimization -- RFO/linear search
 Second derivative matrix not updated -- first step.
 ITU=  0
     Eigenvalues ---    0.00775   0.00775   0.01694   0.01920   0.03023
     Eigenvalues ---    0.05105   0.07188   0.07266   0.16000   0.16000
     Eigenvalues ---    0.16000   0.16000   0.16000   0.16000   0.16000
     Eigenvalues ---    0.22000   0.22000   0.32448   0.32448   0.34408
     Eigenvalues ---    0.34409   0.34409   0.34658   0.34658   0.34892
     Eigenvalues ---    0.34892   0.59663
 RFO step:  Lambda=-2.01608114D-02 EMin= 7.74886826D-03
 Linear search not attempted -- first point.
 Iteration  1 RMS(Cart)=  0.05861031 RMS(Int)=  0.02620764
 Iteration  2 RMS(Cart)=  0.02474239 RMS(Int)=  0.00946964
 Iteration  3 RMS(Cart)=  0.00126634 RMS(Int)=  0.00938755
 Iteration  4 RMS(Cart)=  0.00002685 RMS(Int)=  0.00938753
 Iteration  5 RMS(Cart)=  0.00000110 RMS(Int)=  0.00938753
 Iteration  6 RMS(Cart)=  0.00000004 RMS(Int)=  0.00938753
 Variable       Old X    -DE/DX   Delta X   Delta X   Delta X     New X
                                 (Linear)    (Quad)   (Total)
    R1        2.51208   0.01369   0.00000   0.02220   0.02220   2.53429
    R2        2.83331  -0.00313   0.00000  -0.00907  -0.00907   2.82424
    R3        2.05850  -0.00253   0.00000  -0.00687  -0.00687   2.05163
    R4        2.83331  -0.03116   0.00000  -0.09042  -0.09042   2.74289
    R5        2.05850  -0.00238   0.00000  -0.00644  -0.00644   2.05206
    R6        2.06234  -0.00176   0.00000  -0.00481  -0.00481   2.05753
    R7        2.06646  -0.00346   0.00000  -0.00951  -0.00951   2.05696
    R8        2.06645  -0.00146   0.00000  -0.00400  -0.00400   2.06245
    R9        2.06645  -0.00143   0.00000  -0.00393  -0.00393   2.06252
   R10        2.06234  -0.00189   0.00000  -0.00516  -0.00516   2.05718
    A1        2.17998  -0.00020   0.00000  -0.00084  -0.00085   2.17914
    A2        2.06927   0.00022   0.00000   0.00106   0.00105   2.07032
    A3        2.03393  -0.00001   0.00000  -0.00022  -0.00023   2.03370
    A4        2.17998  -0.00297   0.00000  -0.01235  -0.01235   2.16763
    A5        2.06927   0.00140   0.00000   0.00569   0.00569   2.07496
    A6        2.03393   0.00157   0.00000   0.00666   0.00666   2.04059
    A7        1.93938   0.01292   0.00000   0.13145   0.10172   2.04111
    A8        1.93817   0.01915   0.00000   0.16606   0.13660   2.07477
    A9        1.88916   0.00360   0.00000   0.13209   0.09562   1.98478
   A10        1.93817  -0.00096   0.00000  -0.00619  -0.00619   1.93199
   A11        1.93817   0.00065   0.00000   0.00373   0.00373   1.94190
   A12        1.93938   0.00033   0.00000   0.00261   0.00260   1.94198
   A13        1.86720  -0.00021   0.00000  -0.00263  -0.00263   1.86457
   A14        1.88918   0.00029   0.00000   0.00140   0.00140   1.89059
   A15        1.88918  -0.00012   0.00000   0.00100   0.00099   1.89017
    D1        3.14152  -0.00127   0.00000  -0.02638  -0.02638   3.11514
    D2       -0.00001  -0.00121   0.00000  -0.02493  -0.02493  -0.02494
    D3       -0.00011  -0.00097   0.00000  -0.01843  -0.01843  -0.01853
    D4        3.14155  -0.00092   0.00000  -0.01698  -0.01698   3.12458
    D5        2.10368   0.00026   0.00000   0.00464   0.00464   2.10832
    D6       -2.10412  -0.00020   0.00000  -0.00026  -0.00027  -2.10439
    D7       -0.00022   0.00032   0.00000   0.00529   0.00529   0.00507
    D8       -1.03789  -0.00003   0.00000  -0.00316  -0.00316  -1.04105
    D9        1.03750  -0.00049   0.00000  -0.00806  -0.00807   1.02943
   D10        3.14140   0.00003   0.00000  -0.00252  -0.00251   3.13889
   D11        0.00113   0.00966   0.00000   0.06006   0.06948   0.07061
   D12       -2.10274  -0.01656   0.00000  -0.30813  -0.31755  -2.42029
   D13       -3.14053   0.00960   0.00000   0.05864   0.06806  -3.07248
   D14        1.03879  -0.01662   0.00000  -0.30956  -0.31898   0.71981
         Item               Value     Threshold  Converged?
 Maximum Force            0.031163     0.000450     NO 
 RMS     Force            0.008016     0.000300     NO 
 Maximum Displacement     0.254193     0.001800     NO 
 RMS     Displacement     0.077632     0.001200     NO 
 Predicted change in Energy=-1.410874D-02
 GradGradGradGradGradGradGradGradGradGradGradGradGradGradGradGradGradGrad

                          Input orientation:                          
 ---------------------------------------------------------------------
 Center     Atomic      Atomic             Coordinates (Angstroms)
 Number     Number       Type             X           Y           Z
 ---------------------------------------------------------------------
      1          6           0       -0.554536   -0.408406    0.004331
      2          6           0        0.529645    0.379940    0.044008
      3          6           0        1.894568   -0.111719    0.089148
      4          6           0       -1.966526    0.081175   -0.009966
      5          1           0       -0.414473   -1.484886   -0.012034
      6          1           0        0.395006    1.457464    0.044335
      7          1           0        2.033235   -1.189556    0.021889
      8          1           0        2.609567    0.381650    0.745035
      9          1           0       -2.485586   -0.264609   -0.905605
     10          1           0       -2.526089   -0.299381    0.846367
     11          1           0       -2.007566    1.168814    0.010932
 ---------------------------------------------------------------------
                    Distance matrix (angstroms):
                    1          2          3          4          5
     1  C    0.000000
     2  C    1.341086   0.000000
     3  C    2.468467   1.451475   0.000000
     4  C    1.494526   2.514566   3.867179   0.000000
     5  H    1.085677   2.090950   2.688400   2.204862   0.000000
     6  H    2.093968   1.085903   2.170951   2.733853   3.052188
     7  H    2.703158   2.173612   1.088800   4.196886   2.465693
     8  H    3.344305   2.194884   1.088496   4.647680   3.633445
     9  H    2.139536   3.226271   4.494292   1.091402   2.564576
    10  H    2.146609   3.231527   4.488964   1.091439   2.569279
    11  H    2.144519   2.657227   4.107619   1.088614   3.095253
                    6          7          8          9         10
     6  H    0.000000
     7  H    3.113039   0.000000
     8  H    2.559812   1.823126   0.000000
     9  H    3.487941   4.704839   5.394705   0.000000
    10  H    3.501793   4.718008   5.181604   1.752785   0.000000
    11  H    2.420080   4.678686   4.740933   1.767270   1.767035
                   11
    11  H    0.000000
 Stoichiometry    C4H7(2)
 Framework group  C1[X(C4H7)]
 Deg. of freedom    27
 Full point group                 C1      NOp   1
 Largest Abelian subgroup         C1      NOp   1
 Largest concise Abelian subgroup C1      NOp   1
                         Standard orientation:                         
 ---------------------------------------------------------------------
 Center     Atomic      Atomic             Coordinates (Angstroms)
 Number     Number       Type             X           Y           Z
 ---------------------------------------------------------------------
      1          6           0       -0.455021   -0.396128    0.000118
      2          6           0        0.619535    0.404163   -0.057999
      3          6           0        1.991312   -0.070119   -0.049918
      4          6           0       -1.872323    0.077406    0.025169
      5          1           0       -0.301973   -1.470242    0.039495
      6          1           0        0.471134    1.478435   -0.113689
      7          1           0        2.140576   -1.148581   -0.061145
      8          1           0        2.730071    0.468029    0.541229
      9          1           0       -2.428620   -0.325459   -0.823000
     10          1           0       -2.385814   -0.258044    0.927965
     11          1           0       -1.926396    1.163931   -0.015081
 ---------------------------------------------------------------------
 Rotational constants (GHZ):          37.8090574           3.9951146           3.7157191
 Standard basis: CC-pVTZ (5D, 7F)
 There are   245 symmetry adapted cartesian basis functions of A   symmetry.
 There are   218 symmetry adapted basis functions of A   symmetry.
   218 basis functions,   327 primitive gaussians,   245 cartesian basis functions
    16 alpha electrons       15 beta electrons
       nuclear repulsion energy       109.1110921022 Hartrees.
 NAtoms=   11 NActive=   11 NUniq=   11 SFac= 1.00D+00 NAtFMM=   60 NAOKFM=F Big=F
 Integral buffers will be    131072 words long.
 Raffenetti 2 integral format.
 Two-electron integral symmetry is turned on.
 Nuclear repulsion after empirical dispersion term =      109.1059538036 Hartrees.
 One-electron integrals computed using PRISM.
 NBasis=   218 RedAO= T EigKep=  3.20D-04  NBF=   218
 NBsUse=   218 1.00D-06 EigRej= -1.00D+00 NBFU=   218
 Initial guess from the checkpoint file:  "/localscratch/339542/Gau-41063.chk"
 B after Tr=     0.000000    0.000000   -0.000000
         Rot=    0.999971    0.007352   -0.001121    0.001667 Ang=   0.87 deg.
 Initial guess <Sx>= 0.0000 <Sy>= 0.0000 <Sz>= 0.5000 <S**2>= 0.7973 S= 0.5234
 ExpMin= 1.03D-01 ExpMax= 8.24D+03 ExpMxC= 2.81D+02 IAcc=3 IRadAn=         5 AccDes= 0.00D+00
 Harris functional with IExCor=  419 and IRadAn=       5 diagonalized for initial guess.
 HarFok:  IExCor=  419 AccDes= 0.00D+00 IRadAn=         5 IDoV= 1 UseB2=F ITyADJ=14
 ICtDFT=  3500011 ScaDFX=  1.000000  1.000000  1.000000  1.000000
 FoFCou: FMM=F IPFlag=           0 FMFlag=      100000 FMFlg1=           0
         NFxFlg=           0 DoJE=T BraDBF=F KetDBF=T FulRan=T
         wScrn=  0.000000 ICntrl=       500 IOpCl=  0 I1Cent=   200000004 NGrid=           0
         NMat0=    1 NMatS0=      1 NMatT0=    0 NMatD0=    1 NMtDS0=    0 NMtDT0=    0
 Petite list used in FoFCou.
 Keep R1 and R2 ints in memory in canonical form, NReq=612885869.
 Requested convergence on RMS density matrix=1.00D-08 within 128 cycles.
 Requested convergence on MAX density matrix=1.00D-06.
 Requested convergence on             energy=1.00D-06.
 No special actions if energy rises.
 Integral accuracy reduced to 1.0D-05 until final iterations.
 Initial convergence to 1.0D-05 achieved.  Increase integral accuracy.
 SCF Done:  E(UB2PLYPD3) =  -156.261562155     A.U. after   17 cycles
            NFock= 17  Conv=0.50D-08     -V/T= 2.0048
 <Sx>= 0.0000 <Sy>= 0.0000 <Sz>= 0.5000 <S**2>= 0.8174 S= 0.5331
 <L.S>=  0.00000000000    
 Annihilation of the first spin contaminant:
 S**2 before annihilation     0.8174,   after     0.7508
 DoSCS=T DFT=T ScalE2(SS,OS)=  0.270000  0.270000
 ExpMin= 1.03D-01 ExpMax= 8.24D+03 ExpMxC= 2.81D+02 IAcc=3 IRadAn=         5 AccDes= 0.00D+00
 HarFok:  IExCor=  205 AccDes= 0.00D+00 IRadAn=         5 IDoV=-2 UseB2=F ITyADJ=14
 ICtDFT= 12500011 ScaDFX=  1.000000  1.000000  1.000000  1.000000
 Range of M.O.s used for correlation:     5   218
 NBasis=   218 NAE=    16 NBE=    15 NFC=     4 NFV=     0
 NROrb=    214 NOA=    12 NOB=    11 NVA=   202 NVB=   203

 **** Warning!!: The largest alpha MO coefficient is  0.15357260D+02


 **** Warning!!: The largest beta MO coefficient is  0.15136600D+02

 DoSCS=T DFT=T ScalE2(SS,OS)=  0.270000  0.270000
 Fully direct method using O(ONN) memory.
 JobTyp=2 Pass  1:  I=   5 to  16 NPSUse= 40 ParTrn=T ParDer=T DoDerP=T.
 JobTyp=3 Pass  1:  I=   5 to  15 NPSUse= 40 ParTrn=T ParDer=T DoDerP=T.
 Spin components of T(2) and E(2):
     alpha-alpha T2 =       0.4197197456D-01 E2=     -0.2628120391D-01
     alpha-beta  T2 =       0.2393474264D+00 E2=     -0.1621276680D+00
     beta-beta   T2 =       0.3598178182D-01 E2=     -0.2194008330D-01
 (S**2,0)=  0.81739D+00           (S**2,1)=  0.76265D+00
 Scaling Projection term by:   0.270000
 E(PUHF)=      -0.15627019061D+03        E(PMP2)=      -0.15647330105D+03
 E2(B2PLYPD3) =    -0.2103489553D+00 E(B2PLYPD3) =    -0.15647191111040D+03
          IDoAtm=11111111111
          Differentiating once with respect to electric field.
                with respect to dipole field.
          Differentiating once with respect to nuclear coordinates.
 Keep R1 and R2 ints in memory in canonical form, NReq=612894013.
          There are     1 degrees of freedom in the 1st order CPHF.  IDoFFX=0 NUNeed=     1.
 LinEq1:  Iter=  0 NonCon=     1 RMS=9.42D-04 Max=3.70D-02 NDo=     1
 AX will form     1 AO Fock derivatives at one time.
 LinEq1:  Iter=  1 NonCon=     1 RMS=3.21D-04 Max=8.29D-03 NDo=     1
 LinEq1:  Iter=  2 NonCon=     1 RMS=1.89D-04 Max=4.96D-03 NDo=     1
 LinEq1:  Iter=  3 NonCon=     1 RMS=5.47D-05 Max=2.64D-03 NDo=     1
 LinEq1:  Iter=  4 NonCon=     1 RMS=3.69D-05 Max=2.04D-03 NDo=     1
 LinEq1:  Iter=  5 NonCon=     1 RMS=1.18D-05 Max=2.39D-04 NDo=     1
 LinEq1:  Iter=  6 NonCon=     1 RMS=5.03D-06 Max=1.22D-04 NDo=     1
 LinEq1:  Iter=  7 NonCon=     1 RMS=2.24D-06 Max=4.33D-05 NDo=     1
 LinEq1:  Iter=  8 NonCon=     1 RMS=7.77D-07 Max=1.05D-05 NDo=     1
 LinEq1:  Iter=  9 NonCon=     1 RMS=2.51D-07 Max=3.43D-06 NDo=     1
 LinEq1:  Iter= 10 NonCon=     1 RMS=1.11D-07 Max=2.16D-06 NDo=     1
 LinEq1:  Iter= 11 NonCon=     1 RMS=3.41D-08 Max=5.62D-07 NDo=     1
 LinEq1:  Iter= 12 NonCon=     1 RMS=8.11D-09 Max=9.45D-08 NDo=     1
 LinEq1:  Iter= 13 NonCon=     1 RMS=1.93D-09 Max=3.54D-08 NDo=     1
 LinEq1:  Iter= 14 NonCon=     1 RMS=5.83D-10 Max=8.28D-09 NDo=     1
 LinEq1:  Iter= 15 NonCon=     1 RMS=1.39D-10 Max=1.42D-09 NDo=     1
 LinEq1:  Iter= 16 NonCon=     0 RMS=3.87D-11 Max=4.86D-10 NDo=     1
 Linear equations converged to 1.000D-10 1.000D-09 after    16 iterations.
 End of Minotr F.D. properties file   721 does not exist.
 End of Minotr F.D. properties file   722 does not exist.
 End of Minotr F.D. properties file   788 does not exist.
 Calling FoFJK, ICntrl=  10002127 FMM=F ISym2X=0 I1Cent= 0 IOpClX= 1 NMat=1 NMatS=1 NMatT=0.
 ***** Axes restored to original set *****
 -------------------------------------------------------------------
 Center     Atomic                   Forces (Hartrees/Bohr)
 Number     Number              X              Y              Z
 -------------------------------------------------------------------
      1        6          -0.011349258   -0.007114975   -0.003975252
      2        6           0.034127598    0.001541929   -0.002364640
      3        6          -0.024137824   -0.003418765    0.018710169
      4        6           0.001934078    0.000290393   -0.000763189
      5        1           0.000467903    0.000657053    0.000317288
      6        1          -0.000769791   -0.000580672    0.004055976
      7        1           0.000066996    0.003704582   -0.003469660
      8        1           0.000745432    0.005167863   -0.012336558
      9        1          -0.000844721    0.000034720   -0.000085872
     10        1          -0.000008816   -0.000170286   -0.000064636
     11        1          -0.000231597   -0.000111842   -0.000023625
 -------------------------------------------------------------------
 Cartesian Forces:  Max     0.034127598 RMS     0.008774736

 GradGradGradGradGradGradGradGradGradGradGradGradGradGradGradGradGradGrad
 Berny optimization.
 Using GEDIIS/GDIIS optimizer.
 FormGI is forming the generalized inverse of G from B-inverse, IUseBI=4.
 Internal  Forces:  Max     0.023691525 RMS     0.005103704
 Search for a local minimum.
 Step number   2 out of a maximum of  100
 All quantities printed in internal units (Hartrees-Bohrs-Radians)
 Mixed Optimization -- RFO/linear search
 Update second derivatives using D2CorX and points    1    2
 DE= -1.48D-02 DEPred=-1.41D-02 R= 1.05D+00
 TightC=F SS=  1.41D+00  RLast= 5.11D-01 DXNew= 5.0454D-01 1.5344D+00
 Trust test= 1.05D+00 RLast= 5.11D-01 DXMaxT set to 5.05D-01
 ITU=  1  0
 Use linear search instead of GDIIS.
     Eigenvalues ---    0.00665   0.00775   0.01695   0.01913   0.02927
     Eigenvalues ---    0.03876   0.07168   0.07290   0.15874   0.16000
     Eigenvalues ---    0.16000   0.16000   0.16000   0.16000   0.17086
     Eigenvalues ---    0.21983   0.22015   0.25148   0.32481   0.34382
     Eigenvalues ---    0.34409   0.34473   0.34646   0.34736   0.34892
     Eigenvalues ---    0.34979   0.58483
 RFO step:  Lambda=-1.63606407D-02 EMin= 6.65124582D-03
 Quartic linear search produced a step of  2.00000.
 Iteration  1 RMS(Cart)=  0.08290501 RMS(Int)=  0.17570869
 Iteration  2 RMS(Cart)=  0.05785155 RMS(Int)=  0.12226453
 Iteration  3 RMS(Cart)=  0.05083311 RMS(Int)=  0.07585124
 Iteration  4 RMS(Cart)=  0.04743834 RMS(Int)=  0.04558699
 Iteration  5 RMS(Cart)=  0.01478944 RMS(Int)=  0.04338003
 Iteration  6 RMS(Cart)=  0.00096973 RMS(Int)=  0.04336653
 Iteration  7 RMS(Cart)=  0.00012719 RMS(Int)=  0.04336631
 Iteration  8 RMS(Cart)=  0.00001721 RMS(Int)=  0.04336631
 Iteration  9 RMS(Cart)=  0.00000234 RMS(Int)=  0.04336631
 Iteration 10 RMS(Cart)=  0.00000032 RMS(Int)=  0.04336631
 Variable       Old X    -DE/DX   Delta X   Delta X   Delta X     New X
                                 (Linear)    (Quad)   (Total)
    R1        2.53429   0.01202   0.04441   0.02028   0.06468   2.59897
    R2        2.82424  -0.00078  -0.01813   0.00727  -0.01087   2.81338
    R3        2.05163  -0.00060  -0.01374   0.00581  -0.00793   2.04370
    R4        2.74289  -0.02369  -0.18084  -0.05624  -0.23709   2.50581
    R5        2.05206  -0.00048  -0.01288   0.00605  -0.00684   2.04522
    R6        2.05753  -0.00344  -0.00961  -0.01894  -0.02856   2.02898
    R7        2.05696  -0.00460  -0.01901  -0.02093  -0.03994   2.01702
    R8        2.06245   0.00046  -0.00800   0.00953   0.00152   2.06397
    R9        2.06252   0.00001  -0.00786   0.00599  -0.00187   2.06065
   R10        2.05718  -0.00010  -0.01032   0.00695  -0.00337   2.05381
    A1        2.17914  -0.00014  -0.00170  -0.00042  -0.00213   2.17701
    A2        2.07032  -0.00050   0.00210  -0.00959  -0.00750   2.06282
    A3        2.03370   0.00064  -0.00046   0.01012   0.00964   2.04334
    A4        2.16763   0.00063  -0.02470   0.02552   0.00050   2.16813
    A5        2.07496  -0.00102   0.01138  -0.02314  -0.01207   2.06290
    A6        2.04059   0.00040   0.01332  -0.00231   0.01068   2.05127
    A7        2.04111   0.00237   0.20344  -0.02811   0.01940   2.06050
    A8        2.07477   0.00361   0.27320  -0.05894   0.05840   2.13317
    A9        1.98478   0.00217   0.19124   0.06583   0.10038   2.08516
   A10        1.93199   0.00097  -0.01237   0.02466   0.01226   1.94425
   A11        1.94190  -0.00036   0.00746  -0.01253  -0.00508   1.93682
   A12        1.94198   0.00024   0.00520   0.00099   0.00614   1.94813
   A13        1.86457  -0.00045  -0.00526  -0.00498  -0.01022   1.85435
   A14        1.89059  -0.00042   0.00281  -0.00582  -0.00308   1.88750
   A15        1.89017  -0.00004   0.00197  -0.00293  -0.00098   1.88919
    D1        3.11514   0.00080  -0.05276   0.08457   0.03166  -3.13639
    D2       -0.02494   0.00016  -0.04986   0.03350  -0.01622  -0.04116
    D3       -0.01853   0.00068  -0.03685   0.06665   0.02966   0.01113
    D4        3.12458   0.00004  -0.03395   0.01558  -0.01822   3.10636
    D5        2.10832   0.00010   0.00928  -0.00479   0.00452   2.11283
    D6       -2.10439  -0.00006  -0.00054  -0.00306  -0.00362  -2.10801
    D7        0.00507  -0.00019   0.01058  -0.01472  -0.00416   0.00091
    D8       -1.04105   0.00021  -0.00632   0.01271   0.00642  -1.03463
    D9        1.02943   0.00005  -0.01614   0.01444  -0.00172   1.02771
   D10        3.13889  -0.00008  -0.00502   0.00278  -0.00225   3.13664
   D11        0.07061   0.00253   0.13896  -0.38111  -0.24905  -0.17845
   D12       -2.42029  -0.01105  -0.63511  -0.37205  -1.00054   2.86235
   D13       -3.07248   0.00316   0.13611  -0.33098  -0.20149   3.00922
   D14        0.71981  -0.01043  -0.63795  -0.32192  -0.95297  -0.23316
         Item               Value     Threshold  Converged?
 Maximum Force            0.023692     0.000450     NO 
 RMS     Force            0.005104     0.000300     NO 
 Maximum Displacement     1.139859     0.001800     NO 
 RMS     Displacement     0.241548     0.001200     NO 
 Predicted change in Energy=-1.137409D-02
 GradGradGradGradGradGradGradGradGradGradGradGradGradGradGradGradGradGrad

                          Input orientation:                          
 ---------------------------------------------------------------------
 Center     Atomic      Atomic             Coordinates (Angstroms)
 Number     Number       Type             X           Y           Z
 ---------------------------------------------------------------------
      1          6           0       -0.552863   -0.436515    0.019562
      2          6           0        0.564516    0.344630    0.200582
      3          6           0        1.803233   -0.125857    0.250963
      4          6           0       -1.947622    0.080133   -0.045067
      5          1           0       -0.418726   -1.505135   -0.078717
      6          1           0        0.433690    1.417007    0.265633
      7          1           0        1.937418   -1.189356    0.312376
      8          1           0        2.656759    0.505685    0.141847
      9          1           0       -2.424271   -0.177052   -0.993530
     10          1           0       -2.564818   -0.363630    0.736743
     11          1           0       -1.980073    1.160574    0.068050
 ---------------------------------------------------------------------
                    Distance matrix (angstroms):
                    1          2          3          4          5
     1  C    0.000000
     2  C    1.375315   0.000000
     3  C    2.387728   1.326015   0.000000
     4  C    1.488776   2.537940   3.768153   0.000000
     5  H    1.081480   2.113387   2.635943   2.202664   0.000000
     6  H    2.114092   1.082284   2.063078   2.748530   3.063348
     7  H    2.618016   2.061667   1.073688   4.102792   2.409166
     8  H    3.347293   2.099255   1.067361   4.627781   3.681121
     9  H    2.143792   3.260506   4.407173   1.092208   2.573499
    10  H    2.137200   3.252973   4.401407   1.090451   2.563927
    11  H    2.142422   2.675492   4.000220   1.086831   3.092790
                    6          7          8          9         10
     6  H    0.000000
     7  H    3.009403   0.000000
     8  H    2.405799   1.849242   0.000000
     9  H    3.506345   4.664170   5.250912   0.000000
    10  H    3.519043   4.596960   5.326770   1.745969   0.000000
    11  H    2.435374   4.574778   4.683432   1.764513   1.764164
                   11
    11  H    0.000000
 Stoichiometry    C4H7(2)
 Framework group  C1[X(C4H7)]
 Deg. of freedom    27
 Full point group                 C1      NOp   1
 Largest Abelian subgroup         C1      NOp   1
 Largest concise Abelian subgroup C1      NOp   1
                         Standard orientation:                         
 ---------------------------------------------------------------------
 Center     Atomic      Atomic             Coordinates (Angstroms)
 Number     Number       Type             X           Y           Z
 ---------------------------------------------------------------------
      1          6           0       -0.453230   -0.409550   -0.017480
      2          6           0        0.670082    0.382656    0.028040
      3          6           0        1.911807   -0.082132    0.007839
      4          6           0       -1.851918    0.100234   -0.001823
      5          1           0       -0.320638   -1.481913   -0.062818
      6          1           0        0.538145    1.456804    0.039828
      7          1           0        2.057026   -1.139907    0.121105
      8          1           0        2.750112    0.543118   -0.205628
      9          1           0       -2.400376   -0.213502   -0.892712
     10          1           0       -2.402675   -0.297290    0.851244
     11          1           0       -1.882043    1.185434    0.049529
 ---------------------------------------------------------------------
 Rotational constants (GHZ):          38.6069761           4.1454787           3.8350418
 Standard basis: CC-pVTZ (5D, 7F)
 There are   245 symmetry adapted cartesian basis functions of A   symmetry.
 There are   218 symmetry adapted basis functions of A   symmetry.
   218 basis functions,   327 primitive gaussians,   245 cartesian basis functions
    16 alpha electrons       15 beta electrons
       nuclear repulsion energy       110.8151264957 Hartrees.
 NAtoms=   11 NActive=   11 NUniq=   11 SFac= 1.00D+00 NAtFMM=   60 NAOKFM=F Big=F
 Integral buffers will be    131072 words long.
 Raffenetti 2 integral format.
 Two-electron integral symmetry is turned on.
 Nuclear repulsion after empirical dispersion term =      110.8099530829 Hartrees.
 One-electron integrals computed using PRISM.
 NBasis=   218 RedAO= T EigKep=  3.01D-04  NBF=   218
 NBsUse=   218 1.00D-06 EigRej= -1.00D+00 NBFU=   218
 Initial guess from the checkpoint file:  "/localscratch/339542/Gau-41063.chk"
 B after Tr=    -0.000000   -0.000000   -0.000000
         Rot=    0.999933   -0.010282    0.000437    0.005258 Ang=  -1.32 deg.
 Initial guess <Sx>= 0.0000 <Sy>= 0.0000 <Sz>= 0.5000 <S**2>= 0.8126 S= 0.5308
 ExpMin= 1.03D-01 ExpMax= 8.24D+03 ExpMxC= 2.81D+02 IAcc=3 IRadAn=         5 AccDes= 0.00D+00
 Harris functional with IExCor=  419 and IRadAn=       5 diagonalized for initial guess.
 HarFok:  IExCor=  419 AccDes= 0.00D+00 IRadAn=         5 IDoV= 1 UseB2=F ITyADJ=14
 ICtDFT=  3500011 ScaDFX=  1.000000  1.000000  1.000000  1.000000
 FoFCou: FMM=F IPFlag=           0 FMFlag=      100000 FMFlg1=           0
         NFxFlg=           0 DoJE=T BraDBF=F KetDBF=T FulRan=T
         wScrn=  0.000000 ICntrl=       500 IOpCl=  0 I1Cent=   200000004 NGrid=           0
         NMat0=    1 NMatS0=      1 NMatT0=    0 NMatD0=    1 NMtDS0=    0 NMtDT0=    0
 Petite list used in FoFCou.
 Keep R1 and R2 ints in memory in canonical form, NReq=612885869.
 Requested convergence on RMS density matrix=1.00D-08 within 128 cycles.
 Requested convergence on MAX density matrix=1.00D-06.
 Requested convergence on             energy=1.00D-06.
 No special actions if energy rises.
 Integral accuracy reduced to 1.0D-05 until final iterations.
 Initial convergence to 1.0D-05 achieved.  Increase integral accuracy.
 SCF Done:  E(UB2PLYPD3) =  -156.268672911     A.U. after   17 cycles
            NFock= 17  Conv=0.64D-08     -V/T= 2.0030
 <Sx>= 0.0000 <Sy>= 0.0000 <Sz>= 0.5000 <S**2>= 0.8151 S= 0.5320
 <L.S>=  0.00000000000    
 Annihilation of the first spin contaminant:
 S**2 before annihilation     0.8151,   after     0.7508
 DoSCS=T DFT=T ScalE2(SS,OS)=  0.270000  0.270000
 ExpMin= 1.03D-01 ExpMax= 8.24D+03 ExpMxC= 2.81D+02 IAcc=3 IRadAn=         5 AccDes= 0.00D+00
 HarFok:  IExCor=  205 AccDes= 0.00D+00 IRadAn=         5 IDoV=-2 UseB2=F ITyADJ=14
 ICtDFT= 12500011 ScaDFX=  1.000000  1.000000  1.000000  1.000000
 Range of M.O.s used for correlation:     5   218
 NBasis=   218 NAE=    16 NBE=    15 NFC=     4 NFV=     0
 NROrb=    214 NOA=    12 NOB=    11 NVA=   202 NVB=   203

 **** Warning!!: The largest alpha MO coefficient is  0.19234298D+02


 **** Warning!!: The largest beta MO coefficient is  0.19826397D+02

 DoSCS=T DFT=T ScalE2(SS,OS)=  0.270000  0.270000
 Fully direct method using O(ONN) memory.
 JobTyp=2 Pass  1:  I=   5 to  16 NPSUse= 40 ParTrn=T ParDer=T DoDerP=T.
 JobTyp=3 Pass  1:  I=   5 to  15 NPSUse= 40 ParTrn=T ParDer=T DoDerP=T.
 Spin components of T(2) and E(2):
     alpha-alpha T2 =       0.4136966392D-01 E2=     -0.2636243498D-01
     alpha-beta  T2 =       0.2334659510D+00 E2=     -0.1614407673D+00
     beta-beta   T2 =       0.3526403537D-01 E2=     -0.2190709257D-01
 (S**2,0)=  0.81511D+00           (S**2,1)=  0.75668D+00
 Scaling Projection term by:   0.270000
 E(PUHF)=      -0.15627804585D+03        E(PMP2)=      -0.15647978646D+03
 E2(B2PLYPD3) =    -0.2097102949D+00 E(B2PLYPD3) =    -0.15647838320637D+03
          IDoAtm=11111111111
          Differentiating once with respect to electric field.
                with respect to dipole field.
          Differentiating once with respect to nuclear coordinates.
 Keep R1 and R2 ints in memory in canonical form, NReq=612894013.
          There are     1 degrees of freedom in the 1st order CPHF.  IDoFFX=0 NUNeed=     1.
 LinEq1:  Iter=  0 NonCon=     1 RMS=9.13D-04 Max=3.37D-02 NDo=     1
 AX will form     1 AO Fock derivatives at one time.
 LinEq1:  Iter=  1 NonCon=     1 RMS=3.01D-04 Max=8.36D-03 NDo=     1
 LinEq1:  Iter=  2 NonCon=     1 RMS=1.59D-04 Max=3.15D-03 NDo=     1
 LinEq1:  Iter=  3 NonCon=     1 RMS=3.84D-05 Max=1.67D-03 NDo=     1
 LinEq1:  Iter=  4 NonCon=     1 RMS=2.15D-05 Max=7.07D-04 NDo=     1
 LinEq1:  Iter=  5 NonCon=     1 RMS=8.03D-06 Max=3.33D-04 NDo=     1
 LinEq1:  Iter=  6 NonCon=     1 RMS=3.48D-06 Max=1.04D-04 NDo=     1
 LinEq1:  Iter=  7 NonCon=     1 RMS=1.60D-06 Max=3.74D-05 NDo=     1
 LinEq1:  Iter=  8 NonCon=     1 RMS=5.66D-07 Max=9.19D-06 NDo=     1
 LinEq1:  Iter=  9 NonCon=     1 RMS=1.92D-07 Max=3.07D-06 NDo=     1
 LinEq1:  Iter= 10 NonCon=     1 RMS=8.82D-08 Max=2.31D-06 NDo=     1
 LinEq1:  Iter= 11 NonCon=     1 RMS=2.44D-08 Max=3.75D-07 NDo=     1
 LinEq1:  Iter= 12 NonCon=     1 RMS=6.61D-09 Max=1.11D-07 NDo=     1
 LinEq1:  Iter= 13 NonCon=     1 RMS=1.52D-09 Max=2.27D-08 NDo=     1
 LinEq1:  Iter= 14 NonCon=     1 RMS=4.87D-10 Max=7.56D-09 NDo=     1
 LinEq1:  Iter= 15 NonCon=     1 RMS=1.29D-10 Max=1.60D-09 NDo=     1
 LinEq1:  Iter= 16 NonCon=     0 RMS=3.77D-11 Max=4.37D-10 NDo=     1
 Linear equations converged to 1.000D-10 1.000D-09 after    16 iterations.
 End of Minotr F.D. properties file   721 does not exist.
 End of Minotr F.D. properties file   722 does not exist.
 End of Minotr F.D. properties file   788 does not exist.
 Calling FoFJK, ICntrl=  10002127 FMM=F ISym2X=0 I1Cent= 0 IOpClX= 1 NMat=1 NMatS=1 NMatT=0.
 ***** Axes restored to original set *****
 -------------------------------------------------------------------
 Center     Atomic                   Forces (Hartrees/Bohr)
 Number     Number              X              Y              Z
 -------------------------------------------------------------------
      1        6          -0.012830665   -0.002969424    0.003150633
      2        6          -0.035148022    0.023609670   -0.003088556
      3        6           0.037034486   -0.020230230    0.000243410
      4        6           0.000944871   -0.000853378   -0.000745351
      5        1           0.000770740   -0.001657904    0.000102959
      6        1          -0.003372490    0.002798312   -0.003060038
      7        1           0.006752046   -0.005260935   -0.003098115
      8        1           0.007597473    0.003544841    0.005547146
      9        1          -0.000261535    0.000070721   -0.000436610
     10        1          -0.001451196   -0.000124056    0.001223601
     11        1          -0.000035707    0.001072381    0.000160920
 -------------------------------------------------------------------
 Cartesian Forces:  Max     0.037034486 RMS     0.010995406

 GradGradGradGradGradGradGradGradGradGradGradGradGradGradGradGradGradGrad
 Berny optimization.
 Using GEDIIS/GDIIS optimizer.
 FormGI is forming the generalized inverse of G from B-inverse, IUseBI=4.
 Internal  Forces:  Max     0.055890310 RMS     0.009607118
 Search for a local minimum.
 Step number   3 out of a maximum of  100
 All quantities printed in internal units (Hartrees-Bohrs-Radians)
 Mixed Optimization -- RFO/linear search
 Update second derivatives using D2CorX and points    2    3
 DE= -6.47D-03 DEPred=-1.14D-02 R= 5.69D-01
 TightC=F SS=  1.41D+00  RLast= 1.45D+00 DXNew= 8.4853D-01 4.3392D+00
 Trust test= 5.69D-01 RLast= 1.45D+00 DXMaxT set to 8.49D-01
 ITU=  1  1  0
 Use linear search instead of GDIIS.
     Eigenvalues ---    0.00775   0.01093   0.01606   0.01703   0.01941
     Eigenvalues ---    0.03133   0.07097   0.07258   0.15848   0.15997
     Eigenvalues ---    0.15999   0.16000   0.16000   0.16075   0.17084
     Eigenvalues ---    0.21997   0.22199   0.29343   0.32602   0.34380
     Eigenvalues ---    0.34411   0.34469   0.34646   0.34753   0.34898
     Eigenvalues ---    0.35010   0.58288
 RFO step:  Lambda=-5.21594039D-03 EMin= 7.74882744D-03
 Quartic linear search produced a step of -0.33460.
 Iteration  1 RMS(Cart)=  0.07269064 RMS(Int)=  0.00795432
 Iteration  2 RMS(Cart)=  0.00288540 RMS(Int)=  0.00748411
 Iteration  3 RMS(Cart)=  0.00000995 RMS(Int)=  0.00748411
 Iteration  4 RMS(Cart)=  0.00000013 RMS(Int)=  0.00748411
 Variable       Old X    -DE/DX   Delta X   Delta X   Delta X     New X
                                 (Linear)    (Quad)   (Total)
    R1        2.59897   0.01253  -0.02164   0.01791  -0.00373   2.59524
    R2        2.81338   0.00080   0.00364   0.00372   0.00736   2.82073
    R3        2.04370   0.00172   0.00265   0.00485   0.00750   2.05120
    R4        2.50581   0.05589   0.07933   0.09629   0.17562   2.68143
    R5        2.04522   0.00300   0.00229   0.00721   0.00950   2.05472
    R6        2.02898   0.00588   0.00956   0.00585   0.01541   2.04438
    R7        2.01702   0.00761   0.01336   0.00870   0.02206   2.03908
    R8        2.06397   0.00048  -0.00051   0.00350   0.00299   2.06697
    R9        2.06065   0.00175   0.00062   0.00491   0.00553   2.06619
   R10        2.05381   0.00108   0.00113   0.00396   0.00508   2.05890
    A1        2.17701  -0.00019   0.00071  -0.00065   0.00006   2.17706
    A2        2.06282  -0.00050   0.00251  -0.00477  -0.00226   2.06056
    A3        2.04334   0.00069  -0.00323   0.00545   0.00222   2.04556
    A4        2.16813   0.00443  -0.00017   0.01990   0.01972   2.18785
    A5        2.06290  -0.00546   0.00404  -0.02538  -0.02135   2.04155
    A6        2.05127   0.00109  -0.00357   0.00596   0.00238   2.05365
    A7        2.06050   0.00662  -0.00649   0.01459   0.03495   2.09545
    A8        2.13317  -0.00079  -0.01954  -0.02324  -0.01594   2.11723
    A9        2.08516  -0.00558  -0.03359  -0.01573  -0.02223   2.06293
   A10        1.94425   0.00007  -0.00410   0.00752   0.00342   1.94767
   A11        1.93682   0.00102   0.00170   0.00072   0.00240   1.93923
   A12        1.94813  -0.00031  -0.00206  -0.00149  -0.00353   1.94460
   A13        1.85435  -0.00024   0.00342  -0.00131   0.00209   1.85644
   A14        1.88750  -0.00010   0.00103  -0.00266  -0.00160   1.88591
   A15        1.88919  -0.00047   0.00033  -0.00311  -0.00278   1.88641
    D1       -3.13639  -0.00061  -0.01059   0.01711   0.00666  -3.12973
    D2       -0.04116   0.00087   0.00543   0.02985   0.03513  -0.00602
    D3        0.01113  -0.00055  -0.00992   0.01166   0.00188   0.01300
    D4        3.10636   0.00093   0.00610   0.02440   0.03035   3.13671
    D5        2.11283  -0.00017  -0.00151  -0.00130  -0.00283   2.11000
    D6       -2.10801   0.00024   0.00121   0.00237   0.00359  -2.10442
    D7        0.00091   0.00013   0.00139  -0.00211  -0.00071   0.00021
    D8       -1.03463  -0.00023  -0.00215   0.00407   0.00190  -1.03273
    D9        1.02771   0.00017   0.00057   0.00774   0.00832   1.03604
   D10        3.13664   0.00007   0.00075   0.00326   0.00403   3.14066
   D11       -0.17845   0.00356   0.08333   0.06488   0.14987  -0.02858
   D12        2.86235   0.00613   0.33478  -0.21711   0.11629   2.97864
   D13        3.00922   0.00225   0.06742   0.05299   0.12179   3.13101
   D14       -0.23316   0.00482   0.31886  -0.22899   0.08821  -0.14496
         Item               Value     Threshold  Converged?
 Maximum Force            0.055890     0.000450     NO 
 RMS     Force            0.009607     0.000300     NO 
 Maximum Displacement     0.237682     0.001800     NO 
 RMS     Displacement     0.073092     0.001200     NO 
 Predicted change in Energy=-6.641100D-03
 GradGradGradGradGradGradGradGradGradGradGradGradGradGradGradGradGradGrad

                          Input orientation:                          
 ---------------------------------------------------------------------
 Center     Atomic      Atomic             Coordinates (Angstroms)
 Number     Number       Type             X           Y           Z
 ---------------------------------------------------------------------
      1          6           0       -0.582736   -0.438865    0.033129
      2          6           0        0.538966    0.337674    0.190727
      3          6           0        1.870772   -0.147447    0.256832
      4          6           0       -1.977028    0.087674   -0.049121
      5          1           0       -0.453585   -1.514360   -0.036366
      6          1           0        0.389595    1.412836    0.253650
      7          1           0        2.063194   -1.210912    0.207892
      8          1           0        2.714323    0.524970    0.232354
      9          1           0       -2.457748   -0.191324   -0.991168
     10          1           0       -2.601044   -0.323767    0.748875
     11          1           0       -1.997466    1.174006    0.031636
 ---------------------------------------------------------------------
                    Distance matrix (angstroms):
                    1          2          3          4          5
     1  C    0.000000
     2  C    1.373341   0.000000
     3  C    2.480860   1.418950   0.000000
     4  C    1.492668   2.539735   3.867099   0.000000
     5  H    1.085449   2.113471   2.712389   2.210781   0.000000
     6  H    2.103057   1.087310   2.151367   2.729218   3.059989
     7  H    2.761801   2.172944   1.081841   4.251562   2.546747
     8  H    3.440823   2.183801   1.079037   4.720088   3.777130
     9  H    2.150844   3.264507   4.505054   1.093793   2.584325
    10  H    2.144554   3.257100   4.502259   1.093379   2.577925
    11  H    2.145417   2.675490   4.093924   1.089521   3.100887
                    6          7          8          9         10
     6  H    0.000000
     7  H    3.112407   0.000000
     8  H    2.488598   1.854145   0.000000
     9  H    3.497179   4.787089   5.362872   0.000000
    10  H    3.493560   4.778578   5.407428   1.750950   0.000000
    11  H    2.409230   4.712521   4.760513   1.766950   1.766936
                   11
    11  H    0.000000
 Stoichiometry    C4H7(2)
 Framework group  C1[X(C4H7)]
 Deg. of freedom    27
 Full point group                 C1      NOp   1
 Largest Abelian subgroup         C1      NOp   1
 Largest concise Abelian subgroup C1      NOp   1
[...]
     Eigenvalues ---    0.36974   0.53258
 Angle between quadratic step and forces=  77.85 degrees.
 Linear search not attempted -- first point.
 Iteration  1 RMS(Cart)=  0.00063045 RMS(Int)=  0.00000026
 Iteration  2 RMS(Cart)=  0.00000030 RMS(Int)=  0.00000000
 Variable       Old X    -DE/DX   Delta X   Delta X   Delta X     New X
                                 (Linear)    (Quad)   (Total)
    R1        2.60831  -0.00000   0.00000  -0.00002  -0.00002   2.60829
    R2        2.81445   0.00000   0.00000   0.00000   0.00000   2.81445
    R3        2.04843  -0.00000   0.00000  -0.00001  -0.00001   2.04843
    R4        2.60583   0.00003   0.00000   0.00008   0.00008   2.60590
    R5        2.05084   0.00000   0.00000   0.00000   0.00000   2.05084
    R6        2.04183   0.00000   0.00000   0.00001   0.00001   2.04184
    R7        2.03723  -0.00000   0.00000  -0.00001  -0.00001   2.03722
    R8        2.06513   0.00000   0.00000   0.00003   0.00003   2.06516
    R9        2.06518   0.00000   0.00000  -0.00002  -0.00002   2.06516
   R10        2.05729  -0.00000   0.00000  -0.00000  -0.00000   2.05728
    A1        2.17010  -0.00001   0.00000  -0.00006  -0.00006   2.17003
    A2        2.06243  -0.00000   0.00000  -0.00001  -0.00001   2.06241
    A3        2.05066   0.00001   0.00000   0.00008   0.00008   2.05074
    A4        2.18319  -0.00000   0.00000  -0.00004  -0.00004   2.18315
    A5        2.04544  -0.00000   0.00000  -0.00001  -0.00001   2.04543
    A6        2.05456   0.00001   0.00000   0.00005   0.00005   2.05460
    A7        2.11062  -0.00001   0.00000  -0.00011  -0.00011   2.11051
    A8        2.11857   0.00000   0.00000   0.00001   0.00001   2.11858
    A9        2.05400   0.00001   0.00000   0.00010   0.00010   2.05410
   A10        1.94430   0.00000   0.00000   0.00001   0.00001   1.94431
   A11        1.94424   0.00001   0.00000   0.00007   0.00007   1.94431
   A12        1.94451  -0.00001   0.00000  -0.00005  -0.00005   1.94446
   A13        1.85587  -0.00000   0.00000  -0.00003  -0.00003   1.85584
   A14        1.88567  -0.00000   0.00000  -0.00005  -0.00005   1.88562
   A15        1.88556   0.00000   0.00000   0.00006   0.00006   1.88562
    D1        3.14111   0.00001   0.00000   0.00048   0.00048  -3.14159
    D2       -0.00044   0.00000   0.00000   0.00044   0.00044   0.00000
    D3       -0.00028   0.00001   0.00000   0.00028   0.00028   0.00000
    D4        3.14136   0.00000   0.00000   0.00023   0.00023  -3.14159
    D5        2.10856  -0.00000   0.00000  -0.00154  -0.00154   2.10702
    D6       -2.10549  -0.00000   0.00000  -0.00153  -0.00153  -2.10701
    D7        0.00144  -0.00000   0.00000  -0.00144  -0.00144   0.00000
    D8       -1.03324  -0.00000   0.00000  -0.00134  -0.00134  -1.03458
    D9        1.03590  -0.00000   0.00000  -0.00132  -0.00132   1.03458
   D10       -3.14036  -0.00000   0.00000  -0.00124  -0.00124  -3.14159
   D11        0.00006  -0.00000   0.00000  -0.00006  -0.00006   0.00000
   D12        3.14156  -0.00000   0.00000   0.00003   0.00003  -3.14159
   D13       -3.14158  -0.00000   0.00000  -0.00001  -0.00001  -3.14159
   D14       -0.00008   0.00000   0.00000   0.00008   0.00008   0.00000
         Item               Value     Threshold  Converged?
 Maximum Force            0.000027     0.000450     YES
 RMS     Force            0.000006     0.000300     YES
 Maximum Displacement     0.001769     0.001800     YES
 RMS     Displacement     0.000630     0.001200     YES
 Predicted change in Energy=-1.437950D-08
 Optimization completed.
    -- Stationary point found.
                           ----------------------------
                           !   Optimized Parameters   !
                           ! (Angstroms and Degrees)  !
 --------------------------                            --------------------------
 ! Name  Definition              Value          Derivative Info.                !
 --------------------------------------------------------------------------------
 ! R1    R(1,2)                  1.3803         -DE/DX =    0.0                 !
 ! R2    R(1,4)                  1.4893         -DE/DX =    0.0                 !
 ! R3    R(1,5)                  1.084          -DE/DX =    0.0                 !
 ! R4    R(2,3)                  1.3789         -DE/DX =    0.0                 !
 ! R5    R(2,6)                  1.0853         -DE/DX =    0.0                 !
 ! R6    R(3,7)                  1.0805         -DE/DX =    0.0                 !
 ! R7    R(3,8)                  1.0781         -DE/DX =    0.0                 !
 ! R8    R(4,9)                  1.0928         -DE/DX =    0.0                 !
 ! R9    R(4,10)                 1.0928         -DE/DX =    0.0                 !
 ! R10   R(4,11)                 1.0887         -DE/DX =    0.0                 !
 ! A1    A(2,1,4)              124.3374         -DE/DX =    0.0                 !
 ! A2    A(2,1,5)              118.1684         -DE/DX =    0.0                 !
 ! A3    A(4,1,5)              117.4941         -DE/DX =    0.0                 !
 ! A4    A(1,2,3)              125.0875         -DE/DX =    0.0                 !
 ! A5    A(1,2,6)              117.1951         -DE/DX =    0.0                 !
 ! A6    A(3,2,6)              117.7175         -DE/DX =    0.0                 !
 ! A7    A(2,3,7)              120.9297         -DE/DX =    0.0                 !
 ! A8    A(2,3,8)              121.3848         -DE/DX =    0.0                 !
 ! A9    A(7,3,8)              117.6855         -DE/DX =    0.0                 !
 ! A10   A(1,4,9)              111.4005         -DE/DX =    0.0                 !
 ! A11   A(1,4,10)             111.3967         -DE/DX =    0.0                 !
 ! A12   A(1,4,11)             111.4123         -DE/DX =    0.0                 !
 ! A13   A(9,4,10)             106.3335         -DE/DX =    0.0                 !
 ! A14   A(9,4,11)             108.0409         -DE/DX =    0.0                 !
 ! A15   A(10,4,11)            108.0347         -DE/DX =    0.0                 !
 ! D1    D(4,1,2,3)           -180.0277         -DE/DX =    0.0                 !
 ! D2    D(4,1,2,6)             -0.025          -DE/DX =    0.0                 !
 ! D3    D(5,1,2,3)             -0.0158         -DE/DX =    0.0                 !
 ! D4    D(5,1,2,6)           -180.0131         -DE/DX =    0.0                 !
 ! D5    D(2,1,4,9)            120.8115         -DE/DX =    0.0                 !
 ! D6    D(2,1,4,10)          -120.6354         -DE/DX =    0.0                 !
 ! D7    D(2,1,4,11)             0.0828         -DE/DX =    0.0                 !
 ! D8    D(5,1,4,9)            -59.2003         -DE/DX =    0.0                 !
 ! D9    D(5,1,4,10)            59.3527         -DE/DX =    0.0                 !
 ! D10   D(5,1,4,11)          -179.9291         -DE/DX =    0.0                 !
 ! D11   D(1,2,3,7)              0.0033         -DE/DX =    0.0                 !
 ! D12   D(1,2,3,8)           -180.0017         -DE/DX =    0.0                 !
 ! D13   D(6,2,3,7)           -179.9994         -DE/DX =    0.0                 !
 ! D14   D(6,2,3,8)             -0.0044         -DE/DX =    0.0                 !
 --------------------------------------------------------------------------------
 GradGradGradGradGradGradGradGradGradGradGradGradGradGradGradGradGradGrad


 ----------------------------------------------------------------------

 Electric dipole moment (input orientation):
 (Debye = 10**-18 statcoulomb cm , SI units = C m)
                  (au)            (Debye)         (10**-30 SI)
   Tot        0.204992D+00      0.521038D+00      0.173799D+01
   x         -0.204449D+00     -0.519658D+00     -0.173339D+01
   y          0.170373D-02      0.433046D-02      0.144449D-01
   z         -0.148102D-01     -0.376437D-01     -0.125566D+00

 Dipole polarizability, Alpha (input orientation).
 (esu units = cm**3 , SI units = C**2 m**2 J**-1)
 Alpha(0;0):
               (au)            (10**-24 esu)      (10**-40 SI)
   iso        0.506243D+02      0.750175D+01      0.834682D+01
   aniso      0.394138D+02      0.584053D+01      0.649847D+01
   xx         0.756309D+02      0.112073D+02      0.124699D+02
   yx         0.121372D+01      0.179855D+00      0.200115D+00
   yy         0.440982D+02      0.653469D+01      0.727082D+01
   zx         0.329351D+01      0.488048D+00      0.543027D+00
   zy         0.878751D+00      0.130217D+00      0.144886D+00
   zz         0.321438D+02      0.476322D+01      0.529979D+01

 ----------------------------------------------------------------------

 Dipole orientation:
     6          0.12159723         -0.85488323          1.07892621
     6          0.23233520          0.64193096         -1.05427910
     6          0.16945972         -0.23777725         -3.50631993
     6          0.19315630          0.12966418          3.71457573
     1         -0.02705974         -2.88277428          0.83065330
     1          0.38040579          2.66772895         -0.77116864
     1          0.02347411         -2.23576038         -3.90106004
     1          0.26352274          1.03619137         -5.09328558
     1         -1.50234279         -0.40543790          4.76514738
     1          1.79492334         -0.64320326          4.76432571
     1          0.34123608          2.18137260          3.74615891

 Electric dipole moment (dipole orientation):
 (Debye = 10**-18 statcoulomb cm , SI units = C m)
                  (au)            (Debye)         (10**-30 SI)
   Tot        0.204992D+00      0.521038D+00      0.173799D+01
   x          0.000000D+00      0.000000D+00      0.000000D+00
   y          0.000000D+00      0.000000D+00      0.000000D+00
   z          0.204992D+00      0.521038D+00      0.173799D+01

 Dipole polarizability, Alpha (dipole orientation).
 (esu units = cm**3 , SI units = C**2 m**2 J**-1)
 Alpha(0;0):
               (au)            (10**-24 esu)      (10**-40 SI)
   iso        0.506243D+02      0.750175D+01      0.834682D+01
   aniso      0.394138D+02      0.584053D+01      0.649847D+01
   xx         0.319112D+02      0.472875D+01      0.526145D+01
   yx         0.898883D+00      0.133201D+00      0.148206D+00
   yy         0.441065D+02      0.653591D+01      0.727218D+01
   zx        -0.132568D+00     -0.196446D-01     -0.218576D-01
   zy        -0.153686D+01     -0.227740D+00     -0.253394D+00
   zz         0.758552D+02      0.112406D+02      0.125068D+02

 ----------------------------------------------------------------------
 1\1\GINC-N68\Freq\UB2PLYPD3-FC\CC-pVTZ\C4H7(2)\ROOT\31-May-2019\0\\#N 
 Geom=AllCheck Guess=TCheck SCRF=Check GenChk UB2PLYPD3(FC)/CC-pVTZ Fre
 q\\Title Card Required\\0,2\C,-0.5781173847,-0.4470308826,0.0266866926
 \C,0.5505848589,0.3361316002,0.1601046331\C,1.8429552199,-0.1404369015
 ,0.2245354176\C,-1.967227967,0.0858605899,-0.0406418838\H,-0.450995320
 1,-1.5218595043,-0.0333600784\H,0.4050888691,1.4100031499,0.218519233\
 H,2.0474185375,-1.200071663,0.1713666901\H,2.6829485062,0.52713315,0.3
 292490986\H,-2.4594693065,-0.2006780341,-0.9732974081\H,-2.5860902769,
 -0.3109026341,0.7679976594\H,-1.9798517363,1.1723361296,0.027279946\\V
 ersion=ES64L-G16RevB.01\State=2-A\HF=-156.2734367\MP2=-156.4833832\PUH
 F=-156.2835738\PMP2-0=-156.4849561\S2=0.825032\S2-1=0.760713\S2A=0.750
 963\RMSD=9.057e-10\RMSF=9.285e-06\ZeroPoint=0.0948339\Thermal=0.100096
 \Dipole=-0.2044492,0.0017037,-0.0148102\DipoleDeriv=0.2979739,-0.02515
 94,0.0353741,-0.1139507,0.098155,0.0113803,0.0292454,0.0178281,-0.2038
 768,-0.0627093,0.0110625,0.0053661,-0.0099687,0.0818011,0.0125876,0.00
 40897,0.0141561,-0.1242906,-0.0689195,0.0133447,0.0185452,0.0612447,0.
 1110481,0.0315362,0.0215357,0.028003,-0.3056673,-0.0520401,0.021153,-0
 .0128971,-0.0617536,0.069801,-0.0092561,-0.0176565,-0.0031334,0.141253
 8,-0.0224305,0.0580713,-0.0072783,0.0231371,-0.1138878,-0.0138792,-0.0
 094843,-0.011312,0.1262333,0.0424686,0.0500516,-0.0032344,0.028978,-0.
 1136389,-0.0135605,-0.0045917,-0.0120114,0.1290459,0.0214785,-0.022064
 3,-0.0102293,0.046403,-0.0925831,-0.0116378,-0.0057994,-0.0166831,0.13
 97742,-0.0390038,-0.0349292,-0.0154946,-0.0751548,-0.0077529,-0.015109
 3,-0.0180627,-0.0121347,0.1390422,-0.0575485,-0.0091833,-0.0651018,0.0
 35712,0.0572245,-0.0505777,-0.1185675,-0.0438083,-0.0738098,-0.0844033
 ,-0.0244993,0.0603837,0.0119545,0.043396,0.0672975,0.1190163,0.0545613
 ,-0.0332979,0.0251341,-0.0378475,-0.0054336,0.0533984,-0.1335629,-0.00
 87809,0.0002752,-0.0154657,0.0655929\Polar=75.6309036,1.2137197,44.098
 2491,3.2935134,0.8787509,32.1437842\PG=C01 [X(C4H7)]\NImag=0\\0.608656
 33,0.02929957,0.63695191,0.03786494,0.03565184,0.12299302,-0.19863161,
 -0.06366078,-0.01507759,0.56930199,-0.13569865,-0.20908743,-0.02029718
 ,-0.02428000,0.69412365,-0.01973784,-0.01499685,-0.05123116,0.03142603
 ,0.03513867,0.12502518,-0.09883687,-0.03747333,-0.01026514,-0.26407484
 ,0.12479899,-0.00808775,0.66295008,0.00303933,0.03145530,0.00175929,0.
 05709888,-0.15912908,-0.00315436,0.00532327,0.64524536,-0.00763889,-0.
 00122710,0.00706529,-0.01245591,0.00183031,-0.04570896,0.04333536,0.03
 686029,0.08402932,-0.20735513,0.04901814,-0.00770106,-0.03371464,0.009
 08635,-0.00240613,0.00367103,-0.00376248,-0.00041801,0.49545927,0.0572
 3798,-0.11351136,0.00066821,-0.01551827,0.01127343,-0.00086259,-0.0029
 8670,-0.00299927,-0.00080244,0.02076253,0.57368816,-0.00719258,0.00008
 569,-0.05951153,-0.00401279,0.00093117,0.00690263,-0.00036681,-0.00086
 147,0.00600434,-0.00010166,0.00522067,0.51653594,-0.06194953,0.0327766
 5,-0.00014429,0.00643406,-0.02693322,-0.00159476,0.00088061,-0.0008607
 7,0.00025763,-0.00020747,0.02914847,0.00168144,0.06232301,0.03054114,-
 0.32560850,-0.01676824,0.00327767,-0.01816667,-0.00122130,0.00197528,0
 .00108877,0.00043408,-0.00116214,-0.00697291,-0.00068700,-0.03313806,0
 .34842139,-0.00029202,-0.01660733,-0.03222358,0.00036347,-0.00343978,0
 .00431673,0.00043620,0.00022677,-0.00333487,-0.00027090,0.00152510,0.0
 0247179,0.00110274,0.01888609,0.01944343,0.00564435,-0.02540612,-0.001
 54276,-0.06565025,0.03453021,0.00056231,-0.00044815,0.03128162,0.00169
 818,0.00157535,-0.00179739,0.00032280,-0.00365909,-0.00282754,-0.00097
 794,0.06612399,0.00440713,-0.01904848,-0.00118470,0.03374427,-0.319773
 43,-0.01532745,0.00044022,-0.00942261,-0.00082233,0.00151602,0.0010566
 8,0.00046160,-0.00289556,-0.00069903,-0.00071800,-0.03801427,0.3444634
 4,0.00036801,-0.00338112,0.00417955,0.00052487,-0.01526657,-0.04401302
 ,-0.00029410,0.00144941,0.00391942,0.00053550,0.00021536,-0.00432218,-
 0.00098205,-0.00071620,0.00705024,0.00032022,0.01754090,0.02966229,0.0
 0131339,0.00088645,0.00042994,0.00048513,0.03078918,0.00179583,-0.0680
 2945,0.04782390,-0.00006254,-0.00018163,-0.00024153,-0.00001333,-0.000
 11161,-0.00094259,-0.00006941,-0.00473916,0.00162837,-0.00081754,0.064
 04882,-0.00200852,0.00076659,0.00014376,0.00106624,-0.00886967,-0.0006
 8688,0.05039252,-0.33250046,-0.01606378,0.00010712,0.00035726,0.000044
 34,0.00086965,0.00048757,0.00009503,0.00177540,0.00094102,-0.00031084,
 -0.05780003,0.35073658,0.00024531,0.00035685,-0.00372027,-0.00012023,0
 .00150197,0.00310497,0.00010397,-0.01625663,-0.02636133,0.00000879,0.0
 0001880,-0.00020732,0.00004749,-0.00003852,0.00000472,-0.00080804,-0.0
 0032156,0.00771551,-0.00016025,0.01731606,0.01675022,-0.00391172,0.003
 75883,-0.00044276,-0.01611516,-0.02124890,-0.00284931,-0.23147615,-0.1
 3932497,-0.02438428,-0.00035243,-0.00107775,-0.00009379,0.00009930,-0.
 00007183,0.00001821,0.00107890,0.00016458,0.00041948,0.00718294,0.0057
 6981,0.00069624,0.24397177,0.00271252,-0.00004794,-0.00015168,0.010623
 65,0.01019736,0.00117784,-0.14359248,-0.17503353,-0.02041848,0.0004266
 9,0.00057051,0.00006960,0.00031980,0.00038479,0.00006215,-0.00062492,0
 .00107915,0.00031203,-0.02186439,-0.01191961,-0.00255239,0.15185206,0.
 17488360,-0.00051225,-0.00007405,0.00537412,-0.00080062,-0.00116882,0.
 00390593,-0.02465499,-0.02010191,-0.02490143,0.00000344,-0.00004147,-0
 .00003447,0.00004351,0.00003331,-0.00020583,0.00036894,0.00037033,-0.0
 0443310,-0.00108256,-0.00052113,0.00265276,0.02667940,0.02151481,0.017
 37672,-0.02044824,-0.01028491,-0.02479233,-0.00055852,0.00359746,-0.00
 030075,-0.00208153,-0.00042784,0.00104412,-0.09019375,-0.02994235,-0.0
 9977177,0.00082196,0.00029732,0.00097288,0.00015341,0.00009475,-0.0006
 8659,-0.00004631,0.00003892,-0.00003226,-0.00027816,0.00012067,0.00003
 503,0.10527554,0.00413947,0.00487566,0.01050710,0.00004285,-0.00087279
 ,-0.00002407,0.00042743,0.00040899,-0.00010232,-0.02708552,-0.06679143
 ,-0.05843193,-0.00059626,0.00016564,-0.00034554,0.00012701,0.00030850,
 -0.00023738,-0.00001843,0.00000095,0.00001803,0.00006021,-0.00005426,-
 0.00002089,0.03179971,0.06634667,-0.00197441,0.00095947,0.00308195,0.0
 0156773,0.00092805,-0.00080118,-0.00058530,0.00009977,-0.00020463,-0.0
 9588721,-0.06089522,-0.23293388,-0.00055849,0.00022076,0.00033968,0.00
 006094,0.00005804,-0.00004155,-0.00001725,-0.00000232,0.00000243,-0.00
 002676,0.00001608,0.00012977,0.10719961,0.06580014,0.25481269,-0.02375
 565,-0.01283592,0.01949488,-0.00039062,0.00361824,0.00082854,-0.001982
 70,-0.00025603,-0.00135339,-0.12034393,-0.05308482,0.10975659,0.000868
 86,0.00044498,-0.00084655,0.00005669,0.00000876,0.00070751,-0.00005262
 ,0.00003389,0.00002923,-0.00026904,0.00013053,-0.00007743,0.00808697,0
 .00515848,-0.01039608,0.13816886,0.00554982,0.00636323,-0.00961256,0.0
 0021831,-0.00079153,0.00004999,0.00034666,0.00039412,0.00024201,-0.049
 41784,-0.08348879,0.06994226,-0.00070804,0.00015071,0.00023532,0.00009
 282,0.00027745,0.00028899,-0.00001679,0.00000290,-0.00002097,0.0000577
 1,-0.00005361,0.00000659,0.00485295,0.00297671,-0.00718181,0.05675867,
 0.08485561,-0.00121046,-0.00245951,0.00489154,-0.00149693,-0.00038851,
 -0.00102701,0.00038349,-0.00007051,-0.00029907,0.10625712,0.07194314,-
 0.18598818,0.00055337,-0.00018661,0.00029657,-0.00003459,-0.00001603,0
 .00008290,0.00000713,0.00000737,0.00000691,-0.00002430,-0.00002112,0.0
 0012130,0.01568209,0.01131323,-0.02358125,-0.11729304,-0.07887359,0.20
 333290,-0.00072533,0.03392143,0.00217617,0.00291446,0.00174034,0.00036
 383,-0.00057204,0.00006508,-0.00002227,-0.04835668,-0.00250018,-0.0002
 0810,-0.00550010,0.00160576,-0.00043669,-0.00013604,-0.00109426,-0.000
 09532,0.00013049,-0.00024500,-0.00001026,0.00006974,-0.00010412,-0.000
 00248,-0.00073138,-0.01405495,0.00061722,-0.00038683,-0.01773427,-0.00
 282388,0.05329370,0.00078021,-0.01310897,-0.00071585,-0.00261283,0.001
 09614,-0.00009300,0.00034814,0.00049241,0.00006974,0.00051113,-0.31318
 229,-0.01677493,0.00201732,0.00074826,0.00008019,0.00086318,0.00081731
 ,0.00010543,-0.00024414,-0.00000312,-0.00002162,0.00006026,-0.00000646
 ,0.00000322,-0.00014667,-0.00736465,-0.00000296,0.00002322,-0.01068680
 ,-0.00124786,-0.00159982,0.34119816,0.00008019,0.00169211,-0.00089892,
 0.00008198,0.00023068,-0.00047412,-0.00000493,0.00004934,-0.00020808,-
 0.00001988,-0.01698957,-0.04891715,-0.00040659,0.00004363,0.00184113,0
 .00002993,-0.00004078,0.00019994,-0.00001003,-0.00002161,0.00005141,0.
 00000787,-0.00000884,0.00001423,0.00064996,-0.02847636,-0.00080402,-0.
 00085027,0.02492377,0.00216339,0.00044177,0.01859763,0.04703218\\-0.00
 000036,0.00000634,0.00000213,0.00002724,-0.00000830,0.00000004,-0.0000
 3944,0.00000479,0.00000602,-0.00000517,-0.00000518,-0.00000236,-0.0000
 0435,-0.00000141,-0.00000756,0.00000466,-0.00000141,-0.00000356,0.0000
 0947,0.00000528,-0.00000026,0.00000358,-0.00000190,-0.00000061,0.00000
 392,-0.00000136,0.00000316,0.00000374,0.00000161,0.00000309,-0.0000032
 9,0.00000152,-0.00000010\\\@


 SCIENCE AND PEACE WILL TRIUMPH OVER IGNORANCE AND WAR

                          -- PASTEUR
 Job cpu time:       0 days  7 hours 48 minutes 41.2 seconds.
 Elapsed time:       0 days  0 hours 12 minutes  4.6 seconds.
 File lengths (MBytes):  RWF=  14059 Int=      0 D2E=      0 Chk=      9 Scr=      1
 Normal termination of Gaussian 16 at Fri May 31 21:31:33 2019.
