 Entering Gaussian System, Link 0=g16
 Initial command:
 /ichec/packages/gaussian/16b01/l1.exe "/localscratch/339542/Gau-23148.inp" -scrdir="/localscratch/339542/"
 Entering Link 1 = /ichec/packages/gaussian/16b01/l1.exe PID=     23149.
  
 Copyright (c) 1988-2017, Gaussian, Inc.  All Rights Reserved.
  
 This is part of the Gaussian(R) 16 program.  It is based on
 the Gaussian(R) 09 system (copyright 2009, Gaussian, Inc.),
 the Gaussian(R) 03 system (copyright 2003, Gaussian, Inc.),
 the Gaussian(R) 98 system (copyright 1998, Gaussian, Inc.),
 the Gaussian(R) 94 system (copyright 1995, Gaussian, Inc.),
 the Gaussian 92(TM) system (copyright 1992, Gaussian, Inc.),
 the Gaussian 90(TM) system (copyright 1990, Gaussian, Inc.),
 the Gaussian 88(TM) system (copyright 1988, Gaussian, Inc.),
 the Gaussian 86(TM) system (copyright 1986, Carnegie Mellon
 University), and the Gaussian 82(TM) system (copyright 1983,
 Carnegie Mellon University). Gaussian is a federally registered
 trademark of Gaussian, Inc.
  
 This software contains proprietary and confidential information,
 including trade secrets, belonging to Gaussian, Inc.
  
 This software is provided under written license and may be
 used, copied, transmitted, or stored only in accord with that
 written license.
  
 The following legend is applicable only to US Government
 contracts under FAR:
  
                    RESTRICTED RIGHTS LEGEND
  
 Use, reproduction and disclosure by the US Government is
 subject to restrictions as set forth in subparagraphs (a)
 and (c) of the Commercial Computer Software - Restricted
 Rights clause in FAR 52.227-19.
  
 Gaussian, Inc.
 340 Quinnipiac St., Bldg. 40, Wallingford CT 06492
  
  
 ---------------------------------------------------------------
 Warning -- This program may not be used in any manner that
 competes with the business of Gaussian, Inc. or will provide
 assistance to any competitor of Gaussian, Inc.  The licensee
 of this program is prohibited from giving any competitor of
 Gaussian, Inc. access to this program.  By using this program,
 the user acknowledges that Gaussian, Inc. is engaged in the
 business of creating and licensing software in the field of
 computational chemistry and represents and warrants to the
 licensee that it is not a competitor of Gaussian, Inc. and that
 it will not use this program in any manner prohibited above.
 ---------------------------------------------------------------
  

 Cite this work as:
 Gaussian 16, Revision B.01,
 M. J. Frisch, G. W. Trucks, H. B. Schlegel, G. E. Scuseria, 
 M. A. Robb, J. R. Cheeseman, G. Scalmani, V. Barone, 
 G. A. Petersson, H. Nakatsuji, X. Li, M. Caricato, A. V. Marenich, 
 J. Bloino, B. G. Janesko, R. Gomperts, B. Mennucci, H. P. Hratchian, 
 J. V. Ortiz, A. F. Izmaylov, J. L. Sonnenberg, D. Williams-Young, 
 F. Ding, F. Lipparini, F. Egidi, J. Goings, B. Peng, A. Petrone, 
 T. Henderson, D. Ranasinghe, V. G. Zakrzewski, J. Gao, N. Rega, 
 G. Zheng, W. Liang, M. Hada, M. Ehara, K. Toyota, R. Fukuda, 
 J. Hasegawa, M. Ishida, T. Nakajima, Y. Honda, O. Kitao, H. Nakai, 
 T. Vreven, K. Throssell, J. A. Montgomery, Jr., J. E. Peralta, 
 F. Ogliaro, M. J. Bearpark, J. J. Heyd, E. N. Brothers, K. N. Kudin, 
 V. N. Staroverov, T. A. Keith, R. Kobayashi, J. Normand, 
 K. Raghavachari, A. P. Rendell, J. C. Burant, S. S. Iyengar, 
 J. Tomasi, M. Cossi, J. M. Millam, M. Klene, C. Adamo, R. Cammi, 
 J. W. Ochterski, R. L. Martin, K. Morokuma, O. Farkas, 
 J. B. Foresman, and D. J. Fox, Gaussian, Inc., Wallingford CT, 2016.
 
 ******************************************
 Gaussian 16:  ES64L-G16RevB.01 20-Dec-2017
                31-May-2019 
 ******************************************
 %mem=80GB
 %nproc=40
 Will use up to   40 processors via shared memory.
 -----------------------------------------------
 # opt=maxcyc=500 freq=noraman uB2PLYPD3/cc-pvtz
 -----------------------------------------------
 1/6=500,18=20,19=15,38=1/1,3;
 2/9=110,12=2,17=6,18=5,40=1/2;
 3/5=16,6=1,11=2,25=1,30=1,71=1,74=-60,116=2/1,2,3;
 4//1;
 5/5=2,38=5/2;
 8/6=4,10=1/1;
 9/15=2,16=-3/6;
 10/5=1/2;
 6/7=2,8=2,9=2,10=2/1;
 7/12=2/1,2,3,16;
 1/6=500,18=20,19=15/3(2);
 2/9=110/2;
 99//99;
 2/9=110/2;
 3/5=16,6=1,11=2,25=1,30=1,71=1,74=-60,116=2/1,2,3;
 4/5=5,16=3,69=1/1;
 5/5=2,38=5/2;
 8/6=4,10=1/1;
 9/15=2,16=-3/6;
 10/5=1/2;
 7/12=2/1,2,3,16;
 1/6=500,18=20,19=15/3(-8);
 2/9=110/2;
 6/7=2,8=2,9=2,10=2/1;
 99/9=10/99;
 -------------------
 Title Card Required
 -------------------
 Symbolic Z-matrix:
 Charge =  0 Multiplicity = 2
 C                    -0.5335   -0.39644  -0.00002 
 C                     0.5335    0.39644  -0.00004 
 C                     1.95551  -0.07881   0.00001 
 C                    -1.95551   0.07881   0.00002 
 H                    -0.38085  -1.475    -0.00006 
 H                     1.97402  -1.14864   0.00384 
 H                     2.45468   0.28967   0.87177 
 H                    -2.49237  -0.28841  -0.87902 
 H                    -2.49245  -0.2888    0.87885 
 H                    -2.00574   1.169     0.00026 
 H                     2.45265   0.28338  -0.87552 
 

 GradGradGradGradGradGradGradGradGradGradGradGradGradGradGradGradGradGrad
 Berny optimization.
 Initialization pass.
                           ----------------------------
                           !    Initial Parameters    !
                           ! (Angstroms and Degrees)  !
 --------------------------                            --------------------------
 ! Name  Definition              Value          Derivative Info.                !
 --------------------------------------------------------------------------------
 ! R1    R(1,2)                  1.3293         estimate D2E/DX2                !
 ! R2    R(1,4)                  1.4993         estimate D2E/DX2                !
 ! R3    R(1,5)                  1.0893         estimate D2E/DX2                !
 ! R4    R(2,3)                  1.4993         estimate D2E/DX2                !
 ! R5    R(3,6)                  1.07           estimate D2E/DX2                !
 ! R6    R(3,7)                  1.07           estimate D2E/DX2                !
 ! R7    R(3,11)                 1.07           estimate D2E/DX2                !
 ! R8    R(4,8)                  1.0935         estimate D2E/DX2                !
 ! R9    R(4,9)                  1.0935         estimate D2E/DX2                !
 ! R10   R(4,10)                 1.0913         estimate D2E/DX2                !
 ! A1    A(2,1,4)              124.9038         estimate D2E/DX2                !
 ! A2    A(2,1,5)              118.5606         estimate D2E/DX2                !
 ! A3    A(4,1,5)              116.5356         estimate D2E/DX2                !
 ! A4    A(1,2,3)              124.9039         estimate D2E/DX2                !
 ! A5    A(2,3,6)              109.4712         estimate D2E/DX2                !
 ! A6    A(2,3,7)              109.4712         estimate D2E/DX2                !
 ! A7    A(2,3,11)             109.4712         estimate D2E/DX2                !
 ! A8    A(6,3,7)              109.4712         estimate D2E/DX2                !
 ! A9    A(6,3,11)             109.4712         estimate D2E/DX2                !
 ! A10   A(7,3,11)             109.4712         estimate D2E/DX2                !
 ! A11   A(1,4,8)              111.0492         estimate D2E/DX2                !
 ! A12   A(1,4,9)              111.0491         estimate D2E/DX2                !
 ! A13   A(1,4,10)             111.1185         estimate D2E/DX2                !
 ! A14   A(8,4,9)              106.9826         estimate D2E/DX2                !
 ! A15   A(8,4,10)             108.2421         estimate D2E/DX2                !
 ! A16   A(9,4,10)             108.2423         estimate D2E/DX2                !
 ! D1    D(4,1,2,3)            179.9956         estimate D2E/DX2                !
 ! D2    D(5,1,2,3)             -0.006          estimate D2E/DX2                !
 ! D3    D(2,1,4,8)            120.5317         estimate D2E/DX2                !
 ! D4    D(2,1,4,9)           -120.5573         estimate D2E/DX2                !
 ! D5    D(2,1,4,10)            -0.0127         estimate D2E/DX2                !
 ! D6    D(5,1,4,8)            -59.4667         estimate D2E/DX2                !
 ! D7    D(5,1,4,9)             59.4443         estimate D2E/DX2                !
 ! D8    D(5,1,4,10)           179.989          estimate D2E/DX2                !
 ! D9    D(1,2,3,6)             -0.214          estimate D2E/DX2                !
 ! D10   D(1,2,3,7)           -120.214          estimate D2E/DX2                !
 ! D11   D(1,2,3,11)           119.786          estimate D2E/DX2                !
 --------------------------------------------------------------------------------
 Trust Radius=3.00D-01 FncErr=1.00D-07 GrdErr=1.00D-07 EigMax=2.50D+02 EigMin=1.00D-04
 Number of steps in this run=    100 maximum allowed number of steps=    100.
 GradGradGradGradGradGradGradGradGradGradGradGradGradGradGradGradGradGrad

                          Input orientation:                          
 ---------------------------------------------------------------------
 Center     Atomic      Atomic             Coordinates (Angstroms)
 Number     Number       Type             X           Y           Z
 ---------------------------------------------------------------------
      1          6           0       -0.533497   -0.396441   -0.000019
      2          6           0        0.533497    0.396440   -0.000040
      3          6           0        1.955506   -0.078810    0.000014
      4          6           0       -1.955506    0.078810    0.000021
      5          1           0       -0.380851   -1.475004   -0.000059
      6          1           0        1.974015   -1.148643    0.003839
      7          1           0        2.454680    0.289666    0.871766
      8          1           0       -2.492372   -0.288409   -0.879019
      9          1           0       -2.492450   -0.288795    0.878849
     10          1           0       -2.005741    1.168998    0.000256
     11          1           0        2.452647    0.283383   -0.875524
 ---------------------------------------------------------------------
                    Distance matrix (angstroms):
                    1          2          3          4          5
     1  C    0.000000
     2  C    1.329337   0.000000
     3  C    2.509188   1.499324   0.000000
     4  C    1.499324   2.509188   3.914187   0.000000
     5  H    1.089311   2.082867   2.721750   2.212211   0.000000
     6  H    2.617908   2.112437   1.070000   4.116770   2.377377
     7  H    3.187468   2.112437   1.070000   4.500460   3.451720
     8  H    2.149768   3.224516   4.538750   1.093520   2.576645
     9  H    2.149766   3.224647   4.538806   1.093518   2.576513
    10  H    2.148977   2.654162   4.153132   1.091345   3.103388
    11  H    3.185235   2.112437   1.070000   4.498915   3.447763
                    6          7          8          9         10
     6  H    0.000000
     7  H    1.747303   0.000000
     8  H    4.633364   5.279464   0.000000
     9  H    4.631878   4.980839   1.757868   0.000000
    10  H    4.605424   4.629051   1.770302   1.770303   0.000000
    11  H    1.747303   1.747303   4.977968   5.278181   4.629095
                   11
    11  H    0.000000
 Stoichiometry    C4H7(2)
 Framework group  C1[X(C4H7)]
 Deg. of freedom    27
 Full point group                 C1      NOp   1
 Largest Abelian subgroup         C1      NOp   1
 Largest concise Abelian subgroup C1      NOp   1
                         Standard orientation:                         
 ---------------------------------------------------------------------
 Center     Atomic      Atomic             Coordinates (Angstroms)
 Number     Number       Type             X           Y           Z
 ---------------------------------------------------------------------
      1          6           0       -0.515150    0.353114    0.000018
      2          6           0        0.546087   -0.447456    0.000039
      3          6           0        1.971493    0.017506   -0.000015
      4          6           0       -1.940556   -0.111849   -0.000022
      5          1           0       -0.354715    1.430546    0.000058
      6          1           0        1.997732    1.087178   -0.003840
      7          1           0        2.467991   -0.354567   -0.871767
      8          1           0       -2.474755    0.259240    0.879018
      9          1           0       -2.474830    0.259626   -0.878850
     10          1           0       -1.998667   -1.201646   -0.000257
     11          1           0        2.466003   -0.348269    0.875523
 ---------------------------------------------------------------------
 Rotational constants (GHZ):          41.3899054           3.7579454           3.5969585
 Standard basis: CC-pVTZ (5D, 7F)
 There are   245 symmetry adapted cartesian basis functions of A   symmetry.
 There are   218 symmetry adapted basis functions of A   symmetry.
   218 basis functions,   327 primitive gaussians,   245 cartesian basis functions
    16 alpha electrons       15 beta electrons
       nuclear repulsion energy       108.0144474271 Hartrees.
 NAtoms=   11 NActive=   11 NUniq=   11 SFac= 1.00D+00 NAtFMM=   60 NAOKFM=F Big=F
 Integral buffers will be    131072 words long.
 Raffenetti 2 integral format.
 Two-electron integral symmetry is turned on.
 Nuclear repulsion after empirical dispersion term =      108.0095692507 Hartrees.
 One-electron integrals computed using PRISM.
 NBasis=   218 RedAO= T EigKep=  3.87D-04  NBF=   218
 NBsUse=   218 1.00D-06 EigRej= -1.00D+00 NBFU=   218
 ExpMin= 1.03D-01 ExpMax= 8.24D+03 ExpMxC= 2.81D+02 IAcc=3 IRadAn=         5 AccDes= 0.00D+00
 Harris functional with IExCor=  419 and IRadAn=       5 diagonalized for initial guess.
 HarFok:  IExCor=  419 AccDes= 0.00D+00 IRadAn=         5 IDoV= 1 UseB2=F ITyADJ=14
 ICtDFT=  3500011 ScaDFX=  1.000000  1.000000  1.000000  1.000000
 FoFCou: FMM=F IPFlag=           0 FMFlag=      100000 FMFlg1=           0
         NFxFlg=           0 DoJE=T BraDBF=F KetDBF=T FulRan=T
         wScrn=  0.000000 ICntrl=       500 IOpCl=  0 I1Cent=   200000004 NGrid=           0
         NMat0=    1 NMatS0=      1 NMatT0=    0 NMatD0=    1 NMtDS0=    0 NMtDT0=    0
 Petite list used in FoFCou.
 Initial guess <Sx>= 0.0000 <Sy>= 0.0000 <Sz>= 0.5000 <S**2>= 0.7500 S= 0.5000
 Keep R1 and R2 ints in memory in canonical form, NReq=612885869.
 Requested convergence on RMS density matrix=1.00D-08 within 128 cycles.
 Requested convergence on MAX density matrix=1.00D-06.
 Requested convergence on             energy=1.00D-06.
 No special actions if energy rises.
 Integral accuracy reduced to 1.0D-05 until final iterations.
 Initial convergence to 1.0D-05 achieved.  Increase integral accuracy.
 SCF Done:  E(UB2PLYPD3) =  -156.232185606     A.U. after   18 cycles
            NFock= 18  Conv=0.51D-08     -V/T= 2.0044
 <Sx>= 0.0000 <Sy>= 0.0000 <Sz>= 0.5000 <S**2>= 0.7802 S= 0.5150
 <L.S>=  0.00000000000    
 Annihilation of the first spin contaminant:
 S**2 before annihilation     0.7802,   after     0.7502
 DoSCS=T DFT=T ScalE2(SS,OS)=  0.270000  0.270000
 ExpMin= 1.03D-01 ExpMax= 8.24D+03 ExpMxC= 2.81D+02 IAcc=3 IRadAn=         5 AccDes= 0.00D+00
 HarFok:  IExCor=  205 AccDes= 0.00D+00 IRadAn=         5 IDoV=-2 UseB2=F ITyADJ=14
 ICtDFT= 12500011 ScaDFX=  1.000000  1.000000  1.000000  1.000000
 Range of M.O.s used for correlation:     5   218
 NBasis=   218 NAE=    16 NBE=    15 NFC=     4 NFV=     0
 NROrb=    214 NOA=    12 NOB=    11 NVA=   202 NVB=   203

 **** Warning!!: The largest alpha MO coefficient is  0.16768741D+02


 **** Warning!!: The largest beta MO coefficient is  0.17366515D+02

 DoSCS=T DFT=T ScalE2(SS,OS)=  0.270000  0.270000
 Fully direct method using O(ONN) memory.
 JobTyp=2 Pass  1:  I=   5 to  16 NPSUse= 40 ParTrn=T ParDer=T DoDerP=T.
 JobTyp=3 Pass  1:  I=   5 to  15 NPSUse= 40 ParTrn=T ParDer=T DoDerP=T.
 Spin components of T(2) and E(2):
     alpha-alpha T2 =       0.4160101442D-01 E2=     -0.2595976840D-01
     alpha-beta  T2 =       0.2442545126D+00 E2=     -0.1630030852D+00
     beta-beta   T2 =       0.3664840757D-01 E2=     -0.2240306941D-01
 (S**2,0)=  0.78024D+00           (S**2,1)=  0.76097D+00
 Scaling Projection term by:   0.270000
 E(PUHF)=      -0.15623568316D+03        E(PMP2)=      -0.15644419646D+03
 E2(B2PLYPD3) =    -0.2113659230D+00 E(B2PLYPD3) =    -0.15644355152853D+03
          IDoAtm=11111111111
          Differentiating once with respect to electric field.
                with respect to dipole field.
          Differentiating once with respect to nuclear coordinates.
 Keep R1 and R2 ints in memory in canonical form, NReq=612894013.
          There are     1 degrees of freedom in the 1st order CPHF.  IDoFFX=0 NUNeed=     1.
 LinEq1:  Iter=  0 NonCon=     1 RMS=8.17D-04 Max=2.06D-02 NDo=     1
 AX will form     1 AO Fock derivatives at one time.
 LinEq1:  Iter=  1 NonCon=     1 RMS=3.20D-04 Max=1.06D-02 NDo=     1
 LinEq1:  Iter=  2 NonCon=     1 RMS=2.12D-04 Max=7.25D-03 NDo=     1
 LinEq1:  Iter=  3 NonCon=     1 RMS=4.98D-05 Max=1.58D-03 NDo=     1
 LinEq1:  Iter=  4 NonCon=     1 RMS=2.84D-05 Max=9.83D-04 NDo=     1
 LinEq1:  Iter=  5 NonCon=     1 RMS=1.10D-05 Max=2.26D-04 NDo=     1
 LinEq1:  Iter=  6 NonCon=     1 RMS=3.42D-06 Max=5.96D-05 NDo=     1
 LinEq1:  Iter=  7 NonCon=     1 RMS=1.40D-06 Max=1.74D-05 NDo=     1
 LinEq1:  Iter=  8 NonCon=     1 RMS=5.51D-07 Max=6.19D-06 NDo=     1
 LinEq1:  Iter=  9 NonCon=     1 RMS=1.49D-07 Max=1.98D-06 NDo=     1
 LinEq1:  Iter= 10 NonCon=     1 RMS=3.71D-08 Max=6.43D-07 NDo=     1
 LinEq1:  Iter= 11 NonCon=     1 RMS=8.66D-09 Max=1.58D-07 NDo=     1
 LinEq1:  Iter= 12 NonCon=     1 RMS=3.92D-09 Max=5.19D-08 NDo=     1
 LinEq1:  Iter= 13 NonCon=     1 RMS=1.43D-09 Max=2.11D-08 NDo=     1
 LinEq1:  Iter= 14 NonCon=     1 RMS=4.74D-10 Max=7.60D-09 NDo=     1
 LinEq1:  Iter= 15 NonCon=     1 RMS=1.16D-10 Max=1.70D-09 NDo=     1
 LinEq1:  Iter= 16 NonCon=     0 RMS=3.44D-11 Max=7.21D-10 NDo=     1
 Linear equations converged to 1.000D-10 1.000D-09 after    16 iterations.
 End of Minotr F.D. properties file   721 does not exist.
 End of Minotr F.D. properties file   722 does not exist.
 End of Minotr F.D. properties file   788 does not exist.

 **********************************************************************

            Population analysis using the SCF Density.

 **********************************************************************

 Orbital symmetries:
 Alpha Orbitals:
       Occupied  (A) (A) (A) (A) (A) (A) (A) (A) (A) (A) (A) (A)
                 (A) (A) (A) (A)
       Virtual   (A) (A) (A) (A) (A) (A) (A) (A) (A) (A) (A) (A)
                 (A) (A) (A) (A) (A) (A) (A) (A) (A) (A) (A) (A)
                 (A) (A) (A) (A) (A) (A) (A) (A) (A) (A) (A) (A)
                 (A) (A) (A) (A) (A) (A) (A) (A) (A) (A) (A) (A)
                 (A) (A) (A) (A) (A) (A) (A) (A) (A) (A) (A) (A)
                 (A) (A) (A) (A) (A) (A) (A) (A) (A) (A) (A) (A)
                 (A) (A) (A) (A) (A) (A) (A) (A) (A) (A) (A) (A)
                 (A) (A) (A) (A) (A) (A) (A) (A) (A) (A) (A) (A)
                 (A) (A) (A) (A) (A) (A) (A) (A) (A) (A) (A) (A)
                 (A) (A) (A) (A) (A) (A) (A) (A) (A) (A) (A) (A)
                 (A) (A) (A) (A) (A) (A) (A) (A) (A) (A) (A) (A)
                 (A) (A) (A) (A) (A) (A) (A) (A) (A) (A) (A) (A)
                 (A) (A) (A) (A) (A) (A) (A) (A) (A) (A) (A) (A)
                 (A) (A) (A) (A) (A) (A) (A) (A) (A) (A) (A) (A)
                 (A) (A) (A) (A) (A) (A) (A) (A) (A) (A) (A) (A)
                 (A) (A) (A) (A) (A) (A) (A) (A) (A) (A) (A) (A)
                 (A) (A) (A) (A) (A) (A) (A) (A) (A) (A)
 Beta  Orbitals:
       Occupied  (A) (A) (A) (A) (A) (A) (A) (A) (A) (A) (A) (A)
                 (A) (A) (A)
       Virtual   (A) (A) (A) (A) (A) (A) (A) (A) (A) (A) (A) (A)
                 (A) (A) (A) (A) (A) (A) (A) (A) (A) (A) (A) (A)
                 (A) (A) (A) (A) (A) (A) (A) (A) (A) (A) (A) (A)
                 (A) (A) (A) (A) (A) (A) (A) (A) (A) (A) (A) (A)
                 (A) (A) (A) (A) (A) (A) (A) (A) (A) (A) (A) (A)
                 (A) (A) (A) (A) (A) (A) (A) (A) (A) (A) (A) (A)
                 (A) (A) (A) (A) (A) (A) (A) (A) (A) (A) (A) (A)
                 (A) (A) (A) (A) (A) (A) (A) (A) (A) (A) (A) (A)
                 (A) (A) (A) (A) (A) (A) (A) (A) (A) (A) (A) (A)
                 (A) (A) (A) (A) (A) (A) (A) (A) (A) (A) (A) (A)
                 (A) (A) (A) (A) (A) (A) (A) (A) (A) (A) (A) (A)
                 (A) (A) (A) (A) (A) (A) (A) (A) (A) (A) (A) (A)
                 (A) (A) (A) (A) (A) (A) (A) (A) (A) (A) (A) (A)
                 (A) (A) (A) (A) (A) (A) (A) (A) (A) (A) (A) (A)
                 (A) (A) (A) (A) (A) (A) (A) (A) (A) (A) (A) (A)
                 (A) (A) (A) (A) (A) (A) (A) (A) (A) (A) (A) (A)
                 (A) (A) (A) (A) (A) (A) (A) (A) (A) (A) (A)
 The electronic state is 2-A.
 Alpha  occ. eigenvalues --  -10.63746 -10.61105 -10.61057 -10.60579  -0.92127
 Alpha  occ. eigenvalues --   -0.84301  -0.74763  -0.60369  -0.51743  -0.50790
 Alpha  occ. eigenvalues --   -0.49622  -0.47009  -0.43370  -0.42820  -0.30634
 Alpha  occ. eigenvalues --   -0.29423
 Alpha virt. eigenvalues --    0.08342   0.09412   0.09972   0.12534   0.15646
 Alpha virt. eigenvalues --    0.16051   0.17007   0.17615   0.21357   0.24094
 Alpha virt. eigenvalues --    0.28649   0.29870   0.32435   0.33302   0.35858
 Alpha virt. eigenvalues --    0.37437   0.40753   0.42463   0.44672   0.47064
 Alpha virt. eigenvalues --    0.50357   0.52029   0.52222   0.53273   0.53773
 Alpha virt. eigenvalues --    0.54140   0.55420   0.56116   0.59811   0.61820
 Alpha virt. eigenvalues --    0.63730   0.65562   0.68263   0.74163   0.75396
 Alpha virt. eigenvalues --    0.75907   0.81185   0.88855   0.89448   0.89829
 Alpha virt. eigenvalues --    0.95617   0.96067   1.00274   1.05984   1.06020
 Alpha virt. eigenvalues --    1.07514   1.08617   1.11335   1.13359   1.13798
 Alpha virt. eigenvalues --    1.15900   1.17095   1.19490   1.23649   1.24281
 Alpha virt. eigenvalues --    1.26033   1.26949   1.31128   1.31572   1.38218
 Alpha virt. eigenvalues --    1.39793   1.41331   1.43224   1.43966   1.45040
 Alpha virt. eigenvalues --    1.46066   1.52422   1.53483   1.56125   1.56479
 Alpha virt. eigenvalues --    1.59436   1.65750   1.67185   1.75949   1.88195
 Alpha virt. eigenvalues --    2.14942   2.20194   2.28326   2.30587   2.36740
 Alpha virt. eigenvalues --    2.38267   2.39081   2.47231   2.47440   2.49382
 Alpha virt. eigenvalues --    2.50497   2.59649   2.63929   2.64600   2.65747
 Alpha virt. eigenvalues --    2.73014   2.73618   2.75883   2.79971   2.85061
 Alpha virt. eigenvalues --    2.85227   2.89933   2.90884   2.94281   2.94763
 Alpha virt. eigenvalues --    2.95441   2.98896   3.00822   3.03962   3.04280
 Alpha virt. eigenvalues --    3.09914   3.10677   3.11768   3.12719   3.14447
 Alpha virt. eigenvalues --    3.15601   3.17470   3.19686   3.19743   3.24905
 Alpha virt. eigenvalues --    3.26693   3.29257   3.31113   3.35538   3.37537
 Alpha virt. eigenvalues --    3.40348   3.40812   3.41948   3.45840   3.47044
 Alpha virt. eigenvalues --    3.47656   3.54060   3.55252   3.57173   3.58160
 Alpha virt. eigenvalues --    3.59238   3.62140   3.64555   3.69159   3.69487
 Alpha virt. eigenvalues --    3.75162   3.82249   3.87606   3.88255   3.88572
 Alpha virt. eigenvalues --    3.92191   3.94158   3.96376   4.00367   4.01440
 Alpha virt. eigenvalues --    4.02293   4.04276   4.05495   4.06781   4.14120
 Alpha virt. eigenvalues --    4.16614   4.17603   4.19368   4.23208   4.23562
 Alpha virt. eigenvalues --    4.24549   4.28146   4.32828   4.36216   4.38352
 Alpha virt. eigenvalues --    4.41333   4.46225   4.48640   4.49405   4.56750
 Alpha virt. eigenvalues --    4.61003   4.61194   4.67741   4.73307   4.74339
 Alpha virt. eigenvalues --    4.91668   4.94526   4.96231   4.99754   5.04306
 Alpha virt. eigenvalues --    5.09326   5.12055   5.17118   5.25671   5.28696
 Alpha virt. eigenvalues --    5.31533   5.33642   5.34112   5.36154   5.44181
 Alpha virt. eigenvalues --    5.46082   5.46507   5.48854   5.48942   5.53874
 Alpha virt. eigenvalues --    5.56362   5.66585   5.77792   5.90659   6.00096
 Alpha virt. eigenvalues --    6.01097   6.01728   6.06698   9.14532  13.26214
 Alpha virt. eigenvalues --   13.59262  14.05520
  Beta  occ. eigenvalues --  -10.61659 -10.61329 -10.61035 -10.60487  -0.90263
  Beta  occ. eigenvalues --   -0.83750  -0.73848  -0.57550  -0.50790  -0.49149
  Beta  occ. eigenvalues --   -0.48957  -0.47222  -0.42772  -0.42026  -0.28526
  Beta virt. eigenvalues --   -0.01145   0.09877   0.09992   0.10364   0.12758
  Beta virt. eigenvalues --    0.15767   0.16088   0.17378   0.17906   0.21984
  Beta virt. eigenvalues --    0.24293   0.28680   0.30464   0.32581   0.33441
  Beta virt. eigenvalues --    0.37065   0.38406   0.42604   0.43131   0.45156
  Beta virt. eigenvalues --    0.48504   0.50953   0.52188   0.52295   0.53544
  Beta virt. eigenvalues --    0.54142   0.54314   0.55506   0.56728   0.61228
  Beta virt. eigenvalues --    0.63320   0.64147   0.66642   0.68324   0.75181
  Beta virt. eigenvalues --    0.75510   0.76602   0.82858   0.89227   0.89824
  Beta virt. eigenvalues --    0.90698   0.95747   0.96082   1.01341   1.06124
  Beta virt. eigenvalues --    1.06417   1.08091   1.08620   1.11976   1.13902
  Beta virt. eigenvalues --    1.13954   1.16167   1.18550   1.20295   1.24331
  Beta virt. eigenvalues --    1.25070   1.26578   1.27345   1.32265   1.32466
  Beta virt. eigenvalues --    1.38508   1.39840   1.41627   1.43609   1.44428
  Beta virt. eigenvalues --    1.45313   1.47227   1.53209   1.53609   1.56528
  Beta virt. eigenvalues --    1.57064   1.60078   1.66673   1.67853   1.77571
  Beta virt. eigenvalues --    1.88568   2.15320   2.21168   2.28712   2.31018
  Beta virt. eigenvalues --    2.37152   2.38624   2.40796   2.47811   2.47893
  Beta virt. eigenvalues --    2.49967   2.51443   2.60363   2.64350   2.65882
  Beta virt. eigenvalues --    2.66408   2.74620   2.75116   2.76799   2.80227
  Beta virt. eigenvalues --    2.85743   2.86066   2.89837   2.91490   2.94483
  Beta virt. eigenvalues --    2.95458   2.95646   2.99375   3.00956   3.04606
  Beta virt. eigenvalues --    3.04853   3.10283   3.11037   3.11705   3.13429
  Beta virt. eigenvalues --    3.15121   3.15845   3.18040   3.20052   3.20534
  Beta virt. eigenvalues --    3.26197   3.29842   3.30779   3.33692   3.37878
  Beta virt. eigenvalues --    3.38676   3.41178   3.41228   3.44683   3.45863
  Beta virt. eigenvalues --    3.47269   3.48438   3.54192   3.55398   3.57469
  Beta virt. eigenvalues --    3.58189   3.60114   3.62908   3.64765   3.69703
  Beta virt. eigenvalues --    3.70040   3.75870   3.82410   3.87989   3.88489
  Beta virt. eigenvalues --    3.88963   3.92455   3.94776   3.96905   4.00697
  Beta virt. eigenvalues --    4.01604   4.02785   4.04852   4.06174   4.07172
  Beta virt. eigenvalues --    4.14591   4.17206   4.18323   4.19650   4.23616
  Beta virt. eigenvalues --    4.23750   4.24705   4.28666   4.33092   4.36793
  Beta virt. eigenvalues --    4.38934   4.41774   4.46400   4.48961   4.49676
  Beta virt. eigenvalues --    4.57573   4.61244   4.61920   4.68619   4.74061
  Beta virt. eigenvalues --    4.74872   4.92382   4.94615   4.96187   4.99864
  Beta virt. eigenvalues --    5.04524   5.09797   5.12380   5.17968   5.26019
  Beta virt. eigenvalues --    5.28798   5.31958   5.33693   5.34278   5.36305
  Beta virt. eigenvalues --    5.44248   5.46495   5.46658   5.48987   5.49154
  Beta virt. eigenvalues --    5.54022   5.56570   5.67002   5.78586   5.91373
  Beta virt. eigenvalues --    6.00169   6.01404   6.01763   6.06910   9.15382
  Beta virt. eigenvalues --   13.26706  13.59351  14.05738
          Condensed to atoms (all electrons):
               1          2          3          4          5          6
     1  C    4.963984   0.641707  -0.067403   0.343997   0.407795   0.003269
     2  C    0.641707   5.309627   0.343808  -0.061053  -0.067781  -0.044051
     3  C   -0.067403   0.343808   4.773174   0.005765  -0.006000   0.404173
     4  C    0.343997  -0.061053   0.005765   4.788689  -0.038491  -0.000051
     5  H    0.407795  -0.067781  -0.006000  -0.038491   0.563365   0.006655
     6  H    0.003269  -0.044051   0.404173  -0.000051   0.006655   0.576696
     7  H   -0.000921  -0.044036   0.413701  -0.000270   0.000278  -0.027561
     8  H   -0.043107   0.000862  -0.000249   0.410955  -0.002199   0.000006
     9  H   -0.043098   0.000844  -0.000248   0.410971  -0.002194   0.000006
    10  H   -0.040073   0.001479  -0.000200   0.407415   0.006835   0.000119
    11  H   -0.000984  -0.044019   0.413604  -0.000270   0.000282  -0.027529
               7          8          9         10         11
     1  C   -0.000921  -0.043107  -0.043098  -0.040073  -0.000984
     2  C   -0.044036   0.000862   0.000844   0.001479  -0.044019
     3  C    0.413701  -0.000249  -0.000248  -0.000200   0.413604
     4  C   -0.000270   0.410955   0.410971   0.407415  -0.000270
     5  H    0.000278  -0.002199  -0.002194   0.006835   0.000282
     6  H   -0.027561   0.000006   0.000006   0.000119  -0.027529
     7  H    0.585990  -0.000042   0.000119  -0.000009  -0.036789
     8  H   -0.000042   0.604950  -0.039544  -0.027616   0.000120
     9  H    0.000119  -0.039544   0.604933  -0.027618  -0.000043
    10  H   -0.000009  -0.027616  -0.027618   0.579887  -0.000009
    11  H   -0.036789   0.000120  -0.000043  -0.000009   0.586086
          Atomic-Atomic Spin Densities.
               1          2          3          4          5          6
     1  C   -0.237834   0.000327   0.001573   0.020507   0.010605   0.004387
     2  C    0.000327   1.157037  -0.035839  -0.009117  -0.034810  -0.022946
     3  C    0.001573  -0.035839   0.021076   0.000672  -0.003254  -0.003444
     4  C    0.020507  -0.009117   0.000672   0.042695  -0.009591  -0.000507
     5  H    0.010605  -0.034810  -0.003254  -0.009591   0.094332   0.009309
     6  H    0.004387  -0.022946  -0.003444  -0.000507   0.009309   0.063282
     7  H    0.000032  -0.004370   0.006270  -0.000009  -0.000023  -0.001032
     8  H    0.003764  -0.000091  -0.000013  -0.004113   0.001095   0.000039
     9  H    0.003757  -0.000088  -0.000013  -0.004109   0.001094   0.000039
    10  H   -0.002170   0.006905  -0.000414  -0.007816   0.001965   0.000135
    11  H    0.000048  -0.004331   0.006145  -0.000010  -0.000011  -0.000968
               7          8          9         10         11
     1  C    0.000032   0.003764   0.003757  -0.002170   0.000048
     2  C   -0.004370  -0.000091  -0.000088   0.006905  -0.004331
     3  C    0.006270  -0.000013  -0.000013  -0.000414   0.006145
     4  C   -0.000009  -0.004113  -0.004109  -0.007816  -0.000010
     5  H   -0.000023   0.001095   0.001094   0.001965  -0.000011
     6  H   -0.001032   0.000039   0.000039   0.000135  -0.000968
     7  H    0.004781   0.000003  -0.000005   0.000000  -0.000851
     8  H    0.000003  -0.010485   0.002628   0.001607  -0.000005
     9  H   -0.000005   0.002628  -0.010480   0.001606   0.000003
    10  H    0.000000   0.001607   0.001606   0.001699   0.000001
    11  H   -0.000851  -0.000005   0.000003   0.000001   0.004773
 Mulliken charges and spin densities:
               1          2
     1  C   -0.165165  -0.195004
     2  C   -0.037388   1.052676
     3  C   -0.280125  -0.007242
     4  C   -0.267658   0.028600
     5  H    0.131453   0.070711
     6  H    0.108267   0.048294
     7  H    0.109541   0.004795
     8  H    0.095864  -0.005571
     9  H    0.095870  -0.005569
    10  H    0.099789   0.003517
    11  H    0.109551   0.004792
 Sum of Mulliken charges =  -0.00000   1.00000
 Mulliken charges and spin densities with hydrogens summed into heavy atoms:
               1          2
     1  C   -0.033712  -0.124293
     2  C   -0.037388   1.052676
     3  C    0.047234   0.050639
     4  C    0.023866   0.020978
 Electronic spatial extent (au):  <R**2>=            386.0874
 Charge=             -0.0000 electrons
 Dipole moment (field-independent basis, Debye):
    X=              0.2731    Y=              0.6574    Z=              0.0000  Tot=              0.7119
 Quadrupole moment (field-independent basis, Debye-Ang):
   XX=            -24.2335   YY=            -25.9411   ZZ=            -27.3205
   XY=             -0.0351   XZ=             -0.0003   YZ=              0.0002
 Traceless Quadrupole moment (field-independent basis, Debye-Ang):
   XX=              1.5982   YY=             -0.1094   ZZ=             -1.4888
   XY=             -0.0351   XZ=             -0.0003   YZ=              0.0002
 Octapole moment (field-independent basis, Debye-Ang**2):
  XXX=              2.0544  YYY=              2.9469  ZZZ=              0.0071  XYY=             -0.1669
  XXY=              0.1797  XXZ=             -0.0020  XZZ=              0.4795  YZZ=              0.1604
  YYZ=             -0.0065  XYZ=              0.0019
 Hexadecapole moment (field-independent basis, Debye-Ang**3):
 XXXX=           -437.7919 YYYY=            -61.2040 ZZZZ=            -44.2857 XXXY=             -2.4359
 XXXZ=             -0.0077 YYYX=              3.2155 YYYZ=             -0.0023 ZZZX=              0.0147
 ZZZY=              0.0014 XXYY=            -82.3532 XXZZ=            -75.1011 YYZZ=            -18.6753
 XXYZ=              0.0089 YYXZ=             -0.0139 ZZXY=             -2.1325
 N-N= 1.080095692507D+02 E-N=-5.780367643472D+02  KE= 1.555509296433D+02
                          Isotropic Fermi Contact Couplings
        Atom                 a.u.       MegaHertz       Gauss      10(-4) cm-1
     1  C(13)              0.02754      30.95733      11.04635      10.32625
     2  C(13)              0.32346     363.63226     129.75303     121.29467
     3  C(13)              0.03274      36.80580      13.13323      12.27709
     4  C(13)              0.02877      32.34817      11.54263      10.79019
     5  H(1)               0.02559     114.38191      40.81431      38.15370
     6  H(1)               0.02005      89.64255      31.98669      29.90154
     7  H(1)               0.00200       8.92016       3.18293       2.97544
     8  H(1)              -0.00118      -5.29010      -1.88764      -1.76459
     9  H(1)              -0.00118      -5.28832      -1.88700      -1.76399
    10  H(1)              -0.00053      -2.35105      -0.83891      -0.78423
    11  H(1)               0.00193       8.61830       3.07522       2.87476
 --------------------------------------------------------
       Center         ----  Spin Dipole Couplings  ----
                      3XX-RR        3YY-RR        3ZZ-RR
 --------------------------------------------------------
     1   Atom        0.059081      0.038986     -0.098067
     2   Atom       -0.490298      0.929027     -0.438729
     3   Atom        0.053370     -0.008298     -0.045073
     4   Atom        0.037890     -0.017517     -0.020373
     5   Atom        0.001757      0.008523     -0.010280
     6   Atom        0.003730      0.008950     -0.012680
     7   Atom        0.014941     -0.010228     -0.004714
     8   Atom        0.005661     -0.003005     -0.002656
     9   Atom        0.005660     -0.003004     -0.002656
    10   Atom        0.014634     -0.005072     -0.009562
    11   Atom        0.014825     -0.010178     -0.004647
 --------------------------------------------------------
                        XY            XZ            YZ
 --------------------------------------------------------
     1   Atom       -0.063802      0.000011      0.000000
     2   Atom        0.206587     -0.000015     -0.000134
     3   Atom        0.062882     -0.000006      0.000071
     4   Atom       -0.007393     -0.000001     -0.000000
     5   Atom       -0.006180     -0.000002     -0.000001
     6   Atom        0.006873      0.000003     -0.000074
     7   Atom        0.003464     -0.015671     -0.000739
     8   Atom       -0.003182     -0.003692      0.001094
     9   Atom       -0.003182      0.003691     -0.001095
    10   Atom        0.003954      0.000003      0.000001
    11   Atom        0.003575      0.015672      0.000780
 --------------------------------------------------------


 ---------------------------------------------------------------------------------
              Anisotropic Spin Dipole Couplings in Principal Axis System
 ---------------------------------------------------------------------------------

       Atom             a.u.   MegaHertz   Gauss  10(-4) cm-1        Axes

              Baa    -0.0981   -13.160    -4.696    -4.390 -0.0001 -0.0000  1.0000
     1 C(13)  Bbb    -0.0156    -2.087    -0.745    -0.696  0.6498  0.7601  0.0001
              Bcc     0.1136    15.247     5.440     5.086  0.7601 -0.6498  0.0000
 
              Baa    -0.5198   -69.746   -24.887   -23.265  0.9900 -0.1412 -0.0000
     2 C(13)  Bbb    -0.4387   -58.873   -21.007   -19.638  0.0001  0.0001  1.0000
              Bcc     0.9585   128.620    45.895    42.903  0.1412  0.9900 -0.0001
 
              Baa    -0.0475    -6.374    -2.274    -2.126 -0.5288  0.8483 -0.0260
     3 C(13)  Bbb    -0.0451    -6.048    -2.158    -2.017 -0.0140  0.0220  0.9997
              Bcc     0.0926    12.422     4.433     4.144  0.8486  0.5290  0.0002
 
              Baa    -0.0204    -2.734    -0.976    -0.912  0.0000  0.0001  1.0000
     4 C(13)  Bbb    -0.0185    -2.481    -0.885    -0.827  0.1300  0.9915 -0.0001
              Bcc     0.0389     5.215     1.861     1.739  0.9915 -0.1300 -0.0000
 
              Baa    -0.0103    -5.485    -1.957    -1.829  0.0002  0.0001  1.0000
     5 H(1)   Bbb    -0.0019    -1.017    -0.363    -0.339  0.8603  0.5098 -0.0003
              Bcc     0.0122     6.502     2.320     2.169 -0.5098  0.8603  0.0000
 
              Baa    -0.0127    -6.766    -2.414    -2.257 -0.0018  0.0040  1.0000
     6 H(1)   Bbb    -0.0010    -0.540    -0.193    -0.180  0.8231 -0.5679  0.0038
              Bcc     0.0137     7.306     2.607     2.437  0.5679  0.8231 -0.0023
 
              Baa    -0.0137    -7.319    -2.612    -2.441  0.4848 -0.3080  0.8186
     7 H(1)   Bbb    -0.0102    -5.458    -1.948    -1.821  0.0668  0.9463  0.3165
              Bcc     0.0239    12.777     4.559     4.262  0.8721  0.0988 -0.4793
 
              Baa    -0.0041    -2.212    -0.789    -0.738  0.4445  0.6201  0.6465
     8 H(1)   Bbb    -0.0039    -2.101    -0.750    -0.701 -0.0216  0.7289 -0.6843
              Bcc     0.0081     4.313     1.539     1.439  0.8955 -0.2902 -0.3374
 
              Baa    -0.0041    -2.212    -0.789    -0.738 -0.4446 -0.6191  0.6474
     9 H(1)   Bbb    -0.0039    -2.101    -0.750    -0.701 -0.0209  0.7297  0.6834
              Bcc     0.0081     4.313     1.539     1.439  0.8955 -0.2903  0.3374
 
              Baa    -0.0096    -5.102    -1.820    -1.702 -0.0001 -0.0001  1.0000
    10 H(1)   Bbb    -0.0058    -3.114    -1.111    -1.039 -0.1897  0.9818  0.0000
              Bcc     0.0154     8.216     2.932     2.740  0.9818  0.1897  0.0001
 
              Baa    -0.0137    -7.314    -2.610    -2.440 -0.4871  0.3130  0.8154
    11 H(1)   Bbb    -0.0102    -5.437    -1.940    -1.814  0.0670  0.9442 -0.3224
              Bcc     0.0239    12.751     4.550     4.253  0.8708  0.1024  0.4809
 

 ---------------------------------------------------------------------------------

 Calling FoFJK, ICntrl=  10002127 FMM=F ISym2X=0 I1Cent= 0 IOpClX= 1 NMat=1 NMatS=1 NMatT=0.
 ***** Axes restored to original set *****
 -------------------------------------------------------------------
 Center     Atomic                   Forces (Hartrees/Bohr)
 Number     Number              X              Y              Z
 -------------------------------------------------------------------
      1        6          -0.000160612    0.025489428    0.000006018
      2        6          -0.002310038   -0.042857626    0.000006424
      3        6          -0.017884075    0.025857652   -0.000024703
      4        6          -0.003793645    0.000427306   -0.000009018
      5        1           0.002540121    0.000590813    0.000010355
      6        1          -0.000823227   -0.014354886    0.000055116
      7        1           0.010489119    0.003264764    0.009180305
      8        1           0.000614008    0.000545926    0.001299777
      9        1           0.000617147    0.000545998   -0.001298720
     10        1           0.000252204   -0.002736154   -0.000001448
     11        1           0.010458999    0.003226779   -0.009224106
 -------------------------------------------------------------------
 Cartesian Forces:  Max     0.042857626 RMS     0.011187862

 GradGradGradGradGradGradGradGradGradGradGradGradGradGradGradGradGradGrad
 Berny optimization.
 FormGI is forming the generalized inverse of G from B-inverse, IUseBI=4.
 Internal  Forces:  Max     0.039849160 RMS     0.008353025
 Search for a local minimum.
 Step number   1 out of a maximum of  100
 All quantities printed in internal units (Hartrees-Bohrs-Radians)
 Mixed Optimization -- RFO/linear search
 Second derivative matrix not updated -- first step.
 ITU=  0
     Eigenvalues ---    0.00775   0.00775   0.01353   0.03023   0.07188
     Eigenvalues ---    0.07266   0.10144   0.10144   0.16000   0.16000
     Eigenvalues ---    0.16000   0.16000   0.16000   0.16000   0.16000
     Eigenvalues ---    0.22000   0.25000   0.32448   0.32448   0.34409
     Eigenvalues ---    0.34409   0.34658   0.34892   0.37230   0.37230
     Eigenvalues ---    0.37230   0.59663
 RFO step:  Lambda=-9.05239680D-03 EMin= 7.74886826D-03
 Linear search not attempted -- first point.
 Iteration  1 RMS(Cart)=  0.07113663 RMS(Int)=  0.00239089
 Iteration  2 RMS(Cart)=  0.00447057 RMS(Int)=  0.00018962
 Iteration  3 RMS(Cart)=  0.00000279 RMS(Int)=  0.00018961
 Iteration  4 RMS(Cart)=  0.00000000 RMS(Int)=  0.00018961
 Variable       Old X    -DE/DX   Delta X   Delta X   Delta X     New X
                                 (Linear)    (Quad)   (Total)
    R1        2.51208  -0.01489   0.00000  -0.02458  -0.02458   2.48751
    R2        2.83331   0.00181   0.00000   0.00541   0.00541   2.83873
    R3        2.05850  -0.00023   0.00000  -0.00064  -0.00064   2.05786
    R4        2.83331  -0.00358   0.00000  -0.01073  -0.01073   2.82258
    R5        2.02201   0.01434   0.00000   0.03760   0.03760   2.05961
    R6        2.02201   0.01350   0.00000   0.03539   0.03539   2.05740
    R7        2.02201   0.01350   0.00000   0.03540   0.03540   2.05741
    R8        2.06645  -0.00153   0.00000  -0.00433  -0.00433   2.06212
    R9        2.06645  -0.00153   0.00000  -0.00433  -0.00433   2.06212
   R10        2.06234  -0.00274   0.00000  -0.00772  -0.00772   2.05462
    A1        2.17998   0.00500   0.00000   0.02185   0.02185   2.20183
    A2        2.06927  -0.00518   0.00000  -0.02674  -0.02674   2.04253
    A3        2.03393   0.00017   0.00000   0.00489   0.00489   2.03882
    A4        2.17998   0.03985   0.00000   0.15383   0.15383   2.33381
    A5        1.91063  -0.00391   0.00000  -0.02470  -0.02459   1.88605
    A6        1.91063   0.00615   0.00000   0.03717   0.03688   1.94751
    A7        1.91063   0.00612   0.00000   0.03701   0.03671   1.94734
    A8        1.91063  -0.00175   0.00000  -0.01195  -0.01184   1.89879
    A9        1.91063  -0.00173   0.00000  -0.01182  -0.01171   1.89892
   A10        1.91063  -0.00488   0.00000  -0.02572  -0.02636   1.88427
   A11        1.93817   0.00022   0.00000   0.00134   0.00134   1.93952
   A12        1.93817   0.00021   0.00000   0.00131   0.00131   1.93948
   A13        1.93938  -0.00026   0.00000  -0.00164  -0.00164   1.93774
   A14        1.86720  -0.00018   0.00000  -0.00084  -0.00084   1.86635
   A15        1.88918   0.00000   0.00000  -0.00010  -0.00010   1.88908
   A16        1.88918   0.00000   0.00000  -0.00010  -0.00009   1.88909
    D1        3.14152   0.00002   0.00000   0.00048   0.00048  -3.14119
    D2       -0.00011   0.00002   0.00000   0.00050   0.00050   0.00040
    D3        2.10368  -0.00003   0.00000  -0.00029  -0.00029   2.10338
    D4       -2.10412   0.00003   0.00000   0.00038   0.00038  -2.10374
    D5       -0.00022   0.00000   0.00000   0.00004   0.00004  -0.00018
    D6       -1.03789  -0.00003   0.00000  -0.00032  -0.00032  -1.03820
    D7        1.03750   0.00003   0.00000   0.00036   0.00036   1.03786
    D8        3.14140  -0.00000   0.00000   0.00001   0.00001   3.14141
    D9       -0.00373   0.00001   0.00000   0.00075   0.00075  -0.00299
   D10       -2.09813   0.00078   0.00000   0.00774   0.00833  -2.08980
   D11        2.09066  -0.00076   0.00000  -0.00619  -0.00678   2.08388
         Item               Value     Threshold  Converged?
 Maximum Force            0.039849     0.000450     NO 
 RMS     Force            0.008353     0.000300     NO 
 Maximum Displacement     0.220710     0.001800     NO 
 RMS     Displacement     0.069809     0.001200     NO 
 Predicted change in Energy=-4.681550D-03
 GradGradGradGradGradGradGradGradGradGradGradGradGradGradGradGradGradGrad

                          Input orientation:                          
 ---------------------------------------------------------------------
 Center     Atomic      Atomic             Coordinates (Angstroms)
 Number     Number       Type             X           Y           Z
 ---------------------------------------------------------------------
      1          6           0       -0.573251   -0.440572    0.000256
      2          6           0        0.528573    0.279645    0.000086
      3          6           0        1.983281   -0.059184   -0.000104
      4          6           0       -1.978710    0.089763   -0.000052
      5          1           0       -0.456729   -1.523292    0.000654
      6          1           0        2.077344   -1.145009    0.003009
      7          1           0        2.487379    0.339052    0.878887
      8          1           0       -2.529083   -0.255268   -0.876877
      9          1           0       -2.529306   -0.254942    0.876757
     10          1           0       -1.985371    1.177003   -0.000261
     11          1           0        2.485801    0.333998   -0.882271
 ---------------------------------------------------------------------
                    Distance matrix (angstroms):
                    1          2          3          4          5
     1  C    0.000000
     2  C    1.316332   0.000000
     3  C    2.584823   1.493646   0.000000
     4  C    1.502189   2.514463   3.964790   0.000000
     5  H    1.088973   2.054606   2.845569   2.217741   0.000000
     6  H    2.742607   2.104362   1.089897   4.239840   2.562153
     7  H    3.278302   2.147729   1.088729   4.558578   3.592686
     8  H    2.151506   3.225594   4.600935   1.091228   2.583137
     9  H    2.151479   3.225672   4.601156   1.091225   2.582991
    10  H    2.147238   2.669300   4.156723   1.087260   3.102957
    11  H    3.276677   2.147615   1.088732   4.557392   3.589926
                    6          7          8          9         10
     6  H    0.000000
     7  H    1.771364   0.000000
     8  H    4.773364   5.347973   0.000000
     9  H    4.772512   5.051728   1.753634   0.000000
    10  H    4.679466   4.634711   1.765072   1.765076   0.000000
    11  H    1.771446   1.761165   5.049389   5.347179   4.634650
                   11
    11  H    0.000000
 Stoichiometry    C4H7(2)
 Framework group  C1[X(C4H7)]
 Deg. of freedom    27
 Full point group                 C1      NOp   1
 Largest Abelian subgroup         C1      NOp   1
 Largest concise Abelian subgroup C1      NOp   1
                         Standard orientation:                         
 ---------------------------------------------------------------------
 Center     Atomic      Atomic             Coordinates (Angstroms)
 Number     Number       Type             X           Y           Z
 ---------------------------------------------------------------------
      1          6           0       -0.548700    0.375830   -0.000057
      2          6           0        0.548728   -0.351067   -0.000209
      3          6           0        2.005467   -0.021082    0.000087
      4          6           0       -1.957355   -0.145956    0.000064
      5          1           0       -0.425602    1.457823   -0.000012
      6          1           0        2.106125    1.064153   -0.002580
      7          1           0        2.507119   -0.422011   -0.879078
      8          1           0       -2.505604    0.202051    0.877044
      9          1           0       -2.505864    0.202449   -0.876590
     10          1           0       -1.970621   -1.233136   -0.000175
     11          1           0        2.505608   -0.417674    0.882081
 ---------------------------------------------------------------------
 Rotational constants (GHZ):          42.8967761           3.6498403           3.5090386
 Standard basis: CC-pVTZ (5D, 7F)
 There are   245 symmetry adapted cartesian basis functions of A   symmetry.
 There are   218 symmetry adapted basis functions of A   symmetry.
   218 basis functions,   327 primitive gaussians,   245 cartesian basis functions
    16 alpha electrons       15 beta electrons
       nuclear repulsion energy       107.4398845301 Hartrees.
 NAtoms=   11 NActive=   11 NUniq=   11 SFac= 1.00D+00 NAtFMM=   60 NAOKFM=F Big=F
 Integral buffers will be    131072 words long.
 Raffenetti 2 integral format.
 Two-electron integral symmetry is turned on.
 Nuclear repulsion after empirical dispersion term =      107.4350628941 Hartrees.
 One-electron integrals computed using PRISM.
 NBasis=   218 RedAO= T EigKep=  3.45D-04  NBF=   218
 NBsUse=   218 1.00D-06 EigRej= -1.00D+00 NBFU=   218
 Initial guess from the checkpoint file:  "/localscratch/339542/Gau-23149.chk"
 B after Tr=     0.000000   -0.000000    0.000000
         Rot=    0.999999   -0.000193   -0.000005   -0.001462 Ang=  -0.17 deg.
 Initial guess <Sx>= 0.0000 <Sy>= 0.0000 <Sz>= 0.5000 <S**2>= 0.7797 S= 0.5147
 ExpMin= 1.03D-01 ExpMax= 8.24D+03 ExpMxC= 2.81D+02 IAcc=3 IRadAn=         5 AccDes= 0.00D+00
 Harris functional with IExCor=  419 and IRadAn=       5 diagonalized for initial guess.
 HarFok:  IExCor=  419 AccDes= 0.00D+00 IRadAn=         5 IDoV= 1 UseB2=F ITyADJ=14
 ICtDFT=  3500011 ScaDFX=  1.000000  1.000000  1.000000  1.000000
 FoFCou: FMM=F IPFlag=           0 FMFlag=      100000 FMFlg1=           0
         NFxFlg=           0 DoJE=T BraDBF=F KetDBF=T FulRan=T
         wScrn=  0.000000 ICntrl=       500 IOpCl=  0 I1Cent=   200000004 NGrid=           0
         NMat0=    1 NMatS0=      1 NMatT0=    0 NMatD0=    1 NMtDS0=    0 NMtDT0=    0
 Petite list used in FoFCou.
 Keep R1 and R2 ints in memory in canonical form, NReq=612885869.
 Requested convergence on RMS density matrix=1.00D-08 within 128 cycles.
 Requested convergence on MAX density matrix=1.00D-06.
 Requested convergence on             energy=1.00D-06.
 No special actions if energy rises.
 Integral accuracy reduced to 1.0D-05 until final iterations.
 Initial convergence to 1.0D-05 achieved.  Increase integral accuracy.
 SCF Done:  E(UB2PLYPD3) =  -156.237454335     A.U. after   14 cycles
            NFock= 14  Conv=0.37D-08     -V/T= 2.0048
 <Sx>= 0.0000 <Sy>= 0.0000 <Sz>= 0.5000 <S**2>= 0.7753 S= 0.5126
 <L.S>=  0.00000000000    
 Annihilation of the first spin contaminant:
 S**2 before annihilation     0.7753,   after     0.7502
 DoSCS=T DFT=T ScalE2(SS,OS)=  0.270000  0.270000
 ExpMin= 1.03D-01 ExpMax= 8.24D+03 ExpMxC= 2.81D+02 IAcc=3 IRadAn=         5 AccDes= 0.00D+00
 HarFok:  IExCor=  205 AccDes= 0.00D+00 IRadAn=         5 IDoV=-2 UseB2=F ITyADJ=14
 ICtDFT= 12500011 ScaDFX=  1.000000  1.000000  1.000000  1.000000
 Range of M.O.s used for correlation:     5   218
 NBasis=   218 NAE=    16 NBE=    15 NFC=     4 NFV=     0
 NROrb=    214 NOA=    12 NOB=    11 NVA=   202 NVB=   203

 **** Warning!!: The largest alpha MO coefficient is  0.18572740D+02


 **** Warning!!: The largest beta MO coefficient is  0.18978093D+02

 DoSCS=T DFT=T ScalE2(SS,OS)=  0.270000  0.270000
 Fully direct method using O(ONN) memory.
 JobTyp=2 Pass  1:  I=   5 to  16 NPSUse= 40 ParTrn=T ParDer=T DoDerP=T.
 JobTyp=3 Pass  1:  I=   5 to  15 NPSUse= 40 ParTrn=T ParDer=T DoDerP=T.
 Spin components of T(2) and E(2):
     alpha-alpha T2 =       0.4172132034D-01 E2=     -0.2598027300D-01
     alpha-beta  T2 =       0.2444995484D+00 E2=     -0.1630781079D+00
     beta-beta   T2 =       0.3660469382D-01 E2=     -0.2235485416D-01
 (S**2,0)=  0.77530D+00           (S**2,1)=  0.75784D+00
 Scaling Projection term by:   0.270000
 E(PUHF)=      -0.15624078628D+03        E(PMP2)=      -0.15644945846D+03
 E2(B2PLYPD3) =    -0.2114132351D+00 E(B2PLYPD3) =    -0.15644886757046D+03
          IDoAtm=11111111111
          Differentiating once with respect to electric field.
                with respect to dipole field.
          Differentiating once with respect to nuclear coordinates.
 Keep R1 and R2 ints in memory in canonical form, NReq=612894013.
          There are     1 degrees of freedom in the 1st order CPHF.  IDoFFX=0 NUNeed=     1.
 LinEq1:  Iter=  0 NonCon=     1 RMS=7.99D-04 Max=1.82D-02 NDo=     1
 AX will form     1 AO Fock derivatives at one time.
 LinEq1:  Iter=  1 NonCon=     1 RMS=3.10D-04 Max=9.78D-03 NDo=     1
 LinEq1:  Iter=  2 NonCon=     1 RMS=2.01D-04 Max=7.10D-03 NDo=     1
 LinEq1:  Iter=  3 NonCon=     1 RMS=4.48D-05 Max=1.16D-03 NDo=     1
 LinEq1:  Iter=  4 NonCon=     1 RMS=1.76D-05 Max=5.71D-04 NDo=     1
 LinEq1:  Iter=  5 NonCon=     1 RMS=9.48D-06 Max=2.46D-04 NDo=     1
 LinEq1:  Iter=  6 NonCon=     1 RMS=3.13D-06 Max=5.65D-05 NDo=     1
 LinEq1:  Iter=  7 NonCon=     1 RMS=1.17D-06 Max=1.43D-05 NDo=     1
 LinEq1:  Iter=  8 NonCon=     1 RMS=5.01D-07 Max=5.87D-06 NDo=     1
 LinEq1:  Iter=  9 NonCon=     1 RMS=1.42D-07 Max=1.84D-06 NDo=     1
 LinEq1:  Iter= 10 NonCon=     1 RMS=3.86D-08 Max=8.53D-07 NDo=     1
 LinEq1:  Iter= 11 NonCon=     1 RMS=1.09D-08 Max=1.81D-07 NDo=     1
 LinEq1:  Iter= 12 NonCon=     1 RMS=4.77D-09 Max=5.80D-08 NDo=     1
 LinEq1:  Iter= 13 NonCon=     1 RMS=1.80D-09 Max=2.48D-08 NDo=     1
 LinEq1:  Iter= 14 NonCon=     1 RMS=5.91D-10 Max=1.10D-08 NDo=     1
 LinEq1:  Iter= 15 NonCon=     1 RMS=1.33D-10 Max=2.08D-09 NDo=     1
 LinEq1:  Iter= 16 NonCon=     0 RMS=3.45D-11 Max=4.43D-10 NDo=     1
 Linear equations converged to 1.000D-10 1.000D-09 after    16 iterations.
 End of Minotr F.D. properties file   721 does not exist.
 End of Minotr F.D. properties file   722 does not exist.
 End of Minotr F.D. properties file   788 does not exist.
 Calling FoFJK, ICntrl=  10002127 FMM=F ISym2X=0 I1Cent= 0 IOpClX= 1 NMat=1 NMatS=1 NMatT=0.
 ***** Axes restored to original set *****
 -------------------------------------------------------------------
 Center     Atomic                   Forces (Hartrees/Bohr)
 Number     Number              X              Y              Z
 -------------------------------------------------------------------
      1        6           0.002380740    0.009546058    0.000001860
      2        6           0.006416612   -0.011383106   -0.000017732
      3        6          -0.011973024    0.007719896    0.000004850
      4        6          -0.000528262   -0.000034115    0.000002280
      5        1          -0.000154777   -0.002284989    0.000004555
      6        1           0.002265290   -0.002829542   -0.000000843
      7        1           0.000090555   -0.000167334    0.000299688
      8        1           0.000545318   -0.000170460    0.000058164
      9        1           0.000541659   -0.000168848   -0.000057166
     10        1           0.000319709   -0.000062720   -0.000000365
     11        1           0.000096181   -0.000164840   -0.000295291
 -------------------------------------------------------------------
 Cartesian Forces:  Max     0.011973024 RMS     0.003854032

 GradGradGradGradGradGradGradGradGradGradGradGradGradGradGradGradGradGrad
 Berny optimization.
 Using GEDIIS/GDIIS optimizer.
 FormGI is forming the generalized inverse of G from B-inverse, IUseBI=4.
 Internal  Forces:  Max     0.010306755 RMS     0.002740745
 Search for a local minimum.
 Step number   2 out of a maximum of  100
 All quantities printed in internal units (Hartrees-Bohrs-Radians)
 Mixed Optimization -- RFO/linear search
 Update second derivatives using D2CorX and points    1    2
 DE= -5.32D-03 DEPred=-4.68D-03 R= 1.14D+00
 TightC=F SS=  1.41D+00  RLast= 1.85D-01 DXNew= 5.0454D-01 5.5360D-01
 Trust test= 1.14D+00 RLast= 1.85D-01 DXMaxT set to 5.05D-01
 ITU=  1  0
 Use linear search instead of GDIIS.
     Eigenvalues ---    0.00775   0.00775   0.01339   0.03023   0.07194
     Eigenvalues ---    0.07253   0.09818   0.10145   0.15311   0.16000
     Eigenvalues ---    0.16000   0.16000   0.16000   0.16000   0.16809
     Eigenvalues ---    0.19047   0.22095   0.32405   0.33109   0.34409
     Eigenvalues ---    0.34418   0.34682   0.34924   0.37088   0.37230
     Eigenvalues ---    0.39769   0.58555
 RFO step:  Lambda=-9.03909013D-04 EMin= 7.74886824D-03
 Quartic linear search produced a step of  0.30107.
 Iteration  1 RMS(Cart)=  0.03982998 RMS(Int)=  0.00095149
 Iteration  2 RMS(Cart)=  0.00150122 RMS(Int)=  0.00005577
 Iteration  3 RMS(Cart)=  0.00000049 RMS(Int)=  0.00005576
 Variable       Old X    -DE/DX   Delta X   Delta X   Delta X     New X
                                 (Linear)    (Quad)   (Total)
    R1        2.48751  -0.00633  -0.00740  -0.00908  -0.01648   2.47103
    R2        2.83873  -0.00098   0.00163  -0.00489  -0.00326   2.83547
    R3        2.05786   0.00226  -0.00019   0.00850   0.00831   2.06617
    R4        2.82258  -0.01031  -0.00323  -0.03924  -0.04247   2.78011
    R5        2.05961   0.00301   0.01132   0.00356   0.01488   2.07448
    R6        2.05740   0.00022   0.01066  -0.00577   0.00489   2.06229
    R7        2.05741   0.00022   0.01066  -0.00576   0.00490   2.06230
    R8        2.06212  -0.00027  -0.00130  -0.00022  -0.00152   2.06060
    R9        2.06212  -0.00027  -0.00130  -0.00021  -0.00151   2.06060
   R10        2.05462  -0.00006  -0.00232   0.00117  -0.00115   2.05348
    A1        2.20183   0.00018   0.00658  -0.00270   0.00388   2.20571
    A2        2.04253   0.00032  -0.00805   0.00722  -0.00084   2.04170
    A3        2.03882  -0.00050   0.00147  -0.00452  -0.00304   2.03578
    A4        2.33381   0.01012   0.04631   0.02538   0.07169   2.40550
    A5        1.88605   0.00302  -0.00740   0.02952   0.02211   1.90815
    A6        1.94751  -0.00045   0.01110  -0.01014   0.00085   1.94836
    A7        1.94734  -0.00044   0.01105  -0.01006   0.00088   1.94822
    A8        1.89879  -0.00108  -0.00356  -0.00573  -0.00931   1.88949
    A9        1.89892  -0.00108  -0.00353  -0.00580  -0.00934   1.88958
   A10        1.88427  -0.00004  -0.00794   0.00203  -0.00611   1.87816
   A11        1.93952  -0.00055   0.00040  -0.00479  -0.00439   1.93513
   A12        1.93948  -0.00055   0.00039  -0.00472  -0.00434   1.93515
   A13        1.93774  -0.00020  -0.00049  -0.00114  -0.00163   1.93611
   A14        1.86635   0.00051  -0.00025   0.00387   0.00361   1.86996
   A15        1.88908   0.00043  -0.00003   0.00368   0.00364   1.89272
   A16        1.88909   0.00043  -0.00003   0.00368   0.00364   1.89273
    D1       -3.14119   0.00000   0.00014   0.00005   0.00020  -3.14100
    D2        0.00040   0.00000   0.00015   0.00025   0.00041   0.00080
    D3        2.10338   0.00004  -0.00009   0.00084   0.00075   2.10414
    D4       -2.10374  -0.00004   0.00012  -0.00052  -0.00041  -2.10414
    D5       -0.00018   0.00000   0.00001   0.00018   0.00019   0.00001
    D6       -1.03820   0.00004  -0.00010   0.00064   0.00054  -1.03766
    D7        1.03786  -0.00004   0.00011  -0.00073  -0.00061   1.03724
    D8        3.14141  -0.00000   0.00000  -0.00002  -0.00002   3.14140
    D9       -0.00299   0.00001   0.00022   0.00179   0.00202  -0.00097
   D10       -2.08980  -0.00033   0.00251  -0.00397  -0.00131  -2.09111
   D11        2.08388   0.00034  -0.00204   0.00751   0.00532   2.08919
         Item               Value     Threshold  Converged?
 Maximum Force            0.010307     0.000450     NO 
 RMS     Force            0.002741     0.000300     NO 
 Maximum Displacement     0.121268     0.001800     NO 
 RMS     Displacement     0.039769     0.001200     NO 
 Predicted change in Energy=-6.628042D-04
 GradGradGradGradGradGradGradGradGradGradGradGradGradGradGradGradGradGrad

                          Input orientation:                          
 ---------------------------------------------------------------------
 Center     Atomic      Atomic             Coordinates (Angstroms)
 Number     Number       Type             X           Y           Z
 ---------------------------------------------------------------------
      1          6           0       -0.584375   -0.466398    0.000550
      2          6           0        0.530474    0.216947   -0.000064
      3          6           0        1.976214   -0.055410   -0.000246
      4          6           0       -1.974440    0.098503   -0.000157
      5          1           0       -0.498104   -1.556359    0.001892
      6          1           0        2.141516   -1.140661    0.001302
      7          1           0        2.465144    0.366194    0.879623
      8          1           0       -2.529338   -0.236013   -0.877204
      9          1           0       -2.529509   -0.234183    0.877478
     10          1           0       -1.951963    1.184922   -0.001294
     11          1           0        2.464309    0.363653   -0.881799
 ---------------------------------------------------------------------
                    Distance matrix (angstroms):
                    1          2          3          4          5
     1  C    0.000000
     2  C    1.307612   0.000000
     3  C    2.593363   1.471171   0.000000
     4  C    1.500465   2.507713   3.953652   0.000000
     5  H    1.093370   2.050022   2.893977   2.217688   0.000000
     6  H    2.808044   2.106789   1.097769   4.298445   2.672152
     7  H    3.281089   2.130510   1.091317   4.533826   3.639706
     8  H    2.146255   3.215120   4.593656   1.090424   2.577214
     9  H    2.146269   3.215136   4.593898   1.090424   2.577092
    10  H    2.144099   2.664483   4.119345   1.086652   3.102956
    11  H    3.280548   2.130421   1.091323   4.533221   3.639127
                    6          7          8          9         10
     6  H    0.000000
     7  H    1.773922   0.000000
     8  H    4.838082   5.328597   0.000000
     9  H    4.838167   5.030608   1.754683   0.000000
    10  H    4.707963   4.577900   1.766249   1.766256   0.000000
    11  H    1.773985   1.761424   5.029525   5.328290   4.577470
                   11
    11  H    0.000000
 Stoichiometry    C4H7(2)
 Framework group  C1[X(C4H7)]
 Deg. of freedom    27
 Full point group                 C1      NOp   1
 Largest Abelian subgroup         C1      NOp   1
 Largest concise Abelian subgroup C1      NOp   1
                         Standard orientation:                         
 ---------------------------------------------------------------------
 Center     Atomic      Atomic             Coordinates (Angstroms)
 Number     Number       Type             X           Y           Z
 ---------------------------------------------------------------------
      1          6           0       -0.557390    0.390044   -0.000042
      2          6           0        0.552555   -0.301240   -0.000306
      3          6           0        2.000202   -0.039206    0.000110
      4          6           0       -1.951450   -0.164924    0.000079
      5          1           0       -0.463343    1.479362   -0.000094
      6          1           0        2.173243    1.044839   -0.000158
      7          1           0        2.486064   -0.463243   -0.880289
      8          1           0       -2.503901    0.172501    0.877557
      9          1           0       -2.504177    0.172758   -0.877126
     10          1           0       -1.936727   -1.251476   -0.000076
     11          1           0        2.485340   -0.462789    0.881135
 ---------------------------------------------------------------------
 Rotational constants (GHZ):          43.0593128           3.6603620           3.5199664
 Standard basis: CC-pVTZ (5D, 7F)
 There are   245 symmetry adapted cartesian basis functions of A   symmetry.
 There are   218 symmetry adapted basis functions of A   symmetry.
   218 basis functions,   327 primitive gaussians,   245 cartesian basis functions
    16 alpha electrons       15 beta electrons
       nuclear repulsion energy       107.7051060797 Hartrees.
 NAtoms=   11 NActive=   11 NUniq=   11 SFac= 1.00D+00 NAtFMM=   60 NAOKFM=F Big=F
 Integral buffers will be    131072 words long.
 Raffenetti 2 integral format.
 Two-electron integral symmetry is turned on.
 Nuclear repulsion after empirical dispersion term =      107.7002905983 Hartrees.
 One-electron integrals computed using PRISM.
 NBasis=   218 RedAO= T EigKep=  3.18D-04  NBF=   218
 NBsUse=   218 1.00D-06 EigRej= -1.00D+00 NBFU=   218
 Initial guess from the checkpoint file:  "/localscratch/339542/Gau-23149.chk"
 B after Tr=     0.000000    0.000000   -0.000000
         Rot=    1.000000   -0.000346   -0.000007   -0.000437 Ang=  -0.06 deg.
 Initial guess <Sx>= 0.0000 <Sy>= 0.0000 <Sz>= 0.5000 <S**2>= 0.7751 S= 0.5124
 ExpMin= 1.03D-01 ExpMax= 8.24D+03 ExpMxC= 2.81D+02 IAcc=3 IRadAn=         5 AccDes= 0.00D+00
 Harris functional with IExCor=  419 and IRadAn=       5 diagonalized for initial guess.
 HarFok:  IExCor=  419 AccDes= 0.00D+00 IRadAn=         5 IDoV= 1 UseB2=F ITyADJ=14
 ICtDFT=  3500011 ScaDFX=  1.000000  1.000000  1.000000  1.000000
 FoFCou: FMM=F IPFlag=           0 FMFlag=      100000 FMFlg1=           0
         NFxFlg=           0 DoJE=T BraDBF=F KetDBF=T FulRan=T
         wScrn=  0.000000 ICntrl=       500 IOpCl=  0 I1Cent=   200000004 NGrid=           0
         NMat0=    1 NMatS0=      1 NMatT0=    0 NMatD0=    1 NMtDS0=    0 NMtDT0=    0
 Petite list used in FoFCou.
 Keep R1 and R2 ints in memory in canonical form, NReq=612885869.
 Requested convergence on RMS density matrix=1.00D-08 within 128 cycles.
 Requested convergence on MAX density matrix=1.00D-06.
 Requested convergence on             energy=1.00D-06.
 No special actions if energy rises.
 Integral accuracy reduced to 1.0D-05 until final iterations.
 Initial convergence to 1.0D-05 achieved.  Increase integral accuracy.
 SCF Done:  E(UB2PLYPD3) =  -156.238278480     A.U. after   14 cycles
            NFock= 14  Conv=0.29D-08     -V/T= 2.0046
 <Sx>= 0.0000 <Sy>= 0.0000 <Sz>= 0.5000 <S**2>= 0.7732 S= 0.5115
 <L.S>=  0.00000000000    
 Annihilation of the first spin contaminant:
 S**2 before annihilation     0.7732,   after     0.7502
 DoSCS=T DFT=T ScalE2(SS,OS)=  0.270000  0.270000
 ExpMin= 1.03D-01 ExpMax= 8.24D+03 ExpMxC= 2.81D+02 IAcc=3 IRadAn=         5 AccDes= 0.00D+00
 HarFok:  IExCor=  205 AccDes= 0.00D+00 IRadAn=         5 IDoV=-2 UseB2=F ITyADJ=14
 ICtDFT= 12500011 ScaDFX=  1.000000  1.000000  1.000000  1.000000
 Range of M.O.s used for correlation:     5   218
 NBasis=   218 NAE=    16 NBE=    15 NFC=     4 NFV=     0
 NROrb=    214 NOA=    12 NOB=    11 NVA=   202 NVB=   203

 **** Warning!!: The largest alpha MO coefficient is  0.15422843D+02


 **** Warning!!: The largest beta MO coefficient is  0.17736731D+02

 DoSCS=T DFT=T ScalE2(SS,OS)=  0.270000  0.270000
 Fully direct method using O(ONN) memory.
 JobTyp=2 Pass  1:  I=   5 to  16 NPSUse= 40 ParTrn=T ParDer=T DoDerP=T.
 JobTyp=3 Pass  1:  I=   5 to  15 NPSUse= 40 ParTrn=T ParDer=T DoDerP=T.
 Spin components of T(2) and E(2):
     alpha-alpha T2 =       0.4166460765D-01 E2=     -0.2601079530D-01
     alpha-beta  T2 =       0.2436279593D+00 E2=     -0.1630247529D+00
     beta-beta   T2 =       0.3654359179D-01 E2=     -0.2237748833D-01
 (S**2,0)=  0.77323D+00           (S**2,1)=  0.75642D+00
 Scaling Projection term by:   0.270000
 E(PUHF)=      -0.15624157386D+03        E(PMP2)=      -0.15645026109D+03
 E2(B2PLYPD3) =    -0.2114130365D+00 E(B2PLYPD3) =    -0.15644969151619D+03
          IDoAtm=11111111111
          Differentiating once with respect to electric field.
                with respect to dipole field.
          Differentiating once with respect to nuclear coordinates.
 Keep R1 and R2 ints in memory in canonical form, NReq=612894013.
          There are     1 degrees of freedom in the 1st order CPHF.  IDoFFX=0 NUNeed=     1.
 LinEq1:  Iter=  0 NonCon=     1 RMS=7.93D-04 Max=1.97D-02 NDo=     1
 AX will form     1 AO Fock derivatives at one time.
 LinEq1:  Iter=  1 NonCon=     1 RMS=3.05D-04 Max=9.25D-03 NDo=     1
 LinEq1:  Iter=  2 NonCon=     1 RMS=1.94D-04 Max=6.98D-03 NDo=     1
 LinEq1:  Iter=  3 NonCon=     1 RMS=4.35D-05 Max=9.90D-04 NDo=     1
 LinEq1:  Iter=  4 NonCon=     1 RMS=1.30D-05 Max=3.36D-04 NDo=     1
 LinEq1:  Iter=  5 NonCon=     1 RMS=7.79D-06 Max=2.30D-04 NDo=     1
 LinEq1:  Iter=  6 NonCon=     1 RMS=3.04D-06 Max=5.68D-05 NDo=     1
 LinEq1:  Iter=  7 NonCon=     1 RMS=1.17D-06 Max=1.66D-05 NDo=     1
 LinEq1:  Iter=  8 NonCon=     1 RMS=4.92D-07 Max=5.51D-06 NDo=     1
 LinEq1:  Iter=  9 NonCon=     1 RMS=1.42D-07 Max=1.99D-06 NDo=     1
 LinEq1:  Iter= 10 NonCon=     1 RMS=4.04D-08 Max=9.76D-07 NDo=     1
 LinEq1:  Iter= 11 NonCon=     1 RMS=1.18D-08 Max=1.90D-07 NDo=     1
 LinEq1:  Iter= 12 NonCon=     1 RMS=4.95D-09 Max=7.20D-08 NDo=     1
 LinEq1:  Iter= 13 NonCon=     1 RMS=1.94D-09 Max=2.92D-08 NDo=     1
 LinEq1:  Iter= 14 NonCon=     1 RMS=6.07D-10 Max=1.20D-08 NDo=     1
 LinEq1:  Iter= 15 NonCon=     1 RMS=1.32D-10 Max=1.98D-09 NDo=     1
 LinEq1:  Iter= 16 NonCon=     0 RMS=3.40D-11 Max=4.11D-10 NDo=     1
 Linear equations converged to 1.000D-10 1.000D-09 after    16 iterations.
 End of Minotr F.D. properties file   721 does not exist.
 End of Minotr F.D. properties file   722 does not exist.
 End of Minotr F.D. properties file   788 does not exist.
 Calling FoFJK, ICntrl=  10002127 FMM=F ISym2X=0 I1Cent= 0 IOpClX= 1 NMat=1 NMatS=1 NMatT=0.
 ***** Axes restored to original set *****
 -------------------------------------------------------------------
 Center     Atomic                   Forces (Hartrees/Bohr)
 Number     Number              X              Y              Z
 -------------------------------------------------------------------
      1        6          -0.000331596   -0.000350685    0.000018709
      2        6           0.002858461    0.000597109   -0.000025371
      3        6          -0.001078812    0.000392505    0.000013838
      4        6          -0.000447168   -0.000052561    0.000003504
      5        1          -0.000916653   -0.000473279   -0.000007783
      6        1           0.001222099    0.001070875   -0.000007827
      7        1          -0.000555165   -0.000658178   -0.000694405
      8        1          -0.000107188   -0.000071489   -0.000147980
      9        1          -0.000107789   -0.000070038    0.000147695
     10        1           0.000015579    0.000278642   -0.000000310
     11        1          -0.000551769   -0.000662902    0.000699930
 -------------------------------------------------------------------
 Cartesian Forces:  Max     0.002858461 RMS     0.000709222

 GradGradGradGradGradGradGradGradGradGradGradGradGradGradGradGradGradGrad
 Berny optimization.
 Using GEDIIS/GDIIS optimizer.
 FormGI is forming the generalized inverse of G from B-inverse, IUseBI=4.
 Internal  Forces:  Max     0.002393357 RMS     0.000774380
 Search for a local minimum.
 Step number   3 out of a maximum of  100
 All quantities printed in internal units (Hartrees-Bohrs-Radians)
 Mixed Optimization -- En-DIIS/RFO-DIIS
 Update second derivatives using D2CorX and points    1    2    3
 DE= -8.24D-04 DEPred=-6.63D-04 R= 1.24D+00
 TightC=F SS=  1.41D+00  RLast= 9.17D-02 DXNew= 8.4853D-01 2.7516D-01
 Trust test= 1.24D+00 RLast= 9.17D-02 DXMaxT set to 5.05D-01
 ITU=  1  1  0
 Use linear search instead of GDIIS.
     Eigenvalues ---    0.00775   0.00775   0.01340   0.03024   0.07224
     Eigenvalues ---    0.07301   0.09739   0.09997   0.11415   0.16000
     Eigenvalues ---    0.16000   0.16000   0.16000   0.16081   0.16529
     Eigenvalues ---    0.18936   0.22149   0.32366   0.34184   0.34409
     Eigenvalues ---    0.34426   0.34683   0.35104   0.37230   0.37268
     Eigenvalues ---    0.40365   0.61313
 RFO step:  Lambda=-8.75936650D-05 EMin= 7.74848746D-03
 Quartic linear search produced a step of  0.17959.
 Iteration  1 RMS(Cart)=  0.01620098 RMS(Int)=  0.00016184
 Iteration  2 RMS(Cart)=  0.00019536 RMS(Int)=  0.00000656
 Iteration  3 RMS(Cart)=  0.00000000 RMS(Int)=  0.00000656
 Variable       Old X    -DE/DX   Delta X   Delta X   Delta X     New X
                                 (Linear)    (Quad)   (Total)
    R1        2.47103   0.00200  -0.00296   0.00494   0.00198   2.47301
    R2        2.83547   0.00063  -0.00058   0.00278   0.00220   2.83766
    R3        2.06617   0.00040   0.00149   0.00042   0.00192   2.06809
    R4        2.78011  -0.00097  -0.00763   0.00071  -0.00692   2.77319
    R5        2.07448  -0.00087   0.00267  -0.00315  -0.00048   2.07400
    R6        2.06229  -0.00106   0.00088  -0.00274  -0.00186   2.06043
    R7        2.06230  -0.00107   0.00088  -0.00276  -0.00188   2.06043
    R8        2.06060   0.00020  -0.00027   0.00069   0.00041   2.06102
    R9        2.06060   0.00020  -0.00027   0.00069   0.00041   2.06102
   R10        2.05348   0.00028  -0.00021   0.00082   0.00061   2.05409
    A1        2.20571  -0.00035   0.00070  -0.00152  -0.00083   2.20488
    A2        2.04170   0.00116  -0.00015   0.00723   0.00708   2.04878
    A3        2.03578  -0.00081  -0.00055  -0.00571  -0.00625   2.02953
    A4        2.40550   0.00239   0.01287   0.00853   0.02141   2.42691
    A5        1.90815   0.00203   0.00397   0.01203   0.01598   1.92414
    A6        1.94836  -0.00037   0.00015  -0.00171  -0.00157   1.94679
    A7        1.94822  -0.00036   0.00016  -0.00168  -0.00153   1.94669
    A8        1.88949  -0.00076  -0.00167  -0.00453  -0.00622   1.88327
    A9        1.88958  -0.00077  -0.00168  -0.00461  -0.00630   1.88328
   A10        1.87816   0.00016  -0.00110   0.00004  -0.00107   1.87709
   A11        1.93513   0.00000  -0.00079   0.00052  -0.00027   1.93485
   A12        1.93515   0.00001  -0.00078   0.00053  -0.00025   1.93489
   A13        1.93611  -0.00001  -0.00029   0.00007  -0.00022   1.93589
   A14        1.86996  -0.00001   0.00065  -0.00058   0.00006   1.87002
   A15        1.89272   0.00001   0.00065  -0.00029   0.00036   1.89309
   A16        1.89273   0.00001   0.00065  -0.00029   0.00036   1.89309
    D1       -3.14100  -0.00001   0.00004  -0.00027  -0.00023  -3.14123
    D2        0.00080  -0.00001   0.00007  -0.00049  -0.00042   0.00039
    D3        2.10414   0.00001   0.00014  -0.00006   0.00008   2.10421
    D4       -2.10414  -0.00001  -0.00007  -0.00011  -0.00018  -2.10433
    D5        0.00001  -0.00000   0.00003  -0.00008  -0.00005  -0.00004
    D6       -1.03766   0.00001   0.00010   0.00016   0.00026  -1.03740
    D7        1.03724  -0.00000  -0.00011   0.00011  -0.00000   1.03724
    D8        3.14140   0.00000  -0.00000   0.00014   0.00013   3.14153
    D9       -0.00097   0.00000   0.00036   0.00023   0.00060  -0.00038
   D10       -2.09111  -0.00015  -0.00024  -0.00095  -0.00120  -2.09231
   D11        2.08919   0.00015   0.00095   0.00134   0.00231   2.09150
         Item               Value     Threshold  Converged?
 Maximum Force            0.002393     0.000450     NO 
 RMS     Force            0.000774     0.000300     NO 
 Maximum Displacement     0.062240     0.001800     NO 
 RMS     Displacement     0.016161     0.001200     NO 
 Predicted change in Energy=-6.246233D-05
 GradGradGradGradGradGradGradGradGradGradGradGradGradGradGradGradGradGrad

                          Input orientation:                          
 ---------------------------------------------------------------------
 Center     Atomic      Atomic             Coordinates (Angstroms)
 Number     Number       Type             X           Y           Z
 ---------------------------------------------------------------------
      1          6           0       -0.589223   -0.476934    0.000586
      2          6           0        0.532190    0.197618   -0.000237
      3          6           0        1.977755   -0.055211   -0.000260
      4          6           0       -1.975117    0.101148   -0.000139
      5          1           0       -0.519715   -1.569107    0.001957
      6          1           0        2.174452   -1.134955    0.001089
      7          1           0        2.459334    0.374315    0.878607
      8          1           0       -2.533024   -0.228716   -0.877312
      9          1           0       -2.533112   -0.226622    0.877762
     10          1           0       -1.942418    1.187631   -0.001439
     11          1           0        2.458807    0.372027   -0.880531
 ---------------------------------------------------------------------
                    Distance matrix (angstroms):
                    1          2          3          4          5
     1  C    0.000000
     2  C    1.308659   0.000000
     3  C    2.601389   1.467508   0.000000
     4  C    1.501627   2.509163   3.955964   0.000000
     5  H    1.094384   2.056168   2.920487   2.215390   0.000000
     6  H    2.840931   2.114894   1.097514   4.329766   2.728923
     7  H    3.284699   2.125435   1.090330   4.528927   3.663351
     8  H    2.147250   3.216607   4.598528   1.090643   2.573554
     9  H    2.147278   3.216666   4.598720   1.090643   2.573533
    10  H    2.145208   2.665298   4.112471   1.086975   3.102209
    11  H    3.284446   2.125368   1.090330   4.528593   3.663110
                    6          7          8          9         10
     6  H    0.000000
     7  H    1.768924   0.000000
     8  H    4.873724   5.326401   0.000000
     9  H    4.873888   5.028484   1.755075   0.000000
    10  H    4.726841   4.561950   1.766921   1.766925   0.000000
    11  H    1.768927   1.759140   5.027851   5.326277   4.561666
                   11
    11  H    0.000000
 Stoichiometry    C4H7(2)
 Framework group  C1[X(C4H7)]
 Deg. of freedom    27
 Full point group                 C1      NOp   1
 Largest Abelian subgroup         C1      NOp   1
 Largest concise Abelian subgroup C1      NOp   1
                         Standard orientation:                         
 ---------------------------------------------------------------------
 Center     Atomic      Atomic             Coordinates (Angstroms)
 Number     Number       Type             X           Y           Z
 ---------------------------------------------------------------------
      1          6           0       -0.561725    0.396398   -0.000046
      2          6           0        0.554670   -0.286427   -0.000173
      3          6           0        2.002064   -0.044292    0.000061
      4          6           0       -1.951856   -0.171423    0.000049
      5          1           0       -0.484145    1.488029   -0.000027
      6          1           0        2.206738    1.033969    0.000076
      7          1           0        2.480395   -0.476243   -0.879392
      8          1           0       -2.507249    0.161436    0.877685
      9          1           0       -2.507472    0.161586   -0.877390
     10          1           0       -1.927190   -1.258118   -0.000043
     11          1           0        2.480005   -0.476199    0.879748
 ---------------------------------------------------------------------
[...]
     Eigenvalues ---    0.05837   0.07779   0.07845   0.09043   0.10996
     Eigenvalues ---    0.11931   0.12223   0.12470   0.14327   0.15086
     Eigenvalues ---    0.15774   0.16678   0.31276   0.31848   0.32954
     Eigenvalues ---    0.33099   0.33391   0.33678   0.34126   0.34961
     Eigenvalues ---    0.35453   0.65735
 Angle between quadratic step and forces=  34.28 degrees.
 Linear search not attempted -- first point.
 Iteration  1 RMS(Cart)=  0.00022836 RMS(Int)=  0.00000003
 Iteration  2 RMS(Cart)=  0.00000004 RMS(Int)=  0.00000000
 Variable       Old X    -DE/DX   Delta X   Delta X   Delta X     New X
                                 (Linear)    (Quad)   (Total)
    R1        2.47254  -0.00003   0.00000  -0.00004  -0.00004   2.47250
    R2        2.83907   0.00002   0.00000   0.00013   0.00013   2.83920
    R3        2.06724  -0.00001   0.00000  -0.00007  -0.00007   2.06717
    R4        2.77371   0.00003   0.00000   0.00012   0.00012   2.77383
    R5        2.07217   0.00002   0.00000   0.00006   0.00006   2.07223
    R6        2.05964   0.00001   0.00000   0.00003   0.00003   2.05967
    R7        2.05964   0.00001   0.00000   0.00003   0.00003   2.05967
    R8        2.06118  -0.00001   0.00000  -0.00002  -0.00002   2.06116
    R9        2.06118  -0.00000   0.00000  -0.00002  -0.00002   2.06116
   R10        2.05424  -0.00000   0.00000  -0.00001  -0.00001   2.05422
    A1        2.20092  -0.00005   0.00000  -0.00036  -0.00036   2.20056
    A2        2.05483   0.00002   0.00000   0.00022   0.00022   2.05505
    A3        2.02743   0.00002   0.00000   0.00015   0.00015   2.02758
    A4        2.43177   0.00000   0.00000  -0.00001  -0.00001   2.43177
    A5        1.92763  -0.00004   0.00000  -0.00030  -0.00030   1.92732
    A6        1.94472   0.00001   0.00000   0.00003   0.00003   1.94474
    A7        1.94471   0.00001   0.00000   0.00004   0.00004   1.94474
    A8        1.88290   0.00002   0.00000   0.00014   0.00014   1.88304
    A9        1.88290   0.00002   0.00000   0.00014   0.00014   1.88304
   A10        1.87844  -0.00001   0.00000  -0.00002  -0.00002   1.87842
   A11        1.93448  -0.00000   0.00000  -0.00001  -0.00001   1.93447
   A12        1.93448  -0.00000   0.00000  -0.00001  -0.00001   1.93447
   A13        1.93658  -0.00001   0.00000  -0.00013  -0.00013   1.93645
   A14        1.87009   0.00000   0.00000   0.00004   0.00004   1.87013
   A15        1.89310   0.00001   0.00000   0.00006   0.00006   1.89316
   A16        1.89310   0.00001   0.00000   0.00005   0.00005   1.89316
    D1       -3.14151  -0.00000   0.00000  -0.00008  -0.00008  -3.14159
    D2        0.00004  -0.00000   0.00000  -0.00004  -0.00004   0.00000
    D3        2.10444  -0.00000   0.00000   0.00003   0.00003   2.10446
    D4       -2.10453   0.00000   0.00000   0.00007   0.00007  -2.10447
    D5       -0.00005   0.00000   0.00000   0.00005   0.00005  -0.00000
    D6       -1.03712  -0.00000   0.00000  -0.00001  -0.00001  -1.03713
    D7        1.03709   0.00000   0.00000   0.00003   0.00003   1.03713
    D8        3.14158  -0.00000   0.00000   0.00001   0.00001   3.14159
    D9       -0.00016   0.00000   0.00000   0.00016   0.00016   0.00000
   D10       -2.09260   0.00000   0.00000   0.00017   0.00017  -2.09242
   D11        2.09227  -0.00000   0.00000   0.00015   0.00015   2.09242
         Item               Value     Threshold  Converged?
 Maximum Force            0.000045     0.000450     YES
 RMS     Force            0.000016     0.000300     YES
 Maximum Displacement     0.000776     0.001800     YES
 RMS     Displacement     0.000228     0.001200     YES
 Predicted change in Energy=-2.754357D-08
 Optimization completed.
    -- Stationary point found.
                           ----------------------------
                           !   Optimized Parameters   !
                           ! (Angstroms and Degrees)  !
 --------------------------                            --------------------------
 ! Name  Definition              Value          Derivative Info.                !
 --------------------------------------------------------------------------------
 ! R1    R(1,2)                  1.3084         -DE/DX =    0.0                 !
 ! R2    R(1,4)                  1.5024         -DE/DX =    0.0                 !
 ! R3    R(1,5)                  1.0939         -DE/DX =    0.0                 !
 ! R4    R(2,3)                  1.4678         -DE/DX =    0.0                 !
 ! R5    R(3,6)                  1.0965         -DE/DX =    0.0                 !
 ! R6    R(3,7)                  1.0899         -DE/DX =    0.0                 !
 ! R7    R(3,11)                 1.0899         -DE/DX =    0.0                 !
 ! R8    R(4,8)                  1.0907         -DE/DX =    0.0                 !
 ! R9    R(4,9)                  1.0907         -DE/DX =    0.0                 !
 ! R10   R(4,10)                 1.0871         -DE/DX =    0.0                 !
 ! A1    A(2,1,4)              126.1035         -DE/DX =    0.0                 !
 ! A2    A(2,1,5)              117.7333         -DE/DX =    0.0                 !
 ! A3    A(4,1,5)              116.1632         -DE/DX =    0.0                 !
 ! A4    A(1,2,3)              139.3304         -DE/DX =    0.0                 !
 ! A5    A(2,3,6)              110.4449         -DE/DX =    0.0                 !
 ! A6    A(2,3,7)              111.424          -DE/DX =    0.0                 !
 ! A7    A(2,3,11)             111.4235         -DE/DX =    0.0                 !
 ! A8    A(6,3,7)              107.8822         -DE/DX =    0.0                 !
 ! A9    A(6,3,11)             107.8822         -DE/DX =    0.0                 !
 ! A10   A(7,3,11)             107.6269         -DE/DX =    0.0                 !
 ! A11   A(1,4,8)              110.8374         -DE/DX =    0.0                 !
 ! A12   A(1,4,9)              110.8373         -DE/DX =    0.0                 !
 ! A13   A(1,4,10)             110.958          -DE/DX =    0.0                 !
 ! A14   A(8,4,9)              107.1483         -DE/DX =    0.0                 !
 ! A15   A(8,4,10)             108.4665         -DE/DX =    0.0                 !
 ! A16   A(9,4,10)             108.4667         -DE/DX =    0.0                 !
 ! D1    D(4,1,2,3)           -179.9954         -DE/DX =    0.0                 !
 ! D2    D(5,1,2,3)              0.0026         -DE/DX =    0.0                 !
 ! D3    D(2,1,4,8)            120.5754         -DE/DX =    0.0                 !
 ! D4    D(2,1,4,9)           -120.5808         -DE/DX =    0.0                 !
 ! D5    D(2,1,4,10)            -0.0027         -DE/DX =    0.0                 !
 ! D6    D(5,1,4,8)            -59.4227         -DE/DX =    0.0                 !
 ! D7    D(5,1,4,9)             59.4211         -DE/DX =    0.0                 !
 ! D8    D(5,1,4,10)           179.9993         -DE/DX =    0.0                 !
 ! D9    D(1,2,3,6)             -0.0092         -DE/DX =    0.0                 !
 ! D10   D(1,2,3,7)           -119.8969         -DE/DX =    0.0                 !
 ! D11   D(1,2,3,11)           119.8782         -DE/DX =    0.0                 !
 --------------------------------------------------------------------------------
 GradGradGradGradGradGradGradGradGradGradGradGradGradGradGradGradGradGrad


 ----------------------------------------------------------------------

 Electric dipole moment (input orientation):
 (Debye = 10**-18 statcoulomb cm , SI units = C m)
                  (au)            (Debye)         (10**-30 SI)
   Tot        0.254528D+00      0.646947D+00      0.215798D+01
   x          0.154209D+00      0.391961D+00      0.130744D+01
   y         -0.202495D+00     -0.514690D+00     -0.171682D+01
   z          0.203796D-03      0.517999D-03      0.172786D-02

 Dipole polarizability, Alpha (input orientation).
 (esu units = cm**3 , SI units = C**2 m**2 J**-1)
 Alpha(0;0):
               (au)            (10**-24 esu)      (10**-40 SI)
   iso        0.494737D+02      0.733125D+01      0.815711D+01
   aniso      0.299451D+02      0.443741D+01      0.493729D+01
   xx         0.684100D+02      0.101373D+02      0.112793D+02
   yx         0.352139D+01      0.521816D+00      0.580599D+00
   yy         0.441969D+02      0.654931D+01      0.728709D+01
   zx        -0.710957D-02     -0.105353D-02     -0.117221D-02
   zy        -0.106557D-01     -0.157902D-02     -0.175689D-02
   zz         0.358143D+02      0.530713D+01      0.590497D+01

 ----------------------------------------------------------------------

 Dipole orientation:
     6         -1.14566826         -0.87129232          0.04980499
     6          0.81074797          0.61614557          0.32072651
     6          2.31764327          1.76199730          2.34797517
     6         -2.26907296         -1.72585838         -2.41352364
     1         -2.06659790         -1.57117960          1.76313859
     1          1.58093711          1.20247111          4.20218669
     1          2.27644151          3.81866826          2.24544854
     1         -2.23229260         -3.78133735         -2.56225508
     1         -4.23987132         -1.14091205         -2.56269464
     1         -1.23477190         -0.93972297         -4.00478287
     1          4.28827721          1.17180145          2.24606289

 Electric dipole moment (dipole orientation):
 (Debye = 10**-18 statcoulomb cm , SI units = C m)
                  (au)            (Debye)         (10**-30 SI)
   Tot        0.254528D+00      0.646947D+00      0.215798D+01
   x          0.000000D+00      0.000000D+00      0.000000D+00
   y          0.000000D+00      0.000000D+00      0.000000D+00
   z          0.254528D+00      0.646947D+00      0.215798D+01

 Dipole polarizability, Alpha (dipole orientation).
 (esu units = cm**3 , SI units = C**2 m**2 J**-1)
 Alpha(0;0):
               (au)            (10**-24 esu)      (10**-40 SI)
   iso        0.494737D+02      0.733125D+01      0.815711D+01
   aniso      0.299451D+02      0.443741D+01      0.493729D+01
   xx         0.529882D+02      0.785204D+01      0.873657D+01
   yx         0.130580D+02      0.193500D+01      0.215298D+01
   yy         0.457428D+02      0.677839D+01      0.754197D+01
   zx         0.854433D+01      0.126614D+01      0.140877D+01
   zy         0.649819D+01      0.962932D+00      0.107141D+01
   zz         0.496901D+02      0.736332D+01      0.819280D+01

 ----------------------------------------------------------------------
 1\1\GINC-N68\Freq\UB2PLYPD3-FC\CC-pVTZ\C4H7(2)\ROOT\31-May-2019\0\\#N 
 Geom=AllCheck Guess=TCheck SCRF=Check GenChk UB2PLYPD3(FC)/CC-pVTZ Fre
 q\\Title Card Required\\0,2\C,-0.5899908076,-0.4824333958,0.0005212908
 \C,0.5315315987,0.1914528247,-0.0004018313\C,1.9784618101,-0.055078014
 8,-0.0002670514\C,-1.973991479,0.1020819474,-0.0001184259\H,-0.5276477
 411,-1.5745889827,0.0018551954\H,2.1834753333,-1.1322890146,0.00115442
 04\H,2.4559525639,0.3776345943,0.878750979\H,-2.5332155679,-0.22574681
 22,-0.8773235494\H,-2.5331262395,-0.2236198698,0.877934372\H,-1.937225
 669,1.1885151339,-0.0014383103\H,2.4557040383,0.3752660496,-0.88058354
 94\\Version=ES64L-G16RevB.01\State=2-A\HF=-156.2383412\MP2=-156.449770
 3\PUHF=-156.2416741\PMP2-0=-156.4503462\S2=0.773424\S2-1=0.75646\S2A=0
 .750221\RMSD=3.351e-09\RMSF=2.212e-05\ZeroPoint=0.0947433\Thermal=0.10
 03969\Dipole=0.1542093,-0.2024948,0.0002038\DipoleDeriv=0.0013644,-0.0
 232854,0.0000259,-0.1401628,0.1806511,-0.0004853,0.0001901,-0.0004849,
 -0.2236314,0.2138338,0.1141699,-0.0001945,-0.0447349,-0.209894,0.00001
 56,-0.000028,-0.0000146,-0.2004037,-0.0150805,-0.043693,0.000076,0.073
 6675,0.1406779,0.0000127,-0.0000353,0.0000384,0.1615772,0.0549321,0.02
 57222,-0.0000251,-0.0411294,0.0618022,0.000159,0.0000455,0.0001555,0.1
 884093,-0.0129271,0.0512056,-0.0000548,0.0197611,-0.1487075,0.0003233,
 -0.000025,0.0003123,0.1134964,-0.0358288,-0.0060444,0.0000209,0.089546
 4,-0.1229969,0.000263,-0.0001042,0.0002713,0.081289,-0.042093,-0.02730
 49,-0.035123,-0.0149454,0.0551352,-0.0636471,-0.0876213,-0.0594279,-0.
 0313538,-0.0742513,-0.0114219,-0.057199,0.0078802,0.051256,-0.0615971,
 -0.1155072,-0.048341,-0.060766,-0.0742325,-0.0112789,0.0572334,0.00816
 29,0.0515215,0.0613228,0.1154936,0.0480691,-0.0610522,0.0263633,-0.040
 8721,0.000052,0.0566436,-0.1149114,0.0002132,-0.0000657,0.0002201,0.06
 41502,-0.0420802,-0.0271971,0.0351882,-0.0146892,0.0554657,0.06342,0.0
 876575,0.0592016,-0.031715\Polar=68.4099592,3.5213908,44.1969212,-0.00
 71096,-0.0106557,35.8142621\PG=C01 [X(C4H7)]\NImag=0\\0.74966918,0.143
 52349,0.59367284,-0.00022550,-0.00058135,0.13164068,-0.45337417,-0.240
 69454,0.00033093,0.79350124,-0.20186334,-0.20601625,0.00022627,0.20688
 431,0.29283483,0.00028491,0.00023038,-0.03637677,-0.00032121,-0.000278
 61,0.08088358,-0.01943879,0.01323724,-0.00001332,-0.24435229,0.0102366
 1,0.00000639,0.49376836,-0.02442395,0.00749095,-0.00000285,0.03972590,
 -0.06677789,-0.00000447,0.03084091,0.51473497,0.00003171,-0.00000732,0
 .00294855,-0.00002763,-0.00000026,-0.06580478,-0.00003035,0.00003238,0
 .54113008,-0.18653185,0.05702120,-0.00006262,-0.03629992,0.00133761,0.
 00000033,0.00141142,-0.00008614,0.00000078,0.48843903,0.05054340,-0.10
 419778,0.00004284,-0.01298159,0.00988626,-0.00001667,-0.00223080,-0.00
 228057,0.00001882,0.03182036,0.57249208,-0.00005466,0.00004232,-0.0667
 4524,0.00001799,-0.00001767,-0.00428704,0.00000412,0.00001912,0.012629
 67,-0.00003828,-0.00004690,0.53584688,-0.04824597,0.01169619,-0.000013
 91,-0.00392367,-0.03172491,0.00004087,0.00232606,0.00205507,-0.0000031
 7,-0.00054968,0.02987989,-0.00003608,0.05414551,0.01942176,-0.29335921
 ,0.00031313,-0.00682134,-0.02631579,0.00005302,0.00149937,0.00353937,-
 0.00001075,-0.00085355,-0.01061743,0.00002240,-0.01410237,0.32556945,-
 0.00002299,0.00031351,-0.03690559,0.00000957,0.00005452,0.01615647,-0.
 00000234,-0.00001146,-0.00500218,0.00000151,0.00002059,0.00765038,0.00
 001472,-0.00037946,0.01550893,0.00472273,-0.00225063,0.00000244,-0.015
 33026,0.03635731,-0.00004628,-0.04999096,0.04425120,-0.00005904,-0.000
 05288,-0.00011795,0.00000024,-0.00113596,-0.00192309,0.00000243,0.0573
 2032,-0.00198220,0.00198058,-0.00000304,0.01034580,-0.00740127,0.00000
 999,0.03535757,-0.28348096,0.00031660,0.00030390,0.00023865,-0.0000010
 3,0.00125963,0.00064038,-0.00000008,-0.04884199,0.31317525,0.00000185,
 -0.00000297,-0.00051918,-0.00001134,0.00000654,0.00138561,-0.00004702,
 0.00031561,-0.04471531,-0.00000042,-0.00000078,-0.00035124,-0.00000147
 ,-0.00000023,0.00031533,0.00006375,-0.00035714,0.04290682,-0.00204832,
 0.00239782,-0.00027546,-0.02028060,-0.01405659,-0.02628227,-0.09109345
 ,-0.04569366,-0.09225524,-0.00041584,-0.00068310,0.00227230,0.00030935
 ,0.00017733,-0.00048784,0.00217234,0.00179762,0.00508583,0.10547595,0.
 00051304,0.00069049,-0.00034438,0.00191440,0.00205458,0.00700015,-0.04
 469943,-0.08753921,-0.08633924,0.00006834,0.00021877,0.00004238,0.0001
 0210,0.00007332,-0.00061565,-0.01363839,-0.01259084,-0.02597228,0.0490
 6318,0.09229251,0.00170879,0.00055719,-0.00021383,-0.00280133,0.001717
 33,0.00408851,-0.08974331,-0.08680782,-0.22006476,-0.00012203,-0.00004
 780,-0.00042592,0.00002385,-0.00004840,0.00035006,0.00108055,0.0008258
 6,0.00051100,0.10098501,0.09500262,0.23759199,-0.02166476,-0.00998702,
 -0.02375467,-0.00092241,0.00293367,-0.00213639,-0.00071507,-0.00049065
 ,0.00254701,-0.10894403,-0.04051306,-0.10845197,0.00115693,0.00017834,
 0.00154788,-0.00004179,0.00008003,-0.00006971,0.00025594,0.00005924,-0
 .00007408,0.12391892,0.00680850,0.00522285,0.01191433,0.00059833,-0.00
 062711,0.00030733,0.00009478,0.00058812,-0.00096072,-0.03908520,-0.073
 71014,-0.06504751,-0.00075372,0.00017953,-0.00010685,-0.00005456,-0.00
 001042,0.00003860,-0.00001836,-0.00008982,0.00005133,0.04247225,0.0741
 0465,0.00130775,0.00079036,0.00358064,0.00050399,0.00047127,0.00012899
 ,0.00002061,0.00006458,-0.00022496,-0.10673937,-0.06553957,-0.21764594
 ,-0.00055943,0.00035423,0.00007479,-0.00004808,0.00001950,0.00001182,-
 0.00006077,0.00002164,-0.00001375,0.11730290,0.07215103,0.23579865,-0.
 02166251,-0.00992948,0.02378177,-0.00092242,0.00293894,0.00212918,-0.0
 0071567,-0.00049720,-0.00254546,-0.10892285,-0.04024360,0.10853930,0.0
 0115689,0.00017449,-0.00154845,-0.00004184,0.00008030,0.00006949,-0.00
 070758,0.00007991,0.00010046,0.00885072,0.00558764,-0.01344092,0.12389
 616,0.00680416,0.00519216,-0.01191920,0.00059717,-0.00062911,-0.000305
 19,0.00009496,0.00059049,0.00095847,-0.03882022,-0.07339498,0.06470231
 ,-0.00075236,0.00017898,0.00010667,-0.00005447,-0.00001059,-0.00003849
 ,0.00037673,-0.00006035,0.00001553,0.00561938,0.00261036,-0.00892159,0
 .04218075,0.07375601,-0.00132176,-0.00079308,0.00360913,-0.00050514,-0
 .00046973,0.00013071,-0.00002087,-0.00006656,-0.00022686,0.10682362,0.
 06519424,-0.21798437,0.00056115,-0.00035452,0.00007549,0.00004823,-0.0
 0001945,0.00001195,-0.00006209,-0.00002509,-0.00002435,0.01342423,0.00
 885985,-0.02261262,-0.11739505,-0.07176282,0.23617212,0.00062172,0.032
 58736,-0.00003955,0.00217785,0.00094326,-0.00000145,-0.00015827,-0.000
 26138,0.00000034,-0.04771717,-0.01478491,0.00001806,-0.00554875,0.0020
 7058,-0.00000212,0.00020775,-0.00018430,0.00000021,-0.00003492,0.00000
 809,-0.00000784,-0.00118678,-0.01602658,0.00165207,-0.00118693,-0.0160
 2789,-0.00161310,0.05286041,0.00014692,-0.01136661,0.00001280,-0.00148
 806,0.00096057,-0.00000154,0.00000092,0.00020839,-0.00000037,-0.011774
 93,-0.31885356,0.00032882,0.00223846,0.00003651,0.00000158,-0.00009365
 ,-0.00001812,0.00000003,0.00008277,-0.00001968,0.00000050,-0.00043177,
 -0.00820773,0.00056337,-0.00043120,-0.00814296,-0.00054137,0.01166765,
 0.34542295,-0.00000047,0.00001127,-0.00080529,0.00000172,-0.00000174,-
 0.00040949,0.,-0.00000033,-0.00008920,0.00001449,0.00032891,-0.0482617
 7,-0.00000237,0.00000162,0.00142810,0.00000009,0.00000003,-0.00000172,
 -0.00004391,0.00003741,0.00000607,-0.00023465,-0.02719188,0.00092679,0
 .00023583,0.02721544,0.00086239,-0.00001446,-0.00036337,0.04633797,-0.
 00204727,0.00239837,0.00026990,-0.02027335,-0.01398687,0.02632592,-0.0
 9104135,-0.04542009,0.09234105,-0.00041623,-0.00068862,-0.00227103,0.0
 0030930,0.00017848,0.00048763,0.00217054,0.00178365,-0.00509118,0.0063
 6714,0.00652953,-0.01115006,-0.00070768,0.00037692,0.00006125,0.000256
 03,-0.00001821,0.00006079,-0.00003491,0.00008288,0.00004373,0.10541779
 ,0.00050822,0.00068999,0.00034145,0.00191961,0.00203118,-0.00699439,-0
 .04443214,-0.08707366,0.08599239,0.00006863,0.00021871,-0.00004423,0.0
 0010204,0.00007489,0.00061663,-0.01363378,-0.01252267,0.02601111,0.006
 55626,0.00497025,-0.01126633,0.00007960,-0.00006030,0.00002518,0.00005
 945,-0.00009002,-0.00002145,0.00000813,-0.00001978,-0.00003736,0.04876
 397,0.09178140,-0.00170964,-0.00056030,-0.00021311,0.00280245,-0.00170
 792,0.00410421,0.08982610,0.08646180,-0.22058026,0.00012199,0.00004633
 ,-0.00042540,-0.00002417,0.00004896,0.00034821,-0.00104433,-0.00079123
 ,0.00044492,0.01112444,0.01119243,-0.02180501,-0.00010054,-0.00001551,
 -0.00002441,0.00007385,-0.00005113,-0.00001358,0.00000783,-0.00000045,
 0.00000615,-0.10107799,-0.09462299,0.23815828\\-0.00005233,0.00004865,
 0.00000179,0.00007288,0.00000596,0.00000169,-0.00003950,-0.00001273,-0
 .00000073,0.00002927,-0.00003158,-0.00000116,0.00000081,-0.00001493,-0
 .00000056,0.00002283,0.00002568,0.00000006,-0.00000824,-0.00001278,-0.
 00000760,-0.00000537,0.00000112,-0.00000336,-0.00000450,0.00000080,0.0
 0000301,-0.00000802,0.00000279,-0.00000004,-0.00000783,-0.00001299,0.0
 0000691\\\@


 IF THE FACTS DO NOT CONFORM TO THE THEORY, THEY MUST BE DISPOSED OF.
 Job cpu time:       0 days  7 hours 37 minutes  7.3 seconds.
 Elapsed time:       0 days  0 hours 11 minutes 45.8 seconds.
 File lengths (MBytes):  RWF=  14059 Int=      0 D2E=      0 Chk=      9 Scr=      1
 Normal termination of Gaussian 16 at Fri May 31 21:50:34 2019.
