 Entering Gaussian System, Link 0=g16
 Initial command:
 /ichec/packages/gaussian/16b01/l1.exe "/localscratch/339542/Gau-23647.inp" -scrdir="/localscratch/339542/"
 Entering Link 1 = /ichec/packages/gaussian/16b01/l1.exe PID=     23650.
  
 Copyright (c) 1988-2017, Gaussian, Inc.  All Rights Reserved.
  
 This is part of the Gaussian(R) 16 program.  It is based on
 the Gaussian(R) 09 system (copyright 2009, Gaussian, Inc.),
 the Gaussian(R) 03 system (copyright 2003, Gaussian, Inc.),
 the Gaussian(R) 98 system (copyright 1998, Gaussian, Inc.),
 the Gaussian(R) 94 system (copyright 1995, Gaussian, Inc.),
 the Gaussian 92(TM) system (copyright 1992, Gaussian, Inc.),
 the Gaussian 90(TM) system (copyright 1990, Gaussian, Inc.),
 the Gaussian 88(TM) system (copyright 1988, Gaussian, Inc.),
 the Gaussian 86(TM) system (copyright 1986, Carnegie Mellon
 University), and the Gaussian 82(TM) system (copyright 1983,
 Carnegie Mellon University). Gaussian is a federally registered
 trademark of Gaussian, Inc.
  
 This software contains proprietary and confidential information,
 including trade secrets, belonging to Gaussian, Inc.
  
 This software is provided under written license and may be
 used, copied, transmitted, or stored only in accord with that
 written license.
  
 The following legend is applicable only to US Government
 contracts under FAR:
  
                    RESTRICTED RIGHTS LEGEND
  
 Use, reproduction and disclosure by the US Government is
 subject to restrictions as set forth in subparagraphs (a)
 and (c) of the Commercial Computer Software - Restricted
 Rights clause in FAR 52.227-19.
  
 Gaussian, Inc.
 340 Quinnipiac St., Bldg. 40, Wallingford CT 06492
  
  
 ---------------------------------------------------------------
 Warning -- This program may not be used in any manner that
 competes with the business of Gaussian, Inc. or will provide
 assistance to any competitor of Gaussian, Inc.  The licensee
 of this program is prohibited from giving any competitor of
 Gaussian, Inc. access to this program.  By using this program,
 the user acknowledges that Gaussian, Inc. is engaged in the
 business of creating and licensing software in the field of
 computational chemistry and represents and warrants to the
 licensee that it is not a competitor of Gaussian, Inc. and that
 it will not use this program in any manner prohibited above.
 ---------------------------------------------------------------
  

 Cite this work as:
 Gaussian 16, Revision B.01,
 M. J. Frisch, G. W. Trucks, H. B. Schlegel, G. E. Scuseria, 
 M. A. Robb, J. R. Cheeseman, G. Scalmani, V. Barone, 
 G. A. Petersson, H. Nakatsuji, X. Li, M. Caricato, A. V. Marenich, 
 J. Bloino, B. G. Janesko, R. Gomperts, B. Mennucci, H. P. Hratchian, 
 J. V. Ortiz, A. F. Izmaylov, J. L. Sonnenberg, D. Williams-Young, 
 F. Ding, F. Lipparini, F. Egidi, J. Goings, B. Peng, A. Petrone, 
 T. Henderson, D. Ranasinghe, V. G. Zakrzewski, J. Gao, N. Rega, 
 G. Zheng, W. Liang, M. Hada, M. Ehara, K. Toyota, R. Fukuda, 
 J. Hasegawa, M. Ishida, T. Nakajima, Y. Honda, O. Kitao, H. Nakai, 
 T. Vreven, K. Throssell, J. A. Montgomery, Jr., J. E. Peralta, 
 F. Ogliaro, M. J. Bearpark, J. J. Heyd, E. N. Brothers, K. N. Kudin, 
 V. N. Staroverov, T. A. Keith, R. Kobayashi, J. Normand, 
 K. Raghavachari, A. P. Rendell, J. C. Burant, S. S. Iyengar, 
 J. Tomasi, M. Cossi, J. M. Millam, M. Klene, C. Adamo, R. Cammi, 
 J. W. Ochterski, R. L. Martin, K. Morokuma, O. Farkas, 
 J. B. Foresman, and D. J. Fox, Gaussian, Inc., Wallingford CT, 2016.
 
 ******************************************
 Gaussian 16:  ES64L-G16RevB.01 20-Dec-2017
                31-May-2019 
 ******************************************
 %mem=80GB
 %nproc=40
 Will use up to   40 processors via shared memory.
 -----------------------------------------------
 # opt=maxcyc=500 freq=noraman uB2PLYPD3/cc-pvtz
 -----------------------------------------------
 1/6=500,18=20,19=15,38=1/1,3;
 2/9=110,12=2,17=6,18=5,40=1/2;
 3/5=16,6=1,11=2,25=1,30=1,71=1,74=-60,116=2/1,2,3;
 4//1;
 5/5=2,38=5/2;
 8/6=4,10=1/1;
 9/15=2,16=-3/6;
 10/5=1/2;
 6/7=2,8=2,9=2,10=2/1;
 7/12=2/1,2,3,16;
 1/6=500,18=20,19=15/3(2);
 2/9=110/2;
 99//99;
 2/9=110/2;
 3/5=16,6=1,11=2,25=1,30=1,71=1,74=-60,116=2/1,2,3;
 4/5=5,16=3,69=1/1;
 5/5=2,38=5/2;
 8/6=4,10=1/1;
 9/15=2,16=-3/6;
 10/5=1/2;
 7/12=2/1,2,3,16;
 1/6=500,18=20,19=15/3(-8);
 2/9=110/2;
 6/7=2,8=2,9=2,10=2/1;
 99/9=10/99;
 -------------------
 Title Card Required
 -------------------
 Symbolic Z-matrix:
 Charge =  0 Multiplicity = 1
 C                     1.8789    2.95859   0.00002 
 H                     1.62025   4.02596   0.00002 
 H                     1.01568   2.2796    0. 
 C                     3.02532   2.33523  -0.00001 
 C                     4.14609   1.72582  -0.00003 
 H                     5.18393   2.0851    0. 
 H                     4.04136   0.63257  -0.0001 
 

 GradGradGradGradGradGradGradGradGradGradGradGradGradGradGradGradGradGrad
 Berny optimization.
 Initialization pass.
                           ----------------------------
                           !    Initial Parameters    !
                           ! (Angstroms and Degrees)  !
 --------------------------                            --------------------------
 ! Name  Definition              Value          Derivative Info.                !
 --------------------------------------------------------------------------------
 ! R1    R(1,2)                  1.0983         estimate D2E/DX2                !
 ! R2    R(1,3)                  1.0983         estimate D2E/DX2                !
 ! R3    R(1,4)                  1.3049         estimate D2E/DX2                !
 ! R4    R(4,5)                  1.2757         estimate D2E/DX2                !
 ! R5    R(5,6)                  1.0983         estimate D2E/DX2                !
 ! R6    R(5,7)                  1.0983         estimate D2E/DX2                !
 ! A1    A(2,1,3)              114.5661         estimate D2E/DX2                !
 ! A2    A(2,1,4)              132.1563         estimate D2E/DX2                !
 ! A3    A(3,1,4)              113.2776         estimate D2E/DX2                !
 ! A4    A(4,5,6)              132.3709         estimate D2E/DX2                !
 ! A5    A(4,5,7)              113.063          estimate D2E/DX2                !
 ! A6    A(6,5,7)              114.5661         estimate D2E/DX2                !
 ! A7    L(1,4,5,7,-1)         180.0002         estimate D2E/DX2                !
 ! A8    L(1,4,5,7,-2)         180.0            estimate D2E/DX2                !
 ! D1    D(2,1,5,6)              0.0038         estimate D2E/DX2                !
 ! D2    D(2,1,5,7)           -179.996          estimate D2E/DX2                !
 ! D3    D(3,1,5,6)           -179.9979         estimate D2E/DX2                !
 ! D4    D(3,1,5,7)              0.0022         estimate D2E/DX2                !
 --------------------------------------------------------------------------------
 Trust Radius=3.00D-01 FncErr=1.00D-07 GrdErr=1.00D-07 EigMax=2.50D+02 EigMin=1.00D-04
 Number of steps in this run=    100 maximum allowed number of steps=    100.
 GradGradGradGradGradGradGradGradGradGradGradGradGradGradGradGradGradGrad

                          Input orientation:                          
 ---------------------------------------------------------------------
 Center     Atomic      Atomic             Coordinates (Angstroms)
 Number     Number       Type             X           Y           Z
 ---------------------------------------------------------------------
      1          6           0        1.878900    2.958586    0.000016
      2          1           0        1.620252    4.025962    0.000022
      3          1           0        1.015675    2.279599    0.000004
      4          6           0        3.025323    2.335226   -0.000008
      5          6           0        4.146086    1.725824   -0.000031
      6          1           0        5.183927    2.085097    0.000002
      7          1           0        4.041364    0.632565   -0.000099
 ---------------------------------------------------------------------
                    Distance matrix (angstroms):
                    1          2          3          4          5
     1  C    0.000000
     2  H    1.098267   0.000000
     3  H    1.098263   1.848052   0.000000
     4  C    1.304938   2.198366   2.010418   0.000000
     5  C    2.580665   3.416207   3.179016   1.275727   0.000000
     6  H    3.418506   4.057922   4.172787   2.173047   1.098267
     7  H    3.175945   4.168564   3.444926   1.982774   1.098263
                    6          7
     6  H    0.000000
     7  H    1.848052   0.000000
 Stoichiometry    C3H4
 Framework group  C1[X(C3H4)]
 Deg. of freedom    15
 Full point group                 C1      NOp   1
 Largest Abelian subgroup         C1      NOp   1
 Largest concise Abelian subgroup C1      NOp   1
                         Standard orientation:                         
 ---------------------------------------------------------------------
 Center     Atomic      Atomic             Coordinates (Angstroms)
 Number     Number       Type             X           Y           Z
 ---------------------------------------------------------------------
      1          6           0       -1.294283   -0.017877   -0.000026
      2          1           0       -2.031403   -0.832028   -0.000031
      3          1           0       -1.728285    0.990996   -0.000013
      4          6           0        0.010655   -0.017898   -0.000002
      5          6           0        1.286383   -0.017923    0.000022
      6          1           0        2.026518   -0.829335   -0.000011
      7          1           0        1.716640    0.992552    0.000090
 ---------------------------------------------------------------------
 Rotational constants (GHZ):         149.4111001           9.3176675           8.7707034
 Standard basis: CC-pVTZ (5D, 7F)
 There are   165 symmetry adapted cartesian basis functions of A   symmetry.
 There are   146 symmetry adapted basis functions of A   symmetry.
   146 basis functions,   224 primitive gaussians,   165 cartesian basis functions
    11 alpha electrons       11 beta electrons
       nuclear repulsion energy        59.5306967970 Hartrees.
 NAtoms=    7 NActive=    7 NUniq=    7 SFac= 1.00D+00 NAtFMM=   60 NAOKFM=F Big=F
 Integral buffers will be    131072 words long.
 Raffenetti 2 integral format.
 Two-electron integral symmetry is turned on.
 Nuclear repulsion after empirical dispersion term =       59.5280554613 Hartrees.
 One-electron integrals computed using PRISM.
 NBasis=   146 RedAO= T EigKep=  1.32D-04  NBF=   146
 NBsUse=   146 1.00D-06 EigRej= -1.00D+00 NBFU=   146
 ExpMin= 1.03D-01 ExpMax= 8.24D+03 ExpMxC= 2.81D+02 IAcc=3 IRadAn=         5 AccDes= 0.00D+00
 Harris functional with IExCor=  419 and IRadAn=       5 diagonalized for initial guess.
 HarFok:  IExCor=  419 AccDes= 0.00D+00 IRadAn=         5 IDoV= 1 UseB2=F ITyADJ=14
 ICtDFT=  3500011 ScaDFX=  1.000000  1.000000  1.000000  1.000000
 FoFCou: FMM=F IPFlag=           0 FMFlag=      100000 FMFlg1=           0
         NFxFlg=           0 DoJE=T BraDBF=F KetDBF=T FulRan=T
         wScrn=  0.000000 ICntrl=       500 IOpCl=  0 I1Cent=   200000004 NGrid=           0
         NMat0=    1 NMatS0=      1 NMatT0=    0 NMatD0=    1 NMtDS0=    0 NMtDT0=    0
 Petite list used in FoFCou.
 Initial guess <Sx>= 0.0000 <Sy>= 0.0000 <Sz>= 0.0000 <S**2>= 0.0000 S= 0.0000
 Keep R1 and R2 ints in memory in canonical form, NReq=154881851.
 Requested convergence on RMS density matrix=1.00D-08 within 128 cycles.
 Requested convergence on MAX density matrix=1.00D-06.
 Requested convergence on             energy=1.00D-06.
 No special actions if energy rises.
 Integral accuracy reduced to 1.0D-05 until final iterations.
 Initial convergence to 1.0D-05 achieved.  Increase integral accuracy.
 SCF Done:  E(UB2PLYPD3) =  -116.322309941     A.U. after   20 cycles
            NFock= 20  Conv=0.88D-09     -V/T= 2.0041
 <Sx>= 0.0000 <Sy>= 0.0000 <Sz>= 0.0000 <S**2>=-0.0000 S=-0.0000
 <L.S>=  0.00000000000    
 Annihilation of the first spin contaminant:
 S**2 before annihilation    -0.0000,   after     0.0000
 DoSCS=T DFT=T ScalE2(SS,OS)=  0.270000  0.270000
 ExpMin= 1.03D-01 ExpMax= 8.24D+03 ExpMxC= 2.81D+02 IAcc=3 IRadAn=         5 AccDes= 0.00D+00
 HarFok:  IExCor=  205 AccDes= 0.00D+00 IRadAn=         5 IDoV=-2 UseB2=F ITyADJ=14
 ICtDFT= 12500011 ScaDFX=  1.000000  1.000000  1.000000  1.000000
 Range of M.O.s used for correlation:     4   146
 NBasis=   146 NAE=    11 NBE=    11 NFC=     3 NFV=     0
 NROrb=    143 NOA=     8 NOB=     8 NVA=   135 NVB=   135

 **** Warning!!: The largest alpha MO coefficient is  0.30023053D+02


 **** Warning!!: The largest beta MO coefficient is  0.30023053D+02

 DoSCS=T DFT=T ScalE2(SS,OS)=  0.270000  0.270000
 Fully direct method using O(ONN) memory.
 JobTyp=2 Pass  1:  I=   4 to  11 NPSUse= 40 ParTrn=T ParDer=T DoDerP=T.
 JobTyp=3 Pass  1:  I=   4 to  11 NPSUse= 40 ParTrn=T ParDer=T DoDerP=T.
 Spin components of T(2) and E(2):
     alpha-alpha T2 =       0.3381572143D-01 E2=     -0.1896731717D-01
     alpha-beta  T2 =       0.2007858616D+00 E2=     -0.1207821518D+00
     beta-beta   T2 =       0.3381572143D-01 E2=     -0.1896731717D-01
 (S**2,0)=  0.00000D+00           (S**2,1)=  0.00000D+00
 E(PUHF)=      -0.11632230994D+03        E(PMP2)=      -0.11648102673D+03
 E2(B2PLYPD3) =    -0.1587167862D+00 E(B2PLYPD3) =    -0.11648102672711D+03
          IDoAtm=1111111
          Differentiating once with respect to electric field.
                with respect to dipole field.
          Differentiating once with respect to nuclear coordinates.
 Keep R1 and R2 ints in memory in canonical form, NReq=154886733.
          There are     1 degrees of freedom in the 1st order CPHF.  IDoFFX=0 NUNeed=     1.
 LinEq1:  Iter=  0 NonCon=     1 RMS=1.37D-03 Max=4.28D-02 NDo=     1
 AX will form     1 AO Fock derivatives at one time.
 LinEq1:  Iter=  1 NonCon=     1 RMS=5.74D-04 Max=1.05D-02 NDo=     1
 LinEq1:  Iter=  2 NonCon=     1 RMS=1.39D-04 Max=2.40D-03 NDo=     1
 LinEq1:  Iter=  3 NonCon=     1 RMS=7.44D-05 Max=1.57D-03 NDo=     1
 LinEq1:  Iter=  4 NonCon=     1 RMS=1.39D-05 Max=2.02D-04 NDo=     1
 LinEq1:  Iter=  5 NonCon=     1 RMS=6.53D-06 Max=1.33D-04 NDo=     1
 LinEq1:  Iter=  6 NonCon=     1 RMS=2.94D-06 Max=3.25D-05 NDo=     1
 LinEq1:  Iter=  7 NonCon=     1 RMS=8.38D-07 Max=2.70D-05 NDo=     1
 LinEq1:  Iter=  8 NonCon=     1 RMS=3.56D-07 Max=6.34D-06 NDo=     1
 LinEq1:  Iter=  9 NonCon=     1 RMS=1.12D-07 Max=1.62D-06 NDo=     1
 LinEq1:  Iter= 10 NonCon=     1 RMS=2.32D-08 Max=5.27D-07 NDo=     1
 LinEq1:  Iter= 11 NonCon=     1 RMS=6.05D-09 Max=1.14D-07 NDo=     1
 LinEq1:  Iter= 12 NonCon=     1 RMS=1.49D-09 Max=2.49D-08 NDo=     1
 LinEq1:  Iter= 13 NonCon=     1 RMS=1.72D-10 Max=2.02D-09 NDo=     1
 LinEq1:  Iter= 14 NonCon=     0 RMS=1.85D-11 Max=2.11D-10 NDo=     1
 Linear equations converged to 1.000D-10 1.000D-09 after    14 iterations.
 End of Minotr F.D. properties file   721 does not exist.
 End of Minotr F.D. properties file   722 does not exist.
 End of Minotr F.D. properties file   788 does not exist.

 **********************************************************************

            Population analysis using the SCF Density.

 **********************************************************************

 Orbital symmetries:
 Alpha Orbitals:
       Occupied  (A) (A) (A) (A) (A) (A) (A) (A) (A) (A) (A)
       Virtual   (A) (A) (A) (A) (A) (A) (A) (A) (A) (A) (A) (A)
                 (A) (A) (A) (A) (A) (A) (A) (A) (A) (A) (A) (A)
                 (A) (A) (A) (A) (A) (A) (A) (A) (A) (A) (A) (A)
                 (A) (A) (A) (A) (A) (A) (A) (A) (A) (A) (A) (A)
                 (A) (A) (A) (A) (A) (A) (A) (A) (A) (A) (A) (A)
                 (A) (A) (A) (A) (A) (A) (A) (A) (A) (A) (A) (A)
                 (A) (A) (A) (A) (A) (A) (A) (A) (A) (A) (A) (A)
                 (A) (A) (A) (A) (A) (A) (A) (A) (A) (A) (A) (A)
                 (A) (A) (A) (A) (A) (A) (A) (A) (A) (A) (A) (A)
                 (A) (A) (A) (A) (A) (A) (A) (A) (A) (A) (A) (A)
                 (A) (A) (A) (A) (A) (A) (A) (A) (A) (A) (A) (A)
                 (A) (A) (A)
 Beta  Orbitals:
       Occupied  (A) (A) (A) (A) (A) (A) (A) (A) (A) (A) (A)
       Virtual   (A) (A) (A) (A) (A) (A) (A) (A) (A) (A) (A) (A)
                 (A) (A) (A) (A) (A) (A) (A) (A) (A) (A) (A) (A)
                 (A) (A) (A) (A) (A) (A) (A) (A) (A) (A) (A) (A)
                 (A) (A) (A) (A) (A) (A) (A) (A) (A) (A) (A) (A)
                 (A) (A) (A) (A) (A) (A) (A) (A) (A) (A) (A) (A)
                 (A) (A) (A) (A) (A) (A) (A) (A) (A) (A) (A) (A)
                 (A) (A) (A) (A) (A) (A) (A) (A) (A) (A) (A) (A)
                 (A) (A) (A) (A) (A) (A) (A) (A) (A) (A) (A) (A)
                 (A) (A) (A) (A) (A) (A) (A) (A) (A) (A) (A) (A)
                 (A) (A) (A) (A) (A) (A) (A) (A) (A) (A) (A) (A)
                 (A) (A) (A) (A) (A) (A) (A) (A) (A) (A) (A) (A)
                 (A) (A) (A)
 The electronic state is 1-A.
 Alpha  occ. eigenvalues --  -10.72659 -10.59181 -10.58943  -0.93688  -0.82314
 Alpha  occ. eigenvalues --   -0.60493  -0.54294  -0.52670  -0.46875  -0.41275
 Alpha  occ. eigenvalues --   -0.21016
 Alpha virt. eigenvalues --   -0.05350   0.08559   0.12129   0.12517   0.15080
 Alpha virt. eigenvalues --    0.15695   0.23161   0.25451   0.33943   0.35386
 Alpha virt. eigenvalues --    0.39340   0.40347   0.40703   0.41882   0.47862
 Alpha virt. eigenvalues --    0.51447   0.53401   0.53702   0.54379   0.55718
 Alpha virt. eigenvalues --    0.58095   0.64069   0.64533   0.70962   0.71981
 Alpha virt. eigenvalues --    0.78691   0.79045   0.85229   0.89044   0.96772
 Alpha virt. eigenvalues --    1.01626   1.02223   1.03993   1.06432   1.10868
 Alpha virt. eigenvalues --    1.11793   1.17756   1.23750   1.27674   1.30817
 Alpha virt. eigenvalues --    1.35089   1.38771   1.39456   1.44060   1.45590
 Alpha virt. eigenvalues --    1.48295   1.49896   1.58830   1.68763   1.80305
 Alpha virt. eigenvalues --    1.84025   2.10031   2.20597   2.30282   2.32595
 Alpha virt. eigenvalues --    2.36107   2.42784   2.49104   2.54098   2.55032
 Alpha virt. eigenvalues --    2.61217   2.64136   2.69514   2.69730   2.77356
 Alpha virt. eigenvalues --    2.80949   2.81388   2.86377   2.87566   2.87951
 Alpha virt. eigenvalues --    2.90087   2.92621   2.92658   2.92950   2.94624
 Alpha virt. eigenvalues --    3.03229   3.05085   3.05741   3.14673   3.15729
 Alpha virt. eigenvalues --    3.20198   3.30815   3.32490   3.33272   3.34677
 Alpha virt. eigenvalues --    3.35544   3.37886   3.43886   3.54169   3.55134
 Alpha virt. eigenvalues --    3.61080   3.62581   3.66737   3.71016   3.77124
 Alpha virt. eigenvalues --    3.79756   3.82370   3.83726   3.92509   3.92892
 Alpha virt. eigenvalues --    3.95813   4.02736   4.07287   4.09747   4.15331
 Alpha virt. eigenvalues --    4.15521   4.17136   4.23198   4.31387   4.36731
 Alpha virt. eigenvalues --    4.48011   4.62417   4.77820   4.87929   4.89998
 Alpha virt. eigenvalues --    4.92048   4.94007   4.95784   4.99513   5.04236
 Alpha virt. eigenvalues --    5.10367   5.20764   5.30941   5.31942   5.45428
 Alpha virt. eigenvalues --    5.54131   5.55661   5.86678   5.90592   6.18469
 Alpha virt. eigenvalues --    6.24893   6.45673   9.46334  14.47497  15.02087
  Beta  occ. eigenvalues --  -10.72659 -10.59181 -10.58943  -0.93688  -0.82314
  Beta  occ. eigenvalues --   -0.60493  -0.54294  -0.52670  -0.46875  -0.41275
  Beta  occ. eigenvalues --   -0.21016
  Beta virt. eigenvalues --   -0.05350   0.08559   0.12129   0.12517   0.15080
  Beta virt. eigenvalues --    0.15695   0.23161   0.25451   0.33943   0.35386
  Beta virt. eigenvalues --    0.39340   0.40347   0.40703   0.41882   0.47862
  Beta virt. eigenvalues --    0.51447   0.53401   0.53702   0.54379   0.55718
  Beta virt. eigenvalues --    0.58095   0.64069   0.64533   0.70962   0.71981
  Beta virt. eigenvalues --    0.78691   0.79045   0.85229   0.89044   0.96772
  Beta virt. eigenvalues --    1.01626   1.02223   1.03993   1.06432   1.10868
  Beta virt. eigenvalues --    1.11793   1.17756   1.23750   1.27674   1.30817
  Beta virt. eigenvalues --    1.35089   1.38771   1.39456   1.44060   1.45590
  Beta virt. eigenvalues --    1.48295   1.49896   1.58830   1.68763   1.80305
  Beta virt. eigenvalues --    1.84025   2.10031   2.20597   2.30282   2.32595
  Beta virt. eigenvalues --    2.36107   2.42784   2.49104   2.54098   2.55032
  Beta virt. eigenvalues --    2.61217   2.64136   2.69514   2.69730   2.77356
  Beta virt. eigenvalues --    2.80949   2.81388   2.86377   2.87566   2.87951
  Beta virt. eigenvalues --    2.90087   2.92621   2.92658   2.92950   2.94624
  Beta virt. eigenvalues --    3.03229   3.05085   3.05741   3.14673   3.15729
  Beta virt. eigenvalues --    3.20198   3.30815   3.32490   3.33272   3.34677
  Beta virt. eigenvalues --    3.35544   3.37886   3.43886   3.54169   3.55134
  Beta virt. eigenvalues --    3.61080   3.62581   3.66737   3.71016   3.77124
  Beta virt. eigenvalues --    3.79756   3.82370   3.83726   3.92509   3.92892
  Beta virt. eigenvalues --    3.95813   4.02736   4.07287   4.09747   4.15331
  Beta virt. eigenvalues --    4.15521   4.17136   4.23198   4.31387   4.36731
  Beta virt. eigenvalues --    4.48011   4.62417   4.77820   4.87929   4.89998
  Beta virt. eigenvalues --    4.92048   4.94007   4.95784   4.99513   5.04236
  Beta virt. eigenvalues --    5.10367   5.20764   5.30941   5.31942   5.45428
  Beta virt. eigenvalues --    5.54131   5.55661   5.86678   5.90592   6.18469
  Beta virt. eigenvalues --    6.24893   6.45673   9.46334  14.47497  15.02087
          Condensed to atoms (all electrons):
               1          2          3          4          5          6
     1  C    5.274485   0.400743   0.381262   0.605096  -0.137241   0.001228
     2  H    0.400743   0.481156  -0.023564  -0.026228   0.001118  -0.000278
     3  H    0.381262  -0.023564   0.531195  -0.023863   0.000277   0.000192
     4  C    0.605096  -0.026228  -0.023863   4.456609   0.612187  -0.026629
     5  C   -0.137241   0.001118   0.000277   0.612187   5.268873   0.396979
     6  H    0.001228  -0.000278   0.000192  -0.026629   0.396979   0.477929
     7  H    0.000346   0.000200  -0.001277  -0.024138   0.376518  -0.021139
               7
     1  C    0.000346
     2  H    0.000200
     3  H   -0.001277
     4  C   -0.024138
     5  C    0.376518
     6  H   -0.021139
     7  H    0.526172
          Atomic-Atomic Spin Densities.
               1          2          3          4          5          6
     1  C    0.000000  -0.000000   0.000000   0.000000  -0.000000  -0.000000
     2  H   -0.000000  -0.000000   0.000000   0.000000   0.000000  -0.000000
     3  H    0.000000   0.000000  -0.000000  -0.000000  -0.000000  -0.000000
     4  C    0.000000   0.000000  -0.000000   0.000000  -0.000000  -0.000000
     5  C   -0.000000   0.000000  -0.000000  -0.000000   0.000000   0.000000
     6  H   -0.000000  -0.000000  -0.000000  -0.000000   0.000000  -0.000000
     7  H   -0.000000   0.000000  -0.000000  -0.000000   0.000000   0.000000
               7
     1  C   -0.000000
     2  H    0.000000
     3  H   -0.000000
     4  C   -0.000000
     5  C    0.000000
     6  H    0.000000
     7  H   -0.000000
 Mulliken charges and spin densities:
               1          2
     1  C   -0.525920  -0.000000
     2  H    0.166853  -0.000000
     3  H    0.135777  -0.000000
     4  C    0.426965  -0.000000
     5  C   -0.518712   0.000000
     6  H    0.171718  -0.000000
     7  H    0.143319  -0.000000
 Sum of Mulliken charges =  -0.00000   0.00000
 Mulliken charges and spin densities with hydrogens summed into heavy atoms:
               1          2
     1  C   -0.223291  -0.000000
     4  C    0.426965  -0.000000
     5  C   -0.203675   0.000000
 Electronic spatial extent (au):  <R**2>=            175.8569
 Charge=             -0.0000 electrons
 Dipole moment (field-independent basis, Debye):
    X=              0.2432    Y=              0.1608    Z=              0.0000  Tot=              0.2916
 Quadrupole moment (field-independent basis, Debye-Ang):
   XX=            -16.6870   YY=            -16.2267   ZZ=            -23.4967
   XY=              0.0141   XZ=              0.0000   YZ=              0.0002
 Traceless Quadrupole moment (field-independent basis, Debye-Ang):
   XX=              2.1164   YY=              2.5768   ZZ=             -4.6932
   XY=              0.0141   XZ=              0.0000   YZ=              0.0002
 Octapole moment (field-independent basis, Debye-Ang**2):
  XXX=              0.8277  YYY=              0.8820  ZZZ=              0.0001  XYY=              0.2608
  XXY=             -1.6595  XXZ=              0.0001  XZZ=              0.2896  YZZ=              0.0622
  YYZ=              0.0001  XYZ=             -0.0001
 Hexadecapole moment (field-independent basis, Debye-Ang**3):
 XXXX=           -169.9826 YYYY=            -30.1709 ZZZZ=            -29.8654 XXXY=             -0.0301
 XXXZ=             -0.0009 YYYX=              0.0489 YYYZ=              0.0001 ZZZX=             -0.0019
 ZZZY=             -0.0001 XXYY=            -27.4483 XXZZ=            -45.2764 YYZZ=            -10.9063
 XXYZ=              0.0006 YYXZ=             -0.0004 ZZXY=             -0.0005
 N-N= 5.952805546126D+01 E-N=-3.885866096609D+02  KE= 1.158466107888D+02
                          Isotropic Fermi Contact Couplings
        Atom                 a.u.       MegaHertz       Gauss      10(-4) cm-1
     1  C(13)              0.00000       0.00000       0.00000       0.00000
     2  H(1)              -0.00000      -0.00000      -0.00000      -0.00000
     3  H(1)              -0.00000      -0.00000      -0.00000      -0.00000
     4  C(13)              0.00000       0.00000       0.00000       0.00000
     5  C(13)              0.00000       0.00000       0.00000       0.00000
     6  H(1)               0.00000       0.00000       0.00000       0.00000
     7  H(1)              -0.00000      -0.00000      -0.00000      -0.00000
 --------------------------------------------------------
       Center         ----  Spin Dipole Couplings  ----
                      3XX-RR        3YY-RR        3ZZ-RR
 --------------------------------------------------------
     1   Atom        0.000000      0.000000      0.000000
     2   Atom        0.000000      0.000000      0.000000
     3   Atom        0.000000      0.000000      0.000000
     4   Atom        0.000000      0.000000      0.000000
     5   Atom        0.000000      0.000000      0.000000
     6   Atom        0.000000      0.000000      0.000000
     7   Atom        0.000000      0.000000      0.000000
 --------------------------------------------------------
                        XY            XZ            YZ
 --------------------------------------------------------
     1   Atom        0.000000      0.000000      0.000000
     2   Atom        0.000000      0.000000      0.000000
     3   Atom        0.000000      0.000000      0.000000
     4   Atom        0.000000      0.000000      0.000000
     5   Atom        0.000000      0.000000      0.000000
     6   Atom        0.000000      0.000000      0.000000
     7   Atom        0.000000      0.000000      0.000000
 --------------------------------------------------------


 ---------------------------------------------------------------------------------
              Anisotropic Spin Dipole Couplings in Principal Axis System
 ---------------------------------------------------------------------------------

       Atom             a.u.   MegaHertz   Gauss  10(-4) cm-1        Axes

              Baa     0.0000     0.000     0.000     0.000  1.0000  0.0000  0.0000
     1 C(13)  Bbb     0.0000     0.000     0.000     0.000 -0.0000  1.0000  0.0000
              Bcc     0.0000     0.000     0.000     0.000  0.0000  0.0000  1.0000
 
              Baa     0.0000     0.000     0.000     0.000  1.0000  0.0000  0.0000
     2 H(1)   Bbb     0.0000     0.000     0.000     0.000 -0.0000  1.0000  0.0000
              Bcc     0.0000     0.000     0.000     0.000  0.0000  0.0000  1.0000
 
              Baa     0.0000     0.000     0.000     0.000  1.0000  0.0000  0.0000
     3 H(1)   Bbb     0.0000     0.000     0.000     0.000 -0.0000  1.0000  0.0000
              Bcc     0.0000     0.000     0.000     0.000  0.0000  0.0000  1.0000
 
              Baa     0.0000     0.000     0.000     0.000  1.0000  0.0000  0.0000
     4 C(13)  Bbb     0.0000     0.000     0.000     0.000 -0.0000  1.0000  0.0000
              Bcc     0.0000     0.000     0.000     0.000  0.0000  0.0000  1.0000
 
              Baa     0.0000     0.000     0.000     0.000  1.0000  0.0000  0.0000
     5 C(13)  Bbb     0.0000     0.000     0.000     0.000 -0.0000  1.0000  0.0000
              Bcc     0.0000     0.000     0.000     0.000  0.0000  0.0000  1.0000
 
              Baa     0.0000     0.000     0.000     0.000  1.0000  0.0000  0.0000
     6 H(1)   Bbb     0.0000     0.000     0.000     0.000 -0.0000  1.0000  0.0000
              Bcc     0.0000     0.000     0.000     0.000  0.0000  0.0000  1.0000
 
              Baa     0.0000     0.000     0.000     0.000  1.0000  0.0000  0.0000
     7 H(1)   Bbb     0.0000     0.000     0.000     0.000 -0.0000  1.0000  0.0000
              Bcc     0.0000     0.000     0.000     0.000  0.0000  0.0000  1.0000
 

 ---------------------------------------------------------------------------------

 Calling FoFJK, ICntrl=  10002127 FMM=F ISym2X=0 I1Cent= 0 IOpClX= 1 NMat=1 NMatS=1 NMatT=0.
 ***** Axes restored to original set *****
 -------------------------------------------------------------------
 Center     Atomic                   Forces (Hartrees/Bohr)
 Number     Number              X              Y              Z
 -------------------------------------------------------------------
      1        6          -0.030836303    0.003813871   -0.000003746
      2        1           0.011544418   -0.013636759    0.000047997
      3        1           0.004650999    0.003435228   -0.000053500
      4        6          -0.019985996    0.039252298    0.000000905
      5        6           0.051099439   -0.039228505    0.000002370
      6        1          -0.017262013    0.001300888   -0.000048099
      7        1           0.000789455    0.005062980    0.000054074
 -------------------------------------------------------------------
 Cartesian Forces:  Max     0.051099439 RMS     0.019191068

 GradGradGradGradGradGradGradGradGradGradGradGradGradGradGradGradGradGrad
 Berny optimization.
 FormGI is forming the generalized inverse of G from B-inverse, IUseBI=4.
 Internal  Forces:  Max     0.046119809 RMS     0.013606546
 Search for a local minimum.
 Step number   1 out of a maximum of  100
 All quantities printed in internal units (Hartrees-Bohrs-Radians)
 Mixed Optimization -- RFO/linear search
 Second derivative matrix not updated -- first step.
 The second derivative matrix:
                          R1        R2        R3        R4        R5
           R1           0.33875
           R2           0.00000   0.33875
           R3           0.00000   0.00000   0.65840
           R4           0.00000   0.00000   0.00000   0.74411
           R5           0.00000   0.00000   0.00000   0.00000   0.33875
           R6           0.00000   0.00000   0.00000   0.00000   0.00000
           A1           0.00000   0.00000   0.00000   0.00000   0.00000
           A2           0.00000   0.00000   0.00000   0.00000   0.00000
           A3           0.00000   0.00000   0.00000   0.00000   0.00000
           A4           0.00000   0.00000   0.00000   0.00000   0.00000
           A5           0.00000   0.00000   0.00000   0.00000   0.00000
           A6           0.00000   0.00000   0.00000   0.00000   0.00000
           A7           0.00000   0.00000   0.00000   0.00000   0.00000
           A8           0.00000   0.00000   0.00000   0.00000   0.00000
           D1           0.00000   0.00000   0.00000   0.00000   0.00000
           D2           0.00000   0.00000   0.00000   0.00000   0.00000
           D3           0.00000   0.00000   0.00000   0.00000   0.00000
           D4           0.00000   0.00000   0.00000   0.00000   0.00000
                          R6        A1        A2        A3        A4
           R6           0.33875
           A1           0.00000   0.16000
           A2           0.00000   0.00000   0.16000
           A3           0.00000   0.00000   0.00000   0.16000
           A4           0.00000   0.00000   0.00000   0.00000   0.16000
           A5           0.00000   0.00000   0.00000   0.00000   0.00000
           A6           0.00000   0.00000   0.00000   0.00000   0.00000
           A7           0.00000   0.00000   0.00000   0.00000   0.00000
           A8           0.00000   0.00000   0.00000   0.00000   0.00000
           D1           0.00000   0.00000   0.00000   0.00000   0.00000
           D2           0.00000   0.00000   0.00000   0.00000   0.00000
           D3           0.00000   0.00000   0.00000   0.00000   0.00000
           D4           0.00000   0.00000   0.00000   0.00000   0.00000
                          A5        A6        A7        A8        D1
           A5           0.16000
           A6           0.00000   0.16000
           A7           0.00000   0.00000   0.03733
           A8           0.00000   0.00000   0.00000   0.03733
           D1           0.00000   0.00000   0.00000   0.00000   0.00230
           D2           0.00000   0.00000   0.00000   0.00000   0.00000
           D3           0.00000   0.00000   0.00000   0.00000   0.00000
           D4           0.00000   0.00000   0.00000   0.00000   0.00000
                          D2        D3        D4
           D2           0.00230
           D3           0.00000   0.00230
           D4           0.00000   0.00000   0.00230
 ITU=  0
     Eigenvalues ---    0.00230   0.00230   0.00230   0.03733   0.03733
     Eigenvalues ---    0.16000   0.16000   0.16000   0.16000   0.33875
     Eigenvalues ---    0.33875   0.33875   0.33875   0.65840   0.74411
 RFO step:  Lambda=-1.10153648D-02 EMin= 2.30000000D-03
 Linear search not attempted -- first point.
 Maximum step size (   0.300) exceeded in Quadratic search.
    -- Step size scaled by   0.890
 Iteration  1 RMS(Cart)=  0.08187776 RMS(Int)=  0.01856632
 Iteration  2 RMS(Cart)=  0.04387833 RMS(Int)=  0.00087397
 Iteration  3 RMS(Cart)=  0.00137657 RMS(Int)=  0.00000015
 Iteration  4 RMS(Cart)=  0.00000010 RMS(Int)=  0.00000013
 Variable       Old X    -DE/DX   Delta X   Delta X   Delta X     New X
                                 (Linear)    (Quad)   (Total)
    R1        2.07542  -0.01597   0.00000  -0.04063  -0.04063   2.03479
    R2        2.07542  -0.00578   0.00000  -0.01470  -0.01470   2.06071
    R3        2.46598   0.00981   0.00000   0.01304   0.01304   2.47902
    R4        2.41078   0.04612   0.00000   0.05434   0.05434   2.46512
    R5        2.07542  -0.01589   0.00000  -0.04041  -0.04041   2.03501
    R6        2.07542  -0.00512   0.00000  -0.01301  -0.01301   2.06240
    A1        1.99956   0.00566   0.00000   0.02945   0.02945   2.02901
    A2        2.30656  -0.01096   0.00000  -0.05701  -0.05702   2.24955
    A3        1.97707   0.00530   0.00000   0.02756   0.02756   2.00463
    A4        2.31031  -0.00972   0.00000  -0.05059  -0.05059   2.25972
    A5        1.97332   0.00518   0.00000   0.02693   0.02693   2.00025
    A6        1.99956   0.00455   0.00000   0.02366   0.02366   2.02321
    A7        3.14160  -0.01483   0.00000  -0.27292  -0.27292   2.86868
    A8        3.14159   0.00000   0.00000   0.00001   0.00001   3.14160
    D1        0.00007  -0.00003   0.00000  -0.00199  -0.00199  -0.00192
    D2       -3.14152  -0.00004   0.00000  -0.00296  -0.00296   3.13870
    D3       -3.14156  -0.00004   0.00000  -0.00293  -0.00293   3.13870
    D4        0.00004  -0.00006   0.00000  -0.00390  -0.00390  -0.00386
         Item               Value     Threshold  Converged?
 Maximum Force            0.046120     0.000450     NO 
 RMS     Force            0.013607     0.000300     NO 
 Maximum Displacement     0.315664     0.001800     NO 
 RMS     Displacement     0.122731     0.001200     NO 
 Predicted change in Energy=-5.936594D-03
 GradGradGradGradGradGradGradGradGradGradGradGradGradGradGradGradGradGrad

                          Input orientation:                          
 ---------------------------------------------------------------------
 Center     Atomic      Atomic             Coordinates (Angstroms)
 Number     Number       Type             X           Y           Z
 ---------------------------------------------------------------------
      1          6           0        1.877490    2.965822    0.000377
      2          1           0        1.541241    3.988740    0.001330
      3          1           0        1.099038    2.202171   -0.001609
      4          6           0        3.104697    2.502269   -0.000301
      5          6           0        4.155612    1.729447   -0.000300
      6          1           0        5.199600    1.993570   -0.001170
      7          1           0        3.933849    0.660839    0.001579
 ---------------------------------------------------------------------
                    Distance matrix (angstroms):
                    1          2          3          4          5
     1  C    0.000000
     2  H    1.076766   0.000000
     3  H    1.090483   1.840484   0.000000
     4  C    1.311838   2.157312   2.027986   0.000000
     5  C    2.592000   3.455336   3.092914   1.304483   0.000000
     6  H    3.461458   4.167050   4.105865   2.155781   1.076881
     7  H    3.088941   4.098719   3.226742   2.019494   1.091377
                    6          7
     6  H    0.000000
     7  H    1.838017   0.000000
 Stoichiometry    C3H4
 Framework group  C1[X(C3H4)]
 Deg. of freedom    15
 Full point group                 C1      NOp   1
 Largest Abelian subgroup         C1      NOp   1
 Largest concise Abelian subgroup C1      NOp   1
                         Standard orientation:                         
 ---------------------------------------------------------------------
 Center     Atomic      Atomic             Coordinates (Angstroms)
 Number     Number       Type             X           Y           Z
 ---------------------------------------------------------------------
      1          6           0       -1.297145    0.020709   -0.000432
      2          1           0       -2.080774   -0.717768   -0.001385
      3          1           0       -1.616830    1.063279    0.001554
      4          6           0        0.002527   -0.157545    0.000246
      5          6           0        1.294856    0.020111    0.000245
      6          1           0        2.086268   -0.710189    0.001114
      7          1           0        1.609910    1.065024   -0.001634
 ---------------------------------------------------------------------
 Rotational constants (GHZ):         140.1537840           9.3058498           8.7264399
 Standard basis: CC-pVTZ (5D, 7F)
 There are   165 symmetry adapted cartesian basis functions of A   symmetry.
 There are   146 symmetry adapted basis functions of A   symmetry.
   146 basis functions,   224 primitive gaussians,   165 cartesian basis functions
    11 alpha electrons       11 beta electrons
       nuclear repulsion energy        59.2906909875 Hartrees.
 NAtoms=    7 NActive=    7 NUniq=    7 SFac= 1.00D+00 NAtFMM=   60 NAOKFM=F Big=F
 Integral buffers will be    131072 words long.
 Raffenetti 2 integral format.
 Two-electron integral symmetry is turned on.
 Nuclear repulsion after empirical dispersion term =       59.2880376637 Hartrees.
 One-electron integrals computed using PRISM.
 NBasis=   146 RedAO= T EigKep=  2.02D-04  NBF=   146
 NBsUse=   146 1.00D-06 EigRej= -1.00D+00 NBFU=   146
 Initial guess from the checkpoint file:  "/localscratch/339542/Gau-23650.chk"
 B after Tr=    -0.000000    0.000000   -0.000000
         Rot=    1.000000   -0.000004    0.000063    0.000033 Ang=  -0.01 deg.
 Initial guess <Sx>= 0.0000 <Sy>= 0.0000 <Sz>= 0.0000 <S**2>=-0.0000 S=-0.0000
 ExpMin= 1.03D-01 ExpMax= 8.24D+03 ExpMxC= 2.81D+02 IAcc=3 IRadAn=         5 AccDes= 0.00D+00
 Harris functional with IExCor=  419 and IRadAn=       5 diagonalized for initial guess.
 HarFok:  IExCor=  419 AccDes= 0.00D+00 IRadAn=         5 IDoV= 1 UseB2=F ITyADJ=14
 ICtDFT=  3500011 ScaDFX=  1.000000  1.000000  1.000000  1.000000
 FoFCou: FMM=F IPFlag=           0 FMFlag=      100000 FMFlg1=           0
         NFxFlg=           0 DoJE=T BraDBF=F KetDBF=T FulRan=T
         wScrn=  0.000000 ICntrl=       500 IOpCl=  0 I1Cent=   200000004 NGrid=           0
         NMat0=    1 NMatS0=      1 NMatT0=    0 NMatD0=    1 NMtDS0=    0 NMtDT0=    0
 Petite list used in FoFCou.
 Keep R1 and R2 ints in memory in canonical form, NReq=154881851.
 Requested convergence on RMS density matrix=1.00D-08 within 128 cycles.
 Requested convergence on MAX density matrix=1.00D-06.
 Requested convergence on             energy=1.00D-06.
 No special actions if energy rises.
 Integral accuracy reduced to 1.0D-05 until final iterations.
 Initial convergence to 1.0D-05 achieved.  Increase integral accuracy.
 SCF Done:  E(UB2PLYPD3) =  -116.322574738     A.U. after   17 cycles
            NFock= 17  Conv=0.26D-08     -V/T= 2.0043
 <Sx>= 0.0000 <Sy>= 0.0000 <Sz>= 0.0000 <S**2>=-0.0000 S=-0.0000
 <L.S>=  0.00000000000    
 Annihilation of the first spin contaminant:
 S**2 before annihilation    -0.0000,   after    -0.0000
 DoSCS=T DFT=T ScalE2(SS,OS)=  0.270000  0.270000
 ExpMin= 1.03D-01 ExpMax= 8.24D+03 ExpMxC= 2.81D+02 IAcc=3 IRadAn=         5 AccDes= 0.00D+00
 HarFok:  IExCor=  205 AccDes= 0.00D+00 IRadAn=         5 IDoV=-2 UseB2=F ITyADJ=14
 ICtDFT= 12500011 ScaDFX=  1.000000  1.000000  1.000000  1.000000
 Range of M.O.s used for correlation:     4   146
 NBasis=   146 NAE=    11 NBE=    11 NFC=     3 NFV=     0
 NROrb=    143 NOA=     8 NOB=     8 NVA=   135 NVB=   135

 **** Warning!!: The largest alpha MO coefficient is  0.25466289D+02


 **** Warning!!: The largest beta MO coefficient is  0.25466289D+02

 DoSCS=T DFT=T ScalE2(SS,OS)=  0.270000  0.270000
 Fully direct method using O(ONN) memory.
 JobTyp=2 Pass  1:  I=   4 to  11 NPSUse= 40 ParTrn=T ParDer=T DoDerP=T.
 JobTyp=3 Pass  1:  I=   4 to  11 NPSUse= 40 ParTrn=T ParDer=T DoDerP=T.
 Spin components of T(2) and E(2):
     alpha-alpha T2 =       0.3394186191D-01 E2=     -0.1893264761D-01
     alpha-beta  T2 =       0.2025381516D+00 E2=     -0.1210149349D+00
     beta-beta   T2 =       0.3394186191D-01 E2=     -0.1893264761D-01
 (S**2,0)=  0.00000D+00           (S**2,1)=  0.00000D+00
 E(PUHF)=      -0.11632257474D+03        E(PMP2)=      -0.11648145497D+03
 E2(B2PLYPD3) =    -0.1588802301D+00 E(B2PLYPD3) =    -0.11648145496787D+03
          IDoAtm=1111111
          Differentiating once with respect to electric field.
                with respect to dipole field.
          Differentiating once with respect to nuclear coordinates.
 Keep R1 and R2 ints in memory in canonical form, NReq=154886733.
          There are     1 degrees of freedom in the 1st order CPHF.  IDoFFX=0 NUNeed=     1.
 LinEq1:  Iter=  0 NonCon=     1 RMS=1.41D-03 Max=4.40D-02 NDo=     1
 AX will form     1 AO Fock derivatives at one time.
 LinEq1:  Iter=  1 NonCon=     1 RMS=5.85D-04 Max=1.09D-02 NDo=     1
 LinEq1:  Iter=  2 NonCon=     1 RMS=1.67D-04 Max=3.08D-03 NDo=     1
 LinEq1:  Iter=  3 NonCon=     1 RMS=1.18D-04 Max=2.91D-03 NDo=     1
 LinEq1:  Iter=  4 NonCon=     1 RMS=7.23D-05 Max=1.61D-03 NDo=     1
 LinEq1:  Iter=  5 NonCon=     1 RMS=1.41D-05 Max=1.88D-04 NDo=     1
 LinEq1:  Iter=  6 NonCon=     1 RMS=4.64D-06 Max=8.19D-05 NDo=     1
 LinEq1:  Iter=  7 NonCon=     1 RMS=2.75D-06 Max=5.10D-05 NDo=     1
 LinEq1:  Iter=  8 NonCon=     1 RMS=1.00D-06 Max=1.78D-05 NDo=     1
 LinEq1:  Iter=  9 NonCon=     1 RMS=2.12D-07 Max=2.64D-06 NDo=     1
 LinEq1:  Iter= 10 NonCon=     1 RMS=1.97D-08 Max=2.76D-07 NDo=     1
 LinEq1:  Iter= 11 NonCon=     1 RMS=3.53D-09 Max=6.74D-08 NDo=     1
 LinEq1:  Iter= 12 NonCon=     1 RMS=9.84D-10 Max=1.61D-08 NDo=     1
 LinEq1:  Iter= 13 NonCon=     1 RMS=2.46D-10 Max=4.70D-09 NDo=     1
 LinEq1:  Iter= 14 NonCon=     0 RMS=4.89D-11 Max=7.60D-10 NDo=     1
 Linear equations converged to 1.000D-10 1.000D-09 after    14 iterations.
 End of Minotr F.D. properties file   721 does not exist.
 End of Minotr F.D. properties file   722 does not exist.
 End of Minotr F.D. properties file   788 does not exist.
 Calling FoFJK, ICntrl=  10002127 FMM=F ISym2X=0 I1Cent= 0 IOpClX= 1 NMat=1 NMatS=1 NMatT=0.
 ***** Axes restored to original set *****
 -------------------------------------------------------------------
 Center     Atomic                   Forces (Hartrees/Bohr)
 Number     Number              X              Y              Z
 -------------------------------------------------------------------
      1        6          -0.007293611    0.015932786    0.000083380
      2        1           0.003626125    0.000336188   -0.000804596
      3        1           0.004704751   -0.000472508    0.000947780
      4        6          -0.020095512   -0.020579972    0.000064213
      5        6           0.023882397   -0.002520006   -0.000127172
      6        1          -0.001855422    0.003376956    0.000794350
      7        1          -0.002968729    0.003926556   -0.000957954
 -------------------------------------------------------------------
 Cartesian Forces:  Max     0.023882397 RMS     0.009229749

 GradGradGradGradGradGradGradGradGradGradGradGradGradGradGradGradGradGrad
 Berny optimization.
 Using GEDIIS/GDIIS optimizer.
 FormGI is forming the generalized inverse of G from B-inverse, IUseBI=4.
 Internal  Forces:  Max     0.037281458 RMS     0.009621893
 Search for a local minimum.
 Step number   2 out of a maximum of  100
 All quantities printed in internal units (Hartrees-Bohrs-Radians)
 Mixed Optimization -- RFO/linear search
 Update second derivatives using D2CorX and points    1    2
 DE= -4.28D-04 DEPred=-5.94D-03 R= 7.21D-02
 Trust test= 7.21D-02 RLast= 3.00D-01 DXMaxT set to 1.50D-01
 The second derivative matrix:
                          R1        R2        R3        R4        R5
           R1           0.32652
           R2          -0.00664   0.33594
           R3           0.01108   0.00477   0.65031
           R4           0.04478   0.02112  -0.03558   0.59291
           R5          -0.01229  -0.00663   0.01106   0.04483   0.32639
           R6          -0.00633  -0.00257   0.00438   0.01970  -0.00631
           A1           0.00778   0.00293  -0.00502  -0.02329   0.00774
           A2          -0.00924  -0.00461   0.00773   0.03221  -0.00927
           A3           0.00147   0.00168  -0.00271  -0.00892   0.00153
           A4          -0.00857  -0.00416   0.00699   0.02939  -0.00859
           A5           0.00140   0.00164  -0.00264  -0.00864   0.00146
           A6           0.00717   0.00252  -0.00435  -0.02075   0.00713
           A7           0.02409   0.00110  -0.00317  -0.04032   0.02351
           A8          -0.00001  -0.00000   0.00000   0.00002  -0.00001
           D1           0.00031   0.00006  -0.00011  -0.00069   0.00031
           D2           0.00064   0.00011  -0.00022  -0.00141   0.00063
           D3           0.00062   0.00011  -0.00021  -0.00136   0.00061
           D4           0.00094   0.00017  -0.00032  -0.00208   0.00093
                          R6        A1        A2        A3        A4
           R6           0.33642
           A1           0.00261   0.15716
           A2          -0.00434   0.00521   0.15322
           A3           0.00173  -0.00237   0.00157   0.16080
           A4          -0.00389   0.00464  -0.00622   0.00158   0.15430
           A5           0.00168  -0.00231   0.00151   0.00080   0.00153
           A6           0.00221  -0.00233   0.00471  -0.00238   0.00417
           A7          -0.00059   0.00410   0.01205  -0.01614   0.00942
           A8          -0.00000   0.00000  -0.00000   0.00000  -0.00000
           D1           0.00004  -0.00001   0.00018  -0.00016   0.00015
           D2           0.00008  -0.00003   0.00036  -0.00033   0.00030
           D3           0.00007  -0.00003   0.00035  -0.00032   0.00029
           D4           0.00011  -0.00004   0.00054  -0.00049   0.00045
                          A5        A6        A7        A8        D1
           A5           0.16080
           A6          -0.00233   0.15816
           A7          -0.01589   0.00646   0.16910
           A8           0.00000  -0.00000  -0.00003   0.03733
           D1          -0.00016   0.00001   0.00110  -0.00000   0.00231
           D2          -0.00033   0.00003   0.00223  -0.00000   0.00002
           D3          -0.00032   0.00003   0.00216  -0.00000   0.00002
           D4          -0.00049   0.00004   0.00329  -0.00000   0.00003
                          D2        D3        D4
           D2           0.00233
           D3           0.00003   0.00233
           D4           0.00005   0.00005   0.00238
 ITU= -1  0
 Use linear search instead of GDIIS.
     Eigenvalues ---    0.00230   0.00230   0.00230   0.03733   0.11026
     Eigenvalues ---    0.14817   0.16000   0.16000   0.18898   0.30718
     Eigenvalues ---    0.33875   0.33875   0.34170   0.59958   0.66882
 RFO step:  Lambda=-6.42934279D-03 EMin= 2.30000319D-03
 Quartic linear search produced a step of -0.47767.
 Maximum step size (   0.150) exceeded in Quadratic search.
    -- Step size scaled by   0.714
 Iteration  1 RMS(Cart)=  0.12861430 RMS(Int)=  0.00898047
 Iteration  2 RMS(Cart)=  0.01367988 RMS(Int)=  0.00007306
 Iteration  3 RMS(Cart)=  0.00008327 RMS(Int)=  0.00002239
 Iteration  4 RMS(Cart)=  0.00000001 RMS(Int)=  0.00002239
 Variable       Old X    -DE/DX   Delta X   Delta X   Delta X     New X
                                 (Linear)    (Quad)   (Total)
    R1        2.03479  -0.00081   0.01941  -0.03808  -0.01867   2.01612
    R2        2.06071  -0.00303   0.00702  -0.01675  -0.00973   2.05099
    R3        2.47902   0.00461  -0.00623   0.01458   0.00835   2.48736
    R4        2.46512   0.01252  -0.02596   0.05617   0.03022   2.49533
    R5        2.03501  -0.00097   0.01930  -0.03805  -0.01875   2.01626
    R6        2.06240  -0.00324   0.00622  -0.01544  -0.00922   2.05318
    A1        2.02901   0.00490  -0.01407   0.03784   0.02373   2.05274
    A2        2.24955  -0.00232   0.02723  -0.05706  -0.02987   2.21968
    A3        2.00463  -0.00258  -0.01316   0.01925   0.00604   2.01067
    A4        2.25972  -0.00251   0.02416  -0.05166  -0.02753   2.23219
    A5        2.00025  -0.00256  -0.01286   0.01871   0.00581   2.00606
    A6        2.02321   0.00508  -0.01130   0.03296   0.02162   2.04484
    A7        2.86868   0.03728   0.13037   0.08069   0.21106   3.07973
    A8        3.14160  -0.00001  -0.00000  -0.00007  -0.00008   3.14153
    D1       -0.00192   0.00037   0.00095   0.01442   0.01537   0.01345
    D2        3.13870   0.00076   0.00141   0.03062   0.03203  -3.11245
    D3        3.13870   0.00073   0.00140   0.02951   0.03091  -3.11358
    D4       -0.00386   0.00113   0.00186   0.04571   0.04758   0.04371
         Item               Value     Threshold  Converged?
 Maximum Force            0.037281     0.000450     NO 
 RMS     Force            0.009622     0.000300     NO 
 Maximum Displacement     0.255753     0.001800     NO 
 RMS     Displacement     0.134439     0.001200     NO 
 Predicted change in Energy=-5.152756D-03
 GradGradGradGradGradGradGradGradGradGradGradGradGradGradGradGradGradGrad

                          Input orientation:                          
 ---------------------------------------------------------------------
 Center     Atomic      Atomic             Coordinates (Angstroms)
 Number     Number       Type             X           Y           Z
 ---------------------------------------------------------------------
      1          6           0        1.849288    2.958637   -0.003507
      2          1           0        1.655538    4.007754   -0.011299
      3          1           0        0.995049    2.289455    0.017058
      4          6           0        3.025040    2.366930    0.000917
      5          6           0        4.165620    1.701559    0.003520
      6          1           0        5.155931    2.098600    0.010436
      7          1           0        4.065063    0.619924   -0.017219
 ---------------------------------------------------------------------
                    Distance matrix (angstroms):
                    1          2          3          4          5
     1  C    0.000000
     2  H    1.066886   0.000000
     3  H    1.085335   1.841087   0.000000
     4  C    1.316256   2.137285   2.031533   0.000000
     5  C    2.635467   3.408704   3.224643   1.320472   0.000000
     6  H    3.416686   3.987241   4.165262   2.147740   1.066961
     7  H    3.221712   4.157312   3.494782   2.033226   1.086498
                    6          7
     6  H    0.000000
     7  H    1.837727   0.000000
 Stoichiometry    C3H4
 Framework group  C1[X(C3H4)]
 Deg. of freedom    15
 Full point group                 C1      NOp   1
 Largest Abelian subgroup         C1      NOp   1
 Largest concise Abelian subgroup C1      NOp   1
                         Standard orientation:                         
 ---------------------------------------------------------------------
 Center     Atomic      Atomic             Coordinates (Angstroms)
 Number     Number       Type             X           Y           Z
 ---------------------------------------------------------------------
      1          6           0       -1.317441   -0.004074    0.002242
      2          1           0       -1.988413   -0.833528    0.009202
      3          1           0       -1.748716    0.991675   -0.018706
      4          6           0       -0.001833   -0.045245   -0.000716
      5          6           0        1.318022   -0.004898   -0.001841
      6          1           0        1.998784   -0.826439   -0.008078
      7          1           0        1.745857    0.993591    0.019475
 ---------------------------------------------------------------------
 Rotational constants (GHZ):         148.7266529           9.0504882           8.5316105
 Standard basis: CC-pVTZ (5D, 7F)
 There are   165 symmetry adapted cartesian basis functions of A   symmetry.
 There are   146 symmetry adapted basis functions of A   symmetry.
   146 basis functions,   224 primitive gaussians,   165 cartesian basis functions
    11 alpha electrons       11 beta electrons
       nuclear repulsion energy        58.9611920236 Hartrees.
 NAtoms=    7 NActive=    7 NUniq=    7 SFac= 1.00D+00 NAtFMM=   60 NAOKFM=F Big=F
 Integral buffers will be    131072 words long.
 Raffenetti 2 integral format.
 Two-electron integral symmetry is turned on.
 Nuclear repulsion after empirical dispersion term =       58.9585606901 Hartrees.
 One-electron integrals computed using PRISM.
 NBasis=   146 RedAO= T EigKep=  1.65D-04  NBF=   146
 NBsUse=   146 1.00D-06 EigRej= -1.00D+00 NBFU=   146
 Initial guess from the checkpoint file:  "/localscratch/339542/Gau-23650.chk"
 B after Tr=     0.000000   -0.000000    0.000000
         Rot=    1.000000   -0.000094   -0.000159    0.000071 Ang=  -0.02 deg.
 Initial guess <Sx>= 0.0000 <Sy>= 0.0000 <Sz>= 0.0000 <S**2>=-0.0000 S=-0.0000
 ExpMin= 1.03D-01 ExpMax= 8.24D+03 ExpMxC= 2.81D+02 IAcc=3 IRadAn=         5 AccDes= 0.00D+00
 Harris functional with IExCor=  419 and IRadAn=       5 diagonalized for initial guess.
 HarFok:  IExCor=  419 AccDes= 0.00D+00 IRadAn=         5 IDoV= 1 UseB2=F ITyADJ=14
 ICtDFT=  3500011 ScaDFX=  1.000000  1.000000  1.000000  1.000000
 FoFCou: FMM=F IPFlag=           0 FMFlag=      100000 FMFlg1=           0
         NFxFlg=           0 DoJE=T BraDBF=F KetDBF=T FulRan=T
         wScrn=  0.000000 ICntrl=       500 IOpCl=  0 I1Cent=   200000004 NGrid=           0
         NMat0=    1 NMatS0=      1 NMatT0=    0 NMatD0=    1 NMtDS0=    0 NMtDT0=    0
 Petite list used in FoFCou.
 Keep R1 and R2 ints in memory in canonical form, NReq=154881851.
 Requested convergence on RMS density matrix=1.00D-08 within 128 cycles.
 Requested convergence on MAX density matrix=1.00D-06.
 Requested convergence on             energy=1.00D-06.
 No special actions if energy rises.
 Integral accuracy reduced to 1.0D-05 until final iterations.
 Problem detected with inexpensive integrals.
 Switching to full accuracy and repeating last cycle.
 SCF Done:  E(UB2PLYPD3) =  -116.329416571     A.U. after   27 cycles
            NFock= 27  Conv=0.13D-08     -V/T= 2.0043
 <Sx>= 0.0000 <Sy>= 0.0000 <Sz>= 0.0000 <S**2>=-0.0000 S=-0.0000
 <L.S>=  0.00000000000    
 Annihilation of the first spin contaminant:
 S**2 before annihilation    -0.0000,   after    -0.0000
 DoSCS=T DFT=T ScalE2(SS,OS)=  0.270000  0.270000
 ExpMin= 1.03D-01 ExpMax= 8.24D+03 ExpMxC= 2.81D+02 IAcc=3 IRadAn=         5 AccDes= 0.00D+00
 HarFok:  IExCor=  205 AccDes= 0.00D+00 IRadAn=         5 IDoV=-2 UseB2=F ITyADJ=14
 ICtDFT= 12500011 ScaDFX=  1.000000  1.000000  1.000000  1.000000
 Range of M.O.s used for correlation:     4   146
 NBasis=   146 NAE=    11 NBE=    11 NFC=     3 NFV=     0
 NROrb=    143 NOA=     8 NOB=     8 NVA=   135 NVB=   135

 **** Warning!!: The largest alpha MO coefficient is  0.27761546D+02


 **** Warning!!: The largest beta MO coefficient is  0.27761546D+02

 DoSCS=T DFT=T ScalE2(SS,OS)=  0.270000  0.270000
 Fully direct method using O(ONN) memory.
 JobTyp=2 Pass  1:  I=   4 to  11 NPSUse= 40 ParTrn=T ParDer=T DoDerP=T.
 JobTyp=3 Pass  1:  I=   4 to  11 NPSUse= 40 ParTrn=T ParDer=T DoDerP=T.
 Spin components of T(2) and E(2):
     alpha-alpha T2 =       0.3322386132D-01 E2=     -0.1875973501D-01
     alpha-beta  T2 =       0.2077702480D+00 E2=     -0.1220351108D+00
     beta-beta   T2 =       0.3322386132D-01 E2=     -0.1875973501D-01
 (S**2,0)=  0.00000D+00           (S**2,1)=  0.00000D+00
 E(PUHF)=      -0.11632941657D+03        E(PMP2)=      -0.11648897115D+03
 E2(B2PLYPD3) =    -0.1595545808D+00 E(B2PLYPD3) =    -0.11648897115161D+03
          IDoAtm=1111111
          Differentiating once with respect to electric field.
                with respect to dipole field.
          Differentiating once with respect to nuclear coordinates.
 Keep R1 and R2 ints in memory in canonical form, NReq=154886733.
          There are     1 degrees of freedom in the 1st order CPHF.  IDoFFX=0 NUNeed=     1.
 LinEq1:  Iter=  0 NonCon=     1 RMS=1.41D-03 Max=3.70D-02 NDo=     1
 AX will form     1 AO Fock derivatives at one time.
 LinEq1:  Iter=  1 NonCon=     1 RMS=6.26D-04 Max=1.28D-02 NDo=     1
 LinEq1:  Iter=  2 NonCon=     1 RMS=4.83D-04 Max=1.48D-02 NDo=     1
 LinEq1:  Iter=  3 NonCon=     1 RMS=2.01D-04 Max=2.52D-03 NDo=     1
 LinEq1:  Iter=  4 NonCon=     1 RMS=7.17D-05 Max=1.32D-03 NDo=     1
 LinEq1:  Iter=  5 NonCon=     1 RMS=1.08D-05 Max=1.28D-04 NDo=     1
 LinEq1:  Iter=  6 NonCon=     1 RMS=3.45D-06 Max=7.26D-05 NDo=     1
 LinEq1:  Iter=  7 NonCon=     1 RMS=2.11D-06 Max=2.81D-05 NDo=     1
 LinEq1:  Iter=  8 NonCon=     1 RMS=2.87D-07 Max=3.53D-06 NDo=     1
 LinEq1:  Iter=  9 NonCon=     1 RMS=4.02D-08 Max=6.44D-07 NDo=     1
 LinEq1:  Iter= 10 NonCon=     1 RMS=1.43D-08 Max=2.90D-07 NDo=     1
 LinEq1:  Iter= 11 NonCon=     1 RMS=3.26D-09 Max=7.96D-08 NDo=     1
 LinEq1:  Iter= 12 NonCon=     1 RMS=5.50D-10 Max=6.09D-09 NDo=     1
 LinEq1:  Iter= 13 NonCon=     1 RMS=1.17D-10 Max=1.42D-09 NDo=     1
 LinEq1:  Iter= 14 NonCon=     0 RMS=2.36D-11 Max=3.55D-10 NDo=     1
 Linear equations converged to 1.000D-10 1.000D-09 after    14 iterations.
 End of Minotr F.D. properties file   721 does not exist.
 End of Minotr F.D. properties file   722 does not exist.
 End of Minotr F.D. properties file   788 does not exist.
 Calling FoFJK, ICntrl=  10002127 FMM=F ISym2X=0 I1Cent= 0 IOpClX= 1 NMat=1 NMatS=1 NMatT=0.
 ***** Axes restored to original set *****
 -------------------------------------------------------------------
 Center     Atomic                   Forces (Hartrees/Bohr)
 Number     Number              X              Y              Z
 -------------------------------------------------------------------
      1        6          -0.004631630   -0.012736280    0.002582640
      2        1           0.001688385    0.008607879   -0.027216285
      3        1          -0.002537089    0.001386547    0.029021931
      4        6           0.009015134    0.006701955    0.000205322
      5        6          -0.011547163   -0.009866967   -0.002617454
      6        1           0.005845542    0.006687110    0.027192769
      7        1           0.002166821   -0.000780244   -0.029168923
 -------------------------------------------------------------------
 Cartesian Forces:  Max     0.029168923 RMS     0.013622250

 GradGradGradGradGradGradGradGradGradGradGradGradGradGradGradGradGradGrad
 Berny optimization.
 Using GEDIIS/GDIIS optimizer.
 FormGI is forming the generalized inverse of G from B-inverse, IUseBI=4.
 Internal  Forces:  Max     0.030568226 RMS     0.012332730
 Search for a local minimum.
 Step number   3 out of a maximum of  100
 All quantities printed in internal units (Hartrees-Bohrs-Radians)
 Mixed Optimization -- RFO/linear search
 Update second derivatives using D2CorX and points    1    2    3
 DE= -7.52D-03 DEPred=-5.15D-03 R= 1.46D+00
 TightC=F SS=  1.41D+00  RLast= 2.32D-01 DXNew= 2.5227D-01 6.9480D-01
 Trust test= 1.46D+00 RLast= 2.32D-01 DXMaxT set to 2.52D-01
 The second derivative matrix:
                          R1        R2        R3        R4        R5
           R1           0.39781
           R2           0.02099   0.34624
           R3          -0.00290   0.00061   0.64933
           R4          -0.08093  -0.02429  -0.02071   0.78894
           R5           0.05804   0.02059  -0.00261  -0.07889   0.39578
           R6           0.01806   0.00643   0.00099  -0.01964   0.01771
           A1          -0.01434  -0.00488  -0.00301   0.00960  -0.01401
           A2          -0.01163  -0.00672   0.01161   0.04536  -0.01172
           A3           0.02552   0.01141  -0.00847  -0.05407   0.02529
           A4          -0.01630  -0.00838   0.01205   0.05232  -0.01632
           A5           0.02541   0.01135  -0.00837  -0.05367   0.02518
           A6          -0.00949  -0.00312  -0.00357   0.00210  -0.00924
           A7          -0.06545  -0.03048   0.00420   0.09076  -0.06453
           A8          -0.00054  -0.00022   0.00014   0.00104  -0.00053
           D1           0.08587   0.03485  -0.02151  -0.16369   0.08486
           D2           0.11629   0.04717  -0.02921  -0.22190   0.11492
           D3           0.11409   0.04628  -0.02865  -0.21769   0.11274
           D4           0.14451   0.05859  -0.03635  -0.27589   0.14280
                          R6        A1        A2        A3        A4
           R6           0.34426
           A1          -0.00411   0.16260
           A2          -0.00647   0.00812   0.15023
           A3           0.01041  -0.01056   0.00163   0.16879
           A4          -0.00790   0.00929  -0.00917  -0.00012   0.15181
           A5           0.01034  -0.01048   0.00156   0.00878  -0.00018
           A6          -0.00258   0.00132   0.00759  -0.00878   0.00838
           A7          -0.02776   0.02597   0.02498  -0.05027   0.02941
           A8          -0.00020   0.00019  -0.00002  -0.00017   0.00002
           D1           0.03113  -0.02954   0.00145   0.02760  -0.00482
           D2           0.04212  -0.03997   0.00214   0.03718  -0.00635
           D3           0.04133  -0.03922   0.00209   0.03648  -0.00624
           D4           0.05232  -0.04965   0.00278   0.04605  -0.00777
                          A5        A6        A7        A8        D1
           A5           0.16877
           A6          -0.00870   0.16043
           A7          -0.04990   0.02107   0.26022
           A8          -0.00017   0.00015   0.00074   0.03733
           D1           0.02757  -0.02316  -0.12031  -0.00060   0.09945
           D2           0.03714  -0.03134  -0.16202  -0.00081   0.13125
           D3           0.03644  -0.03075  -0.15899  -0.00079   0.12878
           D4           0.04601  -0.03892  -0.20070  -0.00101   0.16288
                          D2        D3        D4
           D2           0.17962
           D3           0.17398   0.17300
           D4           0.22005   0.21590   0.27538
 ITU=  1 -1  0
 Use linear search instead of GDIIS.
     Eigenvalues ---    0.00013   0.00231   0.00232   0.03733   0.14854
     Eigenvalues ---    0.15497   0.16000   0.16045   0.27630   0.33874
     Eigenvalues ---    0.33875   0.34030   0.51908   0.65977   1.44873
 RFO step:  Lambda=-2.19478218D-02 EMin= 1.33840922D-04
 Quartic linear search produced a step of  0.15266.
 Maximum step size (   0.252) exceeded in Quadratic search.
    -- Step size scaled by   0.347
 Iteration  1 RMS(Cart)=  0.16091518 RMS(Int)=  0.01652311
 Iteration  2 RMS(Cart)=  0.01691005 RMS(Int)=  0.00025724
 Iteration  3 RMS(Cart)=  0.00022994 RMS(Int)=  0.00005774
 Iteration  4 RMS(Cart)=  0.00000014 RMS(Int)=  0.00005774
 Variable       Old X    -DE/DX   Delta X   Delta X   Delta X     New X
                                 (Linear)    (Quad)   (Total)
    R1        2.01612   0.00836  -0.00285  -0.05396  -0.05681   1.95931
    R2        2.05099   0.00169  -0.00149  -0.02598  -0.02746   2.02353
    R3        2.48736   0.00365   0.00127   0.02431   0.02559   2.51295
    R4        2.49533  -0.00107   0.00461   0.08952   0.09413   2.58947
    R5        2.01626   0.00809  -0.00286  -0.05410  -0.05696   1.95930
    R6        2.05318   0.00113  -0.00141  -0.02434  -0.02575   2.02743
    A1        2.05274   0.00059   0.00362   0.05726   0.06091   2.11365
    A2        2.21968  -0.00605  -0.00456  -0.08370  -0.08823   2.13145
    A3        2.01067   0.00537   0.00092   0.02614   0.02709   2.03776
    A4        2.23219  -0.00682  -0.00420  -0.07704  -0.08138   2.15081
    A5        2.00606   0.00533   0.00089   0.02541   0.02616   2.03222
    A6        2.04484   0.00141   0.00330   0.05133   0.05449   2.09932
    A7        3.07973  -0.00082   0.03222   0.16539   0.19761   3.27734
    A8        3.14153  -0.00012  -0.00001  -0.00030  -0.00031   3.14122
    D1        0.01345   0.01803   0.00235   0.07477   0.07712   0.09056
    D2       -3.11245   0.02453   0.00489   0.09855   0.10344  -3.00901
    D3       -3.11358   0.02406   0.00472   0.09681   0.10153  -3.01205
    D4        0.04371   0.03057   0.00726   0.12059   0.12785   0.17156
         Item               Value     Threshold  Converged?
 Maximum Force            0.030568     0.000450     NO 
 RMS     Force            0.012333     0.000300     NO 
 Maximum Displacement     0.302977     0.001800     NO 
 RMS     Displacement     0.162400     0.001200     NO 
 Predicted change in Energy=-1.052892D-02
 GradGradGradGradGradGradGradGradGradGradGradGradGradGradGradGradGradGrad

                          Input orientation:                          
 ---------------------------------------------------------------------
 Center     Atomic      Atomic             Coordinates (Angstroms)
 Number     Number       Type             X           Y           Z
 ---------------------------------------------------------------------
      1          6           0        1.811854    2.947727   -0.005805
      2          1           0        1.815866    3.983557   -0.050951
      3          1           0        0.894316    2.400893    0.069803
      4          6           0        2.934885    2.235574   -0.006265
      5          6           0        4.180420    1.664531    0.009068
      6          1           0        5.057655    2.215562    0.051695
      7          1           0        4.216532    0.595015   -0.067639
 ---------------------------------------------------------------------
                    Distance matrix (angstroms):
                    1          2          3          4          5
     1  C    0.000000
     2  H    1.036822   0.000000
     3  H    1.070804   1.835392   0.000000
     4  C    1.329797   2.075968   2.048667   0.000000
     5  C    2.693866   3.312491   3.368145   1.370286   0.000000
     6  H    3.327851   3.693986   4.167501   2.123655   1.036818
     7  H    3.364752   4.152794   3.783809   2.082744   1.072872
                    6          7
     6  H    0.000000
     7  H    1.829727   0.000000
 Stoichiometry    C3H4
 Framework group  C1[X(C3H4)]
 Deg. of freedom    15
 Full point group                 C1      NOp   1
 Largest Abelian subgroup         C1      NOp   1
 Largest concise Abelian subgroup C1      NOp   1
                         Standard orientation:                         
 ---------------------------------------------------------------------
 Center     Atomic      Atomic             Coordinates (Angstroms)
 Number     Number       Type             X           Y           Z
 ---------------------------------------------------------------------
      1          6           0       -1.342027   -0.026102    0.003232
      2          1           0       -1.831947   -0.938770    0.048106
      3          1           0       -1.888219    0.891719   -0.073573
      4          6           0       -0.015367    0.065156    0.005527
      5          6           0        1.351817   -0.026018   -0.007830
      6          1           0        1.860739   -0.928386   -0.049320
      7          1           0        1.892890    0.897215    0.069216
 ---------------------------------------------------------------------
 Rotational constants (GHZ):         146.3697378           8.7683820           8.2771718
 Standard basis: CC-pVTZ (5D, 7F)
 There are   165 symmetry adapted cartesian basis functions of A   symmetry.
 There are   146 symmetry adapted basis functions of A   symmetry.
   146 basis functions,   224 primitive gaussians,   165 cartesian basis functions
    11 alpha electrons       11 beta electrons
       nuclear repulsion energy        58.3619262224 Hartrees.
 NAtoms=    7 NActive=    7 NUniq=    7 SFac= 1.00D+00 NAtFMM=   60 NAOKFM=F Big=F
 Integral buffers will be    131072 words long.
 Raffenetti 2 integral format.
 Two-electron integral symmetry is turned on.
 Nuclear repulsion after empirical dispersion term =       58.3593085045 Hartrees.
 One-electron integrals computed using PRISM.
 NBasis=   146 RedAO= T EigKep=  2.03D-04  NBF=   146
 NBsUse=   146 1.00D-06 EigRej= -1.00D+00 NBFU=   146
 Initial guess from the checkpoint file:  "/localscratch/339542/Gau-23650.chk"
 B after Tr=    -0.000000    0.000000   -0.000000
         Rot=    1.000000    0.000632   -0.000562   -0.000301 Ang=   0.10 deg.
 Initial guess <Sx>= 0.0000 <Sy>= 0.0000 <Sz>= 0.0000 <S**2>= 0.0000 S= 0.0000
 ExpMin= 1.03D-01 ExpMax= 8.24D+03 ExpMxC= 2.81D+02 IAcc=3 IRadAn=         5 AccDes= 0.00D+00
 Harris functional with IExCor=  419 and IRadAn=       5 diagonalized for initial guess.
 HarFok:  IExCor=  419 AccDes= 0.00D+00 IRadAn=         5 IDoV= 1 UseB2=F ITyADJ=14
 ICtDFT=  3500011 ScaDFX=  1.000000  1.000000  1.000000  1.000000
 FoFCou: FMM=F IPFlag=           0 FMFlag=      100000 FMFlg1=           0
         NFxFlg=           0 DoJE=T BraDBF=F KetDBF=T FulRan=T
         wScrn=  0.000000 ICntrl=       500 IOpCl=  0 I1Cent=   200000004 NGrid=           0
         NMat0=    1 NMatS0=      1 NMatT0=    0 NMatD0=    1 NMtDS0=    0 NMtDT0=    0
 Petite list used in FoFCou.
 Keep R1 and R2 ints in memory in canonical form, NReq=154881851.
 Requested convergence on RMS density matrix=1.00D-08 within 128 cycles.
 Requested convergence on MAX density matrix=1.00D-06.
 Requested convergence on             energy=1.00D-06.
 No special actions if energy rises.
 Integral accuracy reduced to 1.0D-05 until final iterations.
 Initial convergence to 1.0D-05 achieved.  Increase integral accuracy.
 SCF Done:  E(UB2PLYPD3) =  -116.333119646     A.U. after   17 cycles
            NFock= 17  Conv=0.52D-08     -V/T= 2.0045
 <Sx>= 0.0000 <Sy>= 0.0000 <Sz>= 0.0000 <S**2>=-0.0000 S=-0.0000
 <L.S>=  0.00000000000    
 Annihilation of the first spin contaminant:
 S**2 before annihilation    -0.0000,   after    -0.0000
 DoSCS=T DFT=T ScalE2(SS,OS)=  0.270000  0.270000
 ExpMin= 1.03D-01 ExpMax= 8.24D+03 ExpMxC= 2.81D+02 IAcc=3 IRadAn=         5 AccDes= 0.00D+00
 HarFok:  IExCor=  205 AccDes= 0.00D+00 IRadAn=         5 IDoV=-2 UseB2=F ITyADJ=14
 ICtDFT= 12500011 ScaDFX=  1.000000  1.000000  1.000000  1.000000
 Range of M.O.s used for correlation:     4   146
 NBasis=   146 NAE=    11 NBE=    11 NFC=     3 NFV=     0
 NROrb=    143 NOA=     8 NOB=     8 NVA=   135 NVB=   135

 **** Warning!!: The largest alpha MO coefficient is  0.25353503D+02


 **** Warning!!: The largest beta MO coefficient is  0.25353503D+02

 DoSCS=T DFT=T ScalE2(SS,OS)=  0.270000  0.270000
 Fully direct method using O(ONN) memory.
 JobTyp=2 Pass  1:  I=   4 to  11 NPSUse= 40 ParTrn=T ParDer=T DoDerP=T.
 JobTyp=3 Pass  1:  I=   4 to  11 NPSUse= 40 ParTrn=T ParDer=T DoDerP=T.
 Spin components of T(2) and E(2):
     alpha-alpha T2 =       0.3299125947D-01 E2=     -0.1865144086D-01
     alpha-beta  T2 =       0.2198723890D+00 E2=     -0.1239405377D+00
     beta-beta   T2 =       0.3299125947D-01 E2=     -0.1865144086D-01
 (S**2,0)=  0.00000D+00           (S**2,1)=  0.00000D+00
 E(PUHF)=      -0.11633311965D+03        E(PMP2)=      -0.11649436307D+03
 E2(B2PLYPD3) =    -0.1612434194D+00 E(B2PLYPD3) =    -0.11649436306533D+03
          IDoAtm=1111111
          Differentiating once with respect to electric field.
                with respect to dipole field.
          Differentiating once with respect to nuclear coordinates.
 Keep R1 and R2 ints in memory in canonical form, NReq=154886733.
          There are     1 degrees of freedom in the 1st order CPHF.  IDoFFX=0 NUNeed=     1.
 LinEq1:  Iter=  0 NonCon=     1 RMS=1.40D-03 Max=3.06D-02 NDo=     1
 AX will form     1 AO Fock derivatives at one time.
 LinEq1:  Iter=  1 NonCon=     1 RMS=6.04D-04 Max=1.34D-02 NDo=     1
 LinEq1:  Iter=  2 NonCon=     1 RMS=4.95D-04 Max=1.43D-02 NDo=     1
 LinEq1:  Iter=  3 NonCon=     1 RMS=2.27D-04 Max=2.55D-03 NDo=     1
 LinEq1:  Iter=  4 NonCon=     1 RMS=6.28D-05 Max=1.27D-03 NDo=     1
 LinEq1:  Iter=  5 NonCon=     1 RMS=2.23D-05 Max=4.68D-04 NDo=     1
 LinEq1:  Iter=  6 NonCon=     1 RMS=1.05D-05 Max=1.04D-04 NDo=     1
 LinEq1:  Iter=  7 NonCon=     1 RMS=2.66D-06 Max=3.80D-05 NDo=     1
 LinEq1:  Iter=  8 NonCon=     1 RMS=7.34D-07 Max=1.24D-05 NDo=     1
 LinEq1:  Iter=  9 NonCon=     1 RMS=2.38D-07 Max=5.16D-06 NDo=     1
 LinEq1:  Iter= 10 NonCon=     1 RMS=4.11D-08 Max=5.54D-07 NDo=     1
 LinEq1:  Iter= 11 NonCon=     1 RMS=5.77D-09 Max=6.51D-08 NDo=     1
 LinEq1:  Iter= 12 NonCon=     1 RMS=1.38D-09 Max=1.62D-08 NDo=     1
 LinEq1:  Iter= 13 NonCon=     1 RMS=2.28D-10 Max=3.56D-09 NDo=     1
 LinEq1:  Iter= 14 NonCon=     0 RMS=4.03D-11 Max=4.63D-10 NDo=     1
 Linear equations converged to 1.000D-10 1.000D-09 after    14 iterations.
 End of Minotr F.D. properties file   721 does not exist.
 End of Minotr F.D. properties file   722 does not exist.
 End of Minotr F.D. properties file   788 does not exist.
 Calling FoFJK, ICntrl=  10002127 FMM=F ISym2X=0 I1Cent= 0 IOpClX= 1 NMat=1 NMatS=1 NMatT=0.
 ***** Axes restored to original set *****
 -------------------------------------------------------------------
 Center     Atomic                   Forces (Hartrees/Bohr)
 Number     Number              X              Y              Z
 -------------------------------------------------------------------
      1        6           0.014554550   -0.047024724    0.002453425
      2        1          -0.002395530    0.033502494   -0.034025816
      3        1          -0.010178878    0.002039063    0.030795235
      4        6           0.040567671    0.002685381    0.002291580
      5        6          -0.075346196   -0.003781059   -0.004843790
      6        1           0.027115024    0.017931690    0.034112217
      7        1           0.005683358   -0.005352846   -0.030782850
 -------------------------------------------------------------------
 Cartesian Forces:  Max     0.075346196 RMS     0.027922650

 GradGradGradGradGradGradGradGradGradGradGradGradGradGradGradGradGradGrad
 Berny optimization.
 Using GEDIIS/GDIIS optimizer.
 FormGI is forming the generalized inverse of G from B-inverse, IUseBI=4.
 Internal  Forces:  Max     0.042357818 RMS     0.020693762
 Search for a local minimum.
 Step number   4 out of a maximum of  100
 All quantities printed in internal units (Hartrees-Bohrs-Radians)
 Mixed Optimization -- RFO/linear search
 Update second derivatives using D2CorX and points    1    2    3    4
 DE= -5.39D-03 DEPred=-1.05D-02 R= 5.12D-01
 TightC=F SS=  1.41D+00  RLast= 3.50D-01 DXNew= 4.2426D-01 1.0490D+00
 Trust test= 5.12D-01 RLast= 3.50D-01 DXMaxT set to 4.24D-01
 The second derivative matrix:
                          R1        R2        R3        R4        R5
           R1           0.41609
           R2           0.01820   0.34229
           R3          -0.00045   0.00469   0.64424
           R4          -0.02559   0.01063  -0.06272   0.50528
           R5           0.07440   0.01735   0.00040  -0.02172   0.41029
           R6           0.01295   0.00217   0.00548   0.01500   0.01227
           A1          -0.01231  -0.00209  -0.00578  -0.01498  -0.01166
           A2          -0.00429  -0.00546   0.01159   0.05165  -0.00485
           A3           0.01677   0.00757  -0.00591  -0.03682   0.01667
           A4          -0.01342  -0.00788   0.01298   0.05956  -0.01368
           A5           0.01695   0.00755  -0.00586  -0.03638   0.01682
           A6          -0.00426   0.00003  -0.00684  -0.02144  -0.00387
           A7          -0.08388  -0.03316   0.01739   0.12688  -0.08233
           A8          -0.00087  -0.00027   0.00022   0.00111  -0.00085
           D1           0.06063   0.02012  -0.00733  -0.06631   0.05924
           D2           0.04988   0.01830   0.00106  -0.04737   0.04899
           D3           0.04915   0.01802   0.00097  -0.04679   0.04827
           D4           0.03839   0.01620   0.00936  -0.02785   0.03802
                          R6        A1        A2        A3        A4
           R6           0.33988
           A1          -0.00110   0.16063
           A2          -0.00584   0.00718   0.14950
           A3           0.00693  -0.00779   0.00339   0.16432
           A4          -0.00768   0.00888  -0.01101   0.00218   0.14946
           A5           0.00689  -0.00775   0.00336   0.00430   0.00212
           A6           0.00051  -0.00090   0.00756  -0.00663   0.00838
           A7          -0.02915   0.02795   0.00632  -0.03391   0.01306
           A8          -0.00022   0.00022  -0.00014  -0.00008  -0.00005
           D1           0.01686  -0.01893   0.00402   0.01479  -0.00200
           D2           0.01585  -0.01922  -0.00154   0.02044  -0.00637
           D3           0.01560  -0.01890  -0.00147   0.02006  -0.00622
           D4           0.01460  -0.01919  -0.00704   0.02571  -0.01059
                          A5        A6        A7        A8        D1
           A5           0.16429
           A6          -0.00655   0.15836
           A7          -0.03389   0.02127   0.20758
           A8          -0.00009   0.00014   0.00076   0.03733
           D1           0.01478  -0.01349  -0.09777  -0.00050   0.05349
           D2           0.02019  -0.01480  -0.12077  -0.00042   0.05787
           D3           0.01981  -0.01454  -0.11858  -0.00041   0.05687
           D4           0.02522  -0.01585  -0.14158  -0.00033   0.06354
                          D2        D3        D4
[...]
 Atom     1 has atomic number  6 and mass  12.00000
 Atom     2 has atomic number  1 and mass   1.00783
 Atom     3 has atomic number  1 and mass   1.00783
 Atom     4 has atomic number  6 and mass  12.00000
 Atom     5 has atomic number  6 and mass  12.00000
 Atom     6 has atomic number  1 and mass   1.00783
 Atom     7 has atomic number  1 and mass   1.00783
 Molecular mass:    40.03130 amu.
 Principal axes and moments of inertia in atomic units:
                           1         2         3
     Eigenvalues --    12.33962 201.56909 201.57058
           X            1.00000   0.00001  -0.00000
           Y           -0.00001   1.00000   0.00019
           Z            0.00000  -0.00019   1.00000
 This molecule is an asymmetric top.
 Rotational symmetry number  1.
 Rotational temperatures (Kelvin)      7.01917     0.42970     0.42970
 Rotational constants (GHZ):         146.25579     8.95346     8.95340
 Zero-point vibrational energy     145127.7 (Joules/Mol)
                                   34.68635 (Kcal/Mol)
 Warning -- explicit consideration of   2 degrees of freedom as
           vibrations may cause significant error
 Vibrational temperatures:    529.58   529.60  1254.96  1255.05  1281.15
          (Kelvin)           1472.35  1472.42  1590.05  2069.28  2145.80
                             2940.14  4533.92  4537.47  4648.93  4649.02
 
 Zero-point correction=                           0.055276 (Hartree/Particle)
 Thermal correction to Energy=                    0.059072
 Thermal correction to Enthalpy=                  0.060016
 Thermal correction to Gibbs Free Energy=         0.031163
 Sum of electronic and zero-point Energies=           -116.535569
 Sum of electronic and thermal Energies=              -116.531773
 Sum of electronic and thermal Enthalpies=            -116.530829
 Sum of electronic and thermal Free Energies=         -116.559682
 
                     E (Thermal)             CV                S
                      KCal/Mol        Cal/Mol-Kelvin    Cal/Mol-Kelvin
 Total                   37.068             11.789             60.725
 Electronic               0.000              0.000              0.000
 Translational            0.889              2.981             36.989
 Rotational               0.889              2.981             20.844
 Vibrational             35.291              5.828              2.892
 Vibration     1          0.741              1.538              1.088
 Vibration     2          0.741              1.538              1.088
                       Q            Log10(Q)             Ln(Q)
 Total Bot       0.463297D-14        -14.334140        -33.005577
 Total V=0       0.123347D+12         11.091129         25.538268
 Vib (Bot)       0.580610D-25        -25.236116        -58.108304
 Vib (Bot)    1  0.495273D+00         -0.305156         -0.702647
 Vib (Bot)    2  0.495251D+00         -0.305175         -0.702690
 Vib (V=0)       0.154580D+01          0.189153          0.435542
 Vib (V=0)    1  0.120377D+01          0.080544          0.185460
 Vib (V=0)    2  0.120376D+01          0.080539          0.185447
 Electronic      0.100000D+01          0.000000          0.000000
 Translational   0.995528D+07          6.998053         16.113613
 Rotational      0.801534D+04          3.903922          8.989113
 ***** Axes restored to original set *****
 -------------------------------------------------------------------
 Center     Atomic                   Forces (Hartrees/Bohr)
 Number     Number              X              Y              Z
 -------------------------------------------------------------------
      1        6          -0.000007500    0.000037653   -0.000015799
      2        1          -0.000002180    0.000004895   -0.000012726
      3        1           0.000016239   -0.000017394    0.000007236
      4        6          -0.000033578   -0.000006859    0.000034792
      5        6           0.000001981   -0.000040018   -0.000025976
      6        1           0.000011946    0.000010225    0.000009451
      7        1           0.000013092    0.000011498    0.000003022
 -------------------------------------------------------------------
 Cartesian Forces:  Max     0.000040018 RMS     0.000019331
 FormGI is forming the generalized inverse of G from B-inverse, IUseBI=4.

 GradGradGradGradGradGradGradGradGradGradGradGradGradGradGradGradGradGrad
 Berny optimization.
 Internal  Forces:  Max     0.000032198 RMS     0.000015309
 Search for a local minimum.
 Step number   1 out of a maximum of    2
 All quantities printed in internal units (Hartrees-Bohrs-Radians)
 Second derivative matrix not updated -- analytic derivatives used.
 The second derivative matrix:
                          R1        R2        R3        R4        R5
           R1           0.35990
           R2           0.00292   0.35988
           R3           0.00965   0.00964   0.66833
           R4          -0.00282  -0.00283   0.01621   0.66838
           R5          -0.00006  -0.00006  -0.00282   0.00964   0.35995
           R6          -0.00006  -0.00006  -0.00282   0.00965   0.00292
           A1           0.00566   0.00566  -0.02565  -0.00009   0.00010
           A2           0.00721  -0.01286   0.01283   0.00005  -0.00005
           A3          -0.01287   0.00720   0.01282   0.00004  -0.00005
           A4          -0.00005  -0.00005   0.00005   0.01283   0.00720
           A5          -0.00005  -0.00005   0.00005   0.01283  -0.01286
           A6           0.00010   0.00010  -0.00009  -0.02566   0.00566
           A7           0.00000   0.00000   0.00002   0.00001   0.00120
           A8          -0.00053   0.00053  -0.00001  -0.00002  -0.00000
           D1          -0.00019   0.00019   0.00000   0.00000  -0.00020
           D2           0.00020  -0.00019   0.00001  -0.00000  -0.00019
           D3          -0.00020   0.00019  -0.00000   0.00000   0.00019
           D4           0.00019  -0.00019  -0.00000   0.00000   0.00019
                          R6        A1        A2        A3        A4
           R6           0.35984
           A1           0.00010   0.06787
           A2          -0.00005  -0.03395   0.07099
           A3          -0.00005  -0.03393  -0.03705   0.07097
           A4          -0.01286  -0.00000   0.00000   0.00000   0.07098
           A5           0.00721  -0.00000   0.00000  -0.00000  -0.03705
           A6           0.00566   0.00001  -0.00000  -0.00000  -0.03393
           A7          -0.00120   0.00000   0.00001  -0.00000   0.01058
           A8           0.00001   0.00000  -0.00471   0.00471   0.00001
           D1           0.00019  -0.00000  -0.00095   0.00096  -0.00096
           D2           0.00019  -0.00000   0.00096  -0.00096  -0.00096
           D3          -0.00019  -0.00000  -0.00096   0.00096   0.00095
           D4          -0.00019  -0.00000   0.00095  -0.00095   0.00095
                          A5        A6        A7        A8        D1
           A5           0.07099
           A6          -0.03394   0.06787
           A7          -0.01058   0.00000   0.09483
           A8          -0.00002   0.00001  -0.00002   0.01882
           D1           0.00096   0.00000   0.00308  -0.00137   0.02287
           D2           0.00096  -0.00000   0.00308   0.00137   0.00578
           D3          -0.00095   0.00000  -0.00308  -0.00137   0.00579
           D4          -0.00095  -0.00000  -0.00308   0.00137  -0.01130
                          D2        D3        D4
           D2           0.02287
           D3          -0.01130   0.02286
           D4           0.00579   0.00578   0.02287
 ITU=  0
     Eigenvalues ---    0.01780   0.02314   0.03329   0.03461   0.08558
     Eigenvalues ---    0.09959   0.09970   0.10699   0.11652   0.35858
     Eigenvalues ---    0.35862   0.36236   0.36286   0.65492   0.68652
 Angle between quadratic step and forces=  49.38 degrees.
 Linear search not attempted -- first point.
 Iteration  1 RMS(Cart)=  0.00017063 RMS(Int)=  0.00000006
 Iteration  2 RMS(Cart)=  0.00000009 RMS(Int)=  0.00000000
 Variable       Old X    -DE/DX   Delta X   Delta X   Delta X     New X
                                 (Linear)    (Quad)   (Total)
    R1        2.04312   0.00001   0.00000   0.00002   0.00002   2.04314
    R2        2.04314  -0.00000   0.00000  -0.00000  -0.00000   2.04314
    R3        2.46239   0.00001   0.00000   0.00002   0.00002   2.46241
    R4        2.46237   0.00003   0.00000   0.00004   0.00004   2.46241
    R5        2.04308   0.00002   0.00000   0.00006   0.00006   2.04314
    R6        2.04317  -0.00001   0.00000  -0.00004  -0.00004   2.04314
    A1        2.05606   0.00002   0.00000   0.00018   0.00018   2.05625
    A2        2.11338   0.00001   0.00000   0.00009   0.00009   2.11347
    A3        2.11374  -0.00003   0.00000  -0.00027  -0.00027   2.11347
    A4        2.11362  -0.00001   0.00000  -0.00015  -0.00015   2.11347
    A5        2.11327   0.00002   0.00000   0.00020   0.00020   2.11347
    A6        2.05629  -0.00001   0.00000  -0.00005  -0.00005   2.05625
    A7        3.14146   0.00001   0.00000   0.00013   0.00013   3.14159
    A8        3.14221  -0.00001   0.00000  -0.00062  -0.00062   3.14159
    D1        1.57078   0.00000   0.00000   0.00001   0.00001   1.57080
    D2       -1.57112   0.00001   0.00000   0.00032   0.00032  -1.57080
    D3       -1.57067  -0.00001   0.00000  -0.00012  -0.00012  -1.57080
    D4        1.57061   0.00000   0.00000   0.00019   0.00019   1.57080
         Item               Value     Threshold  Converged?
 Maximum Force            0.000032     0.000450     YES
 RMS     Force            0.000015     0.000300     YES
 Maximum Displacement     0.000359     0.001800     YES
 RMS     Displacement     0.000171     0.001200     YES
 Predicted change in Energy=-1.819788D-08
 Optimization completed.
    -- Stationary point found.
                           ----------------------------
                           !   Optimized Parameters   !
                           ! (Angstroms and Degrees)  !
 --------------------------                            --------------------------
 ! Name  Definition              Value          Derivative Info.                !
 --------------------------------------------------------------------------------
 ! R1    R(1,2)                  1.0812         -DE/DX =    0.0                 !
 ! R2    R(1,3)                  1.0812         -DE/DX =    0.0                 !
 ! R3    R(1,4)                  1.303          -DE/DX =    0.0                 !
 ! R4    R(4,5)                  1.303          -DE/DX =    0.0                 !
 ! R5    R(5,6)                  1.0812         -DE/DX =    0.0                 !
 ! R6    R(5,7)                  1.0812         -DE/DX =    0.0                 !
 ! A1    A(2,1,3)              117.8037         -DE/DX =    0.0                 !
 ! A2    A(2,1,4)              121.0879         -DE/DX =    0.0                 !
 ! A3    A(3,1,4)              121.1084         -DE/DX =    0.0                 !
 ! A4    A(4,5,6)              121.1016         -DE/DX =    0.0                 !
 ! A5    A(4,5,7)              121.0816         -DE/DX =    0.0                 !
 ! A6    A(6,5,7)              117.8168         -DE/DX =    0.0                 !
 ! A7    L(1,4,5,7,-1)         179.9927         -DE/DX =    0.0                 !
 ! A8    L(1,4,5,7,-2)         180.0354         -DE/DX =    0.0                 !
 ! D1    D(2,1,5,6)             89.9993         -DE/DX =    0.0                 !
 ! D2    D(2,1,5,7)            -90.0186         -DE/DX =    0.0                 !
 ! D3    D(3,1,5,6)            -89.9929         -DE/DX =    0.0                 !
 ! D4    D(3,1,5,7)             89.9891         -DE/DX =    0.0                 !
 --------------------------------------------------------------------------------
 GradGradGradGradGradGradGradGradGradGradGradGradGradGradGradGradGradGrad


 ----------------------------------------------------------------------

 Electric dipole moment (input orientation):
 (Debye = 10**-18 statcoulomb cm , SI units = C m)
                  (au)            (Debye)         (10**-30 SI)
   Tot        0.139199D-03      0.353810D-03      0.118018D-02
   x         -0.492408D-04     -0.125158D-03     -0.417481D-03
   y         -0.725252D-04     -0.184341D-03     -0.614894D-03
   z          0.108129D-03      0.274837D-03      0.916758D-03

 Dipole polarizability, Alpha (input orientation).
 (esu units = cm**3 , SI units = C**2 m**2 J**-1)
 Alpha(0;0):
               (au)            (10**-24 esu)      (10**-40 SI)
   iso        0.357641D+02      0.529969D+01      0.589670D+01
   aniso      0.365876D+02      0.542172D+01      0.603248D+01
   xx         0.514093D+02      0.761808D+01      0.847626D+01
   yx        -0.155878D+02     -0.230987D+01     -0.257008D+01
   yy         0.322960D+02      0.478577D+01      0.532489D+01
   zx         0.727718D+00      0.107837D+00      0.119984D+00
   zy        -0.407501D+00     -0.603854D-01     -0.671879D-01
   zz         0.235869D+02      0.349522D+01      0.388896D+01

 ----------------------------------------------------------------------

 Dipole orientation:
     6          2.65718864          4.29608688         -4.16380850
     1          1.71151209          4.89541606         -5.87285419
     1          1.76758493          4.73616874         -2.37793119
     6          4.79860327          3.08381023         -4.25385100
     6          6.93985170          1.87124131         -4.34322496
     1          8.72094466          2.87203526         -4.32614788
     1          6.99352337         -0.16908956         -4.43664997

 Electric dipole moment (dipole orientation):
 (Debye = 10**-18 statcoulomb cm , SI units = C m)
                  (au)            (Debye)         (10**-30 SI)
   Tot        0.139199D-03      0.353810D-03      0.118018D-02
   x          0.000000D+00      0.000000D+00      0.000000D+00
   y          0.000000D+00      0.000000D+00      0.000000D+00
   z          0.139199D-03      0.353810D-03      0.118018D-02

 Dipole polarizability, Alpha (dipole orientation).
 (esu units = cm**3 , SI units = C**2 m**2 J**-1)
 Alpha(0;0):
               (au)            (10**-24 esu)      (10**-40 SI)
   iso        0.357641D+02      0.529969D+01      0.589670D+01
   aniso      0.365876D+02      0.542172D+01      0.603248D+01
   xx         0.512367D+02      0.759250D+01      0.844780D+01
   yx        -0.156664D+02     -0.232152D+01     -0.258304D+01
   yy         0.324388D+02      0.480694D+01      0.534844D+01
   zx        -0.115826D+01     -0.171637D+00     -0.190972D+00
   zy         0.655460D+00      0.971291D-01      0.108071D+00
   zz         0.236167D+02      0.349963D+01      0.389386D+01

 ----------------------------------------------------------------------
 1\1\GINC-N68\Freq\UB2PLYPD3-FC\CC-pVTZ\C3H4\ROOT\31-May-2019\0\\#N Geo
 m=AllCheck Guess=TCheck SCRF=Check GenChk UB2PLYPD3(FC)/CC-pVTZ Freq\\
 Title Card Required\\0,1\C,1.8507114864,2.9282102679,-0.0297003337\H,1
 .6725476288,3.7200176838,-0.7440055918\H,1.0546477157,2.6819592388,0.6
 592124651\C,2.9874911269,2.2919913683,-0.0000930273\C,4.1240799076,1.6
 554662343,0.0296773944\H,4.942083851,2.0016770404,0.6460335559\H,4.279
 9663137,0.7635375464,-0.5612187126\\Version=ES64L-G16RevB.01\State=1-A
 \HF=-116.4330935\MP2=-116.5908449\PUHF=-116.4330935\PMP2-0=-116.590844
 9\S2=0.\S2-1=0.\S2A=0.\RMSD=1.738e-09\RMSF=1.933e-05\ZeroPoint=0.05527
 62\Thermal=0.0590718\Dipole=-0.0000492,-0.0000725,0.0001081\DipoleDeri
 v=-0.3035195,0.1105267,-0.1158295,0.1103587,-0.1799346,-0.1919483,-0.1
 158042,-0.191951,-0.0477613,0.0436261,0.0351152,0.0290678,0.0575242,0.
 0547291,0.0788627,0.0061166,0.0911035,0.0655805,0.0055965,0.0361486,0.
 0488639,0.0137833,0.0906367,0.066031,0.0718463,0.0537665,0.0678671,0.5
 065581,-0.369787,0.0172306,-0.3697208,0.0531618,-0.0096414,0.0170649,-
 0.0095501,-0.1534009,-0.2960525,0.133986,0.1044741,0.1340034,-0.119747
 1,0.1982739,0.1046251,0.1981808,-0.11544,0.0015506,0.0266431,-0.051134
 6,0.0006298,0.071978,-0.066592,-0.0704204,-0.0551332,0.0906186,0.04224
 07,0.0273673,-0.0326724,0.0534214,0.029176,-0.074986,-0.0134283,-0.086
 4165,0.0925358\Polar=51.4093414,-15.5877801,32.2959788,0.7277177,-0.40
 75012,23.586928\PG=C01 [X(C3H4)]\NImag=0\\0.74012003,-0.23745681,0.435
 29424,-0.11363418,-0.22562799,0.38207805,-0.05264021,0.03679952,-0.024
 52971,0.05424995,0.03652768,-0.19404751,0.14970574,-0.04534332,0.20235
 878,-0.02424583,0.14954855,-0.16860964,0.02702890,-0.16346672,0.171538
 34,-0.19923203,-0.04557343,0.14030907,0.00630895,0.00221162,-0.0037507
 2,0.21446425,-0.04529400,-0.05612100,0.05312019,-0.01525435,-0.0011565
 2,0.01324417,0.04439868,0.05160986,0.14002894,0.05327388,-0.15992498,0
 .01416130,0.00366946,-0.00792220,-0.15283054,-0.05806513,0.16204740,-0
 .47683460,0.23279667,0.00086939,-0.00821185,0.00720980,-0.00181637,-0.
 02431916,0.01494561,-0.00092797,1.01931817,0.23280779,-0.18991080,0.02
 663303,0.02398330,-0.01035307,-0.00049604,-0.00181645,0.00480239,-0.00
 191019,-0.50789842,0.39649045,0.00085428,0.02664381,-0.06734513,-0.019
 01315,0.00868834,0.00347725,0.01627363,-0.01109820,0.00443534,0.023692
 31,-0.01326308,0.11275205,-0.01416980,0.01306235,-0.00061654,0.0005853
 9,-0.00059252,0.00270469,0.00233140,0.00146926,-0.00036518,-0.47754356
 ,0.23039876,-0.02246058,0.74844102,0.01304592,0.00182996,0.00034394,0.
 00049403,0.00294487,0.00123409,0.00037936,0.00130648,0.00297505,0.2304
 1164,-0.19639001,-0.01454319,-0.21095683,0.50322503,-0.00060700,0.0003
 3849,0.00912387,0.00158934,0.00183165,0.00166513,0.00074810,0.00237810
 ,0.00155896,-0.02246579,-0.01453806,-0.06019755,0.13465556,0.21388933,
 0.30587995,0.00231216,0.00016575,-0.00080423,0.00095603,0.00200896,0.0
 0200554,-0.00048365,-0.00150183,-0.00134646,-0.02483474,-0.00414190,-0
 .01486607,-0.20836245,-0.06827020,-0.12970250,0.22443471,0.00142949,0.
 00050156,-0.00226392,0.00111574,0.00276146,0.00253809,-0.00138279,-0.0
 0327013,-0.00290413,0.01535366,0.00672489,0.01027824,-0.06795502,-0.07
 420130,-0.06371008,0.06915367,0.07130117,0.00013145,-0.00282171,0.0023
 8396,-0.00162107,-0.00404861,-0.00381297,0.00170750,0.00402314,0.00365
 931,-0.00045099,0.00169769,0.00302872,-0.12946712,-0.06385381,-0.13277
 471,0.14175357,0.06935030,0.13243949,0.00044443,0.00020595,-0.00159380
 ,-0.00124827,-0.00202223,-0.00192621,0.00093025,0.00123663,0.00127991,
 -0.00757427,0.02666693,0.01551959,-0.05128201,0.03489608,0.01578229,0.
 00597794,-0.01771474,-0.01205334,0.05275193,-0.00106005,0.00245355,-0.
 00191099,-0.00179491,-0.00250801,-0.00260214,0.00178300,0.00282893,0.0
 0296106,0.00718104,-0.01136385,-0.00670592,0.03457400,-0.23871502,-0.1
 4018943,0.00258555,-0.00381763,-0.00434700,-0.04326862,0.25112204,-0.0
 0252767,-0.00135502,0.00229387,0.00238439,0.00362015,0.00366408,-0.002
 45703,-0.00360226,-0.00385382,0.00109943,0.00187665,0.00384934,0.01554
 917,-0.14004542,-0.12525565,0.00296016,-0.01328850,-0.00492379,-0.0170
 0845,0.15279441,0.12422598\\0.00000750,-0.00003765,0.00001580,0.000002
 18,-0.00000490,0.00001273,-0.00001624,0.00001739,-0.00000724,0.0000335
 8,0.00000686,-0.00003479,-0.00000198,0.00004002,0.00002598,-0.00001195
 ,-0.00001023,-0.00000945,-0.00001309,-0.00001150,-0.00000302\\\@


 THERE IS AN OLD, OLD RECIPE IN MAINE FOR STEWING COOT. PLACE THE
 BIRD IN A KETTLE OF WATER WITH A RED BUILDING BRICK FREE OF MORTAR AND
 BLEMISHES. PARBOIL THE COOT AND BRICK TOGETHER FOR THREE HOURS.
 POUR OFF THE WATER, REFILL THE KETTLE, AND AGAIN PARBOIL FOR THREE HOURS.
 ONCE AGAIN POUR OFF THE WATER, FOR THE LAST TIME ADD FRESH WATER,
 AND LET THE COOT AND BRICK SIMMER TOGETHER OVERNIGHT. IN THE MORNING,
 THROW AWAY THE COOT AND EAT THE BRICK.
 Job cpu time:       0 days  1 hours 42 minutes 25.0 seconds.
 Elapsed time:       0 days  0 hours  2 minutes 37.4 seconds.
 File lengths (MBytes):  RWF=   3318 Int=      0 D2E=      0 Chk=      5 Scr=      1
 Normal termination of Gaussian 16 at Fri May 31 22:00:29 2019.
