 Entering Gaussian System, Link 0=g16
 Initial command:
 /ichec/packages/gaussian/16b01/l1.exe "/localscratch/339542/Gau-32505.inp" -scrdir="/localscratch/339542/"
 Entering Link 1 = /ichec/packages/gaussian/16b01/l1.exe PID=     32509.
  
 Copyright (c) 1988-2017, Gaussian, Inc.  All Rights Reserved.
  
 This is part of the Gaussian(R) 16 program.  It is based on
 the Gaussian(R) 09 system (copyright 2009, Gaussian, Inc.),
 the Gaussian(R) 03 system (copyright 2003, Gaussian, Inc.),
 the Gaussian(R) 98 system (copyright 1998, Gaussian, Inc.),
 the Gaussian(R) 94 system (copyright 1995, Gaussian, Inc.),
 the Gaussian 92(TM) system (copyright 1992, Gaussian, Inc.),
 the Gaussian 90(TM) system (copyright 1990, Gaussian, Inc.),
 the Gaussian 88(TM) system (copyright 1988, Gaussian, Inc.),
 the Gaussian 86(TM) system (copyright 1986, Carnegie Mellon
 University), and the Gaussian 82(TM) system (copyright 1983,
 Carnegie Mellon University). Gaussian is a federally registered
 trademark of Gaussian, Inc.
  
 This software contains proprietary and confidential information,
 including trade secrets, belonging to Gaussian, Inc.
  
 This software is provided under written license and may be
 used, copied, transmitted, or stored only in accord with that
 written license.
  
 The following legend is applicable only to US Government
 contracts under FAR:
  
                    RESTRICTED RIGHTS LEGEND
  
 Use, reproduction and disclosure by the US Government is
 subject to restrictions as set forth in subparagraphs (a)
 and (c) of the Commercial Computer Software - Restricted
 Rights clause in FAR 52.227-19.
  
 Gaussian, Inc.
 340 Quinnipiac St., Bldg. 40, Wallingford CT 06492
  
  
 ---------------------------------------------------------------
 Warning -- This program may not be used in any manner that
 competes with the business of Gaussian, Inc. or will provide
 assistance to any competitor of Gaussian, Inc.  The licensee
 of this program is prohibited from giving any competitor of
 Gaussian, Inc. access to this program.  By using this program,
 the user acknowledges that Gaussian, Inc. is engaged in the
 business of creating and licensing software in the field of
 computational chemistry and represents and warrants to the
 licensee that it is not a competitor of Gaussian, Inc. and that
 it will not use this program in any manner prohibited above.
 ---------------------------------------------------------------
  

 Cite this work as:
 Gaussian 16, Revision B.01,
 M. J. Frisch, G. W. Trucks, H. B. Schlegel, G. E. Scuseria, 
 M. A. Robb, J. R. Cheeseman, G. Scalmani, V. Barone, 
 G. A. Petersson, H. Nakatsuji, X. Li, M. Caricato, A. V. Marenich, 
 J. Bloino, B. G. Janesko, R. Gomperts, B. Mennucci, H. P. Hratchian, 
 J. V. Ortiz, A. F. Izmaylov, J. L. Sonnenberg, D. Williams-Young, 
 F. Ding, F. Lipparini, F. Egidi, J. Goings, B. Peng, A. Petrone, 
 T. Henderson, D. Ranasinghe, V. G. Zakrzewski, J. Gao, N. Rega, 
 G. Zheng, W. Liang, M. Hada, M. Ehara, K. Toyota, R. Fukuda, 
 J. Hasegawa, M. Ishida, T. Nakajima, Y. Honda, O. Kitao, H. Nakai, 
 T. Vreven, K. Throssell, J. A. Montgomery, Jr., J. E. Peralta, 
 F. Ogliaro, M. J. Bearpark, J. J. Heyd, E. N. Brothers, K. N. Kudin, 
 V. N. Staroverov, T. A. Keith, R. Kobayashi, J. Normand, 
 K. Raghavachari, A. P. Rendell, J. C. Burant, S. S. Iyengar, 
 J. Tomasi, M. Cossi, J. M. Millam, M. Klene, C. Adamo, R. Cammi, 
 J. W. Ochterski, R. L. Martin, K. Morokuma, O. Farkas, 
 J. B. Foresman, and D. J. Fox, Gaussian, Inc., Wallingford CT, 2016.
 
 ******************************************
 Gaussian 16:  ES64L-G16RevB.01 20-Dec-2017
                31-May-2019 
 ******************************************
 %mem=80GB
 %nproc=40
 Will use up to   40 processors via shared memory.
 -----------------------------------------------
 # opt=maxcyc=500 freq=noraman uB2PLYPD3/cc-pvtz
 -----------------------------------------------
 1/6=500,18=20,19=15,38=1/1,3;
 2/9=110,12=2,17=6,18=5,40=1/2;
 3/5=16,6=1,11=2,25=1,30=1,71=1,74=-60,116=2/1,2,3;
 4//1;
 5/5=2,38=5/2;
 8/6=4,10=1/1;
 9/15=2,16=-3/6;
 10/5=1/2;
 6/7=2,8=2,9=2,10=2/1;
 7/12=2/1,2,3,16;
 1/6=500,18=20,19=15/3(2);
 2/9=110/2;
 99//99;
 2/9=110/2;
 3/5=16,6=1,11=2,25=1,30=1,71=1,74=-60,116=2/1,2,3;
 4/5=5,16=3,69=1/1;
 5/5=2,38=5/2;
 8/6=4,10=1/1;
 9/15=2,16=-3/6;
 10/5=1/2;
 7/12=2/1,2,3,16;
 1/6=500,18=20,19=15/3(-8);
 2/9=110/2;
 6/7=2,8=2,9=2,10=2/1;
 99/9=10/99;
 -------------------
 Title Card Required
 -------------------
 Symbolic Z-matrix:
 Charge =  0 Multiplicity = 2
 C                     1.8789    2.95859   0.00002 
 H                     1.62025   4.02596   0.00002 
 C                     3.02532   2.33523  -0.00001 
 C                     4.14609   1.72582  -0.00003 
 H                     5.18393   2.0851    0. 
 H                     4.04136   0.63257  -0.0001 
 

 GradGradGradGradGradGradGradGradGradGradGradGradGradGradGradGradGradGrad
 Berny optimization.
 Initialization pass.
                           ----------------------------
                           !    Initial Parameters    !
                           ! (Angstroms and Degrees)  !
 --------------------------                            --------------------------
 ! Name  Definition              Value          Derivative Info.                !
 --------------------------------------------------------------------------------
 ! R1    R(1,2)                  1.0983         estimate D2E/DX2                !
 ! R2    R(1,3)                  1.3049         estimate D2E/DX2                !
 ! R3    R(3,4)                  1.2757         estimate D2E/DX2                !
 ! R4    R(4,5)                  1.0983         estimate D2E/DX2                !
 ! R5    R(4,6)                  1.0983         estimate D2E/DX2                !
 ! A1    A(2,1,3)              132.1563         estimate D2E/DX2                !
 ! A2    A(3,4,5)              132.3709         estimate D2E/DX2                !
 ! A3    A(3,4,6)              113.063          estimate D2E/DX2                !
 ! A4    A(5,4,6)              114.5661         estimate D2E/DX2                !
 ! A5    L(1,3,4,6,-1)         180.0002         estimate D2E/DX2                !
 ! A6    L(1,3,4,6,-2)         180.0            estimate D2E/DX2                !
 ! D1    D(2,1,4,5)              0.0038         estimate D2E/DX2                !
 ! D2    D(2,1,4,6)           -179.996          estimate D2E/DX2                !
 ! D3    D(3,4,5,6)           -179.9999         estimate D2E/DX2                !
 --------------------------------------------------------------------------------
 Trust Radius=3.00D-01 FncErr=1.00D-07 GrdErr=1.00D-07 EigMax=2.50D+02 EigMin=1.00D-04
 Number of steps in this run=    100 maximum allowed number of steps=    100.
 GradGradGradGradGradGradGradGradGradGradGradGradGradGradGradGradGradGrad

                          Input orientation:                          
 ---------------------------------------------------------------------
 Center     Atomic      Atomic             Coordinates (Angstroms)
 Number     Number       Type             X           Y           Z
 ---------------------------------------------------------------------
      1          6           0        1.878900    2.958586    0.000016
      2          1           0        1.620252    4.025962    0.000022
      3          6           0        3.025323    2.335226   -0.000008
      4          6           0        4.146086    1.725824   -0.000031
      5          1           0        5.183927    2.085097    0.000002
      6          1           0        4.041364    0.632565   -0.000099
 ---------------------------------------------------------------------
                    Distance matrix (angstroms):
                    1          2          3          4          5
     1  C    0.000000
     2  H    1.098267   0.000000
     3  C    1.304938   2.198366   0.000000
     4  C    2.580665   3.416207   1.275727   0.000000
     5  H    3.418506   4.057922   2.173047   1.098267   0.000000
     6  H    3.175945   4.168564   1.982774   1.098263   1.848052
                    6
     6  H    0.000000
 Stoichiometry    C3H3(2)
 Framework group  C1[X(C3H3)]
 Deg. of freedom    12
 Full point group                 C1      NOp   1
 Largest Abelian subgroup         C1      NOp   1
 Largest concise Abelian subgroup C1      NOp   1
                         Standard orientation:                         
 ---------------------------------------------------------------------
 Center     Atomic      Atomic             Coordinates (Angstroms)
 Number     Number       Type             X           Y           Z
 ---------------------------------------------------------------------
      1          6           0        1.372097   -0.114837   -0.000026
      2          1           0        2.158406    0.651915   -0.000032
      3          6           0        0.069684   -0.033690   -0.000002
      4          6           0       -1.203574    0.045645    0.000021
      5          1           0       -1.891833    0.901500   -0.000012
      6          1           0       -1.695819   -0.936127    0.000089
 ---------------------------------------------------------------------
 Rotational constants (GHZ):         221.1213281           9.8679019           9.4463433
 Standard basis: CC-pVTZ (5D, 7F)
 There are   150 symmetry adapted cartesian basis functions of A   symmetry.
 There are   132 symmetry adapted basis functions of A   symmetry.
   132 basis functions,   207 primitive gaussians,   150 cartesian basis functions
    11 alpha electrons       10 beta electrons
       nuclear repulsion energy        53.4948789917 Hartrees.
 NAtoms=    6 NActive=    6 NUniq=    6 SFac= 1.00D+00 NAtFMM=   60 NAOKFM=F Big=F
 Integral buffers will be    131072 words long.
 Raffenetti 2 integral format.
 Two-electron integral symmetry is turned on.
 Nuclear repulsion after empirical dispersion term =       53.4926194071 Hartrees.
 One-electron integrals computed using PRISM.
 NBasis=   132 RedAO= T EigKep=  1.54D-04  NBF=   132
 NBsUse=   132 1.00D-06 EigRej= -1.00D+00 NBFU=   132
 ExpMin= 1.03D-01 ExpMax= 8.24D+03 ExpMxC= 2.81D+02 IAcc=3 IRadAn=         5 AccDes= 0.00D+00
 Harris functional with IExCor=  419 and IRadAn=       5 diagonalized for initial guess.
 HarFok:  IExCor=  419 AccDes= 0.00D+00 IRadAn=         5 IDoV= 1 UseB2=F ITyADJ=14
 ICtDFT=  3500011 ScaDFX=  1.000000  1.000000  1.000000  1.000000
 FoFCou: FMM=F IPFlag=           0 FMFlag=      100000 FMFlg1=           0
         NFxFlg=           0 DoJE=T BraDBF=F KetDBF=T FulRan=T
         wScrn=  0.000000 ICntrl=       500 IOpCl=  0 I1Cent=   200000004 NGrid=           0
         NMat0=    1 NMatS0=      1 NMatT0=    0 NMatD0=    1 NMtDS0=    0 NMtDT0=    0
 Petite list used in FoFCou.
 Initial guess <Sx>= 0.0000 <Sy>= 0.0000 <Sz>= 0.5000 <S**2>= 0.7500 S= 0.5000
 Keep R1 and R2 ints in memory in canonical form, NReq=116116784.
 Requested convergence on RMS density matrix=1.00D-08 within 128 cycles.
 Requested convergence on MAX density matrix=1.00D-06.
 Requested convergence on             energy=1.00D-06.
 No special actions if energy rises.
 Integral accuracy reduced to 1.0D-05 until final iterations.
 Initial convergence to 1.0D-05 achieved.  Increase integral accuracy.
 SCF Done:  E(UB2PLYPD3) =  -115.756034278     A.U. after   21 cycles
            NFock= 21  Conv=0.38D-08     -V/T= 2.0048
 <Sx>= 0.0000 <Sy>= 0.0000 <Sz>= 0.5000 <S**2>= 0.8822 S= 0.5640
 <L.S>=  0.00000000000    
 Annihilation of the first spin contaminant:
 S**2 before annihilation     0.8822,   after     0.7608
 DoSCS=T DFT=T ScalE2(SS,OS)=  0.270000  0.270000
 ExpMin= 1.03D-01 ExpMax= 8.24D+03 ExpMxC= 2.81D+02 IAcc=3 IRadAn=         5 AccDes= 0.00D+00
 HarFok:  IExCor=  205 AccDes= 0.00D+00 IRadAn=         5 IDoV=-2 UseB2=F ITyADJ=14
 ICtDFT= 12500011 ScaDFX=  1.000000  1.000000  1.000000  1.000000
 Range of M.O.s used for correlation:     4   132
 NBasis=   132 NAE=    11 NBE=    10 NFC=     3 NFV=     0
 NROrb=    129 NOA=     8 NOB=     7 NVA=   121 NVB=   122

 **** Warning!!: The largest alpha MO coefficient is  0.26273159D+02


 **** Warning!!: The largest beta MO coefficient is  0.27545757D+02

 DoSCS=T DFT=T ScalE2(SS,OS)=  0.270000  0.270000
 Fully direct method using O(ONN) memory.
 JobTyp=2 Pass  1:  I=   4 to  11 NPSUse= 40 ParTrn=T ParDer=T DoDerP=T.
 JobTyp=3 Pass  1:  I=   4 to  10 NPSUse= 40 ParTrn=T ParDer=T DoDerP=T.
 Spin components of T(2) and E(2):
     alpha-alpha T2 =       0.3608732865D-01 E2=     -0.2022426337D-01
     alpha-beta  T2 =       0.1932133927D+00 E2=     -0.1114891811D+00
     beta-beta   T2 =       0.3049286169D-01 E2=     -0.1594890140D-01
 (S**2,0)=  0.88219D+00           (S**2,1)=  0.79870D+00
 Scaling Projection term by:   0.270000
 E(PUHF)=      -0.11576972909D+03        E(PMP2)=      -0.11590628050D+03
 E2(B2PLYPD3) =    -0.1476623458D+00 E(B2PLYPD3) =    -0.11590369662405D+03
          IDoAtm=111111
          Differentiating once with respect to electric field.
                with respect to dipole field.
          Differentiating once with respect to nuclear coordinates.
 Keep R1 and R2 ints in memory in canonical form, NReq=116120956.
          There are     1 degrees of freedom in the 1st order CPHF.  IDoFFX=0 NUNeed=     1.
 LinEq1:  Iter=  0 NonCon=     1 RMS=1.99D-03 Max=5.20D-02 NDo=     1
 AX will form     1 AO Fock derivatives at one time.
 LinEq1:  Iter=  1 NonCon=     1 RMS=8.07D-04 Max=2.51D-02 NDo=     1
 LinEq1:  Iter=  2 NonCon=     1 RMS=5.67D-04 Max=1.32D-02 NDo=     1
 LinEq1:  Iter=  3 NonCon=     1 RMS=3.80D-04 Max=1.07D-02 NDo=     1
 LinEq1:  Iter=  4 NonCon=     1 RMS=1.99D-04 Max=4.34D-03 NDo=     1
 LinEq1:  Iter=  5 NonCon=     1 RMS=7.63D-05 Max=1.32D-03 NDo=     1
 LinEq1:  Iter=  6 NonCon=     1 RMS=2.97D-05 Max=6.25D-04 NDo=     1
 LinEq1:  Iter=  7 NonCon=     1 RMS=8.42D-06 Max=1.53D-04 NDo=     1
 LinEq1:  Iter=  8 NonCon=     1 RMS=1.87D-06 Max=3.04D-05 NDo=     1
 LinEq1:  Iter=  9 NonCon=     1 RMS=5.76D-07 Max=1.12D-05 NDo=     1
 LinEq1:  Iter= 10 NonCon=     1 RMS=1.96D-07 Max=4.23D-06 NDo=     1
 LinEq1:  Iter= 11 NonCon=     1 RMS=4.82D-08 Max=1.30D-06 NDo=     1
 LinEq1:  Iter= 12 NonCon=     1 RMS=9.73D-09 Max=1.56D-07 NDo=     1
 LinEq1:  Iter= 13 NonCon=     1 RMS=2.15D-09 Max=3.31D-08 NDo=     1
 LinEq1:  Iter= 14 NonCon=     1 RMS=3.91D-10 Max=6.89D-09 NDo=     1
 LinEq1:  Iter= 15 NonCon=     1 RMS=8.30D-11 Max=1.43D-09 NDo=     1
 LinEq1:  Iter= 16 NonCon=     0 RMS=1.57D-11 Max=2.56D-10 NDo=     1
 Linear equations converged to 1.000D-10 1.000D-09 after    16 iterations.
 End of Minotr F.D. properties file   721 does not exist.
 End of Minotr F.D. properties file   722 does not exist.
 End of Minotr F.D. properties file   788 does not exist.

 **********************************************************************

            Population analysis using the SCF Density.

 **********************************************************************

 Orbital symmetries:
 Alpha Orbitals:
       Occupied  (A) (A) (A) (A) (A) (A) (A) (A) (A) (A) (A)
       Virtual   (A) (A) (A) (A) (A) (A) (A) (A) (A) (A) (A) (A)
                 (A) (A) (A) (A) (A) (A) (A) (A) (A) (A) (A) (A)
                 (A) (A) (A) (A) (A) (A) (A) (A) (A) (A) (A) (A)
                 (A) (A) (A) (A) (A) (A) (A) (A) (A) (A) (A) (A)
                 (A) (A) (A) (A) (A) (A) (A) (A) (A) (A) (A) (A)
                 (A) (A) (A) (A) (A) (A) (A) (A) (A) (A) (A) (A)
                 (A) (A) (A) (A) (A) (A) (A) (A) (A) (A) (A) (A)
                 (A) (A) (A) (A) (A) (A) (A) (A) (A) (A) (A) (A)
                 (A) (A) (A) (A) (A) (A) (A) (A) (A) (A) (A) (A)
                 (A) (A) (A) (A) (A) (A) (A) (A) (A) (A) (A) (A)
                 (A)
 Beta  Orbitals:
       Occupied  (A) (A) (A) (A) (A) (A) (A) (A) (A) (A)
       Virtual   (A) (A) (A) (A) (A) (A) (A) (A) (A) (A) (A) (A)
                 (A) (A) (A) (A) (A) (A) (A) (A) (A) (A) (A) (A)
                 (A) (A) (A) (A) (A) (A) (A) (A) (A) (A) (A) (A)
                 (A) (A) (A) (A) (A) (A) (A) (A) (A) (A) (A) (A)
                 (A) (A) (A) (A) (A) (A) (A) (A) (A) (A) (A) (A)
                 (A) (A) (A) (A) (A) (A) (A) (A) (A) (A) (A) (A)
                 (A) (A) (A) (A) (A) (A) (A) (A) (A) (A) (A) (A)
                 (A) (A) (A) (A) (A) (A) (A) (A) (A) (A) (A) (A)
                 (A) (A) (A) (A) (A) (A) (A) (A) (A) (A) (A) (A)
                 (A) (A) (A) (A) (A) (A) (A) (A) (A) (A) (A) (A)
                 (A) (A)
 The electronic state is 2-A.
 Alpha  occ. eigenvalues --  -10.64875 -10.64137 -10.64081  -0.92631  -0.82185
 Alpha  occ. eigenvalues --   -0.60859  -0.54613  -0.52102  -0.41699  -0.33412
 Alpha  occ. eigenvalues --   -0.27069
 Alpha virt. eigenvalues --    0.02108   0.09090   0.12375   0.13234   0.15383
 Alpha virt. eigenvalues --    0.23061   0.26592   0.32992   0.33097   0.37402
 Alpha virt. eigenvalues --    0.38074   0.41075   0.42334   0.47450   0.52179
 Alpha virt. eigenvalues --    0.52236   0.52906   0.56478   0.57189   0.61087
 Alpha virt. eigenvalues --    0.66397   0.66873   0.73288   0.75003   0.78509
 Alpha virt. eigenvalues --    0.88079   0.89006   0.92351   0.98163   1.04273
 Alpha virt. eigenvalues --    1.04572   1.08597   1.13896   1.17915   1.21115
 Alpha virt. eigenvalues --    1.26709   1.32715   1.36746   1.38710   1.40456
 Alpha virt. eigenvalues --    1.44415   1.48646   1.54883   1.64010   1.69964
 Alpha virt. eigenvalues --    1.85128   2.08119   2.18529   2.29452   2.31811
 Alpha virt. eigenvalues --    2.36240   2.36601   2.47315   2.51171   2.55282
 Alpha virt. eigenvalues --    2.59637   2.63657   2.67353   2.68697   2.71079
 Alpha virt. eigenvalues --    2.77832   2.80699   2.81995   2.85805   2.86696
 Alpha virt. eigenvalues --    2.90442   2.92729   2.94991   2.95984   2.97422
 Alpha virt. eigenvalues --    3.02471   3.04010   3.09750   3.12007   3.16675
 Alpha virt. eigenvalues --    3.19626   3.30832   3.31923   3.35007   3.36687
 Alpha virt. eigenvalues --    3.38355   3.45513   3.46585   3.56203   3.59813
 Alpha virt. eigenvalues --    3.63822   3.68282   3.69930   3.81449   3.82211
 Alpha virt. eigenvalues --    3.88410   3.90515   3.92498   4.04308   4.05741
 Alpha virt. eigenvalues --    4.09502   4.13350   4.21562   4.22735   4.30872
 Alpha virt. eigenvalues --    4.46720   4.59850   4.78803   4.87254   4.89432
 Alpha virt. eigenvalues --    4.93941   4.98118   5.02084   5.08356   5.21616
 Alpha virt. eigenvalues --    5.23367   5.42372   5.43567   5.57685   5.63865
 Alpha virt. eigenvalues --    6.02104   6.08463   6.31071   8.82450  13.50407
 Alpha virt. eigenvalues --   14.96592
  Beta  occ. eigenvalues --  -10.65857 -10.62970 -10.62346  -0.91908  -0.77964
  Beta  occ. eigenvalues --   -0.60103  -0.53880  -0.52267  -0.37081  -0.30811
  Beta virt. eigenvalues --   -0.02465   0.02054   0.09437   0.12786   0.15479
  Beta virt. eigenvalues --    0.16196   0.23046   0.27480   0.33386   0.36745
  Beta virt. eigenvalues --    0.37560   0.41407   0.42370   0.43566   0.48192
  Beta virt. eigenvalues --    0.52841   0.52885   0.53690   0.57436   0.57555
  Beta virt. eigenvalues --    0.62454   0.66375   0.68852   0.73260   0.75724
  Beta virt. eigenvalues --    0.80770   0.88114   0.89813   0.93534   0.98555
  Beta virt. eigenvalues --    1.05000   1.05766   1.08672   1.15302   1.18747
  Beta virt. eigenvalues --    1.23077   1.28027   1.32628   1.37270   1.38866
  Beta virt. eigenvalues --    1.41759   1.44789   1.50839   1.55389   1.64709
  Beta virt. eigenvalues --    1.70488   1.85399   2.10880   2.18962   2.32063
  Beta virt. eigenvalues --    2.33314   2.35956   2.37106   2.47056   2.52517
  Beta virt. eigenvalues --    2.56423   2.60625   2.65542   2.67783   2.69407
  Beta virt. eigenvalues --    2.72155   2.79492   2.82550   2.84209   2.85984
  Beta virt. eigenvalues --    2.88535   2.91199   2.93529   2.94941   2.97618
  Beta virt. eigenvalues --    2.97871   3.04029   3.06172   3.11156   3.13280
  Beta virt. eigenvalues --    3.19356   3.21208   3.32580   3.33085   3.35312
  Beta virt. eigenvalues --    3.38679   3.39415   3.46163   3.47158   3.56552
  Beta virt. eigenvalues --    3.60165   3.64013   3.68823   3.70681   3.81765
  Beta virt. eigenvalues --    3.82270   3.88827   3.91014   3.92506   4.05016
  Beta virt. eigenvalues --    4.05736   4.09661   4.12858   4.21488   4.23278
  Beta virt. eigenvalues --    4.31323   4.46541   4.61038   4.79073   4.88051
  Beta virt. eigenvalues --    4.89388   4.93930   4.99558   5.02362   5.08495
  Beta virt. eigenvalues --    5.21975   5.24591   5.42633   5.45271   5.57831
  Beta virt. eigenvalues --    5.63998   6.02216   6.08852   6.31046   8.82587
  Beta virt. eigenvalues --   13.51486  14.97265
          Condensed to atoms (all electrons):
               1          2          3          4          5          6
     1  C    5.227851   0.405736   0.754544  -0.116010  -0.007157   0.007783
     2  H    0.405736   0.453450  -0.046355   0.000070  -0.000299   0.000166
     3  C    0.754544  -0.046355   4.716090   0.543730  -0.057296  -0.039393
     4  C   -0.116010   0.000070   0.543730   5.106001   0.430420   0.369300
     5  H   -0.007157  -0.000299  -0.057296   0.430420   0.510002  -0.034232
     6  H    0.007783   0.000166  -0.039393   0.369300  -0.034232   0.564588
          Atomic-Atomic Spin Densities.
               1          2          3          4          5          6
     1  C    1.033972   0.010525  -0.005390  -0.021858   0.001956  -0.003228
     2  H    0.010525  -0.031067  -0.007308  -0.002110  -0.000082   0.000103
     3  C   -0.005390  -0.007308  -0.535425  -0.024622   0.007433   0.000195
     4  C   -0.021858  -0.002110  -0.024622   0.712800  -0.004069   0.014124
     5  H    0.001956  -0.000082   0.007433  -0.004069  -0.062260   0.010377
     6  H   -0.003228   0.000103   0.000195   0.014124   0.010377  -0.070114
 Mulliken charges and spin densities:
               1          2
     1  C   -0.272748   1.015977
     2  H    0.187231  -0.029938
     3  C    0.128679  -0.565117
     4  C   -0.333510   0.674267
     5  H    0.158562  -0.046645
     6  H    0.131787  -0.048543
 Sum of Mulliken charges =  -0.00000   1.00000
 Mulliken charges and spin densities with hydrogens summed into heavy atoms:
               1          2
     1  C   -0.085517   0.986039
     3  C    0.128679  -0.565117
     4  C   -0.043162   0.579078
 Electronic spatial extent (au):  <R**2>=            158.9505
 Charge=             -0.0000 electrons
 Dipole moment (field-independent basis, Debye):
    X=             -1.0540    Y=              0.9205    Z=              0.0000  Tot=              1.3993
 Quadrupole moment (field-independent basis, Debye-Ang):
   XX=            -15.2515   YY=            -18.0068   ZZ=            -20.3843
   XY=              1.8480   XZ=             -0.0001   YZ=             -0.0001
 Traceless Quadrupole moment (field-independent basis, Debye-Ang):
   XX=              2.6294   YY=             -0.1259   ZZ=             -2.5035
   XY=              1.8480   XZ=             -0.0001   YZ=             -0.0001
 Octapole moment (field-independent basis, Debye-Ang**2):
  XXX=             -2.7486  YYY=              1.7725  ZZZ=              0.0000  XYY=             -3.0427
  XXY=              6.0427  XXZ=              0.0000  XZZ=             -0.5831  YZZ=              0.4353
  YYZ=              0.0001  XYZ=              0.0001
 Hexadecapole moment (field-independent basis, Debye-Ang**3):
 XXXX=           -160.0150 YYYY=            -30.0397 ZZZZ=            -23.9216 XXXY=              9.4527
 XXXZ=              0.0010 YYYX=              3.4786 YYYZ=             -0.0000 ZZZX=              0.0016
 ZZZY=              0.0001 XXYY=            -29.8034 XXZZ=            -36.8109 YYZZ=             -9.4631
 XXYZ=             -0.0004 YYXZ=              0.0004 ZZXY=              0.7702
 N-N= 5.349261940714D+01 E-N=-3.754097284617D+02  KE= 1.151973933244D+02
                          Isotropic Fermi Contact Couplings
        Atom                 a.u.       MegaHertz       Gauss      10(-4) cm-1
     1  C(13)              0.00738       8.29103       2.95845       2.76559
     2  H(1)              -0.01167     -52.14308     -18.60595     -17.39306
     3  C(13)             -0.03834     -43.10434     -15.38070     -14.37806
     4  C(13)              0.01417      15.93107       5.68460       5.31403
     5  H(1)              -0.00750     -33.51125     -11.95765     -11.17815
     6  H(1)              -0.00588     -26.27739      -9.37643      -8.76519
 --------------------------------------------------------
       Center         ----  Spin Dipole Couplings  ----
                      3XX-RR        3YY-RR        3ZZ-RR
 --------------------------------------------------------
     1   Atom       -0.356429     -0.421847      0.778276
     2   Atom        0.000751     -0.004552      0.003801
     3   Atom        0.103771      0.075051     -0.178822
     4   Atom       -0.327856     -0.325352      0.653208
     5   Atom       -0.008227      0.007251      0.000976
     6   Atom       -0.023378      0.022935      0.000442
 --------------------------------------------------------
                        XY            XZ            YZ
 --------------------------------------------------------
     1   Atom        0.025358     -0.000011      0.000073
     2   Atom        0.044287     -0.000002      0.000001
     3   Atom        0.009574     -0.000005     -0.000024
     4   Atom        0.001110      0.000026      0.000053
     5   Atom       -0.039254      0.000002      0.000001
     6   Atom        0.031449     -0.000001     -0.000001
 --------------------------------------------------------


 ---------------------------------------------------------------------------------
              Anisotropic Spin Dipole Couplings in Principal Axis System
 ---------------------------------------------------------------------------------

       Atom             a.u.   MegaHertz   Gauss  10(-4) cm-1        Axes

              Baa    -0.4305   -57.772   -20.615   -19.271 -0.3238  0.9461 -0.0001
     1 C(13)  Bbb    -0.3478   -46.665   -16.651   -15.566  0.9461  0.3238 -0.0000
              Bcc     0.7783   104.437    37.266    34.836 -0.0000  0.0001  1.0000
 
              Baa    -0.0463   -24.686    -8.808    -8.234 -0.6857  0.7279 -0.0000
     2 H(1)   Bbb     0.0038     2.028     0.724     0.677 -0.0000  0.0001  1.0000
              Bcc     0.0425    22.657     8.085     7.558  0.7279  0.6857 -0.0000
 
              Baa    -0.1788   -23.996    -8.562    -8.004  0.0000  0.0001  1.0000
     3 C(13)  Bbb     0.0722     9.682     3.455     3.230 -0.2898  0.9571 -0.0001
              Bcc     0.1067    14.314     5.108     4.775  0.9571  0.2898 -0.0000
 
              Baa    -0.3283   -44.052   -15.719   -14.694  0.9349 -0.3548 -0.0000
     4 C(13)  Bbb    -0.3249   -43.603   -15.558   -14.544  0.3548  0.9349 -0.0001
              Bcc     0.6532    87.654    31.277    29.238  0.0000  0.0001  1.0000
 
              Baa    -0.0405   -21.608    -7.710    -7.208  0.7725  0.6350 -0.0001
     5 H(1)   Bbb     0.0010     0.521     0.186     0.174  0.0000  0.0000  1.0000
              Bcc     0.0395    21.087     7.524     7.034 -0.6350  0.7725 -0.0000
 
              Baa    -0.0393   -20.956    -7.478    -6.990  0.8924 -0.4511  0.0000
     6 H(1)   Bbb     0.0004     0.236     0.084     0.079  0.0000  0.0000  1.0000
              Bcc     0.0388    20.720     7.393     6.911  0.4511  0.8924 -0.0000
 

 ---------------------------------------------------------------------------------

 Calling FoFJK, ICntrl=  10002127 FMM=F ISym2X=0 I1Cent= 0 IOpClX= 1 NMat=1 NMatS=1 NMatT=0.
 ***** Axes restored to original set *****
 -------------------------------------------------------------------
 Center     Atomic                   Forces (Hartrees/Bohr)
 Number     Number              X              Y              Z
 -------------------------------------------------------------------
      1        6           0.079579230   -0.012293929    0.000000053
      2        1          -0.010836941   -0.022577755   -0.000001112
      3        6          -0.122700154    0.095497055    0.000003870
      4        6           0.063733446   -0.071424247   -0.000003473
      5        1          -0.017682914    0.005832723    0.000000807
      6        1           0.007907333    0.004966153   -0.000000145
 -------------------------------------------------------------------
 Cartesian Forces:  Max     0.122700154 RMS     0.047658201

 GradGradGradGradGradGradGradGradGradGradGradGradGradGradGradGradGradGrad
 Berny optimization.
 FormGI is forming the generalized inverse of G from B-inverse, IUseBI=4.
 Internal  Forces:  Max     0.077049897 RMS     0.032727789
 Search for a local minimum.
 Step number   1 out of a maximum of  100
 All quantities printed in internal units (Hartrees-Bohrs-Radians)
 Mixed Optimization -- RFO/linear search
 Second derivative matrix not updated -- first step.
 The second derivative matrix:
                          R1        R2        R3        R4        R5
           R1           0.33875
           R2           0.00000   0.65840
           R3           0.00000   0.00000   0.74411
           R4           0.00000   0.00000   0.00000   0.33875
           R5           0.00000   0.00000   0.00000   0.00000   0.33875
           A1           0.00000   0.00000   0.00000   0.00000   0.00000
           A2           0.00000   0.00000   0.00000   0.00000   0.00000
           A3           0.00000   0.00000   0.00000   0.00000   0.00000
           A4           0.00000   0.00000   0.00000   0.00000   0.00000
           A5           0.00000   0.00000   0.00000   0.00000   0.00000
           A6           0.00000   0.00000   0.00000   0.00000   0.00000
           D1           0.00000   0.00000   0.00000   0.00000   0.00000
           D2           0.00000   0.00000   0.00000   0.00000   0.00000
           D3           0.00000   0.00000   0.00000   0.00000   0.00000
                          A1        A2        A3        A4        A5
           A1           0.16000
           A2           0.00000   0.16000
           A3           0.00000   0.00000   0.16000
           A4           0.00000   0.00000   0.00000   0.16000
           A5           0.00000   0.00000   0.00000   0.00000   0.03733
           A6           0.00000   0.00000   0.00000   0.00000   0.00000
           D1           0.00000   0.00000   0.00000   0.00000   0.00000
           D2           0.00000   0.00000   0.00000   0.00000   0.00000
           D3           0.00000   0.00000   0.00000   0.00000   0.00000
                          A6        D1        D2        D3
           A6           0.03733
           D1           0.00000   0.00230
           D2           0.00000   0.00000   0.00230
           D3           0.00000   0.00000   0.00000   0.00230
 ITU=  0
     Eigenvalues ---    0.00230   0.00230   0.03598   0.03733   0.16000
     Eigenvalues ---    0.16000   0.16000   0.33875   0.33875   0.33875
     Eigenvalues ---    0.65840   0.74411
 RFO step:  Lambda=-3.71564959D-02 EMin= 2.30000000D-03
 Linear search not attempted -- first point.
 Maximum step size (   0.300) exceeded in Quadratic search.
    -- Step size scaled by   0.655
 Iteration  1 RMS(Cart)=  0.12142936 RMS(Int)=  0.01613293
 Iteration  2 RMS(Cart)=  0.02736600 RMS(Int)=  0.00031005
 Iteration  3 RMS(Cart)=  0.00053586 RMS(Int)=  0.00000011
 Iteration  4 RMS(Cart)=  0.00000006 RMS(Int)=  0.00000009
 Variable       Old X    -DE/DX   Delta X   Delta X   Delta X     New X
                                 (Linear)    (Quad)   (Total)
    R1        2.07542  -0.01939   0.00000  -0.03379  -0.03379   2.04163
    R2        2.46598  -0.07705   0.00000  -0.07257  -0.07257   2.39341
    R3        2.41078   0.07636   0.00000   0.06403   0.06403   2.47481
    R4        2.07542  -0.01480   0.00000  -0.02580  -0.02580   2.04963
    R5        2.07542  -0.00570   0.00000  -0.00993  -0.00993   2.06549
    A1        2.30656   0.03289   0.00000   0.10930   0.10930   2.41586
    A2        2.31031  -0.02075   0.00000  -0.06894  -0.06894   2.24137
    A3        1.97332   0.01805   0.00000   0.05998   0.05998   2.03330
    A4        1.99956   0.00270   0.00000   0.00896   0.00896   2.00852
    A5        3.14160  -0.02746   0.00000  -0.24156  -0.24156   2.90004
    A6        3.14159   0.00000   0.00000   0.00001   0.00001   3.14160
    D1        0.00007   0.00000   0.00000   0.00002   0.00002   0.00009
    D2       -3.14152   0.00000   0.00000   0.00002   0.00002  -3.14151
    D3       -3.14159   0.00000   0.00000   0.00000   0.00000  -3.14159
         Item               Value     Threshold  Converged?
 Maximum Force            0.077050     0.000450     NO 
 RMS     Force            0.032728     0.000300     NO 
 Maximum Displacement     0.293934     0.001800     NO 
 RMS     Displacement     0.140367     0.001200     NO 
 Predicted change in Energy=-1.804041D-02
 GradGradGradGradGradGradGradGradGradGradGradGradGradGradGradGradGradGrad

                          Input orientation:                          
 ---------------------------------------------------------------------
 Center     Atomic      Atomic             Coordinates (Angstroms)
 Number     Number       Type             X           Y           Z
 ---------------------------------------------------------------------
      1          6           0        1.945247    2.977825    0.000016
      2          1           0        1.474988    3.950495    0.000018
      3          6           0        3.114388    2.490769   -0.000001
      4          6           0        4.167721    1.712585   -0.000031
      5          1           0        5.214776    1.995547    0.000002
      6          1           0        3.978733    0.636038   -0.000102
 ---------------------------------------------------------------------
                    Distance matrix (angstroms):
                    1          2          3          4          5
     1  C    0.000000
     2  H    1.080384   0.000000
     3  C    1.266536   2.195092   0.000000
     4  C    2.557387   3.501293   1.309612   0.000000
     5  H    3.413896   4.219932   2.157979   1.084616   0.000000
     6  H    3.101457   4.153837   2.046246   1.093009   1.837407
                    6
     6  H    0.000000
 Stoichiometry    C3H3(2)
 Framework group  C1[X(C3H3)]
 Deg. of freedom    12
 Full point group                 C1      NOp   1
 Largest Abelian subgroup         C1      NOp   1
 Largest concise Abelian subgroup C1      NOp   1
                         Standard orientation:                         
 ---------------------------------------------------------------------
 Center     Atomic      Atomic             Coordinates (Angstroms)
 Number     Number       Type             X           Y           Z
 ---------------------------------------------------------------------
      1          6           0        1.340020   -0.132866   -0.000024
      2          1           0        2.261459    0.431208   -0.000026
      3          6           0        0.093141    0.089411   -0.000008
      4          6           0       -1.213693    0.004161    0.000023
      5          1           0       -1.941596    0.808243   -0.000010
      6          1           0       -1.636674   -1.003686    0.000094
 ---------------------------------------------------------------------
 Rotational constants (GHZ):         235.5246795           9.9172029           9.5164933
 Standard basis: CC-pVTZ (5D, 7F)
 There are   150 symmetry adapted cartesian basis functions of A   symmetry.
 There are   132 symmetry adapted basis functions of A   symmetry.
   132 basis functions,   207 primitive gaussians,   150 cartesian basis functions
    11 alpha electrons       10 beta electrons
       nuclear repulsion energy        53.6789437821 Hartrees.
 NAtoms=    6 NActive=    6 NUniq=    6 SFac= 1.00D+00 NAtFMM=   60 NAOKFM=F Big=F
 Integral buffers will be    131072 words long.
 Raffenetti 2 integral format.
 Two-electron integral symmetry is turned on.
 Nuclear repulsion after empirical dispersion term =       53.6766845719 Hartrees.
 One-electron integrals computed using PRISM.
 NBasis=   132 RedAO= T EigKep=  1.98D-04  NBF=   132
 NBsUse=   132 1.00D-06 EigRej= -1.00D+00 NBFU=   132
 Initial guess from the checkpoint file:  "/localscratch/339542/Gau-32509.chk"
 B after Tr=    -0.000000    0.000000    0.000000
         Rot=    1.000000   -0.000001   -0.000000   -0.000538 Ang=  -0.06 deg.
 Initial guess <Sx>= 0.0000 <Sy>= 0.0000 <Sz>= 0.5000 <S**2>= 0.8795 S= 0.5628
 ExpMin= 1.03D-01 ExpMax= 8.24D+03 ExpMxC= 2.81D+02 IAcc=3 IRadAn=         5 AccDes= 0.00D+00
 Harris functional with IExCor=  419 and IRadAn=       5 diagonalized for initial guess.
 HarFok:  IExCor=  419 AccDes= 0.00D+00 IRadAn=         5 IDoV= 1 UseB2=F ITyADJ=14
 ICtDFT=  3500011 ScaDFX=  1.000000  1.000000  1.000000  1.000000
 FoFCou: FMM=F IPFlag=           0 FMFlag=      100000 FMFlg1=           0
         NFxFlg=           0 DoJE=T BraDBF=F KetDBF=T FulRan=T
         wScrn=  0.000000 ICntrl=       500 IOpCl=  0 I1Cent=   200000004 NGrid=           0
         NMat0=    1 NMatS0=      1 NMatT0=    0 NMatD0=    1 NMtDS0=    0 NMtDT0=    0
 Petite list used in FoFCou.
 Keep R1 and R2 ints in memory in canonical form, NReq=116116784.
 Requested convergence on RMS density matrix=1.00D-08 within 128 cycles.
 Requested convergence on MAX density matrix=1.00D-06.
 Requested convergence on             energy=1.00D-06.
 No special actions if energy rises.
 Integral accuracy reduced to 1.0D-05 until final iterations.
 Initial convergence to 1.0D-05 achieved.  Increase integral accuracy.
 SCF Done:  E(UB2PLYPD3) =  -115.772552238     A.U. after   18 cycles
            NFock= 18  Conv=0.58D-08     -V/T= 2.0044
 <Sx>= 0.0000 <Sy>= 0.0000 <Sz>= 0.5000 <S**2>= 0.8432 S= 0.5456
 <L.S>=  0.00000000000    
 Annihilation of the first spin contaminant:
 S**2 before annihilation     0.8432,   after     0.7555
 DoSCS=T DFT=T ScalE2(SS,OS)=  0.270000  0.270000
 ExpMin= 1.03D-01 ExpMax= 8.24D+03 ExpMxC= 2.81D+02 IAcc=3 IRadAn=         5 AccDes= 0.00D+00
 HarFok:  IExCor=  205 AccDes= 0.00D+00 IRadAn=         5 IDoV=-2 UseB2=F ITyADJ=14
 ICtDFT= 12500011 ScaDFX=  1.000000  1.000000  1.000000  1.000000
 Range of M.O.s used for correlation:     4   132
 NBasis=   132 NAE=    11 NBE=    10 NFC=     3 NFV=     0
 NROrb=    129 NOA=     8 NOB=     7 NVA=   121 NVB=   122

 **** Warning!!: The largest alpha MO coefficient is  0.23057055D+02


 **** Warning!!: The largest beta MO coefficient is  0.22347607D+02

 DoSCS=T DFT=T ScalE2(SS,OS)=  0.270000  0.270000
 Fully direct method using O(ONN) memory.
 JobTyp=2 Pass  1:  I=   4 to  11 NPSUse= 40 ParTrn=T ParDer=T DoDerP=T.
 JobTyp=3 Pass  1:  I=   4 to  10 NPSUse= 40 ParTrn=T ParDer=T DoDerP=T.
 Spin components of T(2) and E(2):
     alpha-alpha T2 =       0.3598504587D-01 E2=     -0.2023134384D-01
     alpha-beta  T2 =       0.1926492876D+00 E2=     -0.1119085894D+00
     beta-beta   T2 =       0.3035743242D-01 E2=     -0.1586275530D-01
 (S**2,0)=  0.84320D+00           (S**2,1)=  0.77268D+00
 Scaling Projection term by:   0.270000
 E(PUHF)=      -0.11578431673D+03        E(PMP2)=      -0.11592257008D+03
 E2(B2PLYPD3) =    -0.1480026886D+00 E(B2PLYPD3) =    -0.11592055492666D+03
          IDoAtm=111111
          Differentiating once with respect to electric field.
                with respect to dipole field.
          Differentiating once with respect to nuclear coordinates.
 Keep R1 and R2 ints in memory in canonical form, NReq=116120956.
          There are     1 degrees of freedom in the 1st order CPHF.  IDoFFX=0 NUNeed=     1.
 LinEq1:  Iter=  0 NonCon=     1 RMS=1.79D-03 Max=4.08D-02 NDo=     1
 AX will form     1 AO Fock derivatives at one time.
 LinEq1:  Iter=  1 NonCon=     1 RMS=6.96D-04 Max=1.86D-02 NDo=     1
 LinEq1:  Iter=  2 NonCon=     1 RMS=4.82D-04 Max=1.26D-02 NDo=     1
 LinEq1:  Iter=  3 NonCon=     1 RMS=3.43D-04 Max=1.05D-02 NDo=     1
 LinEq1:  Iter=  4 NonCon=     1 RMS=1.94D-04 Max=3.94D-03 NDo=     1
 LinEq1:  Iter=  5 NonCon=     1 RMS=7.07D-05 Max=1.06D-03 NDo=     1
 LinEq1:  Iter=  6 NonCon=     1 RMS=2.93D-05 Max=4.31D-04 NDo=     1
 LinEq1:  Iter=  7 NonCon=     1 RMS=9.07D-06 Max=2.36D-04 NDo=     1
 LinEq1:  Iter=  8 NonCon=     1 RMS=2.72D-06 Max=4.55D-05 NDo=     1
 LinEq1:  Iter=  9 NonCon=     1 RMS=8.65D-07 Max=1.26D-05 NDo=     1
 LinEq1:  Iter= 10 NonCon=     1 RMS=2.33D-07 Max=5.07D-06 NDo=     1
 LinEq1:  Iter= 11 NonCon=     1 RMS=4.38D-08 Max=7.97D-07 NDo=     1
 LinEq1:  Iter= 12 NonCon=     1 RMS=7.91D-09 Max=8.30D-08 NDo=     1
 LinEq1:  Iter= 13 NonCon=     1 RMS=1.86D-09 Max=2.34D-08 NDo=     1
 LinEq1:  Iter= 14 NonCon=     1 RMS=2.76D-10 Max=4.39D-09 NDo=     1
 LinEq1:  Iter= 15 NonCon=     1 RMS=6.01D-11 Max=1.10D-09 NDo=     1
 LinEq1:  Iter= 16 NonCon=     0 RMS=1.30D-11 Max=1.98D-10 NDo=     1
 Linear equations converged to 1.000D-10 1.000D-09 after    16 iterations.
 End of Minotr F.D. properties file   721 does not exist.
 End of Minotr F.D. properties file   722 does not exist.
 End of Minotr F.D. properties file   788 does not exist.
 Calling FoFJK, ICntrl=  10002127 FMM=F ISym2X=0 I1Cent= 0 IOpClX= 1 NMat=1 NMatS=1 NMatT=0.
 ***** Axes restored to original set *****
 -------------------------------------------------------------------
 Center     Atomic                   Forces (Hartrees/Bohr)
 Number     Number              X              Y              Z
 -------------------------------------------------------------------
      1        6           0.047610869    0.015137291    0.000000641
      2        1          -0.009632105   -0.014570151   -0.000000468
      3        6          -0.072374877    0.032383200    0.000001291
      4        6           0.038365119   -0.044977067   -0.000002228
      5        1          -0.006973313    0.006428972    0.000000632
      6        1           0.003004307    0.005597755    0.000000132
 -------------------------------------------------------------------
 Cartesian Forces:  Max     0.072374877 RMS     0.026575816

 GradGradGradGradGradGradGradGradGradGradGradGradGradGradGradGradGradGrad
 Berny optimization.
 Using GEDIIS/GDIIS optimizer.
 FormGI is forming the generalized inverse of G from B-inverse, IUseBI=4.
 Internal  Forces:  Max     0.047244560 RMS     0.018506181
 Search for a local minimum.
 Step number   2 out of a maximum of  100
 All quantities printed in internal units (Hartrees-Bohrs-Radians)
 Mixed Optimization -- RFO/linear search
 Update second derivatives using D2CorX and points    1    2
 DE= -1.69D-02 DEPred=-1.80D-02 R= 9.34D-01
 TightC=F SS=  1.41D+00  RLast= 3.00D-01 DXNew= 5.0454D-01 9.0000D-01
 Trust test= 9.34D-01 RLast= 3.00D-01 DXMaxT set to 5.05D-01
 The second derivative matrix:
                          R1        R2        R3        R4        R5
           R1           0.33569
           R2          -0.01377   0.59677
           R3           0.02284   0.09820   0.62085
           R4          -0.00109  -0.00553   0.01400   0.33906
           R5          -0.00329  -0.01370   0.01337  -0.00255   0.33786
           A1           0.01431   0.05996  -0.06174   0.01066   0.00472
           A2          -0.00411  -0.01801   0.02528  -0.00215  -0.00313
           A3           0.00182   0.00856  -0.01709   0.00023   0.00278
           A4           0.00230   0.00944  -0.00819   0.00192   0.00035
           A5           0.01499   0.05931  -0.03041   0.01534  -0.00315
           A6           0.00000   0.00000  -0.00000  -0.00000   0.00000
           D1          -0.00000  -0.00000   0.00000  -0.00000   0.00000
           D2          -0.00000  -0.00000   0.00000  -0.00000   0.00000
           D3          -0.00000  -0.00000   0.00000  -0.00000   0.00000
                          A1        A2        A3        A4        A5
           A1           0.13607
           A2           0.01404   0.15509
           A3          -0.01184   0.00286   0.15917
           A4          -0.00220   0.00205  -0.00202   0.15997
           A5           0.00755   0.01074  -0.01490   0.00416   0.10402
           A6          -0.00000   0.00000  -0.00000  -0.00000  -0.00000
           D1           0.00000  -0.00000   0.00000  -0.00000  -0.00000
           D2           0.00000  -0.00000   0.00000  -0.00000  -0.00000
           D3           0.00000  -0.00000   0.00000  -0.00000  -0.00000
                          A6        D1        D2        D3
           A6           0.03733
           D1           0.00000   0.00230
           D2           0.00000   0.00000   0.00230
           D3           0.00000   0.00000   0.00000   0.00230
 ITU=  1  0
 Use linear search instead of GDIIS.
     Eigenvalues ---    0.00230   0.00230   0.03523   0.07626   0.11199
     Eigenvalues ---    0.16000   0.16923   0.33230   0.33875   0.34305
     Eigenvalues ---    0.54420   0.70877
 RFO step:  Lambda=-2.06985200D-02 EMin= 2.30000000D-03
 Quartic linear search produced a step of  0.64549.
 Iteration  1 RMS(Cart)=  0.11917486 RMS(Int)=  0.03705481
 Iteration  2 RMS(Cart)=  0.05147761 RMS(Int)=  0.00373058
 Iteration  3 RMS(Cart)=  0.00354775 RMS(Int)=  0.00000082
 Iteration  4 RMS(Cart)=  0.00000108 RMS(Int)=  0.00000031
 Iteration  5 RMS(Cart)=  0.00000000 RMS(Int)=  0.00000031
 Variable       Old X    -DE/DX   Delta X   Delta X   Delta X     New X
                                 (Linear)    (Quad)   (Total)
    R1        2.04163  -0.00892  -0.02181  -0.04186  -0.06367   1.97796
    R2        2.39341  -0.03484  -0.04684  -0.09015  -0.13700   2.25641
    R3        2.47481   0.04724   0.04133   0.10738   0.14872   2.62352
    R4        2.04963  -0.00505  -0.01665  -0.02382  -0.04047   2.00915
    R5        2.06549  -0.00603  -0.00641  -0.02807  -0.03448   2.03101
    A1        2.41586   0.03065   0.07055   0.27243   0.34298   2.75885
    A2        2.24137  -0.01234  -0.04450  -0.10748  -0.15198   2.08939
    A3        2.03330   0.00823   0.03872   0.07043   0.10915   2.14245
    A4        2.00852   0.00411   0.00578   0.03705   0.04283   2.05135
    A5        2.90004   0.00556  -0.15592   0.28766   0.13174   3.03178
    A6        3.14160   0.00000   0.00000   0.00001   0.00002   3.14162
    D1        0.00009   0.00000   0.00001   0.00001   0.00002   0.00010
    D2       -3.14151   0.00000   0.00001   0.00000   0.00001  -3.14150
    D3       -3.14159  -0.00000   0.00000  -0.00000  -0.00000  -3.14159
         Item               Value     Threshold  Converged?
 Maximum Force            0.047245     0.000450     NO 
 RMS     Force            0.018506     0.000300     NO 
 Maximum Displacement     0.233673     0.001800     NO 
 RMS     Displacement     0.122390     0.001200     NO 
 Predicted change in Energy=-1.540376D-02
 GradGradGradGradGradGradGradGradGradGradGradGradGradGradGradGradGradGrad

                          Input orientation:                          
 ---------------------------------------------------------------------
 Center     Atomic      Atomic             Coordinates (Angstroms)
 Number     Number       Type             X           Y           Z
 ---------------------------------------------------------------------
      1          6           0        2.041964    3.101480    0.000018
      2          1           0        1.415547    3.940026    0.000026
      3          6           0        3.062119    2.480983   -0.000011
      4          6           0        4.162039    1.633883   -0.000037
      5          1           0        5.142985    2.043922    0.000007
      6          1           0        4.071199    0.562966   -0.000101
 ---------------------------------------------------------------------
                    Distance matrix (angstroms):
                    1          2          3          4          5
     1  C    0.000000
     2  H    1.046689   0.000000
     3  C    1.194041   2.200002   0.000000
     4  C    2.578480   3.586295   1.388309   0.000000
     5  H    3.276395   4.181986   2.126270   1.063197   0.000000
     6  H    3.249899   4.296163   2.167263   1.074763   1.828102
                    6
     6  H    0.000000
 Stoichiometry    C3H3(2)
 Framework group  C1[X(C3H3)]
 Deg. of freedom    12
 Full point group                 C1      NOp   1
 Largest Abelian subgroup         C1      NOp   1
 Largest concise Abelian subgroup C1      NOp   1
                         Standard orientation:                         
 ---------------------------------------------------------------------
 Center     Atomic      Atomic             Coordinates (Angstroms)
 Number     Number       Type             X           Y           Z
 ---------------------------------------------------------------------
      1          6           0        1.326831   -0.072090   -0.000030
      2          1           0        2.328247    0.232415   -0.000037
      3          6           0        0.137364    0.032322   -0.000001
      4          6           0       -1.250601    0.001419    0.000025
      5          1           0       -1.798010    0.912864   -0.000019
      6          1           0       -1.811805   -0.915186    0.000089
 ---------------------------------------------------------------------
 Rotational constants (GHZ):         279.8241446           9.6975065           9.3726893
 Standard basis: CC-pVTZ (5D, 7F)
 There are   150 symmetry adapted cartesian basis functions of A   symmetry.
 There are   132 symmetry adapted basis functions of A   symmetry.
   132 basis functions,   207 primitive gaussians,   150 cartesian basis functions
    11 alpha electrons       10 beta electrons
       nuclear repulsion energy        53.8107761988 Hartrees.
 NAtoms=    6 NActive=    6 NUniq=    6 SFac= 1.00D+00 NAtFMM=   60 NAOKFM=F Big=F
 Integral buffers will be    131072 words long.
 Raffenetti 2 integral format.
 Two-electron integral symmetry is turned on.
 Nuclear repulsion after empirical dispersion term =       53.8085280611 Hartrees.
 One-electron integrals computed using PRISM.
 NBasis=   132 RedAO= T EigKep=  1.00D-04  NBF=   132
 NBsUse=   132 1.00D-06 EigRej= -1.00D+00 NBFU=   132
 Initial guess from the checkpoint file:  "/localscratch/339542/Gau-32509.chk"
 B after Tr=    -0.000000   -0.000000   -0.000000
         Rot=    0.999949   -0.000002   -0.000001    0.010099 Ang=  -1.16 deg.
 Initial guess <Sx>= 0.0000 <Sy>= 0.0000 <Sz>= 0.5000 <S**2>= 0.8395 S= 0.5438
 ExpMin= 1.03D-01 ExpMax= 8.24D+03 ExpMxC= 2.81D+02 IAcc=3 IRadAn=         5 AccDes= 0.00D+00
 Harris functional with IExCor=  419 and IRadAn=       5 diagonalized for initial guess.
 HarFok:  IExCor=  419 AccDes= 0.00D+00 IRadAn=         5 IDoV= 1 UseB2=F ITyADJ=14
 ICtDFT=  3500011 ScaDFX=  1.000000  1.000000  1.000000  1.000000
 FoFCou: FMM=F IPFlag=           0 FMFlag=      100000 FMFlg1=           0
         NFxFlg=           0 DoJE=T BraDBF=F KetDBF=T FulRan=T
         wScrn=  0.000000 ICntrl=       500 IOpCl=  0 I1Cent=   200000004 NGrid=           0
         NMat0=    1 NMatS0=      1 NMatT0=    0 NMatD0=    1 NMtDS0=    0 NMtDT0=    0
 Petite list used in FoFCou.
 Keep R1 and R2 ints in memory in canonical form, NReq=116116784.
 Requested convergence on RMS density matrix=1.00D-08 within 128 cycles.
 Requested convergence on MAX density matrix=1.00D-06.
 Requested convergence on             energy=1.00D-06.
 No special actions if energy rises.
 Integral accuracy reduced to 1.0D-05 until final iterations.
 Initial convergence to 1.0D-05 achieved.  Increase integral accuracy.
 SCF Done:  E(UB2PLYPD3) =  -115.786654352     A.U. after   19 cycles
            NFock= 19  Conv=0.78D-08     -V/T= 2.0032
 <Sx>= 0.0000 <Sy>= 0.0000 <Sz>= 0.5000 <S**2>= 0.7975 S= 0.5235
 <L.S>=  0.00000000000    
 Annihilation of the first spin contaminant:
 S**2 before annihilation     0.7975,   after     0.7510
 DoSCS=T DFT=T ScalE2(SS,OS)=  0.270000  0.270000
 ExpMin= 1.03D-01 ExpMax= 8.24D+03 ExpMxC= 2.81D+02 IAcc=3 IRadAn=         5 AccDes= 0.00D+00
 HarFok:  IExCor=  205 AccDes= 0.00D+00 IRadAn=         5 IDoV=-2 UseB2=F ITyADJ=14
 ICtDFT= 12500011 ScaDFX=  1.000000  1.000000  1.000000  1.000000
 Range of M.O.s used for correlation:     4   132
 NBasis=   132 NAE=    11 NBE=    10 NFC=     3 NFV=     0
 NROrb=    129 NOA=     8 NOB=     7 NVA=   121 NVB=   122

 **** Warning!!: The largest alpha MO coefficient is  0.38890759D+02


 **** Warning!!: The largest beta MO coefficient is  0.39303428D+02

 DoSCS=T DFT=T ScalE2(SS,OS)=  0.270000  0.270000
 Fully direct method using O(ONN) memory.
 JobTyp=2 Pass  1:  I=   4 to  11 NPSUse= 40 ParTrn=T ParDer=T DoDerP=T.
 JobTyp=3 Pass  1:  I=   4 to  10 NPSUse= 40 ParTrn=T ParDer=T DoDerP=T.
 Spin components of T(2) and E(2):
     alpha-alpha T2 =       0.3436235542D-01 E2=     -0.1986155110D-01
     alpha-beta  T2 =       0.1825117394D+00 E2=     -0.1107574498D+00
     beta-beta   T2 =       0.2903384041D-01 E2=     -0.1550134677D-01
 (S**2,0)=  0.79751D+00           (S**2,1)=  0.75232D+00
 Scaling Projection term by:   0.270000
 E(PUHF)=      -0.11579453632D+03        E(PMP2)=      -0.11593390308D+03
 E2(B2PLYPD3) =    -0.1461203476D+00 E(B2PLYPD3) =    -0.11593277469941D+03
          IDoAtm=111111
          Differentiating once with respect to electric field.
                with respect to dipole field.
          Differentiating once with respect to nuclear coordinates.
 Keep R1 and R2 ints in memory in canonical form, NReq=116120956.
          There are     1 degrees of freedom in the 1st order CPHF.  IDoFFX=0 NUNeed=     1.
 LinEq1:  Iter=  0 NonCon=     1 RMS=1.37D-03 Max=3.35D-02 NDo=     1
 AX will form     1 AO Fock derivatives at one time.
 LinEq1:  Iter=  1 NonCon=     1 RMS=5.02D-04 Max=1.03D-02 NDo=     1
 LinEq1:  Iter=  2 NonCon=     1 RMS=3.03D-04 Max=6.77D-03 NDo=     1
 LinEq1:  Iter=  3 NonCon=     1 RMS=2.07D-04 Max=5.82D-03 NDo=     1
 LinEq1:  Iter=  4 NonCon=     1 RMS=1.18D-04 Max=2.48D-03 NDo=     1
 LinEq1:  Iter=  5 NonCon=     1 RMS=4.37D-05 Max=6.21D-04 NDo=     1
 LinEq1:  Iter=  6 NonCon=     1 RMS=2.12D-05 Max=5.04D-04 NDo=     1
 LinEq1:  Iter=  7 NonCon=     1 RMS=8.07D-06 Max=2.07D-04 NDo=     1
 LinEq1:  Iter=  8 NonCon=     1 RMS=1.89D-06 Max=3.20D-05 NDo=     1
 LinEq1:  Iter=  9 NonCon=     1 RMS=4.94D-07 Max=6.02D-06 NDo=     1
 LinEq1:  Iter= 10 NonCon=     1 RMS=1.54D-07 Max=2.06D-06 NDo=     1
 LinEq1:  Iter= 11 NonCon=     1 RMS=3.36D-08 Max=5.36D-07 NDo=     1
 LinEq1:  Iter= 12 NonCon=     1 RMS=7.62D-09 Max=9.90D-08 NDo=     1
 LinEq1:  Iter= 13 NonCon=     1 RMS=1.34D-09 Max=1.60D-08 NDo=     1
 LinEq1:  Iter= 14 NonCon=     1 RMS=1.94D-10 Max=1.85D-09 NDo=     1
 LinEq1:  Iter= 15 NonCon=     0 RMS=3.77D-11 Max=5.03D-10 NDo=     1
 Linear equations converged to 1.000D-10 1.000D-09 after    15 iterations.
 End of Minotr F.D. properties file   721 does not exist.
 End of Minotr F.D. properties file   722 does not exist.
 End of Minotr F.D. properties file   788 does not exist.
 Calling FoFJK, ICntrl=  10002127 FMM=F ISym2X=0 I1Cent= 0 IOpClX= 1 NMat=1 NMatS=1 NMatT=0.
 ***** Axes restored to original set *****
 -------------------------------------------------------------------
 Center     Atomic                   Forces (Hartrees/Bohr)
 Number     Number              X              Y              Z
 -------------------------------------------------------------------
      1        6          -0.026946072    0.033786759    0.000000769
      2        1          -0.015330919    0.003582615    0.000000284
      3        6           0.047893380   -0.045963986   -0.000001268
      4        6          -0.012007675    0.005572308   -0.000000030
      5        1           0.010251052    0.004846026    0.000000511
      6        1          -0.003859766   -0.001823722   -0.000000267
 -------------------------------------------------------------------
 Cartesian Forces:  Max     0.047893380 RMS     0.019499286

 GradGradGradGradGradGradGradGradGradGradGradGradGradGradGradGradGradGrad
 Berny optimization.
 Using GEDIIS/GDIIS optimizer.
 FormGI is forming the generalized inverse of G from B-inverse, IUseBI=4.
 Internal  Forces:  Max     0.055539711 RMS     0.016685256
 Search for a local minimum.
 Step number   3 out of a maximum of  100
 All quantities printed in internal units (Hartrees-Bohrs-Radians)
 Mixed Optimization -- RFO/linear search
 Update second derivatives using D2CorX and points    2    3
 DE= -1.22D-02 DEPred=-1.54D-02 R= 7.93D-01
 TightC=F SS=  1.41D+00  RLast= 4.69D-01 DXNew= 8.4853D-01 1.4059D+00
 Trust test= 7.93D-01 RLast= 4.69D-01 DXMaxT set to 8.49D-01
 The second derivative matrix:
                          R1        R2        R3        R4        R5
           R1           0.34712
           R2           0.03616   0.81467
           R3          -0.00008  -0.00431   0.63803
           R4           0.00844   0.03595  -0.00729   0.34686
           R5           0.00036   0.00247   0.00893   0.00071   0.33874
           A1           0.01596   0.06497  -0.09139   0.01006   0.00787
           A2           0.00192   0.00883   0.01913   0.00333  -0.00180
           A3          -0.00453  -0.01937  -0.00673  -0.00525   0.00099
           A4           0.00262   0.01054  -0.01241   0.00192   0.00081
           A5           0.01254   0.04880  -0.02284   0.01349  -0.00420
           A6          -0.00000  -0.00000   0.00000  -0.00000  -0.00000
           D1          -0.00000  -0.00000   0.00000  -0.00000   0.00000
           D2          -0.00000  -0.00000   0.00000  -0.00000   0.00000
           D3          -0.00000   0.00000  -0.00000  -0.00000   0.00000
                          A1        A2        A3        A4        A5
           A1           0.11218
           A2           0.02036   0.15704
           A3          -0.01492  -0.00000   0.16250
           A4          -0.00544   0.00296  -0.00250   0.15953
           A5           0.00961   0.00889  -0.01332   0.00442   0.10430
           A6          -0.00000  -0.00000   0.00000  -0.00000  -0.00000
           D1          -0.00000  -0.00000   0.00000  -0.00000  -0.00000
           D2          -0.00000  -0.00000   0.00000  -0.00000  -0.00000
           D3          -0.00000   0.00000   0.00000  -0.00000  -0.00000
                          A6        D1        D2        D3
           A6           0.03733
           D1           0.00000   0.00230
           D2           0.00000   0.00000   0.00230
           D3          -0.00000   0.00000   0.00000   0.00230
 ITU=  1  1  0
 Use linear search instead of GDIIS.
     Eigenvalues ---    0.00230   0.00230   0.03643   0.07951   0.09667
     Eigenvalues ---    0.16013   0.16981   0.33850   0.33898   0.35107
     Eigenvalues ---    0.65392   0.83240
 RFO step:  Lambda=-6.09869410D-03 EMin= 2.30000000D-03
 Quartic linear search produced a step of -0.11134.
 Iteration  1 RMS(Cart)=  0.06704430 RMS(Int)=  0.00456976
 Iteration  2 RMS(Cart)=  0.00433201 RMS(Int)=  0.00000827
 Iteration  3 RMS(Cart)=  0.00001123 RMS(Int)=  0.00000004
 Iteration  4 RMS(Cart)=  0.00000000 RMS(Int)=  0.00000004
 Variable       Old X    -DE/DX   Delta X   Delta X   Delta X     New X
                                 (Linear)    (Quad)   (Total)
    R1        1.97796   0.01205   0.00709   0.01454   0.02163   1.99959
    R2        2.25641   0.05554   0.01525   0.03955   0.05480   2.31121
    R3        2.62352  -0.00969  -0.01656   0.02310   0.00654   2.63006
    R4        2.00915   0.01133   0.00451   0.01793   0.02243   2.03158
    R5        2.03101   0.00214   0.00384  -0.00201   0.00183   2.03284
    A1        2.75885   0.02005  -0.03819   0.18436   0.14617   2.90501
    A2        2.08939   0.00181   0.01692  -0.02888  -0.01196   2.07743
    A3        2.14245  -0.00465  -0.01215   0.00487  -0.00728   2.13516
    A4        2.05135   0.00285  -0.00477   0.02401   0.01924   2.07059
    A5        3.03178   0.00242  -0.01467  -0.00358  -0.01825   3.01353
    A6        3.14162  -0.00000  -0.00000   0.00000   0.00000   3.14162
    D1        0.00010   0.00000  -0.00000   0.00003   0.00003   0.00013
    D2       -3.14150   0.00000  -0.00000   0.00003   0.00003  -3.14146
    D3       -3.14159   0.00000   0.00000   0.00000   0.00000  -3.14159
         Item               Value     Threshold  Converged?
 Maximum Force            0.055540     0.000450     NO 
 RMS     Force            0.016685     0.000300     NO 
 Maximum Displacement     0.167133     0.001800     NO 
 RMS     Displacement     0.066900     0.001200     NO 
 Predicted change in Energy=-3.284755D-03
 GradGradGradGradGradGradGradGradGradGradGradGradGradGradGradGradGradGrad

                          Input orientation:                          
 ---------------------------------------------------------------------
 Center     Atomic      Atomic             Coordinates (Angstroms)
 Number     Number       Type             X           Y           Z
 ---------------------------------------------------------------------
      1          6           0        2.066655    3.155337    0.000017
      2          1           0        1.327104    3.912118    0.000026
      3          6           0        3.102667    2.505328   -0.000011
      4          6           0        4.177484    1.621139   -0.000036
      5          1           0        5.177542    2.015669    0.000007
      6          1           0        4.044402    0.553670   -0.000102
 ---------------------------------------------------------------------
                    Distance matrix (angstroms):
                    1          2          3          4          5
     1  C    0.000000
     2  H    1.058137   0.000000
     3  C    1.223042   2.265322   0.000000
     4  C    2.609475   3.656945   1.391769   0.000000
     5  H    3.313075   4.292132   2.131871   1.075068   0.000000
     6  H    3.268050   4.320055   2.166987   1.075732   1.849716
                    6
     6  H    0.000000
 Stoichiometry    C3H3(2)
 Framework group  C1[X(C3H3)]
 Deg. of freedom    12
 Full point group                 C1      NOp   1
 Largest Abelian subgroup         C1      NOp   1
 Largest concise Abelian subgroup C1      NOp   1
                         Standard orientation:                         
 ---------------------------------------------------------------------
 Center     Atomic      Atomic             Coordinates (Angstroms)
 Number     Number       Type             X           Y           Z
 ---------------------------------------------------------------------
      1          6           0        1.344616   -0.052079   -0.000029
      2          1           0        2.390482    0.108599   -0.000038
      3          6           0        0.125900    0.050705   -0.000001
      4          6           0       -1.264527   -0.010407    0.000024
      5          1           0       -1.826966    0.905800   -0.000019
      6          1           0       -1.799449   -0.943712    0.000090
 ---------------------------------------------------------------------
 Rotational constants (GHZ):         280.8928222           9.4597689           9.1515670
 Standard basis: CC-pVTZ (5D, 7F)
 There are   150 symmetry adapted cartesian basis functions of A   symmetry.
 There are   132 symmetry adapted basis functions of A   symmetry.
   132 basis functions,   207 primitive gaussians,   150 cartesian basis functions
    11 alpha electrons       10 beta electrons
       nuclear repulsion energy        53.1561973942 Hartrees.
 NAtoms=    6 NActive=    6 NUniq=    6 SFac= 1.00D+00 NAtFMM=   60 NAOKFM=F Big=F
 Integral buffers will be    131072 words long.
 Raffenetti 2 integral format.
 Two-electron integral symmetry is turned on.
 Nuclear repulsion after empirical dispersion term =       53.1539633614 Hartrees.
 One-electron integrals computed using PRISM.
 NBasis=   132 RedAO= T EigKep=  8.69D-05  NBF=   132
 NBsUse=   132 1.00D-06 EigRej= -1.00D+00 NBFU=   132
 Initial guess from the checkpoint file:  "/localscratch/339542/Gau-32509.chk"
 B after Tr=     0.000000   -0.000000    0.000000
         Rot=    0.999999   -0.000000    0.000000   -0.001063 Ang=  -0.12 deg.
 Initial guess <Sx>= 0.0000 <Sy>= 0.0000 <Sz>= 0.5000 <S**2>= 0.7988 S= 0.5241
 ExpMin= 1.03D-01 ExpMax= 8.24D+03 ExpMxC= 2.81D+02 IAcc=3 IRadAn=         5 AccDes= 0.00D+00
 Harris functional with IExCor=  419 and IRadAn=       5 diagonalized for initial guess.
 HarFok:  IExCor=  419 AccDes= 0.00D+00 IRadAn=         5 IDoV= 1 UseB2=F ITyADJ=14
 ICtDFT=  3500011 ScaDFX=  1.000000  1.000000  1.000000  1.000000
 FoFCou: FMM=F IPFlag=           0 FMFlag=      100000 FMFlg1=           0
         NFxFlg=           0 DoJE=T BraDBF=F KetDBF=T FulRan=T
         wScrn=  0.000000 ICntrl=       500 IOpCl=  0 I1Cent=   200000004 NGrid=           0
         NMat0=    1 NMatS0=      1 NMatT0=    0 NMatD0=    1 NMtDS0=    0 NMtDT0=    0
 Petite list used in FoFCou.
 Keep R1 and R2 ints in memory in canonical form, NReq=116116784.
 Requested convergence on RMS density matrix=1.00D-08 within 128 cycles.
 Requested convergence on MAX density matrix=1.00D-06.
 Requested convergence on             energy=1.00D-06.
 No special actions if energy rises.
 Integral accuracy reduced to 1.0D-05 until final iterations.
 Initial convergence to 1.0D-05 achieved.  Increase integral accuracy.
 SCF Done:  E(UB2PLYPD3) =  -115.789407625     A.U. after   16 cycles
            NFock= 16  Conv=0.78D-08     -V/T= 2.0049
 <Sx>= 0.0000 <Sy>= 0.0000 <Sz>= 0.5000 <S**2>= 0.8070 S= 0.5281
 <L.S>=  0.00000000000    
 Annihilation of the first spin contaminant:
 S**2 before annihilation     0.8070,   after     0.7514
 DoSCS=T DFT=T ScalE2(SS,OS)=  0.270000  0.270000
 ExpMin= 1.03D-01 ExpMax= 8.24D+03 ExpMxC= 2.81D+02 IAcc=3 IRadAn=         5 AccDes= 0.00D+00
 HarFok:  IExCor=  205 AccDes= 0.00D+00 IRadAn=         5 IDoV=-2 UseB2=F ITyADJ=14
 ICtDFT= 12500011 ScaDFX=  1.000000  1.000000  1.000000  1.000000
 Range of M.O.s used for correlation:     4   132
 NBasis=   132 NAE=    11 NBE=    10 NFC=     3 NFV=     0
 NROrb=    129 NOA=     8 NOB=     7 NVA=   121 NVB=   122

 **** Warning!!: The largest alpha MO coefficient is  0.37761638D+02


 **** Warning!!: The largest beta MO coefficient is  0.38192207D+02

 DoSCS=T DFT=T ScalE2(SS,OS)=  0.270000  0.270000
 Fully direct method using O(ONN) memory.
 JobTyp=2 Pass  1:  I=   4 to  11 NPSUse= 40 ParTrn=T ParDer=T DoDerP=T.
 JobTyp=3 Pass  1:  I=   4 to  10 NPSUse= 40 ParTrn=T ParDer=T DoDerP=T.
 Spin components of T(2) and E(2):
     alpha-alpha T2 =       0.3521934693D-01 E2=     -0.1999881734D-01
     alpha-beta  T2 =       0.1866581281D+00 E2=     -0.1113584203D+00
     beta-beta   T2 =       0.2988875399D-01 E2=     -0.1563977809D-01
 (S**2,0)=  0.80695D+00           (S**2,1)=  0.75515D+00
 Scaling Projection term by:   0.270000
 E(PUHF)=      -0.11579824885D+03        E(PMP2)=      -0.11593772181D+03
 E2(B2PLYPD3) =    -0.1469970158D+00 E(B2PLYPD3) =    -0.11593640464074D+03
          IDoAtm=111111
          Differentiating once with respect to electric field.
                with respect to dipole field.
          Differentiating once with respect to nuclear coordinates.
 Keep R1 and R2 ints in memory in canonical form, NReq=116120956.
          There are     1 degrees of freedom in the 1st order CPHF.  IDoFFX=0 NUNeed=     1.
 LinEq1:  Iter=  0 NonCon=     1 RMS=1.48D-03 Max=3.72D-02 NDo=     1
 AX will form     1 AO Fock derivatives at one time.
 LinEq1:  Iter=  1 NonCon=     1 RMS=5.40D-04 Max=1.02D-02 NDo=     1
 LinEq1:  Iter=  2 NonCon=     1 RMS=3.17D-04 Max=6.83D-03 NDo=     1
 LinEq1:  Iter=  3 NonCon=     1 RMS=2.11D-04 Max=6.06D-03 NDo=     1
 LinEq1:  Iter=  4 NonCon=     1 RMS=1.31D-04 Max=2.98D-03 NDo=     1
 LinEq1:  Iter=  5 NonCon=     1 RMS=5.00D-05 Max=6.88D-04 NDo=     1
 LinEq1:  Iter=  6 NonCon=     1 RMS=2.45D-05 Max=6.00D-04 NDo=     1
 LinEq1:  Iter=  7 NonCon=     1 RMS=9.22D-06 Max=2.39D-04 NDo=     1
 LinEq1:  Iter=  8 NonCon=     1 RMS=2.14D-06 Max=3.57D-05 NDo=     1
 LinEq1:  Iter=  9 NonCon=     1 RMS=5.51D-07 Max=6.70D-06 NDo=     1
 LinEq1:  Iter= 10 NonCon=     1 RMS=1.71D-07 Max=2.18D-06 NDo=     1
 LinEq1:  Iter= 11 NonCon=     1 RMS=3.77D-08 Max=6.34D-07 NDo=     1
 LinEq1:  Iter= 12 NonCon=     1 RMS=8.70D-09 Max=1.15D-07 NDo=     1
 LinEq1:  Iter= 13 NonCon=     1 RMS=1.55D-09 Max=1.75D-08 NDo=     1
 LinEq1:  Iter= 14 NonCon=     1 RMS=2.23D-10 Max=2.17D-09 NDo=     1
 LinEq1:  Iter= 15 NonCon=     0 RMS=4.28D-11 Max=5.37D-10 NDo=     1
 Linear equations converged to 1.000D-10 1.000D-09 after    15 iterations.
 End of Minotr F.D. properties file   721 does not exist.
 End of Minotr F.D. properties file   722 does not exist.
 End of Minotr F.D. properties file   788 does not exist.
 Calling FoFJK, ICntrl=  10002127 FMM=F ISym2X=0 I1Cent= 0 IOpClX= 1 NMat=1 NMatS=1 NMatT=0.
 ***** Axes restored to original set *****
 -------------------------------------------------------------------
 Center     Atomic                   Forces (Hartrees/Bohr)
 Number     Number              X              Y              Z
 -------------------------------------------------------------------
      1        6           0.012621857    0.004444646   -0.000000490
      2        1          -0.004704772   -0.001720362    0.000000151
      3        6           0.000698074   -0.016574319   -0.000000003
      4        6          -0.008707546    0.014866957    0.000000394
      5        1           0.002871044   -0.000149571    0.000000080
      6        1          -0.002778657   -0.000867352   -0.000000132
 -------------------------------------------------------------------
 Cartesian Forces:  Max     0.016574319 RMS     0.006637194

 GradGradGradGradGradGradGradGradGradGradGradGradGradGradGradGradGradGrad
 Berny optimization.
 Using GEDIIS/GDIIS optimizer.
 FormGI is forming the generalized inverse of G from B-inverse, IUseBI=4.
 Internal  Forces:  Max     0.015452109 RMS     0.005538383
 Search for a local minimum.
 Step number   4 out of a maximum of  100
 All quantities printed in internal units (Hartrees-Bohrs-Radians)
 Mixed Optimization -- RFO/linear search
 Update second derivatives using D2CorX and points    2    3    4
 DE= -3.63D-03 DEPred=-3.28D-03 R= 1.11D+00
 TightC=F SS=  1.41D+00  RLast= 1.62D-01 DXNew= 1.4270D+00 4.8638D-01
 Trust test= 1.11D+00 RLast= 1.62D-01 DXMaxT set to 8.49D-01
 The second derivative matrix:
                          R1        R2        R3        R4        R5
           R1           0.34385
           R2           0.03935   0.96752
           R3           0.01886   0.13736   0.69521
           R4           0.00433   0.03363   0.01030   0.34197
           R5          -0.00111  -0.00632   0.00664  -0.00076   0.33878
           A1           0.00145   0.03351  -0.05064  -0.00595   0.00392
           A2          -0.00206  -0.02332   0.00444  -0.00028  -0.00114
           A3           0.00110   0.01444   0.00128   0.00026   0.00091
           A4           0.00096   0.00888  -0.00572   0.00002   0.00023
           A5           0.00398  -0.00209  -0.03331   0.00522  -0.00425
           A6          -0.00000   0.00000   0.00000  -0.00000  -0.00000
           D1          -0.00000  -0.00000   0.00000  -0.00000  -0.00000
           D2          -0.00000  -0.00000   0.00000  -0.00000   0.00000
           D3           0.00000   0.00000   0.00000   0.00000   0.00000
                          A1        A2        A3        A4        A5
           A1           0.06624
           A2           0.01224   0.16074
           A3          -0.00111  -0.00232   0.16275
           A4          -0.01113   0.00157  -0.00043   0.15886
           A5          -0.00990   0.01195  -0.01344   0.00149   0.10466
           A6          -0.00000  -0.00000   0.00000  -0.00000  -0.00000
           D1           0.00000  -0.00000   0.00000  -0.00000  -0.00000
           D2           0.00000  -0.00000   0.00000  -0.00000  -0.00000
           D3           0.00000  -0.00000   0.00000   0.00000  -0.00000
                          A6        D1        D2        D3
           A6           0.03733
           D1           0.00000   0.00230
           D2           0.00000   0.00000   0.00230
           D3           0.00000   0.00000   0.00000   0.00230
 ITU=  1  1  1  0
 Use linear search instead of GDIIS.
     Eigenvalues ---    0.00230   0.00230   0.03638   0.05226   0.10218
     Eigenvalues ---    0.16016   0.16888   0.33835   0.33862   0.34339
     Eigenvalues ---    0.64631   1.03044
 RFO step:  Lambda=-1.98001728D-03 EMin= 2.30000000D-03
 Quartic linear search produced a step of  0.19116.
 Iteration  1 RMS(Cart)=  0.03870764 RMS(Int)=  0.00272321
 Iteration  2 RMS(Cart)=  0.00320561 RMS(Int)=  0.00000144
 Iteration  3 RMS(Cart)=  0.00000117 RMS(Int)=  0.00000003
 Iteration  4 RMS(Cart)=  0.00000000 RMS(Int)=  0.00000003
 Variable       Old X    -DE/DX   Delta X   Delta X   Delta X     New X
                                 (Linear)    (Quad)   (Total)
    R1        1.99959   0.00206   0.00414   0.00206   0.00620   2.00579
    R2        2.31121  -0.00526   0.01048  -0.02043  -0.00995   2.30127
    R3        2.63006  -0.01545   0.00125  -0.00732  -0.00607   2.62399
    R4        2.03158   0.00262   0.00429   0.00640   0.01069   2.04227
    R5        2.03284   0.00120   0.00035   0.00224   0.00260   2.03543
    A1        2.90501   0.00913   0.02794   0.12694   0.15488   3.05990
    A2        2.07743   0.00341  -0.00229   0.00504   0.00275   2.08019
    A3        2.13516  -0.00440  -0.00139  -0.01834  -0.01973   2.11543
    A4        2.07059   0.00099   0.00368   0.01330   0.01698   2.08756
    A5        3.01353   0.00593  -0.00349   0.06696   0.06347   3.07700
    A6        3.14162  -0.00000   0.00000  -0.00000  -0.00000   3.14161
    D1        0.00013   0.00000   0.00001   0.00005   0.00005   0.00018
    D2       -3.14146   0.00000   0.00001   0.00005   0.00006  -3.14141
    D3       -3.14159  -0.00000   0.00000   0.00000   0.00000  -3.14159
         Item               Value     Threshold  Converged?
 Maximum Force            0.015452     0.000450     NO 
 RMS     Force            0.005538     0.000300     NO 
 Maximum Displacement     0.082921     0.001800     NO 
 RMS     Displacement     0.038666     0.001200     NO 
 Predicted change in Energy=-1.030845D-03
 GradGradGradGradGradGradGradGradGradGradGradGradGradGradGradGradGradGrad

                          Input orientation:                          
 ---------------------------------------------------------------------
 Center     Atomic      Atomic             Coordinates (Angstroms)
 Number     Number       Type             X           Y           Z
 ---------------------------------------------------------------------
      1          6           0        2.108027    3.199216    0.000015
      2          1           0        1.295840    3.882560    0.000029
      3          6           0        3.100731    2.493863   -0.000013
      4          6           0        4.178372    1.618207   -0.000035
      5          1           0        5.182384    2.018113    0.000008
      6          1           0        4.030499    0.551301   -0.000102
 ---------------------------------------------------------------------
                    Distance matrix (angstroms):
                    1          2          3          4          5
     1  C    0.000000
     2  H    1.061418   0.000000
     3  C    1.217778   2.277303   0.000000
     4  C    2.604979   3.665554   1.388555   0.000000
     5  H    3.293429   4.310614   2.135327   1.080724   0.000000
     6  H    3.272210   4.309948   2.153606   1.077106   1.865041
                    6
     6  H    0.000000
 Stoichiometry    C3H3(2)
 Framework group  C1[X(C3H3)]
 Deg. of freedom    12
 Full point group                 C1      NOp   1
 Largest Abelian subgroup         C1      NOp   1
 Largest concise Abelian subgroup C1      NOp   1
                         Standard orientation:                         
 ---------------------------------------------------------------------
 Center     Atomic      Atomic             Coordinates (Angstroms)
 Number     Number       Type             X           Y           Z
 ---------------------------------------------------------------------
      1          6           0        1.341214   -0.020223   -0.000027
      2          1           0        2.401671    0.024912   -0.000042
      3          6           0        0.124370    0.027450    0.000000
      4          6           0       -1.263736   -0.007865    0.000023
      5          1           0       -1.814575    0.921943   -0.000021
      6          1           0       -1.798180   -0.943026    0.000089
 ---------------------------------------------------------------------
 Rotational constants (GHZ):         285.8359450           9.4836151           9.1790672
 Standard basis: CC-pVTZ (5D, 7F)
 There are   150 symmetry adapted cartesian basis functions of A   symmetry.
 There are   132 symmetry adapted basis functions of A   symmetry.
   132 basis functions,   207 primitive gaussians,   150 cartesian basis functions
    11 alpha electrons       10 beta electrons
       nuclear repulsion energy        53.2384970468 Hartrees.
 NAtoms=    6 NActive=    6 NUniq=    6 SFac= 1.00D+00 NAtFMM=   60 NAOKFM=F Big=F
 Integral buffers will be    131072 words long.
 Raffenetti 2 integral format.
 Two-electron integral symmetry is turned on.
 Nuclear repulsion after empirical dispersion term =       53.2362621562 Hartrees.
 One-electron integrals computed using PRISM.
 NBasis=   132 RedAO= T EigKep=  5.60D-05  NBF=   132
 NBsUse=   132 1.00D-06 EigRej= -1.00D+00 NBFU=   132
 Initial guess from the checkpoint file:  "/localscratch/339542/Gau-32509.chk"
 B after Tr=    -0.000000    0.000000   -0.000000
         Rot=    1.000000   -0.000000    0.000000    0.000325 Ang=  -0.04 deg.
 Initial guess <Sx>= 0.0000 <Sy>= 0.0000 <Sz>= 0.5000 <S**2>= 0.8065 S= 0.5279
 ExpMin= 1.03D-01 ExpMax= 8.24D+03 ExpMxC= 2.81D+02 IAcc=3 IRadAn=         5 AccDes= 0.00D+00
 Harris functional with IExCor=  419 and IRadAn=       5 diagonalized for initial guess.
 HarFok:  IExCor=  419 AccDes= 0.00D+00 IRadAn=         5 IDoV= 1 UseB2=F ITyADJ=14
 ICtDFT=  3500011 ScaDFX=  1.000000  1.000000  1.000000  1.000000
 FoFCou: FMM=F IPFlag=           0 FMFlag=      100000 FMFlg1=           0
         NFxFlg=           0 DoJE=T BraDBF=F KetDBF=T FulRan=T
         wScrn=  0.000000 ICntrl=       500 IOpCl=  0 I1Cent=   200000004 NGrid=           0
         NMat0=    1 NMatS0=      1 NMatT0=    0 NMatD0=    1 NMtDS0=    0 NMtDT0=    0
 Petite list used in FoFCou.
 Keep R1 and R2 ints in memory in canonical form, NReq=116116784.
 Requested convergence on RMS density matrix=1.00D-08 within 128 cycles.
 Requested convergence on MAX density matrix=1.00D-06.
 Requested convergence on             energy=1.00D-06.
 No special actions if energy rises.
 Integral accuracy reduced to 1.0D-05 until final iterations.
 Initial convergence to 1.0D-05 achieved.  Increase integral accuracy.
 SCF Done:  E(UB2PLYPD3) =  -115.791134770     A.U. after   15 cycles
            NFock= 15  Conv=0.52D-08     -V/T= 2.0049
 <Sx>= 0.0000 <Sy>= 0.0000 <Sz>= 0.5000 <S**2>= 0.8042 S= 0.5267
 <L.S>=  0.00000000000    
 Annihilation of the first spin contaminant:
 S**2 before annihilation     0.8042,   after     0.7512
 DoSCS=T DFT=T ScalE2(SS,OS)=  0.270000  0.270000
 ExpMin= 1.03D-01 ExpMax= 8.24D+03 ExpMxC= 2.81D+02 IAcc=3 IRadAn=         5 AccDes= 0.00D+00
 HarFok:  IExCor=  205 AccDes= 0.00D+00 IRadAn=         5 IDoV=-2 UseB2=F ITyADJ=14
 ICtDFT= 12500011 ScaDFX=  1.000000  1.000000  1.000000  1.000000
 Range of M.O.s used for correlation:     4   132
 NBasis=   132 NAE=    11 NBE=    10 NFC=     3 NFV=     0
 NROrb=    129 NOA=     8 NOB=     7 NVA=   121 NVB=   122

 **** Warning!!: The largest alpha MO coefficient is  0.42047904D+02


 **** Warning!!: The largest beta MO coefficient is  0.42342612D+02

[...]
     5   1     0.02   0.02   0.00    -0.00   0.00   0.69     0.65   0.24  -0.00
     6   1    -0.02   0.02  -0.00    -0.00   0.00   0.69    -0.65   0.24  -0.00
                      7                      8                      9
                      A                      A                      A
 Frequencies --   1074.8603              1473.8603              2041.0757
 Red. masses --      3.9631                 1.1884                 6.6769
 Frc consts  --      2.6977                 1.5209                16.3887
 IR Inten    --      3.0678                 0.5486                 2.8704
  Atom  AN      X      Y      Z        X      Y      Z        X      Y      Z
     1   6    -0.29   0.00   0.00     0.02  -0.00  -0.00    -0.41   0.00   0.00
     2   1    -0.33  -0.00  -0.00     0.03   0.00   0.00    -0.69  -0.00   0.00
     3   6    -0.17  -0.00  -0.00     0.00  -0.00   0.00     0.58  -0.00  -0.00
     4   6     0.39   0.00  -0.00    -0.13   0.00  -0.00    -0.10  -0.00  -0.00
     5   1     0.55   0.07  -0.00     0.57   0.41  -0.00    -0.05   0.03  -0.00
     6   1     0.55  -0.07   0.00     0.57  -0.41   0.00    -0.05  -0.03   0.00
                     10                     11                     12
                      A                      A                      A
 Frequencies --   3175.1261              3271.8378              3485.3375
 Red. masses --      1.0502                 1.1182                 1.1400
 Frc consts  --      6.2381                 7.0525                 8.1593
 IR Inten    --      2.2459                 0.3979                59.2025
  Atom  AN      X      Y      Z        X      Y      Z        X      Y      Z
     1   6     0.00  -0.00  -0.00    -0.00  -0.00   0.00    -0.11  -0.00   0.00
     2   1     0.01   0.00   0.00    -0.00  -0.00   0.00     0.99   0.00   0.00
     3   6     0.00  -0.00   0.00    -0.00  -0.00   0.00     0.02  -0.00  -0.00
     4   6    -0.06  -0.00   0.00     0.00  -0.10   0.00     0.00  -0.00  -0.00
     5   1     0.35  -0.61   0.00    -0.37   0.60  -0.00    -0.00   0.01  -0.00
     6   1     0.35   0.61  -0.00     0.37   0.60  -0.00    -0.00  -0.01   0.00

 -------------------
 - Thermochemistry -
 -------------------
 Temperature   298.150 Kelvin.  Pressure   1.00000 Atm.
 Atom     1 has atomic number  6 and mass  12.00000
 Atom     2 has atomic number  1 and mass   1.00783
 Atom     3 has atomic number  6 and mass  12.00000
 Atom     4 has atomic number  6 and mass  12.00000
 Atom     5 has atomic number  1 and mass   1.00783
 Atom     6 has atomic number  1 and mass   1.00783
 Molecular mass:    39.02348 amu.
 Principal axes and moments of inertia in atomic units:
                           1         2         3
     Eigenvalues --     6.19506 188.53088 194.72594
           X            1.00000   0.00000   0.00002
           Y           -0.00000   1.00000   0.00006
           Z           -0.00002  -0.00006   1.00000
 This molecule is an asymmetric top.
 Rotational symmetry number  1.
 Rotational temperatures (Kelvin)     13.98112     0.45942     0.44480
 Rotational constants (GHZ):         291.31929     9.57266     9.26811
 Zero-point vibrational energy     108519.7 (Joules/Mol)
                                   25.93683 (Kcal/Mol)
 Warning -- explicit consideration of   3 degrees of freedom as
           vibrations may cause significant error
 Vibrational temperatures:    501.85   583.98   733.20   918.17   972.72
          (Kelvin)           1499.85  1546.48  2120.56  2936.65  4568.30
                             4707.44  5014.62
 
 Zero-point correction=                           0.041333 (Hartree/Particle)
 Thermal correction to Energy=                    0.045376
 Thermal correction to Enthalpy=                  0.046321
 Thermal correction to Gibbs Free Energy=         0.016871
 Sum of electronic and zero-point Energies=           -115.896960
 Sum of electronic and thermal Energies=              -115.892917
 Sum of electronic and thermal Enthalpies=            -115.891972
 Sum of electronic and thermal Free Energies=         -115.921422
 
                     E (Thermal)             CV                S
                      KCal/Mol        Cal/Mol-Kelvin    Cal/Mol-Kelvin
 Total                   28.474             12.781             61.983
 Electronic               0.000              0.000              1.377
 Translational            0.889              2.981             36.913
 Rotational               0.889              2.981             20.059
 Vibrational             26.697              6.819              3.634
 Vibration     1          0.726              1.578              1.172
 Vibration     2          0.771              1.457              0.941
 Vibration     3          0.865              1.229              0.635
                       Q            Log10(Q)             Ln(Q)
 Total Bot       0.173812D-07         -7.759920        -17.867875
 Total V=0       0.178610D+12         11.251906         25.908472
 Vib (Bot)       0.168010D-18        -18.774664        -43.230261
 Vib (Bot)    1  0.529358D+00         -0.276250         -0.636090
 Vib (Bot)    2  0.437227D+00         -0.359293         -0.827303
 Vib (Bot)    3  0.319755D+00         -0.495183         -1.140202
 Vib (V=0)       0.172648D+01          0.237162          0.546085
 Vib (V=0)    1  0.122816D+01          0.089256          0.205519
 Vib (V=0)    2  0.116420D+01          0.066029          0.152038
 Vib (V=0)    3  0.109350D+01          0.038819          0.089384
 Electronic      0.200000D+01          0.301030          0.693147
 Translational   0.958170D+07          6.981443         16.075366
 Rotational      0.539848D+04          3.732272          8.593873
 ***** Axes restored to original set *****
 -------------------------------------------------------------------
 Center     Atomic                   Forces (Hartrees/Bohr)
 Number     Number              X              Y              Z
 -------------------------------------------------------------------
      1        6          -0.000008332    0.000013848   -0.000002795
      2        1          -0.000010875    0.000004931    0.000000411
      3        6           0.000005315   -0.000002340    0.000004063
      4        6          -0.000005768   -0.000015323   -0.000001366
      5        1           0.000009604   -0.000000359   -0.000000157
      6        1           0.000010056   -0.000000757   -0.000000157
 -------------------------------------------------------------------
 Cartesian Forces:  Max     0.000015323 RMS     0.000007172
 FormGI is forming the generalized inverse of G from B-inverse, IUseBI=4.

 GradGradGradGradGradGradGradGradGradGradGradGradGradGradGradGradGradGrad
 Berny optimization.
 FormGI is forming the generalized inverse of G from B-inverse, IUseBI=4.
 Internal  Forces:  Max     0.000026695 RMS     0.000010759
 Search for a local minimum.
 Step number   1 out of a maximum of    2
 All quantities printed in internal units (Hartrees-Bohrs-Radians)
 Second derivative matrix not updated -- analytic derivatives used.
 The second derivative matrix:
                          R1        R2        R3        R4        R5
           R1           0.41740
           R2          -0.00701   0.95710
           R3          -0.00108   0.08368   0.42596
           R4           0.00005  -0.00188   0.00792   0.36715
           R5           0.00005  -0.00188   0.00792   0.00202   0.36711
           A1           0.00000   0.00002  -0.00000  -0.00058   0.00058
           A2          -0.00003   0.00191   0.01145   0.00610  -0.01153
           A3          -0.00003   0.00191   0.01145  -0.01153   0.00610
           A4           0.00006  -0.00382  -0.02290   0.00543   0.00543
           A5           0.00000   0.00001   0.00000   0.00104  -0.00104
           A6          -0.00000  -0.00000  -0.00000  -0.00006   0.00006
           D1          -0.00000   0.00000  -0.00000  -0.00000   0.00001
           D2           0.00000  -0.00000   0.00000   0.00000  -0.00001
           D3          -0.00000   0.00000  -0.00000  -0.00000   0.00001
                          A1        A2        A3        A4        A5
           A1           0.05072
           A2          -0.00397   0.07541
           A3           0.00397  -0.04100   0.07542
           A4           0.00000  -0.03442  -0.03442   0.06884
           A5          -0.02412   0.01179  -0.01179   0.00000   0.08608
           A6           0.00423  -0.00038   0.00038   0.00000  -0.00379
           D1           0.00037  -0.00003   0.00003  -0.00000  -0.00032
           D2          -0.00037   0.00003  -0.00003   0.00000   0.00032
           D3           0.00028  -0.00003   0.00003  -0.00000  -0.00028
                          A6        D1        D2        D3
           A6           0.01382
           D1           0.00146   0.00250
           D2          -0.00146  -0.00250   0.00250
           D3           0.00043  -0.00455   0.00455   0.00902
 ITU=  0
     Eigenvalues ---   -0.00000   0.01281   0.01451   0.03857   0.08780
     Eigenvalues ---    0.10043   0.12607   0.36638   0.36721   0.41731
     Eigenvalues ---    0.41776   0.97015
 Eigenvalue     1 is  -7.65D-11 should be greater than     0.000000 Eigenvector:
                          D1        D2        A6        A1        A5
   1                    0.70711   0.70710   0.00005  -0.00003   0.00001
                          D3        A3        A2        R4        R5
   1                    0.00001   0.00000  -0.00000   0.00000  -0.00000
 Quadratic step=1.576D+00 exceeds max=3.000D-01 adjusted using Lamda=-3.249D-10.
 Angle between NR and scaled steps=   0.04 degrees.
 Angle between quadratic step and forces=  89.98 degrees.
 Linear search not attempted -- first point.
 Iteration  1 RMS(Cart)=  0.00002548 RMS(Int)=  0.02610964
 Iteration  2 RMS(Cart)=  0.00006794 RMS(Int)=  0.00053155
 Iteration  3 RMS(Cart)=  0.00000286 RMS(Int)=  0.00050363
 Iteration  4 RMS(Cart)=  0.00000003 RMS(Int)=  0.00050341
 Variable       Old X    -DE/DX   Delta X   Delta X   Delta X     New X
                                 (Linear)    (Quad)   (Total)
    R1        2.00267   0.00001   0.00000   0.00003  -0.00001   2.00266
    R2        2.30403   0.00003   0.00000   0.00002   0.00000   2.30403
    R3        2.59194   0.00002   0.00000   0.00004   0.00002   2.59195
    R4        2.03806   0.00001   0.00000   0.00003   0.00001   2.03806
    R5        2.03809  -0.00000   0.00000  -0.00000   0.00001   2.03809
    A1        3.14145   0.00001   0.00000   0.00016   0.00005   3.14149
    A2        2.10600  -0.00000   0.00000  -0.00002  -0.00001   2.10600
    A3        2.10589   0.00001   0.00000   0.00010   0.00008   2.10596
    A4        2.07130  -0.00001   0.00000  -0.00008  -0.00007   2.07123
    A5        3.14152   0.00000   0.00000   0.00007   0.00011   3.14163
    A6        3.14174  -0.00000   0.00000  -0.00016  -0.00014   3.14160
    D1        0.30415  -0.00000   0.00000  -0.21243  -0.21110   0.09305
    D2       -2.83747   0.00000   0.00000  -0.21240  -0.21107  -3.04854
    D3       -3.14159   0.00000   0.00000  -0.00001   0.00000  -3.14159
         Item               Value     Threshold  Converged?
 Maximum Force            0.000027     0.000450     YES
 RMS     Force            0.000011     0.000300     YES
 Maximum Displacement     0.000181     0.001800     YES
 RMS     Displacement     0.000079     0.001200     YES
 Predicted change in Energy=-1.320021D-09
 Optimization completed.
    -- Stationary point found.
                           ----------------------------
                           !   Optimized Parameters   !
                           ! (Angstroms and Degrees)  !
 --------------------------                            --------------------------
 ! Name  Definition              Value          Derivative Info.                !
 --------------------------------------------------------------------------------
 ! R1    R(1,2)                  1.0598         -DE/DX =    0.0                 !
 ! R2    R(1,3)                  1.2192         -DE/DX =    0.0                 !
 ! R3    R(3,4)                  1.3716         -DE/DX =    0.0                 !
 ! R4    R(4,5)                  1.0785         -DE/DX =    0.0                 !
 ! R5    R(4,6)                  1.0785         -DE/DX =    0.0                 !
 ! A1    A(2,1,3)              179.9916         -DE/DX =    0.0                 !
 ! A2    A(3,4,5)              120.6651         -DE/DX =    0.0                 !
 ! A3    A(3,4,6)              120.6583         -DE/DX =    0.0                 !
 ! A4    A(5,4,6)              118.6765         -DE/DX =    0.0                 !
 ! A5    L(1,3,4,6,-1)         179.9961         -DE/DX =    0.0                 !
 ! A6    L(1,3,4,6,-2)         180.0082         -DE/DX =    0.0                 !
 ! D1    D(2,1,4,5)             17.4267         -DE/DX =    0.0                 !
 ! D2    D(2,1,4,6)           -162.5749         -DE/DX =    0.0                 !
 ! D3    D(3,4,5,6)           -179.9997         -DE/DX =    0.0                 !
 --------------------------------------------------------------------------------
 GradGradGradGradGradGradGradGradGradGradGradGradGradGradGradGradGradGrad


 ----------------------------------------------------------------------

 Electric dipole moment (input orientation):
 (Debye = 10**-18 statcoulomb cm , SI units = C m)
                  (au)            (Debye)         (10**-30 SI)
   Tot        0.453677D-01      0.115313D+00      0.384643D+00
   x          0.357820D-01      0.909488D-01      0.303372D+00
   y         -0.278904D-01     -0.708904D-01     -0.236465D+00
   z          0.000000D+00      0.000000D+00      0.000000D+00

 Dipole polarizability, Alpha (input orientation).
 (esu units = cm**3 , SI units = C**2 m**2 J**-1)
 Alpha(0;0):
               (au)            (10**-24 esu)      (10**-40 SI)
   iso        0.328003D+02      0.486051D+01      0.540805D+01
   aniso      0.354047D+02      0.524644D+01      0.583745D+01
   xx         0.435212D+02      0.644917D+01      0.717567D+01
   yx        -0.164332D+02     -0.243514D+01     -0.270946D+01
   yy         0.352873D+02      0.522904D+01      0.581809D+01
   zx        -0.818713D-03     -0.121321D-03     -0.134988D-03
   zy         0.852043D-03      0.126260D-03      0.140483D-03
   zz         0.195926D+02      0.290332D+01      0.323038D+01

 ----------------------------------------------------------------------

 Dipole orientation:
     6          4.47106068          5.73616365         -0.56724593
     1          4.47203901          5.73711339         -2.56991228
     6          4.47023860          5.73522353          1.73678074
     6          4.46907769          5.73412424          4.32871586
     1          5.54625196          7.11640121          5.36923281
     1          3.39088698          4.35084150          5.36690229

 Electric dipole moment (dipole orientation):
 (Debye = 10**-18 statcoulomb cm , SI units = C m)
                  (au)            (Debye)         (10**-30 SI)
   Tot        0.453677D-01      0.115313D+00      0.384643D+00
   x          0.000000D+00      0.000000D+00      0.000000D+00
   y          0.000000D+00      0.000000D+00      0.000000D+00
   z          0.453677D-01      0.115313D+00      0.384643D+00

 Dipole polarizability, Alpha (dipole orientation).
 (esu units = cm**3 , SI units = C**2 m**2 J**-1)
 Alpha(0;0):
               (au)            (10**-24 esu)      (10**-40 SI)
   iso        0.328003D+02      0.486051D+01      0.540805D+01
   aniso      0.354047D+02      0.524644D+01      0.583745D+01
   xx         0.206773D+02      0.306406D+01      0.340923D+01
   yx         0.139186D+01      0.206252D+00      0.229486D+00
   yy         0.213785D+02      0.316796D+01      0.352483D+01
   zx        -0.136933D-01     -0.202915D-02     -0.225773D-02
   zy        -0.140309D-01     -0.207917D-02     -0.231339D-02
   zz         0.563452D+02      0.834950D+01      0.929007D+01

 ----------------------------------------------------------------------
 1\1\GINC-N68\Freq\UB2PLYPD3-FC\CC-pVTZ\C3H3(2)\ROOT\31-May-2019\0\\#N 
 Geom=AllCheck Guess=TCheck SCRF=Check GenChk UB2PLYPD3(FC)/CC-pVTZ Fre
 q\\Title Card Required\\0,2\C,2.1292373607,3.2199796578,0.0000326988\H
 ,1.2938278287,3.8720487614,0.0000297647\C,3.0904587647,2.4699155686,-0
 .0000409642\C,4.1717353503,1.6260500491,-0.0000388489\H,5.1761110827,2
 .018956315,0.0000139484\H,4.0344825829,0.5563101681,-0.0000946988\\Ver
 sion=ES64L-G16RevB.01\State=2-A\HF=-115.7917613\MP2=-115.9382931\PUHF=
 -115.800566\PMP2-0=-115.9395755\S2=0.805079\S2-1=0.753668\S2A=0.751241
 \RMSD=1.810e-09\RMSF=7.172e-06\ZeroPoint=0.041333\Thermal=0.0453764\Di
 pole=0.035782,-0.0278904,-0.0000041\DipoleDeriv=-0.2658596,0.0255408,-
 0.000002,0.0254716,-0.2530119,0.0000014,0.000041,-0.0000322,-0.2310027
 ,0.23099,-0.0071732,0.0000014,-0.0071305,0.2273702,-0.0000006,-0.00002
 33,0.0000188,0.2145459,-0.141942,-0.0051238,-0.0000061,-0.005129,-0.14
 45253,-0.0000041,-0.0000172,0.0000045,-0.0292489,0.1600127,-0.0043179,
 0.0000175,-0.0042983,0.1578358,0.0000172,0.0000081,0.0000245,-0.260874
 ,-0.017294,0.0031738,-0.0000059,-0.024973,0.0318798,-0.0000063,-0.0000
 058,-0.0000059,0.1532957,0.0340928,-0.0120997,-0.000005,0.0160592,-0.0
 195486,-0.0000076,-0.0000028,-0.0000097,0.1532841\Polar=43.5211606,-16
 .4331624,35.2873087,-0.0008187,0.000852,19.5925769\PG=C01 [X(C3H3)]\NI
 mag=0\\0.87850576,-0.65353178,0.55110181,-0.00003580,0.00002872,0.0305
 7976,-0.27078530,0.19682166,0.00000091,0.26429988,0.19683203,-0.172248
 31,-0.00000126,-0.19615166,0.16609498,-0.00000408,0.00000263,-0.011116
 47,0.00000014,0.00000023,0.00838816,-0.55756299,0.41236878,0.00003055,
 0.00330263,-0.00337381,0.00000505,0.79289509,0.41235925,-0.35091763,-0
 .00002399,-0.00336300,0.00162231,-0.00000392,-0.54179159,0.52142293,0.
 00003769,-0.00002957,-0.02704888,-0.00000125,0.00000099,-0.00125960,-0
 .00003352,0.00002930,0.05631830,-0.04800446,0.04333038,0.00000459,0.00
 336233,0.00295386,-0.00000116,-0.22261619,0.10955472,-0.00000364,0.632
 43815,0.04332819,-0.02629018,-0.00000338,0.00295344,0.00484111,0.00000
 116,0.10955676,-0.16774123,-0.00000084,-0.00993505,0.62737810,0.000002
 61,-0.00000183,0.00476295,0.00000019,0.00000010,0.00380332,-0.00000261
 ,-0.00000164,-0.03267398,0.00001871,0.00002714,0.05791712,0.00069511,-
 0.00033581,-0.00000022,0.00037508,0.00052869,0.00000009,-0.02131221,-0
 .00416223,-0.00000077,-0.30608408,-0.10399078,-0.00001506,0.32545349,0
 .00223553,-0.00259481,-0.00000021,-0.00055635,-0.00061996,-0.00000006,
 0.02073842,0.01111242,0.00000110,-0.10374764,-0.09561669,-0.00000694,0
 .10691502,0.09299024,0.,0.,0.00141102,-0.00000006,-0.00000012,0.000092
 67,0.00000014,0.00000009,0.00233054,-0.00001468,-0.00000689,-0.0169007
 2,0.00001606,0.00000750,0.00653269,-0.00284811,0.00134677,-0.00000003,
 -0.00055462,-0.00078911,-0.00000004,0.00529367,0.02740285,0.00000149,-
 0.05909576,-0.04191255,-0.00000384,0.00087262,-0.02558497,-0.00000145,
 0.05633221,-0.00122321,0.00094913,0.00000014,0.00029591,0.00030988,-0.
 00000003,0.00250145,-0.01549879,-0.00000098,-0.04215627,-0.34257111,-0
 .00001683,0.00104511,-0.00527120,-0.00000058,0.03953701,0.36208209,-0.
 00000043,0.00000005,0.00141163,0.00000008,0.00000005,0.00009193,0.0000
 0039,0.00000018,0.00233362,-0.00000381,-0.00001719,-0.01690868,-0.0000
 0010,-0.00000138,0.00653380,0.00000387,0.00001829,0.00653771\\0.000008
 33,-0.00001385,0.00000279,0.00001087,-0.00000493,-0.00000041,-0.000005
 31,0.00000234,-0.00000406,0.00000577,0.00001532,0.00000137,-0.00000960
 ,0.00000036,0.00000016,-0.00001006,0.00000076,0.00000016\\\@


 WHEN HAVING A MEETING OF THE MINDS,
 MAKE SURE YOU HAVE THE EQUIPMENT FOR IT.
 Job cpu time:       0 days  1 hours 16 minutes 27.1 seconds.
 Elapsed time:       0 days  0 hours  1 minutes 58.0 seconds.
 File lengths (MBytes):  RWF=   2455 Int=      0 D2E=      0 Chk=      4 Scr=      1
 Normal termination of Gaussian 16 at Fri May 31 22:05:24 2019.
