 Entering Gaussian System, Link 0=g16
 Initial command:
 /ichec/packages/gaussian/16b01/l1.exe "/localscratch/339542/Gau-54093.inp" -scrdir="/localscratch/339542/"
 Entering Link 1 = /ichec/packages/gaussian/16b01/l1.exe PID=     54113.
  
 Copyright (c) 1988-2017, Gaussian, Inc.  All Rights Reserved.
  
 This is part of the Gaussian(R) 16 program.  It is based on
 the Gaussian(R) 09 system (copyright 2009, Gaussian, Inc.),
 the Gaussian(R) 03 system (copyright 2003, Gaussian, Inc.),
 the Gaussian(R) 98 system (copyright 1998, Gaussian, Inc.),
 the Gaussian(R) 94 system (copyright 1995, Gaussian, Inc.),
 the Gaussian 92(TM) system (copyright 1992, Gaussian, Inc.),
 the Gaussian 90(TM) system (copyright 1990, Gaussian, Inc.),
 the Gaussian 88(TM) system (copyright 1988, Gaussian, Inc.),
 the Gaussian 86(TM) system (copyright 1986, Carnegie Mellon
 University), and the Gaussian 82(TM) system (copyright 1983,
 Carnegie Mellon University). Gaussian is a federally registered
 trademark of Gaussian, Inc.
  
 This software contains proprietary and confidential information,
 including trade secrets, belonging to Gaussian, Inc.
  
 This software is provided under written license and may be
 used, copied, transmitted, or stored only in accord with that
 written license.
  
 The following legend is applicable only to US Government
 contracts under FAR:
  
                    RESTRICTED RIGHTS LEGEND
  
 Use, reproduction and disclosure by the US Government is
 subject to restrictions as set forth in subparagraphs (a)
 and (c) of the Commercial Computer Software - Restricted
 Rights clause in FAR 52.227-19.
  
 Gaussian, Inc.
 340 Quinnipiac St., Bldg. 40, Wallingford CT 06492
  
  
 ---------------------------------------------------------------
 Warning -- This program may not be used in any manner that
 competes with the business of Gaussian, Inc. or will provide
 assistance to any competitor of Gaussian, Inc.  The licensee
 of this program is prohibited from giving any competitor of
 Gaussian, Inc. access to this program.  By using this program,
 the user acknowledges that Gaussian, Inc. is engaged in the
 business of creating and licensing software in the field of
 computational chemistry and represents and warrants to the
 licensee that it is not a competitor of Gaussian, Inc. and that
 it will not use this program in any manner prohibited above.
 ---------------------------------------------------------------
  

 Cite this work as:
 Gaussian 16, Revision B.01,
 M. J. Frisch, G. W. Trucks, H. B. Schlegel, G. E. Scuseria, 
 M. A. Robb, J. R. Cheeseman, G. Scalmani, V. Barone, 
 G. A. Petersson, H. Nakatsuji, X. Li, M. Caricato, A. V. Marenich, 
 J. Bloino, B. G. Janesko, R. Gomperts, B. Mennucci, H. P. Hratchian, 
 J. V. Ortiz, A. F. Izmaylov, J. L. Sonnenberg, D. Williams-Young, 
 F. Ding, F. Lipparini, F. Egidi, J. Goings, B. Peng, A. Petrone, 
 T. Henderson, D. Ranasinghe, V. G. Zakrzewski, J. Gao, N. Rega, 
 G. Zheng, W. Liang, M. Hada, M. Ehara, K. Toyota, R. Fukuda, 
 J. Hasegawa, M. Ishida, T. Nakajima, Y. Honda, O. Kitao, H. Nakai, 
 T. Vreven, K. Throssell, J. A. Montgomery, Jr., J. E. Peralta, 
 F. Ogliaro, M. J. Bearpark, J. J. Heyd, E. N. Brothers, K. N. Kudin, 
 V. N. Staroverov, T. A. Keith, R. Kobayashi, J. Normand, 
 K. Raghavachari, A. P. Rendell, J. C. Burant, S. S. Iyengar, 
 J. Tomasi, M. Cossi, J. M. Millam, M. Klene, C. Adamo, R. Cammi, 
 J. W. Ochterski, R. L. Martin, K. Morokuma, O. Farkas, 
 J. B. Foresman, and D. J. Fox, Gaussian, Inc., Wallingford CT, 2016.
 
 ******************************************
 Gaussian 16:  ES64L-G16RevB.01 20-Dec-2017
                31-May-2019 
 ******************************************
 %mem=80GB
 %nproc=40
 Will use up to   40 processors via shared memory.
 -----------------------------------------------
 # opt=maxcyc=500 freq=noraman uB2PLYPD3/cc-pvtz
 -----------------------------------------------
 1/6=500,18=20,19=15,38=1/1,3;
 2/9=110,12=2,17=6,18=5,40=1/2;
 3/5=16,6=1,11=2,25=1,30=1,71=1,74=-60,116=2/1,2,3;
 4//1;
 5/5=2,38=5/2;
 8/6=4,10=1/1;
 9/15=2,16=-3/6;
 10/5=1/2;
 6/7=2,8=2,9=2,10=2/1;
 7/12=2/1,2,3,16;
 1/6=500,18=20,19=15/3(2);
 2/9=110/2;
 99//99;
 2/9=110/2;
 3/5=16,6=1,11=2,25=1,30=1,71=1,74=-60,116=2/1,2,3;
 4/5=5,16=3,69=1/1;
 5/5=2,38=5/2;
 8/6=4,10=1/1;
 9/15=2,16=-3/6;
 10/5=1/2;
 7/12=2/1,2,3,16;
 1/6=500,18=20,19=15/3(-8);
 2/9=110/2;
 6/7=2,8=2,9=2,10=2/1;
 99/9=10/99;
 -------------------
 Title Card Required
 -------------------
 Symbolic Z-matrix:
 Charge =  0 Multiplicity = 1
 C                     0.6629    0.        0.00002 
 C                    -0.66292   0.        0.00002 
 H                    -1.231    -0.92357  -0.00006 
 H                     1.23106   0.92342  -0.00006 
 H                     1.23101  -0.92347  -0.00006 
 H                    -1.23097   0.9236   -0.00006 
 

 GradGradGradGradGradGradGradGradGradGradGradGradGradGradGradGradGradGrad
 Berny optimization.
 Initialization pass.
                           ----------------------------
                           !    Initial Parameters    !
                           ! (Angstroms and Degrees)  !
 --------------------------                            --------------------------
 ! Name  Definition              Value          Derivative Info.                !
 --------------------------------------------------------------------------------
 ! R1    R(1,2)                  1.3258         estimate D2E/DX2                !
 ! R2    R(1,4)                  1.0842         estimate D2E/DX2                !
 ! R3    R(1,5)                  1.0842         estimate D2E/DX2                !
 ! R4    R(2,3)                  1.0843         estimate D2E/DX2                !
 ! R5    R(2,6)                  1.0843         estimate D2E/DX2                !
 ! A1    A(2,1,4)              121.6032         estimate D2E/DX2                !
 ! A2    A(2,1,5)              121.5991         estimate D2E/DX2                !
 ! A3    A(4,1,5)              116.7977         estimate D2E/DX2                !
 ! A4    A(1,2,3)              121.5957         estimate D2E/DX2                !
 ! A5    A(1,2,6)              121.5934         estimate D2E/DX2                !
 ! A6    A(3,2,6)              116.8109         estimate D2E/DX2                !
 ! D1    D(4,1,2,3)            179.9906         estimate D2E/DX2                !
 ! D2    D(4,1,2,6)             -0.0002         estimate D2E/DX2                !
 ! D3    D(5,1,2,3)              0.0002         estimate D2E/DX2                !
 ! D4    D(5,1,2,6)           -179.9906         estimate D2E/DX2                !
 --------------------------------------------------------------------------------
 Trust Radius=3.00D-01 FncErr=1.00D-07 GrdErr=1.00D-07 EigMax=2.50D+02 EigMin=1.00D-04
 Number of steps in this run=    100 maximum allowed number of steps=    100.
 GradGradGradGradGradGradGradGradGradGradGradGradGradGradGradGradGradGrad

                          Input orientation:                          
 ---------------------------------------------------------------------
 Center     Atomic      Atomic             Coordinates (Angstroms)
 Number     Number       Type             X           Y           Z
 ---------------------------------------------------------------------
      1          6           0        0.662901    0.000004    0.000019
      2          6           0       -0.662916    0.000000    0.000018
      3          1           0       -1.231002   -0.923572   -0.000056
      4          1           0        1.231058    0.923421   -0.000058
      5          1           0        1.231009   -0.923468   -0.000058
      6          1           0       -1.230974    0.923597   -0.000056
 ---------------------------------------------------------------------
                    Distance matrix (angstroms):
                    1          2          3          4          5
     1  C    0.000000
     2  C    1.325817   0.000000
     3  H    2.107098   1.084300   0.000000
     4  H    1.084205   2.107094   3.077844   0.000000
     5  H    1.084227   2.107070   2.462011   1.846889   0.000000
     6  H    2.107080   1.084307   1.847169   2.462032   3.077825
                    6
     6  H    0.000000
 Stoichiometry    C2H4
 Framework group  C1[X(C2H4)]
 Deg. of freedom    12
 Full point group                 C1      NOp   1
 Largest Abelian subgroup         C1      NOp   1
 Largest concise Abelian subgroup C1      NOp   1
                         Standard orientation:                         
 ---------------------------------------------------------------------
 Center     Atomic      Atomic             Coordinates (Angstroms)
 Number     Number       Type             X           Y           Z
 ---------------------------------------------------------------------
      1          6           0        0.662901   -0.000004   -0.000019
      2          6           0       -0.662916    0.000000   -0.000018
      3          1           0       -1.231002    0.923572    0.000056
      4          1           0        1.231058   -0.923421    0.000058
      5          1           0        1.231009    0.923468    0.000058
      6          1           0       -1.230974   -0.923597    0.000056
 ---------------------------------------------------------------------
 Rotational constants (GHZ):         146.9889280          30.3426586          25.1508203
 Standard basis: CC-pVTZ (5D, 7F)
 There are   130 symmetry adapted cartesian basis functions of A   symmetry.
 There are   116 symmetry adapted basis functions of A   symmetry.
   116 basis functions,   172 primitive gaussians,   130 cartesian basis functions
     8 alpha electrons        8 beta electrons
       nuclear repulsion energy        33.4562210157 Hartrees.
 NAtoms=    6 NActive=    6 NUniq=    6 SFac= 1.00D+00 NAtFMM=   60 NAOKFM=F Big=F
 Integral buffers will be    131072 words long.
 Raffenetti 2 integral format.
 Two-electron integral symmetry is turned on.
 Nuclear repulsion after empirical dispersion term =       33.4545177350 Hartrees.
 One-electron integrals computed using PRISM.
 NBasis=   116 RedAO= T EigKep=  7.09D-04  NBF=   116
 NBsUse=   116 1.00D-06 EigRej= -1.00D+00 NBFU=   116
 ExpMin= 1.03D-01 ExpMax= 8.24D+03 ExpMxC= 2.81D+02 IAcc=3 IRadAn=         5 AccDes= 0.00D+00
 Harris functional with IExCor=  419 and IRadAn=       5 diagonalized for initial guess.
 HarFok:  IExCor=  419 AccDes= 0.00D+00 IRadAn=         5 IDoV= 1 UseB2=F ITyADJ=14
 ICtDFT=  3500011 ScaDFX=  1.000000  1.000000  1.000000  1.000000
 FoFCou: FMM=F IPFlag=           0 FMFlag=      100000 FMFlg1=           0
         NFxFlg=           0 DoJE=T BraDBF=F KetDBF=T FulRan=T
         wScrn=  0.000000 ICntrl=       500 IOpCl=  0 I1Cent=   200000004 NGrid=           0
         NMat0=    1 NMatS0=      1 NMatT0=    0 NMatD0=    1 NMtDS0=    0 NMtDT0=    0
 Petite list used in FoFCou.
 Initial guess <Sx>= 0.0000 <Sy>= 0.0000 <Sz>= 0.0000 <S**2>=-0.0000 S=-0.0000
 Keep R1 and R2 ints in memory in canonical form, NReq=84282916.
 Requested convergence on RMS density matrix=1.00D-08 within 128 cycles.
 Requested convergence on MAX density matrix=1.00D-06.
 Requested convergence on             energy=1.00D-06.
 No special actions if energy rises.
 Integral accuracy reduced to 1.0D-05 until final iterations.
 Initial convergence to 1.0D-05 achieved.  Increase integral accuracy.
 SCF Done:  E(UB2PLYPD3) =  -78.4303922096     A.U. after    9 cycles
            NFock=  9  Conv=0.10D-07     -V/T= 2.0051
 <Sx>= 0.0000 <Sy>= 0.0000 <Sz>= 0.0000 <S**2>=-0.0000 S=-0.0000
 <L.S>=  0.00000000000    
 Annihilation of the first spin contaminant:
 S**2 before annihilation    -0.0000,   after    -0.0000
 DoSCS=T DFT=T ScalE2(SS,OS)=  0.270000  0.270000
 ExpMin= 1.03D-01 ExpMax= 8.24D+03 ExpMxC= 2.81D+02 IAcc=3 IRadAn=         5 AccDes= 0.00D+00
 HarFok:  IExCor=  205 AccDes= 0.00D+00 IRadAn=         5 IDoV=-2 UseB2=F ITyADJ=14
 ICtDFT= 12500011 ScaDFX=  1.000000  1.000000  1.000000  1.000000
 Range of M.O.s used for correlation:     3   116
 NBasis=   116 NAE=     8 NBE=     8 NFC=     2 NFV=     0
 NROrb=    114 NOA=     6 NOB=     6 NVA=   108 NVB=   108

 **** Warning!!: The largest alpha MO coefficient is  0.10299736D+02


 **** Warning!!: The largest beta MO coefficient is  0.10299736D+02

 DoSCS=T DFT=T ScalE2(SS,OS)=  0.270000  0.270000
 Fully direct method using O(ONN) memory.
 JobTyp=2 Pass  1:  I=   3 to   8 NPSUse= 40 ParTrn=T ParDer=T DoDerP=T.
 JobTyp=3 Pass  1:  I=   3 to   8 NPSUse= 40 ParTrn=T ParDer=T DoDerP=T.
 Spin components of T(2) and E(2):
     alpha-alpha T2 =       0.1928304650D-01 E2=     -0.1180549533D-01
     alpha-beta  T2 =       0.1367915056D+00 E2=     -0.8651225395D-01
     beta-beta   T2 =       0.1928304650D-01 E2=     -0.1180549533D-01
 (S**2,0)=  0.00000D+00           (S**2,1)=  0.00000D+00
 E(PUHF)=      -0.78430392210D+02        E(PMP2)=      -0.78540515454D+02
 E2(B2PLYPD3) =    -0.1101232446D+00 E(B2PLYPD3) =    -0.78540515454226D+02
          IDoAtm=111111
          Differentiating once with respect to electric field.
                with respect to dipole field.
          Differentiating once with respect to nuclear coordinates.
 Keep R1 and R2 ints in memory in canonical form, NReq=84287026.
          There are     1 degrees of freedom in the 1st order CPHF.  IDoFFX=0 NUNeed=     1.
 LinEq1:  Iter=  0 NonCon=     1 RMS=8.07D-04 Max=1.36D-02 NDo=     1
 AX will form     1 AO Fock derivatives at one time.
 LinEq1:  Iter=  1 NonCon=     1 RMS=3.33D-04 Max=3.85D-03 NDo=     1
 LinEq1:  Iter=  2 NonCon=     1 RMS=5.80D-05 Max=8.86D-04 NDo=     1
 LinEq1:  Iter=  3 NonCon=     1 RMS=1.03D-05 Max=1.32D-04 NDo=     1
 LinEq1:  Iter=  4 NonCon=     1 RMS=1.20D-06 Max=1.63D-05 NDo=     1
 LinEq1:  Iter=  5 NonCon=     1 RMS=8.16D-08 Max=9.01D-07 NDo=     1
 LinEq1:  Iter=  6 NonCon=     1 RMS=3.94D-08 Max=8.21D-07 NDo=     1
 LinEq1:  Iter=  7 NonCon=     1 RMS=6.07D-09 Max=5.40D-08 NDo=     1
 LinEq1:  Iter=  8 NonCon=     1 RMS=4.86D-10 Max=4.19D-09 NDo=     1
 LinEq1:  Iter=  9 NonCon=     0 RMS=3.45D-11 Max=5.02D-10 NDo=     1
 Linear equations converged to 1.000D-10 1.000D-09 after     9 iterations.
 End of Minotr F.D. properties file   721 does not exist.
 End of Minotr F.D. properties file   722 does not exist.
 End of Minotr F.D. properties file   788 does not exist.

 **********************************************************************

            Population analysis using the SCF Density.

 **********************************************************************

 Orbital symmetries:
 Alpha Orbitals:
       Occupied  (A) (A) (A) (A) (A) (A) (A) (A)
       Virtual   (A) (A) (A) (A) (A) (A) (A) (A) (A) (A) (A) (A)
                 (A) (A) (A) (A) (A) (A) (A) (A) (A) (A) (A) (A)
                 (A) (A) (A) (A) (A) (A) (A) (A) (A) (A) (A) (A)
                 (A) (A) (A) (A) (A) (A) (A) (A) (A) (A) (A) (A)
                 (A) (A) (A) (A) (A) (A) (A) (A) (A) (A) (A) (A)
                 (A) (A) (A) (A) (A) (A) (A) (A) (A) (A) (A) (A)
                 (A) (A) (A) (A) (A) (A) (A) (A) (A) (A) (A) (A)
                 (A) (A) (A) (A) (A) (A) (A) (A) (A) (A) (A) (A)
                 (A) (A) (A) (A) (A) (A) (A) (A) (A) (A) (A) (A)
 Beta  Orbitals:
       Occupied  (A) (A) (A) (A) (A) (A) (A) (A)
       Virtual   (A) (A) (A) (A) (A) (A) (A) (A) (A) (A) (A) (A)
                 (A) (A) (A) (A) (A) (A) (A) (A) (A) (A) (A) (A)
                 (A) (A) (A) (A) (A) (A) (A) (A) (A) (A) (A) (A)
                 (A) (A) (A) (A) (A) (A) (A) (A) (A) (A) (A) (A)
                 (A) (A) (A) (A) (A) (A) (A) (A) (A) (A) (A) (A)
                 (A) (A) (A) (A) (A) (A) (A) (A) (A) (A) (A) (A)
                 (A) (A) (A) (A) (A) (A) (A) (A) (A) (A) (A) (A)
                 (A) (A) (A) (A) (A) (A) (A) (A) (A) (A) (A) (A)
                 (A) (A) (A) (A) (A) (A) (A) (A) (A) (A) (A) (A)
 The electronic state is 1-A.
 Alpha  occ. eigenvalues --  -10.61537 -10.61407  -0.87705  -0.66930  -0.54398
 Alpha  occ. eigenvalues --   -0.49286  -0.41915  -0.32122
 Alpha virt. eigenvalues --    0.06315   0.09820   0.12679   0.12796   0.18699
 Alpha virt. eigenvalues --    0.29554   0.29605   0.35218   0.35543   0.39331
 Alpha virt. eigenvalues --    0.45842   0.48766   0.49869   0.53805   0.54790
 Alpha virt. eigenvalues --    0.57383   0.59330   0.67809   0.71871   0.74398
 Alpha virt. eigenvalues --    0.76246   0.87479   0.96879   0.98545   1.06305
 Alpha virt. eigenvalues --    1.09632   1.10219   1.11038   1.16767   1.19493
 Alpha virt. eigenvalues --    1.25464   1.34266   1.34682   1.42752   1.44151
 Alpha virt. eigenvalues --    1.48312   1.48683   1.65275   1.66423   1.76515
 Alpha virt. eigenvalues --    2.14092   2.15117   2.33892   2.36769   2.42460
 Alpha virt. eigenvalues --    2.45352   2.51959   2.55090   2.71243   2.75144
 Alpha virt. eigenvalues --    2.87453   2.90524   2.91160   2.92014   2.92103
 Alpha virt. eigenvalues --    2.95321   2.97298   3.01221   3.04435   3.15620
 Alpha virt. eigenvalues --    3.20777   3.20940   3.23273   3.29026   3.31068
 Alpha virt. eigenvalues --    3.33502   3.38437   3.43522   3.52348   3.59379
 Alpha virt. eigenvalues --    3.72516   3.73367   3.76509   3.82735   3.83805
 Alpha virt. eigenvalues --    3.85325   3.93539   3.99831   4.02125   4.03343
 Alpha virt. eigenvalues --    4.08243   4.13879   4.17084   4.20650   4.26636
 Alpha virt. eigenvalues --    4.36525   4.44292   4.62502   4.66133   4.71330
 Alpha virt. eigenvalues --    4.75586   4.79985   4.89289   4.98331   5.00989
 Alpha virt. eigenvalues --    5.15706   5.18842   5.22871   5.31153   5.32436
 Alpha virt. eigenvalues --    5.42499   5.55155   6.02603   6.11118   6.15672
 Alpha virt. eigenvalues --    6.60175  11.38992  14.36492
  Beta  occ. eigenvalues --  -10.61537 -10.61407  -0.87705  -0.66930  -0.54398
  Beta  occ. eigenvalues --   -0.49286  -0.41915  -0.32122
  Beta virt. eigenvalues --    0.06315   0.09820   0.12679   0.12796   0.18699
  Beta virt. eigenvalues --    0.29554   0.29605   0.35218   0.35543   0.39331
  Beta virt. eigenvalues --    0.45842   0.48766   0.49869   0.53805   0.54790
  Beta virt. eigenvalues --    0.57383   0.59330   0.67809   0.71871   0.74398
  Beta virt. eigenvalues --    0.76246   0.87479   0.96879   0.98545   1.06305
  Beta virt. eigenvalues --    1.09632   1.10219   1.11038   1.16767   1.19493
  Beta virt. eigenvalues --    1.25464   1.34266   1.34682   1.42752   1.44151
  Beta virt. eigenvalues --    1.48312   1.48683   1.65275   1.66423   1.76515
  Beta virt. eigenvalues --    2.14092   2.15117   2.33892   2.36769   2.42460
  Beta virt. eigenvalues --    2.45352   2.51959   2.55090   2.71243   2.75144
  Beta virt. eigenvalues --    2.87453   2.90524   2.91160   2.92014   2.92103
  Beta virt. eigenvalues --    2.95321   2.97298   3.01221   3.04435   3.15620
  Beta virt. eigenvalues --    3.20777   3.20940   3.23273   3.29026   3.31068
  Beta virt. eigenvalues --    3.33502   3.38437   3.43522   3.52348   3.59379
  Beta virt. eigenvalues --    3.72516   3.73367   3.76509   3.82735   3.83805
  Beta virt. eigenvalues --    3.85325   3.93539   3.99831   4.02125   4.03343
  Beta virt. eigenvalues --    4.08243   4.13879   4.17084   4.20650   4.26636
  Beta virt. eigenvalues --    4.36525   4.44292   4.62502   4.66133   4.71330
  Beta virt. eigenvalues --    4.75586   4.79985   4.89289   4.98331   5.00989
  Beta virt. eigenvalues --    5.15706   5.18842   5.22871   5.31153   5.32436
  Beta virt. eigenvalues --    5.42499   5.55155   6.02603   6.11118   6.15672
  Beta virt. eigenvalues --    6.60175  11.38992  14.36492
          Condensed to atoms (all electrons):
               1          2          3          4          5          6
     1  C    4.888729   0.625900  -0.044170   0.414143   0.414140  -0.044173
     2  C    0.625900   4.888704   0.414140  -0.044165  -0.044168   0.414137
     3  H   -0.044170   0.414140   0.539952   0.006194  -0.007899  -0.035490
     4  H    0.414143  -0.044165   0.006194   0.539934  -0.035506  -0.007899
     5  H    0.414140  -0.044168  -0.007899  -0.035506   0.539957   0.006195
     6  H   -0.044173   0.414137  -0.035490  -0.007899   0.006195   0.539965
          Atomic-Atomic Spin Densities.
               1          2          3          4          5          6
     1  C   -0.000000  -0.000000  -0.000000   0.000000   0.000000  -0.000000
     2  C   -0.000000   0.000000   0.000000  -0.000000  -0.000000   0.000000
     3  H   -0.000000   0.000000  -0.000000  -0.000000   0.000000   0.000000
     4  H    0.000000  -0.000000  -0.000000   0.000000   0.000000  -0.000000
     5  H    0.000000  -0.000000   0.000000   0.000000  -0.000000  -0.000000
     6  H   -0.000000   0.000000   0.000000  -0.000000  -0.000000  -0.000000
 Mulliken charges and spin densities:
               1          2
     1  C   -0.254569  -0.000000
     2  C   -0.254548   0.000000
     3  H    0.127273   0.000000
     4  H    0.127298   0.000000
     5  H    0.127282   0.000000
     6  H    0.127264   0.000000
 Sum of Mulliken charges =  -0.00000  -0.00000
 Mulliken charges and spin densities with hydrogens summed into heavy atoms:
               1          2
     1  C    0.000010  -0.000000
     2  C   -0.000010   0.000000
 Electronic spatial extent (au):  <R**2>=             82.6218
 Charge=             -0.0000 electrons
 Dipole moment (field-independent basis, Debye):
    X=              0.0001    Y=             -0.0000    Z=              0.0002  Tot=              0.0002
 Quadrupole moment (field-independent basis, Debye-Ang):
   XX=            -12.2565   YY=            -12.3709   ZZ=            -15.6716
   XY=             -0.0001   XZ=              0.0000   YZ=              0.0000
 Traceless Quadrupole moment (field-independent basis, Debye-Ang):
   XX=              1.1765   YY=              1.0621   ZZ=             -2.2386
   XY=             -0.0001   XZ=              0.0000   YZ=              0.0000
 Octapole moment (field-independent basis, Debye-Ang**2):
  XXX=              0.0015  YYY=              0.0000  ZZZ=              0.0004  XYY=             -0.0004
  XXY=             -0.0001  XXZ=              0.0005  XZZ=              0.0003  YZZ=             -0.0000
  YYZ=              0.0003  XYZ=             -0.0000
 Hexadecapole moment (field-independent basis, Debye-Ang**3):
 XXXX=            -68.4679 YYYY=            -27.2430 ZZZZ=            -18.7807 XXXY=             -0.0006
 XXXZ=              0.0000 YYYX=             -0.0001 YYYZ=              0.0000 ZZZX=              0.0000
 ZZZY=             -0.0000 XXYY=            -13.3423 XXZZ=            -15.4243 YYZZ=             -8.4101
 XXYZ=             -0.0000 YYXZ=              0.0000 ZZXY=             -0.0001
 N-N= 3.345451773495D+01 E-N=-2.484606358686D+02  KE= 7.803602475694D+01
                          Isotropic Fermi Contact Couplings
        Atom                 a.u.       MegaHertz       Gauss      10(-4) cm-1
     1  C(13)              0.00000       0.00000       0.00000       0.00000
     2  C(13)             -0.00000      -0.00000      -0.00000      -0.00000
     3  H(1)               0.00000       0.00000       0.00000       0.00000
     4  H(1)               0.00000       0.00000       0.00000       0.00000
     5  H(1)               0.00000       0.00000       0.00000       0.00000
     6  H(1)               0.00000       0.00000       0.00000       0.00000
 --------------------------------------------------------
       Center         ----  Spin Dipole Couplings  ----
                      3XX-RR        3YY-RR        3ZZ-RR
 --------------------------------------------------------
     1   Atom        0.000000      0.000000      0.000000
     2   Atom        0.000000      0.000000      0.000000
     3   Atom        0.000000      0.000000      0.000000
     4   Atom        0.000000      0.000000      0.000000
     5   Atom        0.000000      0.000000      0.000000
     6   Atom        0.000000      0.000000      0.000000
 --------------------------------------------------------
                        XY            XZ            YZ
 --------------------------------------------------------
     1   Atom        0.000000      0.000000      0.000000
     2   Atom        0.000000      0.000000      0.000000
     3   Atom        0.000000      0.000000      0.000000
     4   Atom        0.000000      0.000000      0.000000
     5   Atom        0.000000      0.000000      0.000000
     6   Atom        0.000000      0.000000      0.000000
 --------------------------------------------------------


 ---------------------------------------------------------------------------------
              Anisotropic Spin Dipole Couplings in Principal Axis System
 ---------------------------------------------------------------------------------

       Atom             a.u.   MegaHertz   Gauss  10(-4) cm-1        Axes

              Baa     0.0000     0.000     0.000     0.000  1.0000  0.0000  0.0000
     1 C(13)  Bbb     0.0000     0.000     0.000     0.000 -0.0000  1.0000  0.0000
              Bcc     0.0000     0.000     0.000     0.000  0.0000  0.0000  1.0000
 
              Baa     0.0000     0.000     0.000     0.000  1.0000  0.0000  0.0000
     2 C(13)  Bbb     0.0000     0.000     0.000     0.000 -0.0000  1.0000  0.0000
              Bcc     0.0000     0.000     0.000     0.000  0.0000  0.0000  1.0000
 
              Baa     0.0000     0.000     0.000     0.000  1.0000  0.0000  0.0000
     3 H(1)   Bbb     0.0000     0.000     0.000     0.000 -0.0000  1.0000  0.0000
              Bcc     0.0000     0.000     0.000     0.000  0.0000  0.0000  1.0000
 
              Baa     0.0000     0.000     0.000     0.000  1.0000  0.0000  0.0000
     4 H(1)   Bbb     0.0000     0.000     0.000     0.000 -0.0000  1.0000  0.0000
              Bcc     0.0000     0.000     0.000     0.000  0.0000  0.0000  1.0000
 
              Baa     0.0000     0.000     0.000     0.000  1.0000  0.0000  0.0000
     5 H(1)   Bbb     0.0000     0.000     0.000     0.000 -0.0000  1.0000  0.0000
              Bcc     0.0000     0.000     0.000     0.000  0.0000  0.0000  1.0000
 
              Baa     0.0000     0.000     0.000     0.000  1.0000  0.0000  0.0000
     6 H(1)   Bbb     0.0000     0.000     0.000     0.000 -0.0000  1.0000  0.0000
              Bcc     0.0000     0.000     0.000     0.000  0.0000  0.0000  1.0000
 

 ---------------------------------------------------------------------------------

 Calling FoFJK, ICntrl=  10002127 FMM=F ISym2X=0 I1Cent= 0 IOpClX= 1 NMat=1 NMatS=1 NMatT=0.
 ***** Axes restored to original set *****
 -------------------------------------------------------------------
 Center     Atomic                   Forces (Hartrees/Bohr)
 Number     Number              X              Y              Z
 -------------------------------------------------------------------
      1        6           0.003971547   -0.000019111   -0.000009603
      2        6          -0.004002253    0.000010239   -0.000008976
      3        1           0.001246352    0.002100331    0.000004559
      4        1          -0.001229191   -0.002033031    0.000004730
      5        1          -0.001231874    0.002046133    0.000004731
      6        1           0.001245419   -0.002104561    0.000004559
 -------------------------------------------------------------------
 Cartesian Forces:  Max     0.004002253 RMS     0.001749369

 GradGradGradGradGradGradGradGradGradGradGradGradGradGradGradGradGradGrad
 Berny optimization.
 FormGI is forming the generalized inverse of G from B-inverse, IUseBI=4.
 Internal  Forces:  Max     0.002445098 RMS     0.001305800
 Search for a local minimum.
 Step number   1 out of a maximum of  100
 All quantities printed in internal units (Hartrees-Bohrs-Radians)
 Mixed Optimization -- RFO/linear search
 Second derivative matrix not updated -- first step.
 The second derivative matrix:
                          R1        R2        R3        R4        R5
           R1           0.60505
           R2           0.00000   0.35491
           R3           0.00000   0.00000   0.35488
           R4           0.00000   0.00000   0.00000   0.35480
           R5           0.00000   0.00000   0.00000   0.00000   0.35479
           A1           0.00000   0.00000   0.00000   0.00000   0.00000
           A2           0.00000   0.00000   0.00000   0.00000   0.00000
           A3           0.00000   0.00000   0.00000   0.00000   0.00000
           A4           0.00000   0.00000   0.00000   0.00000   0.00000
           A5           0.00000   0.00000   0.00000   0.00000   0.00000
           A6           0.00000   0.00000   0.00000   0.00000   0.00000
           D1           0.00000   0.00000   0.00000   0.00000   0.00000
           D2           0.00000   0.00000   0.00000   0.00000   0.00000
           D3           0.00000   0.00000   0.00000   0.00000   0.00000
           D4           0.00000   0.00000   0.00000   0.00000   0.00000
                          A1        A2        A3        A4        A5
           A1           0.16000
           A2           0.00000   0.16000
           A3           0.00000   0.00000   0.16000
           A4           0.00000   0.00000   0.00000   0.16000
           A5           0.00000   0.00000   0.00000   0.00000   0.16000
           A6           0.00000   0.00000   0.00000   0.00000   0.00000
           D1           0.00000   0.00000   0.00000   0.00000   0.00000
           D2           0.00000   0.00000   0.00000   0.00000   0.00000
           D3           0.00000   0.00000   0.00000   0.00000   0.00000
           D4           0.00000   0.00000   0.00000   0.00000   0.00000
                          A6        D1        D2        D3        D4
           A6           0.16000
           D1           0.00000   0.03070
           D2           0.00000   0.00000   0.03070
           D3           0.00000   0.00000   0.00000   0.03070
           D4           0.00000   0.00000   0.00000   0.00000   0.03070
 ITU=  0
     Eigenvalues ---    0.03070   0.03070   0.03070   0.16000   0.16000
     Eigenvalues ---    0.16000   0.16000   0.35479   0.35480   0.35488
     Eigenvalues ---    0.35491   0.60505
 RFO step:  Lambda=-6.94301052D-05 EMin= 3.07005468D-02
 Linear search not attempted -- first point.
 Iteration  1 RMS(Cart)=  0.00327936 RMS(Int)=  0.00000052
 Iteration  2 RMS(Cart)=  0.00000053 RMS(Int)=  0.00000001
 Variable       Old X    -DE/DX   Delta X   Delta X   Delta X     New X
                                 (Linear)    (Quad)   (Total)
    R1        2.50543   0.00151   0.00000   0.00250   0.00250   2.50793
    R2        2.04885  -0.00238   0.00000  -0.00669  -0.00669   2.04216
    R3        2.04889  -0.00239   0.00000  -0.00673  -0.00673   2.04216
    R4        2.04903  -0.00244   0.00000  -0.00688  -0.00688   2.04215
    R5        2.04904  -0.00245   0.00000  -0.00689  -0.00689   2.04215
    A1        2.12238   0.00001   0.00000   0.00006   0.00006   2.12244
    A2        2.12230   0.00002   0.00000   0.00012   0.00012   2.12242
    A3        2.03850  -0.00003   0.00000  -0.00018  -0.00018   2.03833
    A4        2.12225   0.00002   0.00000   0.00015   0.00015   2.12240
    A5        2.12221   0.00003   0.00000   0.00019   0.00019   2.12240
    A6        2.03873  -0.00006   0.00000  -0.00034  -0.00034   2.03839
    D1        3.14143   0.00001   0.00000   0.00025   0.00025  -3.14150
    D2       -0.00000   0.00000   0.00000   0.00000   0.00000   0.00000
    D3        0.00000  -0.00000   0.00000  -0.00000  -0.00000  -0.00000
    D4       -3.14143  -0.00001   0.00000  -0.00025  -0.00025   3.14150
         Item               Value     Threshold  Converged?
 Maximum Force            0.002445     0.000450     NO 
 RMS     Force            0.001306     0.000300     NO 
 Maximum Displacement     0.006054     0.001800     NO 
 RMS     Displacement     0.003279     0.001200     NO 
 Predicted change in Energy=-3.472170D-05
 GradGradGradGradGradGradGradGradGradGradGradGradGradGradGradGradGradGrad

                          Input orientation:                          
 ---------------------------------------------------------------------
 Center     Atomic      Atomic             Coordinates (Angstroms)
 Number     Number       Type             X           Y           Z
 ---------------------------------------------------------------------
      1          6           0        0.663571   -0.000010   -0.000060
      2          6           0       -0.663567    0.000006   -0.000059
      3          1           0       -1.229900   -0.920369   -0.000017
      4          1           0        1.229941    0.920348   -0.000019
      5          1           0        1.229907   -0.920392   -0.000019
      6          1           0       -1.229876    0.920398   -0.000017
 ---------------------------------------------------------------------
                    Distance matrix (angstroms):
                    1          2          3          4          5
     1  C    0.000000
     2  C    1.327138   0.000000
     3  H    2.105301   1.080659   0.000000
     4  H    1.080664   2.105327   3.072305   0.000000
     5  H    1.080666   2.105321   2.459807   1.840740   0.000000
     6  H    2.105301   1.080661   1.840767   2.459817   3.072302
                    6
     6  H    0.000000
 Stoichiometry    C2H4
 Framework group  C1[X(C2H4)]
 Deg. of freedom    12
 Full point group                 C1      NOp   1
 Largest Abelian subgroup         C1      NOp   1
 Largest concise Abelian subgroup C1      NOp   1
                         Standard orientation:                         
 ---------------------------------------------------------------------
 Center     Atomic      Atomic             Coordinates (Angstroms)
 Number     Number       Type             X           Y           Z
 ---------------------------------------------------------------------
      1          6           0        0.663565   -0.000001    0.000011
      2          6           0       -0.663573   -0.000000    0.000010
      3          1           0       -1.229894    0.920382   -0.000032
      4          1           0        1.229924   -0.920366   -0.000031
      5          1           0        1.229912    0.920374   -0.000031
      6          1           0       -1.229894   -0.920385   -0.000032
 ---------------------------------------------------------------------
 Rotational constants (GHZ):         147.9928550          30.3243310          25.1674246
 Standard basis: CC-pVTZ (5D, 7F)
 There are   130 symmetry adapted cartesian basis functions of A   symmetry.
 There are   116 symmetry adapted basis functions of A   symmetry.
   116 basis functions,   172 primitive gaussians,   130 cartesian basis functions
     8 alpha electrons        8 beta electrons
       nuclear repulsion energy        33.4889461259 Hartrees.
 NAtoms=    6 NActive=    6 NUniq=    6 SFac= 1.00D+00 NAtFMM=   60 NAOKFM=F Big=F
 Integral buffers will be    131072 words long.
 Raffenetti 2 integral format.
 Two-electron integral symmetry is turned on.
 Nuclear repulsion after empirical dispersion term =       33.4872423842 Hartrees.
 One-electron integrals computed using PRISM.
 NBasis=   116 RedAO= T EigKep=  7.12D-04  NBF=   116
 NBsUse=   116 1.00D-06 EigRej= -1.00D+00 NBFU=   116
 Initial guess from the checkpoint file:  "/localscratch/339542/Gau-54113.chk"
 B after Tr=    -0.000000   -0.000000   -0.000000
         Rot=    1.000000    0.000000    0.000000    0.000004 Ang=   0.00 deg.
 Initial guess <Sx>= 0.0000 <Sy>= 0.0000 <Sz>= 0.0000 <S**2>=-0.0000 S=-0.0000
 Keep R1 and R2 ints in memory in canonical form, NReq=84282916.
 Requested convergence on RMS density matrix=1.00D-08 within 128 cycles.
 Requested convergence on MAX density matrix=1.00D-06.
 Requested convergence on             energy=1.00D-06.
 No special actions if energy rises.
 SCF Done:  E(UB2PLYPD3) =  -78.4304678203     A.U. after    7 cycles
            NFock=  7  Conv=0.58D-08     -V/T= 2.0048
 <Sx>= 0.0000 <Sy>= 0.0000 <Sz>= 0.0000 <S**2>=-0.0000 S=-0.0000
 <L.S>=  0.00000000000    
 Annihilation of the first spin contaminant:
 S**2 before annihilation    -0.0000,   after     0.0000
 DoSCS=T DFT=T ScalE2(SS,OS)=  0.270000  0.270000
 ExpMin= 1.03D-01 ExpMax= 8.24D+03 ExpMxC= 2.81D+02 IAcc=3 IRadAn=         5 AccDes= 0.00D+00
 HarFok:  IExCor=  205 AccDes= 0.00D+00 IRadAn=         5 IDoV=-2 UseB2=F ITyADJ=14
 ICtDFT= 12500011 ScaDFX=  1.000000  1.000000  1.000000  1.000000
 Range of M.O.s used for correlation:     3   116
 NBasis=   116 NAE=     8 NBE=     8 NFC=     2 NFV=     0
 NROrb=    114 NOA=     6 NOB=     6 NVA=   108 NVB=   108

 **** Warning!!: The largest alpha MO coefficient is  0.10271697D+02


 **** Warning!!: The largest beta MO coefficient is  0.10271697D+02

 DoSCS=T DFT=T ScalE2(SS,OS)=  0.270000  0.270000
 Fully direct method using O(ONN) memory.
 JobTyp=2 Pass  1:  I=   3 to   8 NPSUse= 40 ParTrn=T ParDer=T DoDerP=T.
 JobTyp=3 Pass  1:  I=   3 to   8 NPSUse= 40 ParTrn=T ParDer=T DoDerP=T.
 Spin components of T(2) and E(2):
     alpha-alpha T2 =       0.1925997198D-01 E2=     -0.1180348939D-01
     alpha-beta  T2 =       0.1365656298D+00 E2=     -0.8647519946D-01
     beta-beta   T2 =       0.1925997198D-01 E2=     -0.1180348939D-01
 (S**2,0)=  0.00000D+00           (S**2,1)=  0.00000D+00
 E(PUHF)=      -0.78430467820D+02        E(PMP2)=      -0.78540549998D+02
 E2(B2PLYPD3) =    -0.1100821782D+00 E(B2PLYPD3) =    -0.78540549998490D+02
          IDoAtm=111111
          Differentiating once with respect to electric field.
                with respect to dipole field.
          Differentiating once with respect to nuclear coordinates.
 Keep R1 and R2 ints in memory in canonical form, NReq=84287026.
          There are     1 degrees of freedom in the 1st order CPHF.  IDoFFX=0 NUNeed=     1.
 LinEq1:  Iter=  0 NonCon=     1 RMS=8.08D-04 Max=1.37D-02 NDo=     1
 AX will form     1 AO Fock derivatives at one time.
 LinEq1:  Iter=  1 NonCon=     1 RMS=3.32D-04 Max=3.83D-03 NDo=     1
 LinEq1:  Iter=  2 NonCon=     1 RMS=5.78D-05 Max=8.86D-04 NDo=     1
 LinEq1:  Iter=  3 NonCon=     1 RMS=1.03D-05 Max=1.32D-04 NDo=     1
 LinEq1:  Iter=  4 NonCon=     1 RMS=1.19D-06 Max=1.64D-05 NDo=     1
 LinEq1:  Iter=  5 NonCon=     1 RMS=7.41D-08 Max=8.85D-07 NDo=     1
 LinEq1:  Iter=  6 NonCon=     1 RMS=5.86D-09 Max=7.20D-08 NDo=     1
 LinEq1:  Iter=  7 NonCon=     1 RMS=3.26D-09 Max=6.33D-08 NDo=     1
 LinEq1:  Iter=  8 NonCon=     1 RMS=4.80D-10 Max=4.15D-09 NDo=     1
 LinEq1:  Iter=  9 NonCon=     0 RMS=3.42D-11 Max=5.01D-10 NDo=     1
 Linear equations converged to 1.000D-10 1.000D-09 after     9 iterations.
 End of Minotr F.D. properties file   721 does not exist.
 End of Minotr F.D. properties file   722 does not exist.
 End of Minotr F.D. properties file   788 does not exist.
 Calling FoFJK, ICntrl=  10002127 FMM=F ISym2X=0 I1Cent= 0 IOpClX= 1 NMat=1 NMatS=1 NMatT=0.
 ***** Axes restored to original set *****
 -------------------------------------------------------------------
 Center     Atomic                   Forces (Hartrees/Bohr)
 Number     Number              X              Y              Z
 -------------------------------------------------------------------
      1        6           0.000218854   -0.000002428    0.000005023
      2        6          -0.000207643    0.000002029    0.000004941
      3        1           0.000058751   -0.000068671   -0.000002480
      4        1          -0.000064595    0.000068874   -0.000002502
      5        1          -0.000064487   -0.000067376   -0.000002502
      6        1           0.000059121    0.000067572   -0.000002480
 -------------------------------------------------------------------
 Cartesian Forces:  Max     0.000218854 RMS     0.000083313

 GradGradGradGradGradGradGradGradGradGradGradGradGradGradGradGradGradGrad
 Berny optimization.
 Using GEDIIS/GDIIS optimizer.
 FormGI is forming the generalized inverse of G from B-inverse, IUseBI=4.
 Internal  Forces:  Max     0.000123443 RMS     0.000060062
 Search for a local minimum.
 Step number   2 out of a maximum of  100
 All quantities printed in internal units (Hartrees-Bohrs-Radians)
 Mixed Optimization -- En-DIIS/RFO-DIIS
 Update second derivatives using D2CorX and points    1    2
 DE= -3.45D-05 DEPred=-3.47D-05 R= 9.95D-01
 TightC=F SS=  1.41D+00  RLast= 1.38D-02 DXNew= 5.0454D-01 4.1512D-02
 Trust test= 9.95D-01 RLast= 1.38D-02 DXMaxT set to 3.00D-01
 The second derivative matrix:
                          R1        R2        R3        R4        R5
           R1           0.60102
           R2           0.00296   0.35596
           R3           0.00300   0.00101   0.35585
           R4           0.00300   0.00115   0.00111   0.35606
           R5           0.00302   0.00111   0.00107   0.00122   0.35597
           A1           0.00126  -0.00215  -0.00216  -0.00221  -0.00221
           A2           0.00121  -0.00209  -0.00210  -0.00215  -0.00215
           A3          -0.00246   0.00424   0.00426   0.00436   0.00436
           A4           0.00116  -0.00202  -0.00203  -0.00208  -0.00208
           A5           0.00114  -0.00200  -0.00201  -0.00206  -0.00206
           A6          -0.00229   0.00402   0.00403   0.00413   0.00414
           D1           0.00008  -0.00015  -0.00015  -0.00015  -0.00015
           D2           0.00000  -0.00000  -0.00000  -0.00000  -0.00000
           D3          -0.00000   0.00000   0.00000   0.00000   0.00000
           D4          -0.00008   0.00015   0.00015   0.00015   0.00015
                          A1        A2        A3        A4        A5
           A1           0.16007
           A2           0.00008   0.16009
           A3          -0.00015  -0.00016   0.16032
           A4           0.00008   0.00009  -0.00017   0.16009
           A5           0.00009   0.00009  -0.00018   0.00009   0.16010
           A6          -0.00017  -0.00018   0.00035  -0.00019  -0.00019
           D1           0.00001   0.00001  -0.00002   0.00001   0.00001
           D2           0.00000   0.00000  -0.00000   0.00000   0.00000
           D3          -0.00000  -0.00000   0.00000  -0.00000  -0.00000
           D4          -0.00001  -0.00001   0.00002  -0.00001  -0.00001
                          A6        D1        D2        D3        D4
           A6           0.16038
           D1          -0.00002   0.03070
           D2          -0.00000   0.00000   0.03070
           D3           0.00000  -0.00000  -0.00000   0.03070
           D4           0.00002  -0.00000  -0.00000   0.00000   0.03070
 ITU=  1  0
 Use linear search instead of GDIIS.
     Eigenvalues ---    0.03070   0.03070   0.03070   0.15989   0.16000
     Eigenvalues ---    0.16000   0.16005   0.35479   0.35484   0.35490
     Eigenvalues ---    0.36023   0.60120
 RFO step:  Lambda=-2.83725016D-07 EMin= 3.07005468D-02
 Quartic linear search produced a step of -0.00806.
 Iteration  1 RMS(Cart)=  0.00036334 RMS(Int)=  0.00000008
 Iteration  2 RMS(Cart)=  0.00000008 RMS(Int)=  0.00000000
 Variable       Old X    -DE/DX   Delta X   Delta X   Delta X     New X
                                 (Linear)    (Quad)   (Total)
    R1        2.50793   0.00009  -0.00002   0.00018   0.00016   2.50808
    R2        2.04216   0.00002   0.00005  -0.00001   0.00004   2.04220
    R3        2.04216   0.00002   0.00005  -0.00002   0.00004   2.04220
    R4        2.04215   0.00003   0.00006  -0.00001   0.00005   2.04220
    R5        2.04215   0.00003   0.00006  -0.00001   0.00005   2.04220
    A1        2.12244  -0.00006  -0.00000  -0.00039  -0.00039   2.12205
    A2        2.12242  -0.00006  -0.00000  -0.00038  -0.00038   2.12204
    A3        2.03833   0.00012   0.00000   0.00076   0.00076   2.03909
    A4        2.12240  -0.00006  -0.00000  -0.00036  -0.00036   2.12203
    A5        2.12240  -0.00006  -0.00000  -0.00036  -0.00036   2.12204
    A6        2.03839   0.00012   0.00000   0.00072   0.00072   2.03911
    D1       -3.14150  -0.00000  -0.00000  -0.00014  -0.00014   3.14154
    D2        0.00000  -0.00000  -0.00000  -0.00000  -0.00000  -0.00000
    D3       -0.00000   0.00000   0.00000   0.00000   0.00000   0.00000
    D4        3.14150   0.00000   0.00000   0.00014   0.00014  -3.14154
         Item               Value     Threshold  Converged?
 Maximum Force            0.000123     0.000450     YES
 RMS     Force            0.000060     0.000300     YES
 Maximum Displacement     0.000557     0.001800     YES
 RMS     Displacement     0.000363     0.001200     YES
 Predicted change in Energy=-1.441747D-07
 Optimization completed.
    -- Stationary point found.
                           ----------------------------
                           !   Optimized Parameters   !
                           ! (Angstroms and Degrees)  !
 --------------------------                            --------------------------
 ! Name  Definition              Value          Derivative Info.                !
 --------------------------------------------------------------------------------
 ! R1    R(1,2)                  1.3271         -DE/DX =    0.0001              !
 ! R2    R(1,4)                  1.0807         -DE/DX =    0.0                 !
 ! R3    R(1,5)                  1.0807         -DE/DX =    0.0                 !
 ! R4    R(2,3)                  1.0807         -DE/DX =    0.0                 !
 ! R5    R(2,6)                  1.0807         -DE/DX =    0.0                 !
 ! A1    A(2,1,4)              121.6066         -DE/DX =   -0.0001              !
 ! A2    A(2,1,5)              121.6058         -DE/DX =   -0.0001              !
 ! A3    A(4,1,5)              116.7876         -DE/DX =    0.0001              !
 ! A4    A(1,2,3)              121.6045         -DE/DX =   -0.0001              !
 ! A5    A(1,2,6)              121.6043         -DE/DX =   -0.0001              !
 ! A6    A(3,2,6)              116.7912         -DE/DX =    0.0001              !
 ! D1    D(4,1,2,3)            180.0052         -DE/DX =    0.0                 !
 ! D2    D(4,1,2,6)              0.0            -DE/DX =    0.0                 !
 ! D3    D(5,1,2,3)              0.0            -DE/DX =    0.0                 !
 ! D4    D(5,1,2,6)           -180.0052         -DE/DX =    0.0                 !
 --------------------------------------------------------------------------------
 GradGradGradGradGradGradGradGradGradGradGradGradGradGradGradGradGradGrad

                          Input orientation:                          
 ---------------------------------------------------------------------
 Center     Atomic      Atomic             Coordinates (Angstroms)
 Number     Number       Type             X           Y           Z
 ---------------------------------------------------------------------
      1          6           0        0.663571   -0.000010   -0.000060
      2          6           0       -0.663567    0.000006   -0.000059
      3          1           0       -1.229900   -0.920369   -0.000017
      4          1           0        1.229941    0.920348   -0.000019
      5          1           0        1.229907   -0.920392   -0.000019
      6          1           0       -1.229876    0.920398   -0.000017
 ---------------------------------------------------------------------
                    Distance matrix (angstroms):
                    1          2          3          4          5
     1  C    0.000000
     2  C    1.327138   0.000000
     3  H    2.105301   1.080659   0.000000
     4  H    1.080664   2.105327   3.072305   0.000000
     5  H    1.080666   2.105321   2.459807   1.840740   0.000000
     6  H    2.105301   1.080661   1.840767   2.459817   3.072302
                    6
     6  H    0.000000
 Stoichiometry    C2H4
 Framework group  C1[X(C2H4)]
 Deg. of freedom    12
 Full point group                 C1      NOp   1
 Largest Abelian subgroup         C1      NOp   1
 Largest concise Abelian subgroup C1      NOp   1
                         Standard orientation:                         
 ---------------------------------------------------------------------
 Center     Atomic      Atomic             Coordinates (Angstroms)
 Number     Number       Type             X           Y           Z
 ---------------------------------------------------------------------
      1          6           0        0.663565   -0.000001    0.000011
      2          6           0       -0.663573   -0.000000    0.000010
      3          1           0       -1.229894    0.920382   -0.000032
      4          1           0        1.229924   -0.920366   -0.000031
      5          1           0        1.229912    0.920374   -0.000031
      6          1           0       -1.229894   -0.920385   -0.000032
 ---------------------------------------------------------------------
 Rotational constants (GHZ):         147.9928550          30.3243310          25.1674246

 **********************************************************************

            Population analysis using the SCF Density.

 **********************************************************************

 Orbital symmetries:
 Alpha Orbitals:
       Occupied  (A) (A) (A) (A) (A) (A) (A) (A)
       Virtual   (A) (A) (A) (A) (A) (A) (A) (A) (A) (A) (A) (A)
                 (A) (A) (A) (A) (A) (A) (A) (A) (A) (A) (A) (A)
                 (A) (A) (A) (A) (A) (A) (A) (A) (A) (A) (A) (A)
                 (A) (A) (A) (A) (A) (A) (A) (A) (A) (A) (A) (A)
                 (A) (A) (A) (A) (A) (A) (A) (A) (A) (A) (A) (A)
                 (A) (A) (A) (A) (A) (A) (A) (A) (A) (A) (A) (A)
                 (A) (A) (A) (A) (A) (A) (A) (A) (A) (A) (A) (A)
                 (A) (A) (A) (A) (A) (A) (A) (A) (A) (A) (A) (A)
                 (A) (A) (A) (A) (A) (A) (A) (A) (A) (A) (A) (A)
 Beta  Orbitals:
       Occupied  (A) (A) (A) (A) (A) (A) (A) (A)
       Virtual   (A) (A) (A) (A) (A) (A) (A) (A) (A) (A) (A) (A)
                 (A) (A) (A) (A) (A) (A) (A) (A) (A) (A) (A) (A)
                 (A) (A) (A) (A) (A) (A) (A) (A) (A) (A) (A) (A)
                 (A) (A) (A) (A) (A) (A) (A) (A) (A) (A) (A) (A)
                 (A) (A) (A) (A) (A) (A) (A) (A) (A) (A) (A) (A)
                 (A) (A) (A) (A) (A) (A) (A) (A) (A) (A) (A) (A)
                 (A) (A) (A) (A) (A) (A) (A) (A) (A) (A) (A) (A)
                 (A) (A) (A) (A) (A) (A) (A) (A) (A) (A) (A) (A)
                 (A) (A) (A) (A) (A) (A) (A) (A) (A) (A) (A) (A)
 The electronic state is 1-A.
 Alpha  occ. eigenvalues --  -10.61475 -10.61345  -0.87711  -0.67068  -0.54473
 Alpha  occ. eigenvalues --   -0.49313  -0.42020  -0.32088
 Alpha virt. eigenvalues --    0.06286   0.09848   0.12712   0.12855   0.18705
 Alpha virt. eigenvalues --    0.29574   0.29638   0.35251   0.35562   0.39377
 Alpha virt. eigenvalues --    0.45835   0.48849   0.49974   0.53896   0.54831
 Alpha virt. eigenvalues --    0.57436   0.59387   0.67732   0.71948   0.74464
 Alpha virt. eigenvalues --    0.76246   0.87601   0.97126   0.98672   1.06439
 Alpha virt. eigenvalues --    1.09570   1.10312   1.11123   1.16853   1.19517
 Alpha virt. eigenvalues --    1.25478   1.34275   1.34842   1.42983   1.44381
 Alpha virt. eigenvalues --    1.48201   1.48803   1.65673   1.66967   1.76353
 Alpha virt. eigenvalues --    2.13740   2.15176   2.33879   2.36777   2.42323
 Alpha virt. eigenvalues --    2.45330   2.51984   2.55128   2.71263   2.75280
 Alpha virt. eigenvalues --    2.87505   2.90644   2.91320   2.91917   2.92034
 Alpha virt. eigenvalues --    2.95351   2.97324   3.01417   3.04344   3.15774
 Alpha virt. eigenvalues --    3.20959   3.21004   3.23298   3.28961   3.30910
 Alpha virt. eigenvalues --    3.33417   3.39067   3.43690   3.53042   3.59510
 Alpha virt. eigenvalues --    3.72621   3.73802   3.76788   3.83057   3.84294
 Alpha virt. eigenvalues --    3.85800   3.93689   4.00079   4.02291   4.03821
 Alpha virt. eigenvalues --    4.08793   4.14481   4.17494   4.21186   4.26996
 Alpha virt. eigenvalues --    4.37137   4.44556   4.63395   4.66018   4.72134
 Alpha virt. eigenvalues --    4.76213   4.80743   4.90273   4.99746   5.02069
 Alpha virt. eigenvalues --    5.16787   5.19746   5.24090   5.32211   5.32851
 Alpha virt. eigenvalues --    5.43749   5.55805   6.03005   6.12280   6.16202
 Alpha virt. eigenvalues --    6.61683  11.45002  14.38650
  Beta  occ. eigenvalues --  -10.61475 -10.61345  -0.87711  -0.67068  -0.54473
  Beta  occ. eigenvalues --   -0.49313  -0.42020  -0.32088
  Beta virt. eigenvalues --    0.06286   0.09848   0.12712   0.12855   0.18705
  Beta virt. eigenvalues --    0.29574   0.29638   0.35251   0.35562   0.39377
  Beta virt. eigenvalues --    0.45835   0.48849   0.49974   0.53896   0.54831
  Beta virt. eigenvalues --    0.57436   0.59387   0.67732   0.71948   0.74464
  Beta virt. eigenvalues --    0.76246   0.87601   0.97126   0.98672   1.06439
  Beta virt. eigenvalues --    1.09570   1.10312   1.11123   1.16853   1.19517
  Beta virt. eigenvalues --    1.25478   1.34275   1.34842   1.42983   1.44381
  Beta virt. eigenvalues --    1.48201   1.48803   1.65673   1.66967   1.76353
  Beta virt. eigenvalues --    2.13740   2.15176   2.33879   2.36777   2.42323
  Beta virt. eigenvalues --    2.45330   2.51984   2.55128   2.71263   2.75280
  Beta virt. eigenvalues --    2.87505   2.90644   2.91320   2.91917   2.92034
  Beta virt. eigenvalues --    2.95351   2.97324   3.01417   3.04344   3.15774
  Beta virt. eigenvalues --    3.20959   3.21004   3.23298   3.28961   3.30910
  Beta virt. eigenvalues --    3.33417   3.39067   3.43690   3.53042   3.59510
  Beta virt. eigenvalues --    3.72621   3.73802   3.76788   3.83057   3.84294
  Beta virt. eigenvalues --    3.85800   3.93689   4.00079   4.02291   4.03821
  Beta virt. eigenvalues --    4.08793   4.14481   4.17494   4.21186   4.26996
  Beta virt. eigenvalues --    4.37137   4.44556   4.63395   4.66018   4.72134
  Beta virt. eigenvalues --    4.76213   4.80743   4.90273   4.99746   5.02069
  Beta virt. eigenvalues --    5.16787   5.19746   5.24090   5.32211   5.32851
  Beta virt. eigenvalues --    5.43749   5.55805   6.03005   6.12280   6.16202
  Beta virt. eigenvalues --    6.61683  11.45002  14.38650
          Condensed to atoms (all electrons):
               1          2          3          4          5          6
     1  C    4.890867   0.625084  -0.044127   0.414528   0.414528  -0.044127
     2  C    0.625084   4.890869   0.414529  -0.044124  -0.044125   0.414529
     3  H   -0.044127   0.414529   0.538419   0.006157  -0.007777  -0.035582
     4  H    0.414528  -0.044124   0.006157   0.538426  -0.035586  -0.007777
     5  H    0.414528  -0.044125  -0.007777  -0.035586   0.538429   0.006157
     6  H   -0.044127   0.414529  -0.035582  -0.007777   0.006157   0.538421
          Atomic-Atomic Spin Densities.
               1          2          3          4          5          6
     1  C   -0.000000   0.000000  -0.000000  -0.000000   0.000000   0.000000
     2  C    0.000000   0.000000   0.000000  -0.000000  -0.000000  -0.000000
     3  H   -0.000000   0.000000   0.000000   0.000000  -0.000000  -0.000000
     4  H   -0.000000  -0.000000   0.000000  -0.000000   0.000000  -0.000000
     5  H    0.000000  -0.000000  -0.000000   0.000000  -0.000000   0.000000
     6  H    0.000000  -0.000000  -0.000000  -0.000000   0.000000   0.000000
 Mulliken charges and spin densities:
               1          2
     1  C   -0.256752  -0.000000
     2  C   -0.256761   0.000000
     3  H    0.128382   0.000000
     4  H    0.128377  -0.000000
     5  H    0.128375  -0.000000
     6  H    0.128380   0.000000
 Sum of Mulliken charges =  -0.00000   0.00000
 Mulliken charges and spin densities with hydrogens summed into heavy atoms:
               1          2
     1  C   -0.000000  -0.000000
     2  C    0.000000   0.000000
 Electronic spatial extent (au):  <R**2>=             82.5183
 Charge=             -0.0000 electrons
 Dipole moment (field-independent basis, Debye):
    X=              0.0000    Y=              0.0000    Z=             -0.0001  Tot=              0.0001
 Quadrupole moment (field-independent basis, Debye-Ang):
   XX=            -12.2403   YY=            -12.3719   ZZ=            -15.6604
   XY=             -0.0000   XZ=              0.0000   YZ=              0.0000
 Traceless Quadrupole moment (field-independent basis, Debye-Ang):
   XX=              1.1839   YY=              1.0523   ZZ=             -2.2362
   XY=             -0.0000   XZ=              0.0000   YZ=              0.0000
 Octapole moment (field-independent basis, Debye-Ang**2):
  XXX=              0.0002  YYY=              0.0000  ZZZ=             -0.0002  XYY=             -0.0001
  XXY=             -0.0000  XXZ=             -0.0003  XZZ=             -0.0000  YZZ=              0.0000
  YYZ=             -0.0002  XYZ=             -0.0000
 Hexadecapole moment (field-independent basis, Debye-Ang**3):
 XXXX=            -68.3340 YYYY=            -27.1052 ZZZZ=            -18.7718 XXXY=             -0.0001
 XXXZ=             -0.0000 YYYX=             -0.0000 YYYZ=             -0.0000 ZZZX=             -0.0000
 ZZZY=             -0.0000 XXYY=            -13.3287 XXZZ=            -15.3968 YYZZ=             -8.3762
 XXYZ=              0.0000 YYXZ=             -0.0000 ZZXY=             -0.0000
 N-N= 3.348724238421D+01 E-N=-2.485375660990D+02  KE= 7.805274744305D+01
                          Isotropic Fermi Contact Couplings
        Atom                 a.u.       MegaHertz       Gauss      10(-4) cm-1
     1  C(13)             -0.00000      -0.00000      -0.00000      -0.00000
     2  C(13)             -0.00000      -0.00000      -0.00000      -0.00000
     3  H(1)              -0.00000      -0.00000      -0.00000      -0.00000
     4  H(1)              -0.00000      -0.00000      -0.00000      -0.00000
     5  H(1)               0.00000       0.00000       0.00000       0.00000
     6  H(1)               0.00000       0.00000       0.00000       0.00000
 --------------------------------------------------------
       Center         ----  Spin Dipole Couplings  ----
                      3XX-RR        3YY-RR        3ZZ-RR
 --------------------------------------------------------
     1   Atom        0.000000      0.000000      0.000000
     2   Atom        0.000000      0.000000      0.000000
     3   Atom        0.000000      0.000000      0.000000
     4   Atom        0.000000      0.000000      0.000000
     5   Atom        0.000000      0.000000      0.000000
     6   Atom        0.000000      0.000000      0.000000
 --------------------------------------------------------
                        XY            XZ            YZ
 --------------------------------------------------------
     1   Atom        0.000000      0.000000      0.000000
     2   Atom        0.000000      0.000000      0.000000
     3   Atom        0.000000      0.000000      0.000000
     4   Atom        0.000000      0.000000      0.000000
     5   Atom        0.000000      0.000000      0.000000
     6   Atom        0.000000      0.000000      0.000000
 --------------------------------------------------------


 ---------------------------------------------------------------------------------
              Anisotropic Spin Dipole Couplings in Principal Axis System
 ---------------------------------------------------------------------------------

       Atom             a.u.   MegaHertz   Gauss  10(-4) cm-1        Axes

              Baa     0.0000     0.000     0.000     0.000  1.0000  0.0000  0.0000
     1 C(13)  Bbb     0.0000     0.000     0.000     0.000 -0.0000  1.0000  0.0000
              Bcc     0.0000     0.000     0.000     0.000  0.0000  0.0000  1.0000
 
              Baa     0.0000     0.000     0.000     0.000  1.0000  0.0000  0.0000
     2 C(13)  Bbb     0.0000     0.000     0.000     0.000 -0.0000  1.0000  0.0000
              Bcc     0.0000     0.000     0.000     0.000  0.0000  0.0000  1.0000
 
              Baa     0.0000     0.000     0.000     0.000  1.0000  0.0000  0.0000
     3 H(1)   Bbb     0.0000     0.000     0.000     0.000 -0.0000  1.0000  0.0000
              Bcc     0.0000     0.000     0.000     0.000  0.0000  0.0000  1.0000
 
              Baa     0.0000     0.000     0.000     0.000  1.0000  0.0000  0.0000
     4 H(1)   Bbb     0.0000     0.000     0.000     0.000 -0.0000  1.0000  0.0000
              Bcc     0.0000     0.000     0.000     0.000  0.0000  0.0000  1.0000
 
              Baa     0.0000     0.000     0.000     0.000  1.0000  0.0000  0.0000
     5 H(1)   Bbb     0.0000     0.000     0.000     0.000 -0.0000  1.0000  0.0000
              Bcc     0.0000     0.000     0.000     0.000  0.0000  0.0000  1.0000
 
              Baa     0.0000     0.000     0.000     0.000  1.0000  0.0000  0.0000
     6 H(1)   Bbb     0.0000     0.000     0.000     0.000 -0.0000  1.0000  0.0000
              Bcc     0.0000     0.000     0.000     0.000  0.0000  0.0000  1.0000
 

 ---------------------------------------------------------------------------------

 1\1\GINC-N68\FOpt\UB2PLYPD3-FC\CC-pVTZ\C2H4\ROOT\31-May-2019\0\\# opt=
 maxcyc=500 freq=noraman uB2PLYPD3/cc-pvtz\\Title Card Required\\0,1\C,
 0.6635709982,-0.0000100622,-0.0000601286\C,-0.6635669273,0.0000063762,
 -0.0000590764\H,-1.2299001564,-0.9203685223,-0.0000172279\H,1.22994148
 83,0.9203480104,-0.0000186743\H,1.2299065258,-0.9203922135,-0.00001866
 99\H,-1.2298759285,0.9203984115,-0.0000172229\\Version=ES64L-G16RevB.0
 1\State=1-A\HF=-78.4304678\MP2=-78.54055\PUHF=-78.4304678\PMP2-0=-78.5
 4055\S2=0.\S2-1=0.\S2A=0.\RMSD=5.849e-09\RMSF=8.331e-05\Dipole=0.00000
 48,-0.0000001,0.0000452\PG=C01 [X(C2H4)]\\@


 TWO ROADS DIVERGED IN A WOOD, AND I--
 I TOOK THE ONE LESS TRAVELED BY,
 AND THAT HAS MADE ALL THE DIFFERENCE.

                       -- ROBERT FROST
 Job cpu time:       0 days  0 hours  9 minutes 57.0 seconds.
 Elapsed time:       0 days  0 hours  0 minutes 18.6 seconds.
 File lengths (MBytes):  RWF=     15 Int=      0 D2E=      0 Chk=      3 Scr=      1
 Normal termination of Gaussian 16 at Fri May 31 22:07:53 2019.
 Link1:  Proceeding to internal job step number  2.
 ----------------------------------------------------------------------
 #N Geom=AllCheck Guess=TCheck SCRF=Check GenChk UB2PLYPD3(FC)/CC-pVTZ 
 Freq
 ----------------------------------------------------------------------
 1/6=500,10=4,29=7,30=1,38=1,40=1/1,3;
 2/12=2,40=1/2;
 3/5=16,6=1,11=2,14=-4,25=1,30=1,70=2,71=2,74=-60,116=2,140=1/1,2,3;
 4/5=101/1;
 5/5=2,38=6,98=1/2;
 8/6=3,8=1,10=1,19=11,30=-1/1;
 9/15=3,16=-3/6;
 11/6=1,8=1,15=11,17=12,24=-1,27=1,28=-2,29=300,32=6,42=3/1,2,10;
 10/6=2,21=1/2;
 8/6=4,8=1,10=1,19=11,30=-1/11,4;
 10/5=1,20=4/2;
 11/12=2,14=11,16=1,17=2,28=-2,42=3,76=2/2,10,12;
 6/7=2,8=2,9=2,10=2/1;
 7/8=1,10=1,12=2,25=1,44=2/1,2,3,16;
 1/6=500,10=4,30=1/3;
 99//99;
 Structure from the checkpoint file:  "/localscratch/339542/Gau-54113.chk"
 -------------------
 Title Card Required
 -------------------
 Charge =  0 Multiplicity = 1
 Redundant internal coordinates found in file.  (old form).
 C,0,0.6635709982,-0.0000100622,-0.0000601286
 C,0,-0.6635669273,0.0000063762,-0.0000590764
 H,0,-1.2299001564,-0.9203685223,-0.0000172279
 H,0,1.2299414883,0.9203480104,-0.0000186743
 H,0,1.2299065258,-0.9203922135,-0.0000186699
 H,0,-1.2298759285,0.9203984115,-0.0000172229
 Recover connectivity data from disk.

 GradGradGradGradGradGradGradGradGradGradGradGradGradGradGradGradGradGrad
 Berny optimization.
 Initialization pass.
                           ----------------------------
                           !    Initial Parameters    !
                           ! (Angstroms and Degrees)  !
 --------------------------                            --------------------------
 ! Name  Definition              Value          Derivative Info.                !
 --------------------------------------------------------------------------------
 ! R1    R(1,2)                  1.3271         calculate D2E/DX2 analytically  !
 ! R2    R(1,4)                  1.0807         calculate D2E/DX2 analytically  !
 ! R3    R(1,5)                  1.0807         calculate D2E/DX2 analytically  !
 ! R4    R(2,3)                  1.0807         calculate D2E/DX2 analytically  !
 ! R5    R(2,6)                  1.0807         calculate D2E/DX2 analytically  !
 ! A1    A(2,1,4)              121.6066         calculate D2E/DX2 analytically  !
 ! A2    A(2,1,5)              121.6058         calculate D2E/DX2 analytically  !
 ! A3    A(4,1,5)              116.7876         calculate D2E/DX2 analytically  !
 ! A4    A(1,2,3)              121.6045         calculate D2E/DX2 analytically  !
 ! A5    A(1,2,6)              121.6043         calculate D2E/DX2 analytically  !
 ! A6    A(3,2,6)              116.7912         calculate D2E/DX2 analytically  !
 ! D1    D(4,1,2,3)           -179.9948         calculate D2E/DX2 analytically  !
 ! D2    D(4,1,2,6)              0.0            calculate D2E/DX2 analytically  !
 ! D3    D(5,1,2,3)              0.0            calculate D2E/DX2 analytically  !
 ! D4    D(5,1,2,6)            179.9948         calculate D2E/DX2 analytically  !
 --------------------------------------------------------------------------------
 Trust Radius=3.00D-01 FncErr=1.00D-07 GrdErr=1.00D-07 EigMax=2.50D+02 EigMin=1.00D-04
 Number of steps in this run=      2 maximum allowed number of steps=      2.
 GradGradGradGradGradGradGradGradGradGradGradGradGradGradGradGradGradGrad

                          Input orientation:                          
 ---------------------------------------------------------------------
 Center     Atomic      Atomic             Coordinates (Angstroms)
 Number     Number       Type             X           Y           Z
 ---------------------------------------------------------------------
      1          6           0        0.663571   -0.000010   -0.000060
      2          6           0       -0.663567    0.000006   -0.000059
      3          1           0       -1.229900   -0.920369   -0.000017
      4          1           0        1.229941    0.920348   -0.000019
      5          1           0        1.229907   -0.920392   -0.000019
      6          1           0       -1.229876    0.920398   -0.000017
 ---------------------------------------------------------------------
                    Distance matrix (angstroms):
                    1          2          3          4          5
     1  C    0.000000
     2  C    1.327138   0.000000
     3  H    2.105301   1.080659   0.000000
     4  H    1.080664   2.105327   3.072305   0.000000
     5  H    1.080666   2.105321   2.459807   1.840740   0.000000
     6  H    2.105301   1.080661   1.840767   2.459817   3.072302
                    6
     6  H    0.000000
 Stoichiometry    C2H4
 Framework group  C1[X(C2H4)]
 Deg. of freedom    12
 Full point group                 C1      NOp   1
 Largest Abelian subgroup         C1      NOp   1
 Largest concise Abelian subgroup C1      NOp   1
                         Standard orientation:                         
 ---------------------------------------------------------------------
 Center     Atomic      Atomic             Coordinates (Angstroms)
 Number     Number       Type             X           Y           Z
 ---------------------------------------------------------------------
      1          6           0        0.663565   -0.000001    0.000011
      2          6           0       -0.663573   -0.000000    0.000010
      3          1           0       -1.229894    0.920382   -0.000032
      4          1           0        1.229924   -0.920366   -0.000031
      5          1           0        1.229912    0.920374   -0.000031
      6          1           0       -1.229894   -0.920385   -0.000032
 ---------------------------------------------------------------------
 Rotational constants (GHZ):         147.9928550          30.3243310          25.1674246
 Standard basis: CC-pVTZ (5D, 7F)
 There are   130 symmetry adapted cartesian basis functions of A   symmetry.
 There are   116 symmetry adapted basis functions of A   symmetry.
   116 basis functions,   172 primitive gaussians,   130 cartesian basis functions
     8 alpha electrons        8 beta electrons
       nuclear repulsion energy        33.4889461259 Hartrees.
 NAtoms=    6 NActive=    6 NUniq=    6 SFac= 1.00D+00 NAtFMM=   60 NAOKFM=F Big=F
 Integral buffers will be    131072 words long.
 Raffenetti 2 integral format.
 Two-electron integral symmetry is turned on.
 Nuclear repulsion after empirical dispersion term =       33.4872423842 Hartrees.
 One-electron integrals computed using PRISM.
 NBasis=   116 RedAO= T EigKep=  7.12D-04  NBF=   116
 NBsUse=   116 1.00D-06 EigRej= -1.00D+00 NBFU=   116
 Initial guess from the checkpoint file:  "/localscratch/339542/Gau-54113.chk"
 B after Tr=     0.000000    0.000000    0.000000
         Rot=    1.000000   -0.000000   -0.000000   -0.000000 Ang=   0.00 deg.
 Initial guess <Sx>= 0.0000 <Sy>= 0.0000 <Sz>= 0.0000 <S**2>=-0.0000 S=-0.0000
 Keep R1 and R2 ints in memory in canonical form, NReq=84282916.
 Requested convergence on RMS density matrix=1.00D-08 within 128 cycles.
 Requested convergence on MAX density matrix=1.00D-06.
 Requested convergence on             energy=1.00D-06.
 No special actions if energy rises.
 SCF Done:  E(UB2PLYPD3) =  -78.4304678203     A.U. after    1 cycles
            NFock=  1  Conv=0.54D-09     -V/T= 2.0048
 <Sx>= 0.0000 <Sy>= 0.0000 <Sz>= 0.0000 <S**2>=-0.0000 S=-0.0000
 <L.S>=  0.00000000000    
 Annihilation of the first spin contaminant:
 S**2 before annihilation    -0.0000,   after     0.0000
 DoSCS=T DFT=T ScalE2(SS,OS)=  0.270000  0.270000
 ExpMin= 1.03D-01 ExpMax= 8.24D+03 ExpMxC= 2.81D+02 IAcc=3 IRadAn=         5 AccDes= 0.00D+00
 HarFok:  IExCor=  205 AccDes= 0.00D+00 IRadAn=         5 IDoV=-2 UseB2=F ITyADJ=14
 ICtDFT= 12500011 ScaDFX=  1.000000  1.000000  1.000000  1.000000
 Range of M.O.s used for correlation:     3   116
 NBasis=   116 NAE=     8 NBE=     8 NFC=     2 NFV=     0
 NROrb=    114 NOA=     6 NOB=     6 NVA=   108 NVB=   108

 **** Warning!!: The largest alpha MO coefficient is  0.10271697D+02


 **** Warning!!: The largest beta MO coefficient is  0.10271697D+02

 DoSCS=T DFT=T ScalE2(SS,OS)=  0.270000  0.270000
 Disk-based method using ON**2 memory for  6 occupieds at a time.
 Permanent disk used for amplitudes=     1070064 words.
 Estimated scratch disk usage=    24448348 words.
 Actual    scratch disk usage=    23662428 words.
 JobTyp=2 Pass  1:  I=   3 to   8 NPSUse= 40 ParTrn=T ParDer=T DoDerP=T.
 (rs|ai) integrals will be sorted in core.
 Actual    scratch disk usage=    23662428 words.
 JobTyp=3 Pass  1:  I=   3 to   8 NPSUse= 40 ParTrn=T ParDer=T DoDerP=T.
 (rs|ai) integrals will be sorted in core.
 Spin components of T(2) and E(2):
     alpha-alpha T2 =       0.1925997220D-01 E2=     -0.1180348951D-01
     alpha-beta  T2 =       0.1365656311D+00 E2=     -0.8647519968D-01
     beta-beta   T2 =       0.1925997220D-01 E2=     -0.1180348951D-01
 (S**2,0)=  0.00000D+00           (S**2,1)=  0.00000D+00
 E(PUHF)=      -0.78430467820D+02        E(PMP2)=      -0.78540549999D+02
 E2(B2PLYPD3) =    -0.1100821787D+00 E(B2PLYPD3) =    -0.78540549998947D+02
 G2DrvN: will do     7 centers at a time, making    1 passes.
 Calling FoFCou, ICntrl=  3107 FMM=F I1Cent=   0 AccDes= 0.00D+00.
 End of G2Drv F.D. properties file   721 does not exist.
 End of G2Drv F.D. properties file   722 does not exist.
 End of G2Drv F.D. properties file   788 does not exist.
          IDoAtm=111111
          Differentiating once with respect to electric field.
                with respect to dipole field.
          Differentiating once with respect to nuclear coordinates.
 Keep R1 and R2 ints in memory in canonical form, NReq=84148361.
          There are    21 degrees of freedom in the 1st order CPHF.  IDoFFX=6 NUNeed=    21.
     18 vectors produced by pass  0 Test12= 8.23D-15 4.76D-09 XBig12= 3.88D+01 3.63D+00.
 AX will form    18 AO Fock derivatives at one time.
     18 vectors produced by pass  1 Test12= 8.23D-15 4.76D-09 XBig12= 1.94D+00 3.70D-01.
     18 vectors produced by pass  2 Test12= 8.23D-15 4.76D-09 XBig12= 3.36D-02 5.27D-02.
     18 vectors produced by pass  3 Test12= 8.23D-15 4.76D-09 XBig12= 1.16D-04 3.20D-03.
     18 vectors produced by pass  4 Test12= 8.23D-15 4.76D-09 XBig12= 2.99D-07 1.35D-04.
     18 vectors produced by pass  5 Test12= 8.23D-15 4.76D-09 XBig12= 7.01D-10 4.70D-06.
      7 vectors produced by pass  6 Test12= 8.23D-15 4.76D-09 XBig12= 1.09D-12 1.73D-07.
      2 vectors produced by pass  7 Test12= 8.23D-15 4.76D-09 XBig12= 2.04D-15 1.26D-08.
 InvSVY:  IOpt=1 It=  1 EMax= 1.78D-15
 Solved reduced A of dimension   117 with    21 vectors.
 End of Minotr F.D. properties file   721 does not exist.
 End of Minotr F.D. properties file   722 does not exist.
 End of Minotr F.D. properties file   788 does not exist.
 MDV= 10737418240.
 DoSCS=T DFT=T ScalE2(SS,OS)=  0.270000  0.270000
 Form MO integral derivatives with frozen-active canonical formalism.
 Discarding MO integrals.
 Reordered first order wavefunction length =      4378752
 In DefCFB: NBatch=  1 ICI=  8 ICA=108 LFMax= 54
            Large arrays: LIAPS=   104232960 LIARS=    55036800 words.
 In DefCFB: NBatch=  1 ICI=  8 ICA=108 LFMax= 54
            Large arrays: LIAPS=   104232960 LIARS=    55036800 words.
 Semi-Direct transformation.
 ModeAB=           2 MOrb=             8 LenV=   10736842000
 LASXX=      5925070 LTotXX=     5925070 LenRXX=     5925070
 LTotAB=     6107400 MaxLAS=     7901920 LenRXY=     7901920
 NonZer=    11850140 LenScr=    18542592 LnRSAI=           0
 LnScr1=           0 LExtra=           0 Total=     32369582
 MaxDsk=          -1 SrtSym=           F ITran=            4
 JobTyp=1 Pass  1:  I=   1 to   8.
 (rs|ai) integrals will be sorted in core.
 ModeAB=           2 MOrb=             8 LenV=   10736842000
 LASXX=      5925070 LTotXX=     5925070 LenRXX=     7901920
 LTotAB=     5297400 MaxLAS=     7901920 LenRXY=     5297400
 NonZer=    11850140 LenScr=    18542592 LnRSAI=           0
 LnScr1=           0 LExtra=           0 Total=     31741912
 MaxDsk=          -1 SrtSym=           F ITran=            4
 JobTyp=2 Pass  1:  I=   1 to   8.
 (rs|ai) integrals will be sorted in core.
 SymMOI:  orbitals are not symmetric.
 DoSCS=T DFT=T ScalE2(SS,OS)=  0.270000  0.270000
 Spin components of T(2) and E(2):
     alpha-alpha T2 =       0.1925997220D-01 E2=     -0.1180348951D-01
     alpha-beta  T2 =       0.1365656311D+00 E2=     -0.8647519968D-01
     beta-beta   T2 =       0.1925997220D-01 E2=     -0.1180348951D-01
 E2(B2PLYPD3) =    -0.1100821787D+00 E(B2PLYPD3) =    -0.78540549998947D+02
 (S**2,0)=  0.00000D+00           (S**2,1)=  0.00000D+00
 E(PUHF)=      -0.78430467820D+02        E(PMP2)=      -0.78540549999D+02
          IDoAtm=111111
          Differentiating once with respect to electric field.
                with respect to dipole field.
          Differentiating once with respect to nuclear coordinates.
 Keep R1 and R2 ints in memory in canonical form, NReq=84287026.
          There are     1 degrees of freedom in the 1st order CPHF.  IDoFFX=0 NUNeed=     1.
 LinEq1:  Iter=  0 NonCon=     1 RMS=8.08D-04 Max=1.37D-02 NDo=     1
 AX will form     1 AO Fock derivatives at one time.
 LinEq1:  Iter=  1 NonCon=     1 RMS=3.32D-04 Max=3.83D-03 NDo=     1
 LinEq1:  Iter=  2 NonCon=     1 RMS=5.78D-05 Max=8.86D-04 NDo=     1
 LinEq1:  Iter=  3 NonCon=     1 RMS=1.03D-05 Max=1.32D-04 NDo=     1
 LinEq1:  Iter=  4 NonCon=     1 RMS=1.19D-06 Max=1.64D-05 NDo=     1
 LinEq1:  Iter=  5 NonCon=     1 RMS=7.41D-08 Max=8.85D-07 NDo=     1
 LinEq1:  Iter=  6 NonCon=     1 RMS=5.85D-09 Max=7.18D-08 NDo=     1
 LinEq1:  Iter=  7 NonCon=     1 RMS=3.26D-09 Max=6.32D-08 NDo=     1
 LinEq1:  Iter=  8 NonCon=     1 RMS=4.80D-10 Max=4.15D-09 NDo=     1
 LinEq1:  Iter=  9 NonCon=     0 RMS=3.42D-11 Max=5.01D-10 NDo=     1
 Linear equations converged to 1.000D-10 1.000D-09 after     9 iterations.
 End of Minotr F.D. properties file   721 does not exist.
 End of Minotr F.D. properties file   722 does not exist.
 End of Minotr F.D. properties file   788 does not exist.
 Symmetrizing basis deriv contribution to polar:
 IMax=3 JMax=2 DiffMx= 0.00D+00
 G2DrvN: will do     7 centers at a time, making    1 passes.
 Calling FoFCou, ICntrl=  3107 FMM=F I1Cent=   0 AccDes= 0.00D+00.
 End of G2Drv F.D. properties file   721 does not exist.
 End of G2Drv F.D. properties file   722 does not exist.
 End of G2Drv F.D. properties file   788 does not exist.
 DoSCS=T DFT=T ScalE2(SS,OS)=  0.270000  0.270000
 R2 and R3 integrals will be kept in memory, NReq=    74453740.
 DD1Dir will call FoFMem   1 times, MxPair=       184
 NAB=    64 NAA=    28 NBB=    28.
 Discarding MO integrals.

 **********************************************************************

            Population analysis using the SCF Density.

 **********************************************************************

 Orbital symmetries:
 Alpha Orbitals:
       Occupied  (A) (A) (A) (A) (A) (A) (A) (A)
       Virtual   (A) (A) (A) (A) (A) (A) (A) (A) (A) (A) (A) (A)
                 (A) (A) (A) (A) (A) (A) (A) (A) (A) (A) (A) (A)
                 (A) (A) (A) (A) (A) (A) (A) (A) (A) (A) (A) (A)
                 (A) (A) (A) (A) (A) (A) (A) (A) (A) (A) (A) (A)
                 (A) (A) (A) (A) (A) (A) (A) (A) (A) (A) (A) (A)
                 (A) (A) (A) (A) (A) (A) (A) (A) (A) (A) (A) (A)
                 (A) (A) (A) (A) (A) (A) (A) (A) (A) (A) (A) (A)
                 (A) (A) (A) (A) (A) (A) (A) (A) (A) (A) (A) (A)
                 (A) (A) (A) (A) (A) (A) (A) (A) (A) (A) (A) (A)
 Beta  Orbitals:
       Occupied  (A) (A) (A) (A) (A) (A) (A) (A)
       Virtual   (A) (A) (A) (A) (A) (A) (A) (A) (A) (A) (A) (A)
                 (A) (A) (A) (A) (A) (A) (A) (A) (A) (A) (A) (A)
                 (A) (A) (A) (A) (A) (A) (A) (A) (A) (A) (A) (A)
                 (A) (A) (A) (A) (A) (A) (A) (A) (A) (A) (A) (A)
                 (A) (A) (A) (A) (A) (A) (A) (A) (A) (A) (A) (A)
                 (A) (A) (A) (A) (A) (A) (A) (A) (A) (A) (A) (A)
                 (A) (A) (A) (A) (A) (A) (A) (A) (A) (A) (A) (A)
                 (A) (A) (A) (A) (A) (A) (A) (A) (A) (A) (A) (A)
                 (A) (A) (A) (A) (A) (A) (A) (A) (A) (A) (A) (A)
 The electronic state is 1-A.
 Alpha  occ. eigenvalues --  -10.61475 -10.61345  -0.87711  -0.67068  -0.54473
 Alpha  occ. eigenvalues --   -0.49313  -0.42020  -0.32088
 Alpha virt. eigenvalues --    0.06286   0.09848   0.12712   0.12855   0.18705
 Alpha virt. eigenvalues --    0.29574   0.29638   0.35251   0.35562   0.39377
 Alpha virt. eigenvalues --    0.45835   0.48849   0.49974   0.53896   0.54831
 Alpha virt. eigenvalues --    0.57436   0.59387   0.67732   0.71948   0.74464
 Alpha virt. eigenvalues --    0.76246   0.87601   0.97126   0.98672   1.06439
 Alpha virt. eigenvalues --    1.09570   1.10312   1.11123   1.16853   1.19517
 Alpha virt. eigenvalues --    1.25478   1.34275   1.34842   1.42983   1.44381
 Alpha virt. eigenvalues --    1.48201   1.48803   1.65673   1.66967   1.76353
 Alpha virt. eigenvalues --    2.13740   2.15176   2.33879   2.36777   2.42323
 Alpha virt. eigenvalues --    2.45330   2.51984   2.55128   2.71263   2.75280
 Alpha virt. eigenvalues --    2.87505   2.90644   2.91320   2.91917   2.92034
 Alpha virt. eigenvalues --    2.95351   2.97324   3.01417   3.04344   3.15774
 Alpha virt. eigenvalues --    3.20959   3.21004   3.23298   3.28961   3.30910
 Alpha virt. eigenvalues --    3.33417   3.39067   3.43690   3.53042   3.59510
 Alpha virt. eigenvalues --    3.72621   3.73802   3.76788   3.83057   3.84294
 Alpha virt. eigenvalues --    3.85800   3.93689   4.00079   4.02291   4.03821
 Alpha virt. eigenvalues --    4.08793   4.14481   4.17494   4.21186   4.26996
 Alpha virt. eigenvalues --    4.37137   4.44556   4.63395   4.66018   4.72134
 Alpha virt. eigenvalues --    4.76213   4.80743   4.90273   4.99746   5.02069
[...]
     5   1    -0.44   0.24  -0.00     0.00   0.00   0.49     0.00   0.00   0.50
     6   1    -0.44   0.24   0.00     0.00   0.00  -0.49    -0.00  -0.00   0.50
                      4                      5                      6
                      A                      A                      A
 Frequencies --   1072.8897              1252.5524              1386.1568
 Red. masses --      1.0078                 1.5224                 1.2513
 Frc consts  --      0.6835                 1.4072                 1.4166
 IR Inten    --      0.0000                 0.0000                 0.0000
  Atom  AN      X      Y      Z        X      Y      Z        X      Y      Z
     1   6    -0.00  -0.00  -0.00    -0.00   0.15  -0.00    -0.11  -0.00  -0.00
     2   6     0.00   0.00  -0.00     0.00  -0.15  -0.00     0.11   0.00  -0.00
     3   1    -0.00  -0.00  -0.50     0.47   0.14  -0.00     0.46   0.19   0.00
     4   1     0.00   0.00  -0.50    -0.47  -0.14  -0.00    -0.46  -0.19   0.00
     5   1    -0.00   0.00   0.50     0.47  -0.14   0.00    -0.46   0.19   0.00
     6   1     0.00  -0.00   0.50    -0.47   0.14   0.00     0.46  -0.19   0.00
                      7                      8                      9
                      A                      A                      A
 Frequencies --   1488.0177              1690.6610              3154.2024
 Red. masses --      1.1124                 2.9736                 1.0474
 Frc consts  --      1.4511                 5.0078                 6.1395
 IR Inten    --      9.0419                 0.0000                15.0943
  Atom  AN      X      Y      Z        X      Y      Z        X      Y      Z
     1   6    -0.07   0.00   0.00     0.30  -0.00  -0.00    -0.04  -0.00   0.00
     2   6    -0.07  -0.00  -0.00    -0.30   0.00  -0.00    -0.04  -0.00  -0.00
     3   1     0.41   0.28   0.00     0.25   0.38   0.00     0.25  -0.43   0.00
     4   1     0.41   0.28  -0.00    -0.25  -0.38   0.00     0.25  -0.43  -0.00
     5   1     0.41  -0.28  -0.00    -0.25   0.38   0.00     0.25   0.43  -0.00
     6   1     0.41  -0.28   0.00     0.25  -0.38   0.00     0.25   0.43   0.00
                     10                     11                     12
                      A                      A                      A
 Frequencies --   3169.5091              3230.1999              3257.9054
 Red. masses --      1.0725                 1.1148                 1.1181
 Frc consts  --      6.3481                 6.8533                 6.9921
 IR Inten    --      0.0000                 0.0000                21.1866
  Atom  AN      X      Y      Z        X      Y      Z        X      Y      Z
     1   6     0.05   0.00  -0.00     0.00  -0.07  -0.00     0.00  -0.07  -0.00
     2   6    -0.05  -0.00  -0.00    -0.00   0.07  -0.00     0.00  -0.07   0.00
     3   1     0.25  -0.43   0.00     0.26  -0.42   0.00    -0.26   0.42  -0.00
     4   1    -0.25   0.43   0.00    -0.26   0.42   0.00    -0.26   0.42   0.00
     5   1    -0.25  -0.43   0.00     0.26   0.42  -0.00     0.26   0.42  -0.00
     6   1     0.25   0.43   0.00    -0.26  -0.42  -0.00     0.26   0.42   0.00

 -------------------
 - Thermochemistry -
 -------------------
 Temperature   298.150 Kelvin.  Pressure   1.00000 Atm.
 Atom     1 has atomic number  6 and mass  12.00000
 Atom     2 has atomic number  6 and mass  12.00000
 Atom     3 has atomic number  1 and mass   1.00783
 Atom     4 has atomic number  1 and mass   1.00783
 Atom     5 has atomic number  1 and mass   1.00783
 Atom     6 has atomic number  1 and mass   1.00783
 Molecular mass:    28.03130 amu.
 Principal axes and moments of inertia in atomic units:
                           1         2         3
     Eigenvalues --    12.19479  59.51463  71.70941
           X            1.00000   0.00000  -0.00000
           Y           -0.00000   1.00000  -0.00000
           Z            0.00000   0.00000   1.00000
 This molecule is an asymmetric top.
 Rotational symmetry number  1.
 Rotational temperatures (Kelvin)      7.10254     1.45534     1.20785
 Rotational constants (GHZ):         147.99286    30.32433    25.16742
 Zero-point vibrational energy     134581.0 (Joules/Mol)
                                   32.16564 (Kcal/Mol)
 Vibrational temperatures:   1202.28  1407.18  1416.38  1543.65  1802.14
          (Kelvin)           1994.37  2140.93  2432.48  4538.19  4560.22
                             4647.54  4687.40
 
 Zero-point correction=                           0.051259 (Hartree/Particle)
 Thermal correction to Energy=                    0.054296
 Thermal correction to Enthalpy=                  0.055240
 Thermal correction to Gibbs Free Energy=         0.029088
 Sum of electronic and zero-point Energies=            -78.489291
 Sum of electronic and thermal Energies=               -78.486254
 Sum of electronic and thermal Enthalpies=             -78.485310
 Sum of electronic and thermal Free Energies=          -78.511462
 
                     E (Thermal)             CV                S
                      KCal/Mol        Cal/Mol-Kelvin    Cal/Mol-Kelvin
 Total                   34.071              8.056             55.042
 Electronic               0.000              0.000              0.000
 Translational            0.889              2.981             35.927
 Rotational               0.889              2.981             18.593
 Vibrational             32.294              2.095              0.522
                       Q            Log10(Q)             Ln(Q)
 Total Bot       0.417149D-13        -13.379709        -30.807918
 Total V=0       0.157713D+11         10.197867         23.481457
 Vib (Bot)       0.276911D-23        -23.557660        -54.243517
 Vib (V=0)       0.104693D+01          0.019916          0.045858
 Electronic      0.100000D+01          0.000000          0.000000
 Translational   0.583336D+07          6.765919         15.579104
 Rotational      0.258245D+04          3.412033          7.856495
 ***** Axes restored to original set *****
 -------------------------------------------------------------------
 Center     Atomic                   Forces (Hartrees/Bohr)
 Number     Number              X              Y              Z
 -------------------------------------------------------------------
      1        6           0.000218849   -0.000002429    0.000005023
      2        6          -0.000207636    0.000002029    0.000004941
      3        1           0.000058750   -0.000068674   -0.000002480
      4        1          -0.000064595    0.000068877   -0.000002502
      5        1          -0.000064487   -0.000067378   -0.000002502
      6        1           0.000059119    0.000067575   -0.000002480
 -------------------------------------------------------------------
 Cartesian Forces:  Max     0.000218849 RMS     0.000083312
 FormGI is forming the generalized inverse of G from B-inverse, IUseBI=4.

 GradGradGradGradGradGradGradGradGradGradGradGradGradGradGradGradGradGrad
 Berny optimization.
 Internal  Forces:  Max     0.000123443 RMS     0.000060062
 Search for a local minimum.
 Step number   1 out of a maximum of    2
 All quantities printed in internal units (Hartrees-Bohrs-Radians)
 Second derivative matrix not updated -- analytic derivatives used.
 The second derivative matrix:
                          R1        R2        R3        R4        R5
           R1           0.62798
           R2           0.00620   0.36204
           R3           0.00620   0.00205   0.36203
           R4           0.00620  -0.00052   0.00078   0.36205
           R5           0.00620   0.00078  -0.00052   0.00205   0.36205
           A1           0.01107   0.00508  -0.01179   0.00445  -0.00344
           A2           0.01107  -0.01179   0.00508  -0.00344   0.00445
           A3          -0.02215   0.00672   0.00672  -0.00101  -0.00101
           A4           0.01107   0.00445  -0.00344   0.00508  -0.01179
           A5           0.01107  -0.00344   0.00445  -0.01179   0.00508
           A6          -0.02215  -0.00101  -0.00101   0.00672   0.00672
           D1          -0.00000  -0.00000  -0.00000  -0.00000  -0.00000
           D2          -0.00000  -0.00000  -0.00000   0.00000   0.00000
           D3           0.00000   0.00000   0.00000  -0.00000  -0.00000
           D4           0.00000   0.00000   0.00000   0.00000   0.00000
                          A1        A2        A3        A4        A5
           A1           0.08179
           A2          -0.04533   0.08180
           A3          -0.03647  -0.03647   0.07294
           A4           0.01083  -0.00948  -0.00135   0.08180
           A5          -0.00948   0.01083  -0.00135  -0.04533   0.08180
           A6          -0.00135  -0.00135   0.00271  -0.03647  -0.03647
           D1          -0.00000  -0.00000   0.00000  -0.00000  -0.00000
           D2          -0.00000  -0.00000   0.00000   0.00000   0.00000
           D3           0.00000   0.00000  -0.00000  -0.00000  -0.00000
           D4           0.00000   0.00000  -0.00000   0.00000   0.00000
                          A6        D1        D2        D3        D4
           A6           0.07293
           D1           0.00000   0.03222
           D2          -0.00000   0.00831   0.02580
           D3           0.00000   0.00831  -0.00918   0.02580
           D4          -0.00000  -0.01561   0.00831   0.00831   0.03222
 ITU=  0
     Eigenvalues ---    0.03323   0.03498   0.04783   0.10465   0.10650
     Eigenvalues ---    0.11016   0.14457   0.36156   0.36161   0.36430
     Eigenvalues ---    0.36452   0.63133
 Angle between quadratic step and forces=  18.76 degrees.
 Linear search not attempted -- first point.
 Iteration  1 RMS(Cart)=  0.00053188 RMS(Int)=  0.00000016
 Iteration  2 RMS(Cart)=  0.00000016 RMS(Int)=  0.00000000
 Variable       Old X    -DE/DX   Delta X   Delta X   Delta X     New X
                                 (Linear)    (Quad)   (Total)
    R1        2.50793   0.00009   0.00000   0.00026   0.00026   2.50819
    R2        2.04216   0.00002   0.00000   0.00004   0.00004   2.04220
    R3        2.04216   0.00002   0.00000   0.00003   0.00003   2.04220
    R4        2.04215   0.00003   0.00000   0.00005   0.00005   2.04220
    R5        2.04215   0.00003   0.00000   0.00004   0.00004   2.04220
    A1        2.12244  -0.00006   0.00000  -0.00058  -0.00058   2.12186
    A2        2.12242  -0.00006   0.00000  -0.00056  -0.00056   2.12186
    A3        2.03833   0.00012   0.00000   0.00114   0.00114   2.03947
    A4        2.12240  -0.00006   0.00000  -0.00054  -0.00054   2.12186
    A5        2.12240  -0.00006   0.00000  -0.00054  -0.00054   2.12186
    A6        2.03839   0.00012   0.00000   0.00107   0.00107   2.03947
    D1       -3.14150  -0.00000   0.00000  -0.00009  -0.00009   3.14159
    D2        0.00000  -0.00000   0.00000  -0.00000  -0.00000   0.00000
    D3       -0.00000   0.00000   0.00000   0.00000   0.00000   0.00000
    D4        3.14150   0.00000   0.00000   0.00009   0.00009  -3.14159
         Item               Value     Threshold  Converged?
 Maximum Force            0.000123     0.000450     YES
 RMS     Force            0.000060     0.000300     YES
 Maximum Displacement     0.000828     0.001800     YES
 RMS     Displacement     0.000532     0.001200     YES
 Predicted change in Energy=-2.135669D-07
 Optimization completed.
    -- Stationary point found.
                           ----------------------------
                           !   Optimized Parameters   !
                           ! (Angstroms and Degrees)  !
 --------------------------                            --------------------------
 ! Name  Definition              Value          Derivative Info.                !
 --------------------------------------------------------------------------------
 ! R1    R(1,2)                  1.3271         -DE/DX =    0.0001              !
 ! R2    R(1,4)                  1.0807         -DE/DX =    0.0                 !
 ! R3    R(1,5)                  1.0807         -DE/DX =    0.0                 !
 ! R4    R(2,3)                  1.0807         -DE/DX =    0.0                 !
 ! R5    R(2,6)                  1.0807         -DE/DX =    0.0                 !
 ! A1    A(2,1,4)              121.6066         -DE/DX =   -0.0001              !
 ! A2    A(2,1,5)              121.6058         -DE/DX =   -0.0001              !
 ! A3    A(4,1,5)              116.7876         -DE/DX =    0.0001              !
 ! A4    A(1,2,3)              121.6045         -DE/DX =   -0.0001              !
 ! A5    A(1,2,6)              121.6043         -DE/DX =   -0.0001              !
 ! A6    A(3,2,6)              116.7912         -DE/DX =    0.0001              !
 ! D1    D(4,1,2,3)            180.0052         -DE/DX =    0.0                 !
 ! D2    D(4,1,2,6)              0.0            -DE/DX =    0.0                 !
 ! D3    D(5,1,2,3)              0.0            -DE/DX =    0.0                 !
 ! D4    D(5,1,2,6)           -180.0052         -DE/DX =    0.0                 !
 --------------------------------------------------------------------------------
 GradGradGradGradGradGradGradGradGradGradGradGradGradGradGradGradGradGrad


 ----------------------------------------------------------------------

 Electric dipole moment (input orientation):
 (Debye = 10**-18 statcoulomb cm , SI units = C m)
                  (au)            (Debye)         (10**-30 SI)
   Tot        0.452559D-04      0.115029D-03      0.383696D-03
   x          0.000000D+00      0.000000D+00      0.000000D+00
   y          0.000000D+00      0.000000D+00      0.000000D+00
   z          0.452559D-04      0.115029D-03      0.383696D-03

 Dipole polarizability, Alpha (input orientation).
 (esu units = cm**3 , SI units = C**2 m**2 J**-1)
 Alpha(0;0):
               (au)            (10**-24 esu)      (10**-40 SI)
   iso        0.238838D+02      0.353922D+01      0.393791D+01
   aniso      0.158787D+02      0.235297D+01      0.261804D+01
   xx         0.336240D+02      0.498257D+01      0.554386D+01
   yx        -0.176360D-03     -0.261339D-04     -0.290779D-04
   yy         0.226040D+02      0.334956D+01      0.372689D+01
   zx        -0.139080D-04     -0.206095D-05     -0.229311D-05
   zy         0.000000D+00      0.000000D+00      0.000000D+00
   zz         0.154235D+02      0.228552D+01      0.254298D+01

 ----------------------------------------------------------------------

 Dipole orientation:
     6          1.24697627          0.00015808          0.13222914
     6         -1.24694484         -0.00016564         -0.13245231
     1         -2.31143699         -1.73956709         -0.24067306
     1          2.31152181          1.73952816          0.24061394
     1          2.31096402         -1.73895428          0.24990627
     1         -2.31089936          1.73896582         -0.24996765

 Electric dipole moment (dipole orientation):
 (Debye = 10**-18 statcoulomb cm , SI units = C m)
                  (au)            (Debye)         (10**-30 SI)
   Tot        0.455103D-04      0.115676D-03      0.385852D-03
   x          0.000000D+00      0.000000D+00      0.000000D+00
   y          0.000000D+00      0.000000D+00      0.000000D+00
   z          0.455103D-04      0.115676D-03      0.385852D-03

 Dipole polarizability, Alpha (dipole orientation).
 (esu units = cm**3 , SI units = C**2 m**2 J**-1)
 Alpha(0;0):
               (au)            (10**-24 esu)      (10**-40 SI)
   iso        0.238838D+02      0.353922D+01      0.393791D+01
   aniso      0.158787D+02      0.235297D+01      0.261804D+01
   xx         0.334213D+02      0.495253D+01      0.551043D+01
   yx         0.340079D-02      0.503946D-03      0.560715D-03
   yy         0.226039D+02      0.334955D+01      0.372688D+01
   zx         0.191012D+01      0.283051D+00      0.314937D+00
   zy        -0.189429D-01     -0.280705D-02     -0.312326D-02
   zz         0.156262D+02      0.231557D+01      0.257642D+01

 ----------------------------------------------------------------------
 1\1\GINC-N68\Freq\UB2PLYPD3-FC\CC-pVTZ\C2H4\ROOT\31-May-2019\0\\#N Geo
 m=AllCheck Guess=TCheck SCRF=Check GenChk UB2PLYPD3(FC)/CC-pVTZ Freq\\
 Title Card Required\\0,1\C,0.6635709982,-0.0000100622,-0.0000601286\C,
 -0.6635669273,0.0000063762,-0.0000590764\H,-1.2299001564,-0.9203685223
 ,-0.0000172279\H,1.2299414883,0.9203480104,-0.0000186743\H,1.229906525
 8,-0.9203922135,-0.0000186699\H,-1.2298759285,0.9203984115,-0.00001722
 29\\Version=ES64L-G16RevB.01\State=1-A\HF=-78.4304678\MP2=-78.54055\PU
 HF=-78.4304678\PMP2-0=-78.54055\S2=0.\S2-1=0.\S2A=0.\RMSD=5.427e-10\RM
 SF=8.331e-05\ZeroPoint=0.0512592\Thermal=0.0542963\Dipole=0.0000048,-0
 .0000001,0.0000453\DipoleDeriv=-0.0136681,0.0000011,0.0000102,0.000000
 7,0.1128003,0.,0.000053,0.,-0.2874426,-0.0136816,-0.0000001,-0.0000105
 ,-0.000001,0.1127814,0.,-0.0000529,0.,-0.2874434,0.0068396,-0.0424056,
 0.0000037,-0.0786332,-0.056388,0.0000005,0.0000189,0.0000091,0.1437229
 ,0.0068336,-0.042417,-0.0000035,-0.0786353,-0.0563969,-0.0000005,-0.00
 00189,-0.0000091,0.1437206,0.006835,0.0424156,-0.0000035,0.0786356,-0.
 056404,0.0000005,-0.0000189,0.0000091,0.1437196,0.0068415,0.042406,0.0
 000037,0.0786333,-0.0563928,-0.0000005,0.0000189,-0.0000091,0.143723\P
 olar=33.624043,-0.0001764,22.603952,-0.0000139,0.,15.4234584\PG=C01 [X
 (C2H4)]\NImag=0\\0.85602452,0.00000175,0.64473339,0.00001355,0.,0.1110
 0944,-0.56661304,0.00000565,-0.00000167,0.85601237,0.00000535,-0.11432
 295,0.,-0.00000037,0.64476458,0.00000244,0.,-0.04771542,-0.00001451,0.
 ,0.11100534,-0.01358283,-0.03070402,0.00000042,-0.13112215,-0.12109406
 ,0.00000644,0.13826781,0.00273247,0.00362256,0.00000013,-0.12617020,-0
 .26884152,0.00000810,0.13685416,0.27836067,-0.00000047,0.00000044,0.00
 560949,0.00000758,0.00001020,-0.03725384,-0.00000657,-0.00000917,0.024
 66440,-0.13112866,-0.12109364,-0.00000636,-0.01358139,-0.03070273,-0.0
 0000040,-0.00507289,0.00076404,-0.00000044,0.13827299,-0.12616823,-0.2
 6882429,-0.00000799,0.00273287,0.00362316,-0.00000014,0.00076398,0.001
 69595,-0.00000040,0.13685239,0.27834563,-0.00000753,-0.00001013,-0.037
 25621,0.00000051,-0.00000039,0.00560917,0.00000046,0.00000040,0.013108
 60,0.00000646,0.00000906,0.02466603,-0.13111791,0.12108561,-0.00000636
 ,-0.01358110,0.03070366,-0.00000040,0.00155212,-0.00024873,0.00000032,
 0.00995782,-0.01393212,0.00000041,0.13826209,0.12616043,-0.26883042,0.
 00000800,-0.00273211,0.00362200,0.00000014,0.00024882,0.00135875,-0.00
 000027,0.01393121,-0.01619915,0.00000079,-0.13684460,0.27835279,-0.000
 00753,0.00001013,-0.03725699,0.00000051,0.00000039,0.00560936,-0.00000
 033,-0.00000026,-0.00886181,0.00000041,-0.00000079,0.00273418,0.000006
 46,-0.00000906,0.02466666,-0.01358207,0.03070465,0.00000042,-0.1311146
 9,0.12108814,0.00000644,0.00995794,-0.01393175,-0.00000042,0.00155214,
 -0.00024889,-0.00000033,-0.00507303,-0.00076374,0.00000046,0.13825971,
 -0.00273177,0.00362171,-0.00000013,0.12616416,-0.26884528,-0.00000810,
 0.01393112,-0.01619642,-0.00000080,0.00024873,0.00135871,0.00000026,-0
 .00076382,0.00169604,-0.00000040,-0.13684841,0.27836524,-0.00000047,-0
 .00000044,0.00560969,0.00000758,-0.00001020,-0.03725462,-0.00000042,0.
 00000080,0.00273315,0.00000032,0.00000027,-0.00886177,-0.00000044,0.00
 000040,0.01310861,-0.00000657,0.00000917,0.02466495\\-0.00021885,0.000
 00243,-0.00000502,0.00020764,-0.00000203,-0.00000494,-0.00005875,0.000
 06867,0.00000248,0.00006459,-0.00006888,0.00000250,0.00006449,0.000067
 38,0.00000250,-0.00005912,-0.00006757,0.00000248\\\@


 A COMPLEXITY IS MERELY A DISARRANGEMENT OF SIMPLICITIES.

                                    -- G. O. ABELL IN "EXPLORATION OF THE UNIVERSE"
 Job cpu time:       0 days  0 hours 48 minutes 42.7 seconds.
 Elapsed time:       0 days  0 hours  1 minutes 15.1 seconds.
 File lengths (MBytes):  RWF=   1312 Int=      0 D2E=      0 Chk=      3 Scr=      1
 Normal termination of Gaussian 16 at Fri May 31 22:09:09 2019.
