 Entering Gaussian System, Link 0=g16
 Initial command:
 /ichec/packages/gaussian/16b01/l1.exe "/localscratch/386879/Gau-29591.inp" -scrdir="/localscratch/386879/"
 Entering Link 1 = /ichec/packages/gaussian/16b01/l1.exe PID=     29647.
  
 Copyright (c) 1988-2017, Gaussian, Inc.  All Rights Reserved.
  
 This is part of the Gaussian(R) 16 program.  It is based on
 the Gaussian(R) 09 system (copyright 2009, Gaussian, Inc.),
 the Gaussian(R) 03 system (copyright 2003, Gaussian, Inc.),
 the Gaussian(R) 98 system (copyright 1998, Gaussian, Inc.),
 the Gaussian(R) 94 system (copyright 1995, Gaussian, Inc.),
 the Gaussian 92(TM) system (copyright 1992, Gaussian, Inc.),
 the Gaussian 90(TM) system (copyright 1990, Gaussian, Inc.),
 the Gaussian 88(TM) system (copyright 1988, Gaussian, Inc.),
 the Gaussian 86(TM) system (copyright 1986, Carnegie Mellon
 University), and the Gaussian 82(TM) system (copyright 1983,
 Carnegie Mellon University). Gaussian is a federally registered
 trademark of Gaussian, Inc.
  
 This software contains proprietary and confidential information,
 including trade secrets, belonging to Gaussian, Inc.
  
 This software is provided under written license and may be
 used, copied, transmitted, or stored only in accord with that
 written license.
  
 The following legend is applicable only to US Government
 contracts under FAR:
  
                    RESTRICTED RIGHTS LEGEND
  
 Use, reproduction and disclosure by the US Government is
 subject to restrictions as set forth in subparagraphs (a)
 and (c) of the Commercial Computer Software - Restricted
 Rights clause in FAR 52.227-19.
  
 Gaussian, Inc.
 340 Quinnipiac St., Bldg. 40, Wallingford CT 06492
  
  
 ---------------------------------------------------------------
 Warning -- This program may not be used in any manner that
 competes with the business of Gaussian, Inc. or will provide
 assistance to any competitor of Gaussian, Inc.  The licensee
 of this program is prohibited from giving any competitor of
 Gaussian, Inc. access to this program.  By using this program,
 the user acknowledges that Gaussian, Inc. is engaged in the
 business of creating and licensing software in the field of
 computational chemistry and represents and warrants to the
 licensee that it is not a competitor of Gaussian, Inc. and that
 it will not use this program in any manner prohibited above.
 ---------------------------------------------------------------
  

 Cite this work as:
 Gaussian 16, Revision B.01,
 M. J. Frisch, G. W. Trucks, H. B. Schlegel, G. E. Scuseria, 
 M. A. Robb, J. R. Cheeseman, G. Scalmani, V. Barone, 
 G. A. Petersson, H. Nakatsuji, X. Li, M. Caricato, A. V. Marenich, 
 J. Bloino, B. G. Janesko, R. Gomperts, B. Mennucci, H. P. Hratchian, 
 J. V. Ortiz, A. F. Izmaylov, J. L. Sonnenberg, D. Williams-Young, 
 F. Ding, F. Lipparini, F. Egidi, J. Goings, B. Peng, A. Petrone, 
 T. Henderson, D. Ranasinghe, V. G. Zakrzewski, J. Gao, N. Rega, 
 G. Zheng, W. Liang, M. Hada, M. Ehara, K. Toyota, R. Fukuda, 
 J. Hasegawa, M. Ishida, T. Nakajima, Y. Honda, O. Kitao, H. Nakai, 
 T. Vreven, K. Throssell, J. A. Montgomery, Jr., J. E. Peralta, 
 F. Ogliaro, M. J. Bearpark, J. J. Heyd, E. N. Brothers, K. N. Kudin, 
 V. N. Staroverov, T. A. Keith, R. Kobayashi, J. Normand, 
 K. Raghavachari, A. P. Rendell, J. C. Burant, S. S. Iyengar, 
 J. Tomasi, M. Cossi, J. M. Millam, M. Klene, C. Adamo, R. Cammi, 
 J. W. Ochterski, R. L. Martin, K. Morokuma, O. Farkas, 
 J. B. Foresman, and D. J. Fox, Gaussian, Inc., Wallingford CT, 2016.
 
 ******************************************
 Gaussian 16:  ES64L-G16RevB.01 20-Dec-2017
                30-Jul-2019 
 ******************************************
 %mem=100GB
 %nproc=40
 Will use up to   40 processors via shared memory.
 -----------------------------------------------
 # opt=maxcyc=500 freq=noraman uB2PLYPD3/cc-pvtz
 -----------------------------------------------
 1/6=500,18=20,19=15,38=1/1,3;
 2/9=110,12=2,17=6,18=5,40=1/2;
 3/5=16,6=1,11=2,25=1,30=1,71=1,74=-60,116=2/1,2,3;
 4//1;
 5/5=2,38=5/2;
 8/6=4,10=1/1;
 9/15=2,16=-3/6;
 10/5=1/2;
 6/7=2,8=2,9=2,10=2/1;
 7/12=2/1,2,3,16;
 1/6=500,18=20,19=15/3(2);
 2/9=110/2;
 99//99;
 2/9=110/2;
 3/5=16,6=1,11=2,25=1,30=1,71=1,74=-60,116=2/1,2,3;
 4/5=5,16=3,69=1/1;
 5/5=2,38=5/2;
 8/6=4,10=1/1;
 9/15=2,16=-3/6;
 10/5=1/2;
 7/12=2/1,2,3,16;
 1/6=500,18=20,19=15/3(-8);
 2/9=110/2;
 6/7=2,8=2,9=2,10=2/1;
 99/9=10/99;
 -------------------
 Title Card Required
 -------------------
 Symbolic Z-matrix:
 Charge =  0 Multiplicity = 1
 C                     1.0203    0.886     0.9741 
 C                     1.8788    1.9888    1.571 
 O                     3.1962    1.4725    1.7389 
 H                    -0.0079    1.2345    0.8257 
 H                     1.0019    0.0158    1.6384 
 H                     1.4249    0.5693    0.0072 
 H                     1.8798    2.8664    0.9035 
 H                     1.4551    2.3134    2.5359 
 H                     3.7448    2.1751    2.1191 
 

 GradGradGradGradGradGradGradGradGradGradGradGradGradGradGradGradGradGrad
 Berny optimization.
 Initialization pass.
                           ----------------------------
                           !    Initial Parameters    !
                           ! (Angstroms and Degrees)  !
 --------------------------                            --------------------------
 ! Name  Definition              Value          Derivative Info.                !
 --------------------------------------------------------------------------------
 ! R1    R(1,2)                  1.5197         estimate D2E/DX2                !
 ! R2    R(1,4)                  1.0958         estimate D2E/DX2                !
 ! R3    R(1,5)                  1.0949         estimate D2E/DX2                !
 ! R4    R(1,6)                  1.0949         estimate D2E/DX2                !
 ! R5    R(2,3)                  1.4249         estimate D2E/DX2                !
 ! R6    R(2,7)                  1.1026         estimate D2E/DX2                !
 ! R7    R(2,8)                  1.1027         estimate D2E/DX2                !
 ! R8    R(3,9)                  0.9691         estimate D2E/DX2                !
 ! A1    A(2,1,4)              110.6395         estimate D2E/DX2                !
 ! A2    A(2,1,5)              110.3603         estimate D2E/DX2                !
 ! A3    A(2,1,6)              110.3645         estimate D2E/DX2                !
 ! A4    A(4,1,5)              108.6125         estimate D2E/DX2                !
 ! A5    A(4,1,6)              108.6106         estimate D2E/DX2                !
 ! A6    A(5,1,6)              108.1854         estimate D2E/DX2                !
 ! A7    A(1,2,3)              107.7967         estimate D2E/DX2                !
 ! A8    A(1,2,7)              109.8962         estimate D2E/DX2                !
 ! A9    A(1,2,8)              109.892          estimate D2E/DX2                !
 ! A10   A(3,2,7)              111.0326         estimate D2E/DX2                !
 ! A11   A(3,2,8)              111.0273         estimate D2E/DX2                !
 ! A12   A(7,2,8)              107.2047         estimate D2E/DX2                !
 ! A13   A(2,3,9)              107.8735         estimate D2E/DX2                !
 ! D1    D(4,1,2,3)            179.9441         estimate D2E/DX2                !
 ! D2    D(4,1,2,7)            -58.922          estimate D2E/DX2                !
 ! D3    D(4,1,2,8)             58.8191         estimate D2E/DX2                !
 ! D4    D(5,1,2,3)             59.7078         estimate D2E/DX2                !
 ! D5    D(5,1,2,7)           -179.1583         estimate D2E/DX2                !
 ! D6    D(5,1,2,8)            -61.4171         estimate D2E/DX2                !
 ! D7    D(6,1,2,3)            -59.8193         estimate D2E/DX2                !
 ! D8    D(6,1,2,7)             61.3146         estimate D2E/DX2                !
 ! D9    D(6,1,2,8)            179.0557         estimate D2E/DX2                !
 ! D10   D(1,2,3,9)            179.9705         estimate D2E/DX2                !
 ! D11   D(7,2,3,9)             59.5486         estimate D2E/DX2                !
 ! D12   D(8,2,3,9)            -59.6159         estimate D2E/DX2                !
 --------------------------------------------------------------------------------
 Trust Radius=3.00D-01 FncErr=1.00D-07 GrdErr=1.00D-07 EigMax=2.50D+02 EigMin=1.00D-04
 Number of steps in this run=    100 maximum allowed number of steps=    100.
 GradGradGradGradGradGradGradGradGradGradGradGradGradGradGradGradGradGrad

                          Input orientation:                          
 ---------------------------------------------------------------------
 Center     Atomic      Atomic             Coordinates (Angstroms)
 Number     Number       Type             X           Y           Z
 ---------------------------------------------------------------------
      1          6           0        1.020300    0.886000    0.974100
      2          6           0        1.878800    1.988800    1.571000
      3          8           0        3.196200    1.472500    1.738900
      4          1           0       -0.007900    1.234500    0.825700
      5          1           0        1.001900    0.015800    1.638400
      6          1           0        1.424900    0.569300    0.007200
      7          1           0        1.879800    2.866400    0.903500
      8          1           0        1.455100    2.313400    2.535900
      9          1           0        3.744800    2.175100    2.119100
 ---------------------------------------------------------------------
                    Distance matrix (angstroms):
                    1          2          3          4          5
     1  C    0.000000
     2  C    1.519697   0.000000
     3  O    2.379799   1.424886   0.000000
     4  H    1.095751   2.164273   3.340185   0.000000
     5  H    1.094934   2.160145   2.635721   1.779159   0.000000
     6  H    1.094941   2.160203   2.636676   1.779143   1.773726
     7  H    2.160025   1.102606   2.091353   2.496510   3.071922
     8  H    2.160033   1.102687   2.091351   2.495832   2.507960
     9  H    3.224237   1.953734   0.969103   4.079261   3.523798
                    6          7          8          9
     6  H    0.000000
     7  H    2.507380   0.000000
     8  H    3.071990   1.775080   0.000000
     9  H    3.524294   2.331052   2.331432   0.000000
 Stoichiometry    C2H6O
 Framework group  C1[X(C2H6O)]
 Deg. of freedom    21
 Full point group                 C1      NOp   1
 Largest Abelian subgroup         C1      NOp   1
 Largest concise Abelian subgroup C1      NOp   1
                         Standard orientation:                         
 ---------------------------------------------------------------------
 Center     Atomic      Atomic             Coordinates (Angstroms)
 Number     Number       Type             X           Y           Z
 ---------------------------------------------------------------------
      1          6           0        1.222710   -0.221918    0.000023
      2          6           0       -0.087097    0.548721   -0.000002
      3          8           0       -1.150435   -0.399757   -0.000056
      4          1           0        2.075595    0.466018   -0.000937
      5          1           0        1.288504   -0.861357   -0.886358
      6          1           0        1.289396   -0.859937    0.887368
      7          1           0       -0.138698    1.201011    0.887463
      8          1           0       -0.138643    1.200950   -0.887617
      9          1           0       -1.986350    0.090556    0.000403
 ---------------------------------------------------------------------
 Rotational constants (GHZ):          34.9591834           9.3536947           8.1329291
 Standard basis: CC-pVTZ (5D, 7F)
 There are   195 symmetry adapted cartesian basis functions of A   symmetry.
 There are   174 symmetry adapted basis functions of A   symmetry.
   174 basis functions,   258 primitive gaussians,   195 cartesian basis functions
    13 alpha electrons       13 beta electrons
       nuclear repulsion energy        81.6098682502 Hartrees.
 NAtoms=    9 NActive=    9 NUniq=    9 SFac= 1.00D+00 NAtFMM=   60 NAOKFM=F Big=F
 Integral buffers will be    131072 words long.
 Raffenetti 2 integral format.
 Two-electron integral symmetry is turned on.
 Nuclear repulsion after empirical dispersion term =       81.6068546487 Hartrees.
 One-electron integrals computed using PRISM.
 NBasis=   174 RedAO= T EigKep=  1.06D-03  NBF=   174
 NBsUse=   174 1.00D-06 EigRej= -1.00D+00 NBFU=   174
 ExpMin= 1.03D-01 ExpMax= 1.53D+04 ExpMxC= 5.22D+02 IAcc=3 IRadAn=         5 AccDes= 0.00D+00
 Harris functional with IExCor=  419 and IRadAn=       5 diagonalized for initial guess.
 HarFok:  IExCor=  419 AccDes= 0.00D+00 IRadAn=         5 IDoV= 1 UseB2=F ITyADJ=14
 ICtDFT=  3500011 ScaDFX=  1.000000  1.000000  1.000000  1.000000
 FoFCou: FMM=F IPFlag=           0 FMFlag=      100000 FMFlg1=           0
         NFxFlg=           0 DoJE=T BraDBF=F KetDBF=T FulRan=T
         wScrn=  0.000000 ICntrl=       500 IOpCl=  0 I1Cent=   200000004 NGrid=           0
         NMat0=    1 NMatS0=      1 NMatT0=    0 NMatD0=    1 NMtDS0=    0 NMtDT0=    0
 Petite list used in FoFCou.
 Initial guess <Sx>= 0.0000 <Sy>= 0.0000 <Sz>= 0.0000 <S**2>=-0.0000 S=-0.0000
 Keep R1 and R2 ints in memory in canonical form, NReq=272700713.
 Requested convergence on RMS density matrix=1.00D-08 within 128 cycles.
 Requested convergence on MAX density matrix=1.00D-06.
 Requested convergence on             energy=1.00D-06.
 No special actions if energy rises.
 Integral accuracy reduced to 1.0D-05 until final iterations.
 Initial convergence to 1.0D-05 achieved.  Increase integral accuracy.
 SCF Done:  E(UB2PLYPD3) =  -154.778014579     A.U. after   11 cycles
            NFock= 11  Conv=0.62D-08     -V/T= 2.0048
 <Sx>= 0.0000 <Sy>= 0.0000 <Sz>= 0.0000 <S**2>=-0.0000 S=-0.0000
 <L.S>=  0.00000000000    
 Annihilation of the first spin contaminant:
 S**2 before annihilation    -0.0000,   after     0.0000
 DoSCS=T DFT=T ScalE2(SS,OS)=  0.270000  0.270000
 ExpMin= 1.03D-01 ExpMax= 1.53D+04 ExpMxC= 5.22D+02 IAcc=3 IRadAn=         5 AccDes= 0.00D+00
 HarFok:  IExCor=  205 AccDes= 0.00D+00 IRadAn=         5 IDoV=-2 UseB2=F ITyADJ=14
 ICtDFT= 12500011 ScaDFX=  1.000000  1.000000  1.000000  1.000000
 Range of M.O.s used for correlation:     4   174
 NBasis=   174 NAE=    13 NBE=    13 NFC=     3 NFV=     0
 NROrb=    171 NOA=    10 NOB=    10 NVA=   161 NVB=   161

 **** Warning!!: The largest alpha MO coefficient is  0.11987409D+02


 **** Warning!!: The largest beta MO coefficient is  0.11987409D+02

 DoSCS=T DFT=T ScalE2(SS,OS)=  0.270000  0.270000
 Fully direct method using O(ONN) memory.
 JobTyp=2 Pass  1:  I=   4 to  13 NPSUse= 40 ParTrn=T ParDer=T DoDerP=T.
 JobTyp=3 Pass  1:  I=   4 to  13 NPSUse= 40 ParTrn=T ParDer=T DoDerP=T.
 Spin components of T(2) and E(2):
     alpha-alpha T2 =       0.3020416209D-01 E2=     -0.2256825894D-01
     alpha-beta  T2 =       0.1885020384D+00 E2=     -0.1498050971D+00
     beta-beta   T2 =       0.3020416209D-01 E2=     -0.2256825894D-01
 (S**2,0)=  0.00000D+00           (S**2,1)=  0.00000D+00
 E(PUHF)=      -0.15477801458D+03        E(PMP2)=      -0.15497295619D+03
 E2(B2PLYPD3) =    -0.1949416150D+00 E(B2PLYPD3) =    -0.15497295619403D+03
          IDoAtm=111111111
          Differentiating once with respect to electric field.
                with respect to dipole field.
          Differentiating once with respect to nuclear coordinates.
 Keep R1 and R2 ints in memory in canonical form, NReq=272707123.
          There are     1 degrees of freedom in the 1st order CPHF.  IDoFFX=0 NUNeed=     1.
 LinEq1:  Iter=  0 NonCon=     1 RMS=6.32D-04 Max=7.57D-03 NDo=     1
 AX will form     1 AO Fock derivatives at one time.
 LinEq1:  Iter=  1 NonCon=     1 RMS=2.19D-04 Max=2.79D-03 NDo=     1
 LinEq1:  Iter=  2 NonCon=     1 RMS=5.49D-05 Max=5.74D-04 NDo=     1
 LinEq1:  Iter=  3 NonCon=     1 RMS=2.93D-05 Max=3.35D-04 NDo=     1
 LinEq1:  Iter=  4 NonCon=     1 RMS=9.42D-06 Max=1.17D-04 NDo=     1
 LinEq1:  Iter=  5 NonCon=     1 RMS=2.54D-06 Max=3.06D-05 NDo=     1
 LinEq1:  Iter=  6 NonCon=     1 RMS=4.65D-07 Max=5.17D-06 NDo=     1
 LinEq1:  Iter=  7 NonCon=     1 RMS=2.03D-07 Max=1.83D-06 NDo=     1
 LinEq1:  Iter=  8 NonCon=     1 RMS=5.13D-08 Max=5.94D-07 NDo=     1
 LinEq1:  Iter=  9 NonCon=     1 RMS=9.85D-09 Max=1.48D-07 NDo=     1
 LinEq1:  Iter= 10 NonCon=     1 RMS=1.88D-09 Max=3.01D-08 NDo=     1
 LinEq1:  Iter= 11 NonCon=     1 RMS=3.31D-10 Max=4.23D-09 NDo=     1
 LinEq1:  Iter= 12 NonCon=     0 RMS=4.97D-11 Max=4.92D-10 NDo=     1
 Linear equations converged to 1.000D-10 1.000D-09 after    12 iterations.
 End of Minotr F.D. properties file   721 does not exist.
 End of Minotr F.D. properties file   722 does not exist.
 End of Minotr F.D. properties file   788 does not exist.

 **********************************************************************

            Population analysis using the SCF Density.

 **********************************************************************

 Orbital symmetries:
 Alpha Orbitals:
       Occupied  (A) (A) (A) (A) (A) (A) (A) (A) (A) (A) (A) (A)
                 (A)
       Virtual   (A) (A) (A) (A) (A) (A) (A) (A) (A) (A) (A) (A)
                 (A) (A) (A) (A) (A) (A) (A) (A) (A) (A) (A) (A)
                 (A) (A) (A) (A) (A) (A) (A) (A) (A) (A) (A) (A)
                 (A) (A) (A) (A) (A) (A) (A) (A) (A) (A) (A) (A)
                 (A) (A) (A) (A) (A) (A) (A) (A) (A) (A) (A) (A)
                 (A) (A) (A) (A) (A) (A) (A) (A) (A) (A) (A) (A)
                 (A) (A) (A) (A) (A) (A) (A) (A) (A) (A) (A) (A)
                 (A) (A) (A) (A) (A) (A) (A) (A) (A) (A) (A) (A)
                 (A) (A) (A) (A) (A) (A) (A) (A) (A) (A) (A) (A)
                 (A) (A) (A) (A) (A) (A) (A) (A) (A) (A) (A) (A)
                 (A) (A) (A) (A) (A) (A) (A) (A) (A) (A) (A) (A)
                 (A) (A) (A) (A) (A) (A) (A) (A) (A) (A) (A) (A)
                 (A) (A) (A) (A) (A) (A) (A) (A) (A) (A) (A) (A)
                 (A) (A) (A) (A) (A)
 Beta  Orbitals:
       Occupied  (A) (A) (A) (A) (A) (A) (A) (A) (A) (A) (A) (A)
                 (A)
       Virtual   (A) (A) (A) (A) (A) (A) (A) (A) (A) (A) (A) (A)
                 (A) (A) (A) (A) (A) (A) (A) (A) (A) (A) (A) (A)
                 (A) (A) (A) (A) (A) (A) (A) (A) (A) (A) (A) (A)
                 (A) (A) (A) (A) (A) (A) (A) (A) (A) (A) (A) (A)
                 (A) (A) (A) (A) (A) (A) (A) (A) (A) (A) (A) (A)
                 (A) (A) (A) (A) (A) (A) (A) (A) (A) (A) (A) (A)
                 (A) (A) (A) (A) (A) (A) (A) (A) (A) (A) (A) (A)
                 (A) (A) (A) (A) (A) (A) (A) (A) (A) (A) (A) (A)
                 (A) (A) (A) (A) (A) (A) (A) (A) (A) (A) (A) (A)
                 (A) (A) (A) (A) (A) (A) (A) (A) (A) (A) (A) (A)
                 (A) (A) (A) (A) (A) (A) (A) (A) (A) (A) (A) (A)
                 (A) (A) (A) (A) (A) (A) (A) (A) (A) (A) (A) (A)
                 (A) (A) (A) (A) (A) (A) (A) (A) (A) (A) (A) (A)
                 (A) (A) (A) (A) (A)
 The electronic state is 1-A.
 Alpha  occ. eigenvalues --  -19.72012 -10.66137 -10.60167  -1.15570  -0.85642
 Alpha  occ. eigenvalues --   -0.70203  -0.59063  -0.53788  -0.47162  -0.44504
 Alpha  occ. eigenvalues --   -0.43082  -0.39849  -0.34402
 Alpha virt. eigenvalues --    0.07462   0.10374   0.13418   0.13809   0.15856
 Alpha virt. eigenvalues --    0.18232   0.23222   0.24784   0.30425   0.32168
 Alpha virt. eigenvalues --    0.36915   0.39067   0.43733   0.44827   0.49314
 Alpha virt. eigenvalues --    0.51918   0.53508   0.55096   0.55406   0.55881
 Alpha virt. eigenvalues --    0.62092   0.62675   0.64313   0.68925   0.73011
 Alpha virt. eigenvalues --    0.76055   0.81479   0.83260   0.87109   0.91629
 Alpha virt. eigenvalues --    0.97070   1.02337   1.04488   1.11454   1.13093
 Alpha virt. eigenvalues --    1.14688   1.15750   1.16178   1.17757   1.22354
 Alpha virt. eigenvalues --    1.25133   1.25864   1.29283   1.31787   1.36389
 Alpha virt. eigenvalues --    1.38735   1.42014   1.45550   1.45760   1.53204
 Alpha virt. eigenvalues --    1.57396   1.61393   1.65204   1.73358   1.94168
 Alpha virt. eigenvalues --    2.05436   2.09477   2.16548   2.22060   2.31954
 Alpha virt. eigenvalues --    2.40134   2.42444   2.51121   2.51274   2.53246
 Alpha virt. eigenvalues --    2.58781   2.68502   2.69187   2.78169   2.85435
 Alpha virt. eigenvalues --    2.89870   2.92293   2.96956   2.99134   3.05078
 Alpha virt. eigenvalues --    3.06614   3.06997   3.12228   3.12591   3.13966
 Alpha virt. eigenvalues --    3.17703   3.20391   3.22411   3.24231   3.24780
 Alpha virt. eigenvalues --    3.33609   3.35057   3.44098   3.50311   3.50946
 Alpha virt. eigenvalues --    3.53461   3.55683   3.57127   3.59501   3.61605
 Alpha virt. eigenvalues --    3.64014   3.68087   3.73936   3.80529   3.82998
 Alpha virt. eigenvalues --    3.89234   3.90627   3.93756   3.94454   3.96651
 Alpha virt. eigenvalues --    3.99827   4.02249   4.03423   4.09260   4.14231
 Alpha virt. eigenvalues --    4.15824   4.16831   4.21097   4.23043   4.23524
 Alpha virt. eigenvalues --    4.23954   4.34768   4.38248   4.43143   4.45690
 Alpha virt. eigenvalues --    4.48777   4.49820   4.57559   4.65281   4.80907
 Alpha virt. eigenvalues --    4.82729   4.83934   4.95403   4.96052   4.99202
 Alpha virt. eigenvalues --    5.01394   5.07980   5.10194   5.15423   5.31526
 Alpha virt. eigenvalues --    5.34617   5.43199   5.44212   5.46185   5.48766
 Alpha virt. eigenvalues --    5.53957   5.57346   5.63496   5.71946   5.90199
 Alpha virt. eigenvalues --    6.02775   6.05582   6.05885   6.15885   6.32077
 Alpha virt. eigenvalues --    6.67423   6.84584   6.86360   6.93896   7.08530
 Alpha virt. eigenvalues --    7.17964   7.36489   7.60816  11.92119  12.60660
 Alpha virt. eigenvalues --   13.56458
  Beta  occ. eigenvalues --  -19.72012 -10.66137 -10.60167  -1.15570  -0.85642
  Beta  occ. eigenvalues --   -0.70203  -0.59063  -0.53788  -0.47162  -0.44504
  Beta  occ. eigenvalues --   -0.43082  -0.39849  -0.34402
  Beta virt. eigenvalues --    0.07462   0.10374   0.13418   0.13809   0.15856
  Beta virt. eigenvalues --    0.18232   0.23222   0.24784   0.30425   0.32168
  Beta virt. eigenvalues --    0.36915   0.39067   0.43733   0.44827   0.49314
  Beta virt. eigenvalues --    0.51918   0.53508   0.55096   0.55406   0.55881
  Beta virt. eigenvalues --    0.62092   0.62675   0.64313   0.68925   0.73011
  Beta virt. eigenvalues --    0.76055   0.81479   0.83260   0.87109   0.91629
  Beta virt. eigenvalues --    0.97070   1.02337   1.04488   1.11454   1.13093
  Beta virt. eigenvalues --    1.14688   1.15750   1.16178   1.17757   1.22354
  Beta virt. eigenvalues --    1.25133   1.25864   1.29283   1.31787   1.36389
  Beta virt. eigenvalues --    1.38735   1.42014   1.45550   1.45760   1.53204
  Beta virt. eigenvalues --    1.57396   1.61393   1.65204   1.73358   1.94168
  Beta virt. eigenvalues --    2.05436   2.09477   2.16548   2.22060   2.31954
  Beta virt. eigenvalues --    2.40134   2.42444   2.51121   2.51274   2.53246
  Beta virt. eigenvalues --    2.58781   2.68502   2.69187   2.78169   2.85435
  Beta virt. eigenvalues --    2.89870   2.92293   2.96956   2.99134   3.05078
  Beta virt. eigenvalues --    3.06614   3.06997   3.12228   3.12591   3.13966
  Beta virt. eigenvalues --    3.17703   3.20391   3.22411   3.24231   3.24780
  Beta virt. eigenvalues --    3.33609   3.35057   3.44098   3.50311   3.50946
  Beta virt. eigenvalues --    3.53461   3.55683   3.57127   3.59501   3.61605
  Beta virt. eigenvalues --    3.64014   3.68087   3.73936   3.80529   3.82998
  Beta virt. eigenvalues --    3.89234   3.90627   3.93756   3.94454   3.96651
  Beta virt. eigenvalues --    3.99827   4.02249   4.03423   4.09260   4.14231
  Beta virt. eigenvalues --    4.15824   4.16831   4.21097   4.23043   4.23524
  Beta virt. eigenvalues --    4.23954   4.34768   4.38248   4.43143   4.45690
  Beta virt. eigenvalues --    4.48777   4.49820   4.57559   4.65281   4.80907
  Beta virt. eigenvalues --    4.82729   4.83934   4.95403   4.96052   4.99202
  Beta virt. eigenvalues --    5.01394   5.07980   5.10194   5.15423   5.31526
  Beta virt. eigenvalues --    5.34617   5.43199   5.44212   5.46185   5.48766
  Beta virt. eigenvalues --    5.53957   5.57346   5.63496   5.71946   5.90199
  Beta virt. eigenvalues --    6.02775   6.05582   6.05885   6.15885   6.32077
  Beta virt. eigenvalues --    6.67423   6.84584   6.86360   6.93896   7.08530
  Beta virt. eigenvalues --    7.17964   7.36489   7.60816  11.92119  12.60660
  Beta virt. eigenvalues --   13.56458
          Condensed to atoms (all electrons):
               1          2          3          4          5          6
     1  C    4.877833   0.330633  -0.048098   0.386027   0.401451   0.401471
     2  C    0.330633   4.576076   0.342870  -0.028640  -0.030063  -0.030060
     3  O   -0.048098   0.342870   7.837595   0.003533   0.003726   0.003723
     4  H    0.386027  -0.028640   0.003533   0.614889  -0.029140  -0.029153
     5  H    0.401451  -0.030063   0.003726  -0.029140   0.589237  -0.032406
     6  H    0.401471  -0.030060   0.003723  -0.029153  -0.032406   0.589287
     7  H   -0.039660   0.406980  -0.050047  -0.000139   0.010416  -0.012748
     8  H   -0.039721   0.406990  -0.050063  -0.000141  -0.012728   0.010414
     9  H    0.008639  -0.033541   0.333617  -0.000868  -0.000106  -0.000105
               7          8          9
     1  C   -0.039660  -0.039721   0.008639
     2  C    0.406980   0.406990  -0.033541
     3  O   -0.050047  -0.050063   0.333617
     4  H   -0.000139  -0.000141  -0.000868
     5  H    0.010416  -0.012728  -0.000106
     6  H   -0.012748   0.010414  -0.000105
     7  H    0.718341  -0.079858  -0.006156
     8  H   -0.079858   0.718419  -0.006139
     9  H   -0.006156  -0.006139   0.496506
          Atomic-Atomic Spin Densities.
               1          2          3          4          5          6
     1  C    0.000000  -0.000000  -0.000000   0.000000  -0.000000  -0.000000
     2  C   -0.000000   0.000000  -0.000000   0.000000  -0.000000  -0.000000
     3  O   -0.000000  -0.000000   0.000000   0.000000   0.000000   0.000000
     4  H    0.000000   0.000000   0.000000   0.000000  -0.000000   0.000000
     5  H   -0.000000  -0.000000   0.000000  -0.000000  -0.000000   0.000000
     6  H   -0.000000  -0.000000   0.000000   0.000000   0.000000  -0.000000
     7  H    0.000000  -0.000000   0.000000  -0.000000   0.000000   0.000000
     8  H   -0.000000   0.000000  -0.000000  -0.000000   0.000000   0.000000
     9  H    0.000000  -0.000000  -0.000000  -0.000000  -0.000000  -0.000000
               7          8          9
     1  C    0.000000  -0.000000   0.000000
     2  C   -0.000000   0.000000  -0.000000
     3  O    0.000000  -0.000000  -0.000000
     4  H   -0.000000  -0.000000  -0.000000
     5  H    0.000000   0.000000  -0.000000
     6  H    0.000000   0.000000  -0.000000
     7  H   -0.000000  -0.000000   0.000000
     8  H   -0.000000   0.000000   0.000000
     9  H    0.000000   0.000000  -0.000000
 Mulliken charges and spin densities:
               1          2
     1  C   -0.278574   0.000000
     2  C    0.058757  -0.000000
     3  O   -0.376857   0.000000
     4  H    0.083632   0.000000
     5  H    0.099612  -0.000000
     6  H    0.099577  -0.000000
     7  H    0.052872  -0.000000
     8  H    0.052827   0.000000
     9  H    0.208154  -0.000000
 Sum of Mulliken charges =  -0.00000   0.00000
 Mulliken charges and spin densities with hydrogens summed into heavy atoms:
               1          2
     1  C    0.004247   0.000000
     2  C    0.164456  -0.000000
     3  O   -0.168703   0.000000
 Electronic spatial extent (au):  <R**2>=            194.3955
 Charge=             -0.0000 electrons
 Dipole moment (field-independent basis, Debye):
    X=             -0.1914    Y=              1.5972    Z=              0.0008  Tot=              1.6086
 Quadrupole moment (field-independent basis, Debye-Ang):
   XX=            -17.2126   YY=            -20.6919   ZZ=            -20.2009
   XY=             -1.9361   XZ=             -0.0019   YZ=              0.0004
 Traceless Quadrupole moment (field-independent basis, Debye-Ang):
   XX=              2.1559   YY=             -1.3234   ZZ=             -0.8324
   XY=             -1.9361   XZ=             -0.0019   YZ=              0.0004
 Octapole moment (field-independent basis, Debye-Ang**2):
  XXX=            -16.0962  YYY=             -0.7253  ZZZ=              0.0020  XYY=             -0.8509
  XXY=              2.7472  XXZ=              0.0033  XZZ=             -1.4323  YZZ=             -0.3271
  YYZ=             -0.0009  XYZ=             -0.0008
 Hexadecapole moment (field-independent basis, Debye-Ang**3):
 XXXX=           -135.1880 YYYY=            -59.3465 ZZZZ=            -34.0474 XXXY=             -0.1362
 XXXZ=             -0.0104 YYYX=              1.0725 YYYZ=              0.0033 ZZZX=              0.0016
 ZZZY=             -0.0001 XXYY=            -36.6596 XXZZ=            -33.5564 YYZZ=            -14.2927
 XXYZ=             -0.0015 YYXZ=             -0.0018 ZZXY=             -0.7697
 N-N= 8.160685464869D+01 E-N=-5.255040778820D+02  KE= 1.540363092560D+02
                          Isotropic Fermi Contact Couplings
        Atom                 a.u.       MegaHertz       Gauss      10(-4) cm-1
     1  C(13)              0.00000       0.00000       0.00000       0.00000
     2  C(13)              0.00000       0.00000       0.00000       0.00000
     3  O(17)              0.00000      -0.00000      -0.00000      -0.00000
     4  H(1)              -0.00000      -0.00000      -0.00000      -0.00000
     5  H(1)              -0.00000      -0.00000      -0.00000      -0.00000
     6  H(1)               0.00000       0.00000       0.00000       0.00000
     7  H(1)               0.00000       0.00000       0.00000       0.00000
     8  H(1)               0.00000       0.00000       0.00000       0.00000
     9  H(1)               0.00000       0.00000       0.00000       0.00000
 --------------------------------------------------------
       Center         ----  Spin Dipole Couplings  ----
                      3XX-RR        3YY-RR        3ZZ-RR
 --------------------------------------------------------
     1   Atom        0.000000      0.000000      0.000000
     2   Atom        0.000000      0.000000      0.000000
     3   Atom        0.000000      0.000000      0.000000
     4   Atom        0.000000      0.000000      0.000000
     5   Atom        0.000000      0.000000      0.000000
     6   Atom        0.000000      0.000000      0.000000
     7   Atom        0.000000      0.000000      0.000000
     8   Atom        0.000000      0.000000      0.000000
     9   Atom        0.000000      0.000000      0.000000
 --------------------------------------------------------
                        XY            XZ            YZ
 --------------------------------------------------------
     1   Atom        0.000000      0.000000      0.000000
     2   Atom        0.000000      0.000000      0.000000
     3   Atom        0.000000      0.000000      0.000000
     4   Atom        0.000000      0.000000      0.000000
     5   Atom        0.000000      0.000000      0.000000
     6   Atom        0.000000      0.000000      0.000000
     7   Atom        0.000000      0.000000      0.000000
     8   Atom        0.000000      0.000000      0.000000
     9   Atom        0.000000      0.000000      0.000000
 --------------------------------------------------------


 ---------------------------------------------------------------------------------
              Anisotropic Spin Dipole Couplings in Principal Axis System
 ---------------------------------------------------------------------------------

       Atom             a.u.   MegaHertz   Gauss  10(-4) cm-1        Axes

              Baa     0.0000     0.000     0.000     0.000  1.0000  0.0000  0.0000
     1 C(13)  Bbb     0.0000     0.000     0.000     0.000 -0.0000  1.0000  0.0000
              Bcc     0.0000     0.000     0.000     0.000  0.0000  0.0000  1.0000
 
              Baa     0.0000     0.000     0.000     0.000  1.0000  0.0000  0.0000
     2 C(13)  Bbb     0.0000     0.000     0.000     0.000 -0.0000  1.0000  0.0000
              Bcc     0.0000     0.000     0.000     0.000  0.0000  0.0000  1.0000
 
              Baa     0.0000    -0.000    -0.000    -0.000  1.0000  0.0000  0.0000
     3 O(17)  Bbb     0.0000    -0.000    -0.000    -0.000 -0.0000  1.0000  0.0000
              Bcc     0.0000    -0.000    -0.000    -0.000  0.0000  0.0000  1.0000
 
              Baa     0.0000     0.000     0.000     0.000  1.0000  0.0000  0.0000
     4 H(1)   Bbb     0.0000     0.000     0.000     0.000 -0.0000  1.0000  0.0000
              Bcc     0.0000     0.000     0.000     0.000  0.0000  0.0000  1.0000
 
              Baa     0.0000     0.000     0.000     0.000  1.0000  0.0000  0.0000
     5 H(1)   Bbb     0.0000     0.000     0.000     0.000 -0.0000  1.0000  0.0000
              Bcc     0.0000     0.000     0.000     0.000  0.0000  0.0000  1.0000
 
              Baa     0.0000     0.000     0.000     0.000  1.0000  0.0000  0.0000
     6 H(1)   Bbb     0.0000     0.000     0.000     0.000 -0.0000  1.0000  0.0000
              Bcc     0.0000     0.000     0.000     0.000  0.0000  0.0000  1.0000
 
              Baa     0.0000     0.000     0.000     0.000  1.0000  0.0000  0.0000
     7 H(1)   Bbb     0.0000     0.000     0.000     0.000 -0.0000  1.0000  0.0000
              Bcc     0.0000     0.000     0.000     0.000  0.0000  0.0000  1.0000
 
              Baa     0.0000     0.000     0.000     0.000  1.0000  0.0000  0.0000
     8 H(1)   Bbb     0.0000     0.000     0.000     0.000 -0.0000  1.0000  0.0000
              Bcc     0.0000     0.000     0.000     0.000  0.0000  0.0000  1.0000
 
              Baa     0.0000     0.000     0.000     0.000  1.0000  0.0000  0.0000
     9 H(1)   Bbb     0.0000     0.000     0.000     0.000 -0.0000  1.0000  0.0000
              Bcc     0.0000     0.000     0.000     0.000  0.0000  0.0000  1.0000
 

 ---------------------------------------------------------------------------------

 Calling FoFJK, ICntrl=  10002127 FMM=F ISym2X=0 I1Cent= 0 IOpClX= 1 NMat=1 NMatS=1 NMatT=0.
 ***** Axes restored to original set *****
 -------------------------------------------------------------------
 Center     Atomic                   Forces (Hartrees/Bohr)
 Number     Number              X              Y              Z
 -------------------------------------------------------------------
      1        6           0.000137204   -0.000710948   -0.000218148
      2        6          -0.005065351    0.002290607   -0.000485022
      3        8           0.003759034    0.007791377    0.003599940
      4        1           0.004127171   -0.001186052    0.000666519
      5        1           0.000082209    0.003563871   -0.002405150
      6        1          -0.001509863    0.001470436    0.003751747
      7        1           0.000619240   -0.004272619    0.002661585
      8        1           0.002372639   -0.002020390   -0.004054937
      9        1          -0.004522283   -0.006926282   -0.003516535
 -------------------------------------------------------------------
 Cartesian Forces:  Max     0.007791377 RMS     0.003377864

 GradGradGradGradGradGradGradGradGradGradGradGradGradGradGradGradGradGrad
 Berny optimization.
 FormGI is forming the generalized inverse of G from B-inverse, IUseBI=4.
 Internal  Forces:  Max     0.008961206 RMS     0.002532247
 Search for a local minimum.
 Step number   1 out of a maximum of  100
 All quantities printed in internal units (Hartrees-Bohrs-Radians)
 Mixed Optimization -- RFO/linear search
 Second derivative matrix not updated -- first step.
 ITU=  0
     Eigenvalues ---    0.00505   0.01363   0.05372   0.05690   0.05741
     Eigenvalues ---    0.06011   0.11059   0.13626   0.16000   0.16000
     Eigenvalues ---    0.16000   0.16000   0.21946   0.30396   0.33387
     Eigenvalues ---    0.33396   0.34156   0.34248   0.34249   0.41733
     Eigenvalues ---    0.53561
 RFO step:  Lambda=-5.62760741D-04 EMin= 5.05390808D-03
 Linear search not attempted -- first point.
 Iteration  1 RMS(Cart)=  0.00839257 RMS(Int)=  0.00002419
 Iteration  2 RMS(Cart)=  0.00002276 RMS(Int)=  0.00000354
 Iteration  3 RMS(Cart)=  0.00000000 RMS(Int)=  0.00000354
 Variable       Old X    -DE/DX   Delta X   Delta X   Delta X     New X
                                 (Linear)    (Quad)   (Total)
    R1        2.87181  -0.00458   0.00000  -0.01505  -0.01505   2.85676
    R2        2.07067  -0.00434   0.00000  -0.01269  -0.01269   2.05798
    R3        2.06913  -0.00429   0.00000  -0.01251  -0.01251   2.05661
    R4        2.06914  -0.00430   0.00000  -0.01252  -0.01252   2.05661
    R5        2.69264  -0.00101   0.00000  -0.00242  -0.00242   2.69023
    R6        2.08362  -0.00501   0.00000  -0.01498  -0.01498   2.06864
    R7        2.08378  -0.00505   0.00000  -0.01511  -0.01511   2.06866
    R8        1.83134  -0.00896   0.00000  -0.01671  -0.01671   1.81463
    A1        1.93102  -0.00026   0.00000  -0.00205  -0.00205   1.92897
    A2        1.92615  -0.00019   0.00000  -0.00095  -0.00096   1.92520
    A3        1.92622  -0.00018   0.00000  -0.00092  -0.00092   1.92531
    A4        1.89565   0.00018   0.00000   0.00070   0.00070   1.89635
    A5        1.89561   0.00018   0.00000   0.00073   0.00073   1.89635
    A6        1.88819   0.00029   0.00000   0.00263   0.00263   1.89082
    A7        1.88141  -0.00002   0.00000  -0.00161  -0.00161   1.87980
    A8        1.91805   0.00011   0.00000   0.00147   0.00146   1.91951
    A9        1.91798   0.00011   0.00000   0.00153   0.00153   1.91950
   A10        1.93788  -0.00030   0.00000  -0.00412  -0.00412   1.93376
   A11        1.93779  -0.00029   0.00000  -0.00400  -0.00400   1.93379
   A12        1.87107   0.00040   0.00000   0.00680   0.00678   1.87786
   A13        1.88275   0.00128   0.00000   0.00796   0.00796   1.89071
    D1        3.14062   0.00000   0.00000   0.00045   0.00045   3.14106
    D2       -1.02838  -0.00031   0.00000  -0.00470  -0.00470  -1.03308
    D3        1.02659   0.00031   0.00000   0.00540   0.00540   1.03199
    D4        1.04210   0.00007   0.00000   0.00152   0.00152   1.04362
    D5       -3.12690  -0.00025   0.00000  -0.00362  -0.00363  -3.13053
    D6       -1.07193   0.00037   0.00000   0.00647   0.00647  -1.06546
    D7       -1.04404  -0.00005   0.00000  -0.00056  -0.00056  -1.04460
    D8        1.07014  -0.00037   0.00000  -0.00570  -0.00571   1.06444
    D9        3.12511   0.00025   0.00000   0.00439   0.00440   3.12951
   D10        3.14108  -0.00000   0.00000  -0.00001  -0.00001   3.14107
   D11        1.03932   0.00006   0.00000   0.00168   0.00168   1.04099
   D12       -1.04049  -0.00006   0.00000  -0.00154  -0.00153  -1.04203
         Item               Value     Threshold  Converged?
 Maximum Force            0.008961     0.000450     NO 
 RMS     Force            0.002532     0.000300     NO 
 Maximum Displacement     0.018071     0.001800     NO 
 RMS     Displacement     0.008400     0.001200     NO 
 Predicted change in Energy=-2.818944D-04
 GradGradGradGradGradGradGradGradGradGradGradGradGradGradGradGradGradGrad

                          Input orientation:                          
 ---------------------------------------------------------------------
 Center     Atomic      Atomic             Coordinates (Angstroms)
 Number     Number       Type             X           Y           Z
 ---------------------------------------------------------------------
      1          6           0        1.023253    0.888892    0.975843
      2          6           0        1.873497    1.988777    1.569704
      3          8           0        3.190417    1.474918    1.738015
      4          1           0        0.001121    1.234289    0.827684
      5          1           0        1.006331    0.025363    1.638001
      6          1           0        1.427566    0.575803    0.015150
      7          1           0        1.877678    2.858533    0.905004
      8          1           0        1.455165    2.307955    2.529635
      9          1           0        3.738873    2.167271    2.114765
 ---------------------------------------------------------------------
                    Distance matrix (angstroms):
                    1          2          3          4          5
     1  C    0.000000
     2  C    1.511731   0.000000
     3  O    2.370851   1.423608   0.000000
     4  H    1.089038   2.150729   3.325389   0.000000
     5  H    1.088312   2.147472   2.623251   1.768774   0.000000
     6  H    1.088314   2.147554   2.623798   1.768774   1.764673
     7  H    2.148149   1.094678   2.081245   2.483065   3.053422
     8  H    2.148152   1.094689   2.081277   2.482668   2.491323
     9  H    3.210294   1.951558   0.960259   4.061751   3.504549
                    6          7          8          9
     6  H    0.000000
     7  H    2.491043   0.000000
     8  H    3.053482   1.766658   0.000000
     9  H    3.504753   2.324954   2.325345   0.000000
 Stoichiometry    C2H6O
 Framework group  C1[X(C2H6O)]
 Deg. of freedom    21
 Full point group                 C1      NOp   1
 Largest Abelian subgroup         C1      NOp   1
 Largest concise Abelian subgroup C1      NOp   1
                         Standard orientation:                         
 ---------------------------------------------------------------------
 Center     Atomic      Atomic             Coordinates (Angstroms)
 Number     Number       Type             X           Y           Z
 ---------------------------------------------------------------------
      1          6           0        1.216935   -0.223080    0.000027
      2          6           0       -0.082906    0.548766   -0.000018
      3          8           0       -1.147580   -0.396288   -0.000057
      4          1           0        2.065948    0.458961   -0.000481
      5          1           0        1.279525   -0.857434   -0.882073
      6          1           0        1.280017   -0.856729    0.882600
      7          1           0       -0.135281    1.193205    0.883313
      8          1           0       -0.135195    1.193238   -0.883345
      9          1           0       -1.978547    0.084951    0.000389
 ---------------------------------------------------------------------
 Rotational constants (GHZ):          35.2595247           9.4295972           8.1983287
 Standard basis: CC-pVTZ (5D, 7F)
 There are   195 symmetry adapted cartesian basis functions of A   symmetry.
 There are   174 symmetry adapted basis functions of A   symmetry.
   174 basis functions,   258 primitive gaussians,   195 cartesian basis functions
    13 alpha electrons       13 beta electrons
       nuclear repulsion energy        81.9742085416 Hartrees.
 NAtoms=    9 NActive=    9 NUniq=    9 SFac= 1.00D+00 NAtFMM=   60 NAOKFM=F Big=F
 Integral buffers will be    131072 words long.
 Raffenetti 2 integral format.
 Two-electron integral symmetry is turned on.
 Nuclear repulsion after empirical dispersion term =       81.9711879435 Hartrees.
 One-electron integrals computed using PRISM.
 NBasis=   174 RedAO= T EigKep=  1.03D-03  NBF=   174
 NBsUse=   174 1.00D-06 EigRej= -1.00D+00 NBFU=   174
 Initial guess from the checkpoint file:  "/localscratch/386879/Gau-29647.chk"
 B after Tr=     0.000000   -0.000000   -0.000000
         Rot=    1.000000   -0.000064    0.000011    0.000836 Ang=  -0.10 deg.
 Initial guess <Sx>= 0.0000 <Sy>= 0.0000 <Sz>= 0.0000 <S**2>=-0.0000 S=-0.0000
 Keep R1 and R2 ints in memory in canonical form, NReq=272700713.
 Requested convergence on RMS density matrix=1.00D-08 within 128 cycles.
 Requested convergence on MAX density matrix=1.00D-06.
 Requested convergence on             energy=1.00D-06.
 No special actions if energy rises.
 SCF Done:  E(UB2PLYPD3) =  -154.778690874     A.U. after    8 cycles
            NFock=  8  Conv=0.80D-08     -V/T= 2.0043
 <Sx>= 0.0000 <Sy>= 0.0000 <Sz>= 0.0000 <S**2>=-0.0000 S=-0.0000
 <L.S>=  0.00000000000    
 Annihilation of the first spin contaminant:
 S**2 before annihilation    -0.0000,   after    -0.0000
 DoSCS=T DFT=T ScalE2(SS,OS)=  0.270000  0.270000
 ExpMin= 1.03D-01 ExpMax= 1.53D+04 ExpMxC= 5.22D+02 IAcc=3 IRadAn=         5 AccDes= 0.00D+00
 HarFok:  IExCor=  205 AccDes= 0.00D+00 IRadAn=         5 IDoV=-2 UseB2=F ITyADJ=14
 ICtDFT= 12500011 ScaDFX=  1.000000  1.000000  1.000000  1.000000
 Range of M.O.s used for correlation:     4   174
 NBasis=   174 NAE=    13 NBE=    13 NFC=     3 NFV=     0
 NROrb=    171 NOA=    10 NOB=    10 NVA=   161 NVB=   161

 **** Warning!!: The largest alpha MO coefficient is  0.12139819D+02


 **** Warning!!: The largest beta MO coefficient is  0.12139819D+02

 DoSCS=T DFT=T ScalE2(SS,OS)=  0.270000  0.270000
 Fully direct method using O(ONN) memory.
 JobTyp=2 Pass  1:  I=   4 to  13 NPSUse= 40 ParTrn=T ParDer=T DoDerP=T.
 JobTyp=3 Pass  1:  I=   4 to  13 NPSUse= 40 ParTrn=T ParDer=T DoDerP=T.
 Spin components of T(2) and E(2):
     alpha-alpha T2 =       0.2999433007D-01 E2=     -0.2254170751D-01
     alpha-beta  T2 =       0.1867236816D+00 E2=     -0.1494722240D+00
     beta-beta   T2 =       0.2999433007D-01 E2=     -0.2254170751D-01
 (S**2,0)=  0.00000D+00           (S**2,1)=  0.00000D+00
 E(PUHF)=      -0.15477869087D+03        E(PMP2)=      -0.15497324651D+03
 E2(B2PLYPD3) =    -0.1945556390D+00 E(B2PLYPD3) =    -0.15497324651328D+03
          IDoAtm=111111111
          Differentiating once with respect to electric field.
                with respect to dipole field.
          Differentiating once with respect to nuclear coordinates.
 Keep R1 and R2 ints in memory in canonical form, NReq=272707123.
          There are     1 degrees of freedom in the 1st order CPHF.  IDoFFX=0 NUNeed=     1.
 LinEq1:  Iter=  0 NonCon=     1 RMS=6.27D-04 Max=7.51D-03 NDo=     1
 AX will form     1 AO Fock derivatives at one time.
 LinEq1:  Iter=  1 NonCon=     1 RMS=2.15D-04 Max=2.73D-03 NDo=     1
 LinEq1:  Iter=  2 NonCon=     1 RMS=5.37D-05 Max=5.55D-04 NDo=     1
 LinEq1:  Iter=  3 NonCon=     1 RMS=2.87D-05 Max=3.33D-04 NDo=     1
 LinEq1:  Iter=  4 NonCon=     1 RMS=9.08D-06 Max=1.14D-04 NDo=     1
 LinEq1:  Iter=  5 NonCon=     1 RMS=2.45D-06 Max=2.97D-05 NDo=     1
 LinEq1:  Iter=  6 NonCon=     1 RMS=4.44D-07 Max=4.80D-06 NDo=     1
 LinEq1:  Iter=  7 NonCon=     1 RMS=1.91D-07 Max=1.71D-06 NDo=     1
 LinEq1:  Iter=  8 NonCon=     1 RMS=4.88D-08 Max=5.64D-07 NDo=     1
 LinEq1:  Iter=  9 NonCon=     1 RMS=9.35D-09 Max=1.42D-07 NDo=     1
 LinEq1:  Iter= 10 NonCon=     1 RMS=1.78D-09 Max=2.82D-08 NDo=     1
 LinEq1:  Iter= 11 NonCon=     1 RMS=3.13D-10 Max=4.00D-09 NDo=     1
 LinEq1:  Iter= 12 NonCon=     0 RMS=4.70D-11 Max=4.66D-10 NDo=     1
 Linear equations converged to 1.000D-10 1.000D-09 after    12 iterations.
 End of Minotr F.D. properties file   721 does not exist.
 End of Minotr F.D. properties file   722 does not exist.
 End of Minotr F.D. properties file   788 does not exist.
 Calling FoFJK, ICntrl=  10002127 FMM=F ISym2X=0 I1Cent= 0 IOpClX= 1 NMat=1 NMatS=1 NMatT=0.
 ***** Axes restored to original set *****
 -------------------------------------------------------------------
 Center     Atomic                   Forces (Hartrees/Bohr)
 Number     Number              X              Y              Z
 -------------------------------------------------------------------
      1        6           0.000039835   -0.000132118   -0.000032341
      2        6          -0.001092410    0.000503530   -0.000115520
      3        8           0.000930964    0.000500214    0.000409830
      4        1          -0.000100589   -0.000060075   -0.000047694
      5        1          -0.000059115   -0.000003093   -0.000016494
      6        1          -0.000054368   -0.000002332   -0.000011663
      7        1           0.000209093   -0.000168929    0.000080003
      8        1           0.000251878   -0.000126419   -0.000062528
      9        1          -0.000125289   -0.000510777   -0.000203594
 -------------------------------------------------------------------
 Cartesian Forces:  Max     0.001092410 RMS     0.000347910

 GradGradGradGradGradGradGradGradGradGradGradGradGradGradGradGradGradGrad
 Berny optimization.
 Using GEDIIS/GDIIS optimizer.
 FormGI is forming the generalized inverse of G from B-inverse, IUseBI=4.
 Internal  Forces:  Max     0.000773515 RMS     0.000203787
 Search for a local minimum.
 Step number   2 out of a maximum of  100
 All quantities printed in internal units (Hartrees-Bohrs-Radians)
 Mixed Optimization -- En-DIIS/RFO-DIIS
 Update second derivatives using D2CorX and points    1    2
 DE= -2.90D-04 DEPred=-2.82D-04 R= 1.03D+00
 TightC=F SS=  1.41D+00  RLast= 4.21D-02 DXNew= 5.0454D-01 1.2617D-01
 Trust test= 1.03D+00 RLast= 4.21D-02 DXMaxT set to 3.00D-01
 ITU=  1  0
 Use linear search instead of GDIIS.
     Eigenvalues ---    0.00505   0.01363   0.05395   0.05710   0.05747
     Eigenvalues ---    0.05927   0.11048   0.13615   0.15806   0.16000
     Eigenvalues ---    0.16000   0.16029   0.21934   0.30832   0.32876
     Eigenvalues ---    0.33391   0.34188   0.34248   0.34534   0.42347
     Eigenvalues ---    0.52452
 RFO step:  Lambda=-4.99285663D-06 EMin= 5.05384642D-03
 Quartic linear search produced a step of  0.02442.
 Iteration  1 RMS(Cart)=  0.00106320 RMS(Int)=  0.00000099
 Iteration  2 RMS(Cart)=  0.00000082 RMS(Int)=  0.00000061
 Variable       Old X    -DE/DX   Delta X   Delta X   Delta X     New X
                                 (Linear)    (Quad)   (Total)
    R1        2.85676   0.00028  -0.00037   0.00120   0.00083   2.85759
    R2        2.05798   0.00008  -0.00031   0.00045   0.00014   2.05812
    R3        2.05661  -0.00001  -0.00031   0.00018  -0.00012   2.05649
    R4        2.05661  -0.00001  -0.00031   0.00017  -0.00013   2.05648
    R5        2.69023   0.00077  -0.00006   0.00194   0.00188   2.69211
    R6        2.06864  -0.00018  -0.00037  -0.00032  -0.00068   2.06796
    R7        2.06866  -0.00019  -0.00037  -0.00033  -0.00070   2.06796
    R8        1.81463  -0.00052  -0.00041  -0.00073  -0.00114   1.81349
    A1        1.92897   0.00011  -0.00005   0.00069   0.00064   1.92962
    A2        1.92520   0.00004  -0.00002   0.00031   0.00028   1.92548
    A3        1.92531   0.00003  -0.00002   0.00025   0.00023   1.92554
    A4        1.89635  -0.00008   0.00002  -0.00061  -0.00059   1.89576
    A5        1.89635  -0.00008   0.00002  -0.00060  -0.00058   1.89577
    A6        1.89082  -0.00002   0.00006  -0.00009  -0.00003   1.89080
    A7        1.87980   0.00019  -0.00004   0.00063   0.00059   1.88039
    A8        1.91951   0.00006   0.00004   0.00089   0.00093   1.92044
    A9        1.91950   0.00006   0.00004   0.00087   0.00091   1.92041
   A10        1.93376  -0.00018  -0.00010  -0.00165  -0.00175   1.93201
   A11        1.93379  -0.00018  -0.00010  -0.00169  -0.00179   1.93200
   A12        1.87786   0.00006   0.00017   0.00096   0.00112   1.87898
   A13        1.89071   0.00040   0.00019   0.00241   0.00260   1.89332
    D1        3.14106   0.00000   0.00001   0.00020   0.00021   3.14128
    D2       -1.03308  -0.00007  -0.00011  -0.00090  -0.00101  -1.03409
    D3        1.03199   0.00007   0.00013   0.00136   0.00149   1.03348
    D4        1.04362   0.00001   0.00004   0.00031   0.00035   1.04397
    D5       -3.13053  -0.00006  -0.00009  -0.00079  -0.00088  -3.13140
    D6       -1.06546   0.00008   0.00016   0.00147   0.00163  -1.06383
    D7       -1.04460  -0.00001  -0.00001   0.00007   0.00005  -1.04455
    D8        1.06444  -0.00008  -0.00014  -0.00103  -0.00117   1.06327
    D9        3.12951   0.00007   0.00011   0.00122   0.00133   3.13084
   D10        3.14107   0.00000  -0.00000   0.00008   0.00008   3.14115
   D11        1.04099  -0.00008   0.00004  -0.00042  -0.00038   1.04061
   D12       -1.04203   0.00008  -0.00004   0.00055   0.00051  -1.04152
         Item               Value     Threshold  Converged?
 Maximum Force            0.000774     0.000450     NO 
 RMS     Force            0.000204     0.000300     YES
 Maximum Displacement     0.002819     0.001800     NO 
 RMS     Displacement     0.001063     0.001200     YES
 Predicted change in Energy=-2.678868D-06
 GradGradGradGradGradGradGradGradGradGradGradGradGradGradGradGradGradGrad

                          Input orientation:                          
 ---------------------------------------------------------------------
 Center     Atomic      Atomic             Coordinates (Angstroms)
 Number     Number       Type             X           Y           Z
 ---------------------------------------------------------------------
      1          6           0        1.022712    0.888674    0.975637
      2          6           0        1.872762    1.989223    1.569669
      3          8           0        3.191030    1.476240    1.738513
      4          1           0        0.000268    1.233147    0.826936
      5          1           0        1.005605    0.025205    1.637763
      6          1           0        1.427019    0.575505    0.015046
      7          1           0        1.878272    2.858695    0.905201
      8          1           0        1.455867    2.307952    2.529951
      9          1           0        3.740365    2.167159    2.115085
 ---------------------------------------------------------------------
                    Distance matrix (angstroms):
                    1          2          3          4          5
     1  C    0.000000
     2  C    1.512173   0.000000
     3  O    2.372512   1.424602   0.000000
     4  H    1.089112   2.151637   3.327316   0.000000
     5  H    1.088247   2.148014   2.625212   1.768407   0.000000
     6  H    1.088244   2.148055   2.625528   1.768411   1.764548
     7  H    2.148936   1.094317   2.080607   2.485042   3.053991
     8  H    2.148921   1.094318   2.080604   2.484801   2.491920
     9  H    3.212242   1.953734   0.959658   4.064484   3.506381
                    6          7          8          9
     6  H    0.000000
     7  H    2.491779   0.000000
     8  H    3.054006   1.766793   0.000000
     9  H    3.506436   2.325819   2.326127   0.000000
 Stoichiometry    C2H6O
 Framework group  C1[X(C2H6O)]
 Deg. of freedom    21
 Full point group                 C1      NOp   1
 Largest Abelian subgroup         C1      NOp   1
 Largest concise Abelian subgroup C1      NOp   1
                         Standard orientation:                         
 ---------------------------------------------------------------------
 Center     Atomic      Atomic             Coordinates (Angstroms)
 Number     Number       Type             X           Y           Z
 ---------------------------------------------------------------------
      1          6           0        1.217718   -0.223069    0.000024
      2          6           0       -0.082498    0.549010   -0.000017
      3          8           0       -1.148479   -0.396069   -0.000045
      4          1           0        2.067233    0.458465   -0.000277
      5          1           0        1.280726   -0.857228   -0.882106
      6          1           0        1.280995   -0.856797    0.882441
      7          1           0       -0.136307    1.192647    0.883366
      8          1           0       -0.136242    1.192618   -0.883427
      9          1           0       -1.979890    0.083200    0.000327
 ---------------------------------------------------------------------
 Rotational constants (GHZ):          35.2674638           9.4169546           8.1892033
 Standard basis: CC-pVTZ (5D, 7F)
 There are   195 symmetry adapted cartesian basis functions of A   symmetry.
 There are   174 symmetry adapted basis functions of A   symmetry.
   174 basis functions,   258 primitive gaussians,   195 cartesian basis functions
    13 alpha electrons       13 beta electrons
       nuclear repulsion energy        81.9480811427 Hartrees.
 NAtoms=    9 NActive=    9 NUniq=    9 SFac= 1.00D+00 NAtFMM=   60 NAOKFM=F Big=F
 Integral buffers will be    131072 words long.
 Raffenetti 2 integral format.
 Two-electron integral symmetry is turned on.
 Nuclear repulsion after empirical dispersion term =       81.9450612433 Hartrees.
 One-electron integrals computed using PRISM.
 NBasis=   174 RedAO= T EigKep=  1.03D-03  NBF=   174
 NBsUse=   174 1.00D-06 EigRej= -1.00D+00 NBFU=   174
 Initial guess from the checkpoint file:  "/localscratch/386879/Gau-29647.chk"
 B after Tr=     0.000000   -0.000000    0.000000
         Rot=    1.000000   -0.000017    0.000005   -0.000019 Ang=  -0.00 deg.
 Initial guess <Sx>= 0.0000 <Sy>= 0.0000 <Sz>= 0.0000 <S**2>= 0.0000 S= 0.0000
 Keep R1 and R2 ints in memory in canonical form, NReq=272700713.
 Requested convergence on RMS density matrix=1.00D-08 within 128 cycles.
 Requested convergence on MAX density matrix=1.00D-06.
 Requested convergence on             energy=1.00D-06.
 No special actions if energy rises.
 SCF Done:  E(UB2PLYPD3) =  -154.778706518     A.U. after    6 cycles
            NFock=  6  Conv=0.98D-08     -V/T= 2.0043
 <Sx>= 0.0000 <Sy>= 0.0000 <Sz>= 0.0000 <S**2>=-0.0000 S=-0.0000
 <L.S>=  0.00000000000    
 Annihilation of the first spin contaminant:
 S**2 before annihilation    -0.0000,   after    -0.0000
 DoSCS=T DFT=T ScalE2(SS,OS)=  0.270000  0.270000
 ExpMin= 1.03D-01 ExpMax= 1.53D+04 ExpMxC= 5.22D+02 IAcc=3 IRadAn=         5 AccDes= 0.00D+00
 HarFok:  IExCor=  205 AccDes= 0.00D+00 IRadAn=         5 IDoV=-2 UseB2=F ITyADJ=14
 ICtDFT= 12500011 ScaDFX=  1.000000  1.000000  1.000000  1.000000
 Range of M.O.s used for correlation:     4   174
 NBasis=   174 NAE=    13 NBE=    13 NFC=     3 NFV=     0
 NROrb=    171 NOA=    10 NOB=    10 NVA=   161 NVB=   161

 **** Warning!!: The largest alpha MO coefficient is  0.12140195D+02


 **** Warning!!: The largest beta MO coefficient is  0.12140195D+02

 DoSCS=T DFT=T ScalE2(SS,OS)=  0.270000  0.270000
 Fully direct method using O(ONN) memory.
 JobTyp=2 Pass  1:  I=   4 to  13 NPSUse= 40 ParTrn=T ParDer=T DoDerP=T.
 JobTyp=3 Pass  1:  I=   4 to  13 NPSUse= 40 ParTrn=T ParDer=T DoDerP=T.
 Spin components of T(2) and E(2):
     alpha-alpha T2 =       0.2999151113D-01 E2=     -0.2253853354D-01
     alpha-beta  T2 =       0.1867175934D+00 E2=     -0.1494654646D+00
     beta-beta   T2 =       0.2999151113D-01 E2=     -0.2253853354D-01
 (S**2,0)=  0.00000D+00           (S**2,1)=  0.00000D+00
 E(PUHF)=      -0.15477870652D+03        E(PMP2)=      -0.15497324905D+03
 E2(B2PLYPD3) =    -0.1945425317D+00 E(B2PLYPD3) =    -0.15497324904925D+03
          IDoAtm=111111111
          Differentiating once with respect to electric field.
                with respect to dipole field.
          Differentiating once with respect to nuclear coordinates.
 Keep R1 and R2 ints in memory in canonical form, NReq=272707123.
          There are     1 degrees of freedom in the 1st order CPHF.  IDoFFX=0 NUNeed=     1.
 LinEq1:  Iter=  0 NonCon=     1 RMS=6.27D-04 Max=7.49D-03 NDo=     1
 AX will form     1 AO Fock derivatives at one time.
 LinEq1:  Iter=  1 NonCon=     1 RMS=2.15D-04 Max=2.72D-03 NDo=     1
 LinEq1:  Iter=  2 NonCon=     1 RMS=5.37D-05 Max=5.53D-04 NDo=     1
 LinEq1:  Iter=  3 NonCon=     1 RMS=2.88D-05 Max=3.34D-04 NDo=     1
 LinEq1:  Iter=  4 NonCon=     1 RMS=9.07D-06 Max=1.14D-04 NDo=     1
 LinEq1:  Iter=  5 NonCon=     1 RMS=2.44D-06 Max=2.97D-05 NDo=     1
 LinEq1:  Iter=  6 NonCon=     1 RMS=4.44D-07 Max=4.72D-06 NDo=     1
 LinEq1:  Iter=  7 NonCon=     1 RMS=1.91D-07 Max=1.71D-06 NDo=     1
 LinEq1:  Iter=  8 NonCon=     1 RMS=4.88D-08 Max=5.65D-07 NDo=     1
 LinEq1:  Iter=  9 NonCon=     1 RMS=9.35D-09 Max=1.41D-07 NDo=     1
 LinEq1:  Iter= 10 NonCon=     1 RMS=1.78D-09 Max=2.82D-08 NDo=     1
 LinEq1:  Iter= 11 NonCon=     1 RMS=3.13D-10 Max=3.98D-09 NDo=     1
 LinEq1:  Iter= 12 NonCon=     0 RMS=4.70D-11 Max=4.63D-10 NDo=     1
 Linear equations converged to 1.000D-10 1.000D-09 after    12 iterations.
 End of Minotr F.D. properties file   721 does not exist.
 End of Minotr F.D. properties file   722 does not exist.
 End of Minotr F.D. properties file   788 does not exist.
 Calling FoFJK, ICntrl=  10002127 FMM=F ISym2X=0 I1Cent= 0 IOpClX= 1 NMat=1 NMatS=1 NMatT=0.
 ***** Axes restored to original set *****
 -------------------------------------------------------------------
 Center     Atomic                   Forces (Hartrees/Bohr)
 Number     Number              X              Y              Z
 -------------------------------------------------------------------
      1        6           0.000172761    0.000016900    0.000052609
      2        6          -0.000306843    0.000251823    0.000005642
      3        8           0.000186937   -0.000272526   -0.000046979
      4        1          -0.000025974    0.000029813    0.000002266
      5        1          -0.000008719   -0.000020854    0.000026295
      6        1           0.000009436   -0.000000944   -0.000033614
      7        1           0.000019060   -0.000035343   -0.000023231
      8        1           0.000013328   -0.000044092    0.000005470
      9        1          -0.000059986    0.000075224    0.000011542
 -------------------------------------------------------------------
 Cartesian Forces:  Max     0.000306843 RMS     0.000108799

 GradGradGradGradGradGradGradGradGradGradGradGradGradGradGradGradGradGrad
 Berny optimization.
 Using GEDIIS/GDIIS optimizer.
 FormGI is forming the generalized inverse of G from B-inverse, IUseBI=4.
 Internal  Forces:  Max     0.000184344 RMS     0.000060892
 Search for a local minimum.
 Step number   3 out of a maximum of  100
 All quantities printed in internal units (Hartrees-Bohrs-Radians)
 Mixed Optimization -- En-DIIS/RFO-DIIS
 Swapping is turned off.
 Update second derivatives using D2CorX and points    1    2    3
 DE= -2.54D-06 DEPred=-2.68D-06 R= 9.47D-01
 TightC=F SS=  1.41D+00  RLast= 5.87D-03 DXNew= 5.0454D-01 1.7612D-02
 Trust test= 9.47D-01 RLast= 5.87D-03 DXMaxT set to 3.00D-01
 ITU=  1  1  0
     Eigenvalues ---    0.00505   0.01362   0.05227   0.05393   0.05705
     Eigenvalues ---    0.05759   0.11239   0.13618   0.15982   0.16000
     Eigenvalues ---    0.16001   0.17780   0.24130   0.31132   0.33233
     Eigenvalues ---    0.33392   0.34245   0.34251   0.34623   0.38352
     Eigenvalues ---    0.53383
 En-DIIS/RFO-DIIS/Sim-DIIS IScMMF=       -3 using points:     3    2
 RFO step:  Lambda=-5.47428102D-07.
 DidBck=F Rises=F RFO-DIIS coefs:    1.12128   -0.12128
 Iteration  1 RMS(Cart)=  0.00033699 RMS(Int)=  0.00000013
 Iteration  2 RMS(Cart)=  0.00000016 RMS(Int)=  0.00000010
 Variable       Old X    -DE/DX   Delta X   Delta X   Delta X     New X
                                 (Linear)    (Quad)   (Total)
    R1        2.85759  -0.00012   0.00010  -0.00040  -0.00030   2.85729
    R2        2.05812   0.00003   0.00002   0.00008   0.00010   2.05822
    R3        2.05649   0.00003  -0.00001   0.00009   0.00007   2.05656
    R4        2.05648   0.00003  -0.00002   0.00009   0.00007   2.05656
    R5        2.69211   0.00018   0.00023   0.00038   0.00060   2.69271
    R6        2.06796  -0.00001  -0.00008  -0.00003  -0.00011   2.06785
    R7        2.06796  -0.00001  -0.00009  -0.00003  -0.00011   2.06785
    R8        1.81349   0.00002  -0.00014   0.00006  -0.00008   1.81341
    A1        1.92962  -0.00003   0.00008  -0.00027  -0.00019   1.92943
    A2        1.92548   0.00001   0.00003   0.00005   0.00008   1.92556
    A3        1.92554   0.00000   0.00003   0.00003   0.00006   1.92560
    A4        1.89576   0.00001  -0.00007   0.00002  -0.00005   1.89571
    A5        1.89577   0.00001  -0.00007   0.00002  -0.00005   1.89572
    A6        1.89080   0.00001  -0.00000   0.00015   0.00014   1.89094
    A7        1.88039  -0.00016   0.00007  -0.00085  -0.00078   1.87960
    A8        1.92044   0.00003   0.00011   0.00006   0.00017   1.92061
    A9        1.92041   0.00003   0.00011   0.00007   0.00018   1.92060
   A10        1.93201   0.00005  -0.00021   0.00009  -0.00012   1.93189
   A11        1.93200   0.00005  -0.00022   0.00010  -0.00012   1.93189
   A12        1.87898   0.00002   0.00014   0.00053   0.00067   1.87965
   A13        1.89332  -0.00017   0.00032  -0.00107  -0.00076   1.89256
    D1        3.14128   0.00000   0.00003   0.00012   0.00015   3.14143
    D2       -1.03409  -0.00003  -0.00012  -0.00025  -0.00038  -1.03447
    D3        1.03348   0.00003   0.00018   0.00049   0.00067   1.03414
    D4        1.04397   0.00001   0.00004   0.00024   0.00028   1.04424
    D5       -3.13140  -0.00002  -0.00011  -0.00014  -0.00025  -3.13165
    D6       -1.06383   0.00003   0.00020   0.00060   0.00079  -1.06304
    D7       -1.04455  -0.00001   0.00001   0.00000   0.00001  -1.04454
    D8        1.06327  -0.00003  -0.00014  -0.00038  -0.00052   1.06275
    D9        3.13084   0.00002   0.00016   0.00036   0.00052   3.13136
   D10        3.14115   0.00000   0.00001   0.00005   0.00006   3.14122
   D11        1.04061   0.00004  -0.00005   0.00046   0.00041   1.04103
   D12       -1.04152  -0.00004   0.00006  -0.00033  -0.00027  -1.04179
         Item               Value     Threshold  Converged?
 Maximum Force            0.000184     0.000450     YES
 RMS     Force            0.000061     0.000300     YES
 Maximum Displacement     0.000814     0.001800     YES
 RMS     Displacement     0.000337     0.001200     YES
 Predicted change in Energy=-2.737122D-07
 Optimization completed.
    -- Stationary point found.
                           ----------------------------
                           !   Optimized Parameters   !
                           ! (Angstroms and Degrees)  !
 --------------------------                            --------------------------
 ! Name  Definition              Value          Derivative Info.                !
 --------------------------------------------------------------------------------
 ! R1    R(1,2)                  1.5122         -DE/DX =   -0.0001              !
 ! R2    R(1,4)                  1.0891         -DE/DX =    0.0                 !
 ! R3    R(1,5)                  1.0882         -DE/DX =    0.0                 !
 ! R4    R(1,6)                  1.0882         -DE/DX =    0.0                 !
 ! R5    R(2,3)                  1.4246         -DE/DX =    0.0002              !
 ! R6    R(2,7)                  1.0943         -DE/DX =    0.0                 !
 ! R7    R(2,8)                  1.0943         -DE/DX =    0.0                 !
 ! R8    R(3,9)                  0.9597         -DE/DX =    0.0                 !
 ! A1    A(2,1,4)              110.559          -DE/DX =    0.0                 !
 ! A2    A(2,1,5)              110.3217         -DE/DX =    0.0                 !
 ! A3    A(2,1,6)              110.3251         -DE/DX =    0.0                 !
 ! A4    A(4,1,5)              108.6189         -DE/DX =    0.0                 !
 ! A5    A(4,1,6)              108.6194         -DE/DX =    0.0                 !
 ! A6    A(5,1,6)              108.3348         -DE/DX =    0.0                 !
 ! A7    A(1,2,3)              107.7382         -DE/DX =   -0.0002              !
 ! A8    A(1,2,7)              110.0328         -DE/DX =    0.0                 !
 ! A9    A(1,2,8)              110.0316         -DE/DX =    0.0                 !
 ! A10   A(3,2,7)              110.696          -DE/DX =    0.0                 !
 ! A11   A(3,2,8)              110.6957         -DE/DX =    0.0                 !
 ! A12   A(7,2,8)              107.6578         -DE/DX =    0.0                 !
 ! A13   A(2,3,9)              108.479          -DE/DX =   -0.0002              !
 ! D1    D(4,1,2,3)            179.9818         -DE/DX =    0.0                 !
 ! D2    D(4,1,2,7)            -59.2492         -DE/DX =    0.0                 !
 ! D3    D(4,1,2,8)             59.214          -DE/DX =    0.0                 !
 ! D4    D(5,1,2,3)             59.8148         -DE/DX =    0.0                 !
 ! D5    D(5,1,2,7)           -179.4162         -DE/DX =    0.0                 !
 ! D6    D(5,1,2,8)            -60.9531         -DE/DX =    0.0                 !
 ! D7    D(6,1,2,3)            -59.8483         -DE/DX =    0.0                 !
 ! D8    D(6,1,2,7)             60.9207         -DE/DX =    0.0                 !
 ! D9    D(6,1,2,8)            179.3839         -DE/DX =    0.0                 !
 ! D10   D(1,2,3,9)            179.9749         -DE/DX =    0.0                 !
 ! D11   D(7,2,3,9)             59.6228         -DE/DX =    0.0                 !
 ! D12   D(8,2,3,9)            -59.6747         -DE/DX =    0.0                 !
 --------------------------------------------------------------------------------
 GradGradGradGradGradGradGradGradGradGradGradGradGradGradGradGradGradGrad

                          Input orientation:                          
 ---------------------------------------------------------------------
 Center     Atomic      Atomic             Coordinates (Angstroms)
 Number     Number       Type             X           Y           Z
 ---------------------------------------------------------------------
      1          6           0        1.022712    0.888674    0.975637
      2          6           0        1.872762    1.989223    1.569669
      3          8           0        3.191030    1.476240    1.738513
      4          1           0        0.000268    1.233147    0.826936
      5          1           0        1.005605    0.025205    1.637763
      6          1           0        1.427019    0.575505    0.015046
      7          1           0        1.878272    2.858695    0.905201
      8          1           0        1.455867    2.307952    2.529951
      9          1           0        3.740365    2.167159    2.115085
 ---------------------------------------------------------------------
                    Distance matrix (angstroms):
                    1          2          3          4          5
     1  C    0.000000
     2  C    1.512173   0.000000
     3  O    2.372512   1.424602   0.000000
     4  H    1.089112   2.151637   3.327316   0.000000
     5  H    1.088247   2.148014   2.625212   1.768407   0.000000
     6  H    1.088244   2.148055   2.625528   1.768411   1.764548
     7  H    2.148936   1.094317   2.080607   2.485042   3.053991
     8  H    2.148921   1.094318   2.080604   2.484801   2.491920
     9  H    3.212242   1.953734   0.959658   4.064484   3.506381
                    6          7          8          9
     6  H    0.000000
     7  H    2.491779   0.000000
     8  H    3.054006   1.766793   0.000000
     9  H    3.506436   2.325819   2.326127   0.000000
 Stoichiometry    C2H6O
 Framework group  C1[X(C2H6O)]
 Deg. of freedom    21
 Full point group                 C1      NOp   1
 Largest Abelian subgroup         C1      NOp   1
 Largest concise Abelian subgroup C1      NOp   1
                         Standard orientation:                         
 ---------------------------------------------------------------------
 Center     Atomic      Atomic             Coordinates (Angstroms)
 Number     Number       Type             X           Y           Z
 ---------------------------------------------------------------------
      1          6           0        1.217718   -0.223069    0.000024
      2          6           0       -0.082498    0.549010   -0.000017
      3          8           0       -1.148479   -0.396069   -0.000045
      4          1           0        2.067233    0.458465   -0.000277
      5          1           0        1.280726   -0.857228   -0.882106
      6          1           0        1.280995   -0.856797    0.882441
      7          1           0       -0.136307    1.192647    0.883366
      8          1           0       -0.136242    1.192618   -0.883427
      9          1           0       -1.979890    0.083200    0.000327
 ---------------------------------------------------------------------
 Rotational constants (GHZ):          35.2674638           9.4169546           8.1892033

 **********************************************************************

            Population analysis using the SCF Density.

 **********************************************************************

 Orbital symmetries:
 Alpha Orbitals:
       Occupied  (A) (A) (A) (A) (A) (A) (A) (A) (A) (A) (A) (A)
                 (A)
       Virtual   (A) (A) (A) (A) (A) (A) (A) (A) (A) (A) (A) (A)
                 (A) (A) (A) (A) (A) (A) (A) (A) (A) (A) (A) (A)
                 (A) (A) (A) (A) (A) (A) (A) (A) (A) (A) (A) (A)
                 (A) (A) (A) (A) (A) (A) (A) (A) (A) (A) (A) (A)
                 (A) (A) (A) (A) (A) (A) (A) (A) (A) (A) (A) (A)
                 (A) (A) (A) (A) (A) (A) (A) (A) (A) (A) (A) (A)
                 (A) (A) (A) (A) (A) (A) (A) (A) (A) (A) (A) (A)
                 (A) (A) (A) (A) (A) (A) (A) (A) (A) (A) (A) (A)
                 (A) (A) (A) (A) (A) (A) (A) (A) (A) (A) (A) (A)
                 (A) (A) (A) (A) (A) (A) (A) (A) (A) (A) (A) (A)
                 (A) (A) (A) (A) (A) (A) (A) (A) (A) (A) (A) (A)
                 (A) (A) (A) (A) (A) (A) (A) (A) (A) (A) (A) (A)
                 (A) (A) (A) (A) (A) (A) (A) (A) (A) (A) (A) (A)
                 (A) (A) (A) (A) (A)
 Beta  Orbitals:
       Occupied  (A) (A) (A) (A) (A) (A) (A) (A) (A) (A) (A) (A)
                 (A)
       Virtual   (A) (A) (A) (A) (A) (A) (A) (A) (A) (A) (A) (A)
                 (A) (A) (A) (A) (A) (A) (A) (A) (A) (A) (A) (A)
                 (A) (A) (A) (A) (A) (A) (A) (A) (A) (A) (A) (A)
                 (A) (A) (A) (A) (A) (A) (A) (A) (A) (A) (A) (A)
                 (A) (A) (A) (A) (A) (A) (A) (A) (A) (A) (A) (A)
                 (A) (A) (A) (A) (A) (A) (A) (A) (A) (A) (A) (A)
                 (A) (A) (A) (A) (A) (A) (A) (A) (A) (A) (A) (A)
                 (A) (A) (A) (A) (A) (A) (A) (A) (A) (A) (A) (A)
                 (A) (A) (A) (A) (A) (A) (A) (A) (A) (A) (A) (A)
                 (A) (A) (A) (A) (A) (A) (A) (A) (A) (A) (A) (A)
                 (A) (A) (A) (A) (A) (A) (A) (A) (A) (A) (A) (A)
                 (A) (A) (A) (A) (A) (A) (A) (A) (A) (A) (A) (A)
                 (A) (A) (A) (A) (A) (A) (A) (A) (A) (A) (A) (A)
                 (A) (A) (A) (A) (A)
 The electronic state is 1-A.
 Alpha  occ. eigenvalues --  -19.71802 -10.65862 -10.59867  -1.15682  -0.85965
 Alpha  occ. eigenvalues --   -0.70414  -0.59246  -0.54059  -0.47190  -0.44616
 Alpha  occ. eigenvalues --   -0.43190  -0.39876  -0.34428
 Alpha virt. eigenvalues --    0.07571   0.10467   0.13534   0.13854   0.15920
 Alpha virt. eigenvalues --    0.18321   0.23276   0.24930   0.30352   0.32188
 Alpha virt. eigenvalues --    0.36921   0.39227   0.44055   0.44932   0.49466
 Alpha virt. eigenvalues --    0.52313   0.53733   0.55700   0.55756   0.56201
 Alpha virt. eigenvalues --    0.62211   0.62980   0.64558   0.68987   0.73111
 Alpha virt. eigenvalues --    0.76184   0.81573   0.83505   0.87492   0.91854
 Alpha virt. eigenvalues --    0.97395   1.02512   1.04594   1.11334   1.13453
 Alpha virt. eigenvalues --    1.14709   1.15709   1.16284   1.18148   1.22689
 Alpha virt. eigenvalues --    1.25225   1.26126   1.29445   1.32171   1.36713
 Alpha virt. eigenvalues --    1.38986   1.42333   1.46278   1.46589   1.53782
 Alpha virt. eigenvalues --    1.57786   1.62275   1.65907   1.73954   1.94576
 Alpha virt. eigenvalues --    2.05419   2.09712   2.16633   2.22133   2.31472
 Alpha virt. eigenvalues --    2.40016   2.42332   2.51191   2.51450   2.53190
 Alpha virt. eigenvalues --    2.59118   2.68860   2.69801   2.78590   2.85877
 Alpha virt. eigenvalues --    2.90202   2.92614   2.97541   2.99470   3.05564
 Alpha virt. eigenvalues --    3.06594   3.07216   3.12642   3.12694   3.14746
 Alpha virt. eigenvalues --    3.17791   3.21279   3.22580   3.24779   3.25375
 Alpha virt. eigenvalues --    3.34351   3.35427   3.44488   3.51099   3.51602
 Alpha virt. eigenvalues --    3.54056   3.56513   3.57736   3.60556   3.61959
 Alpha virt. eigenvalues --    3.65238   3.69102   3.74798   3.81857   3.83802
 Alpha virt. eigenvalues --    3.90449   3.91406   3.94647   3.95461   3.97538
 Alpha virt. eigenvalues --    4.00408   4.03232   4.04012   4.10617   4.15314
 Alpha virt. eigenvalues --    4.17343   4.18769   4.22180   4.24141   4.24506
 Alpha virt. eigenvalues --    4.25013   4.36419   4.39333   4.44577   4.47108
 Alpha virt. eigenvalues --    4.50208   4.51142   4.59217   4.67253   4.82996
 Alpha virt. eigenvalues --    4.85225   4.86164   4.97100   4.97276   5.01192
 Alpha virt. eigenvalues --    5.03780   5.08832   5.12096   5.18063   5.34141
 Alpha virt. eigenvalues --    5.36713   5.45552   5.46915   5.48894   5.51445
 Alpha virt. eigenvalues --    5.55673   5.59714   5.65827   5.72486   5.90927
 Alpha virt. eigenvalues --    6.03858   6.06797   6.06997   6.16974   6.33710
 Alpha virt. eigenvalues --    6.70271   6.85480   6.90071   6.93574   7.09090
 Alpha virt. eigenvalues --    7.19061   7.37097   7.63284  12.02923  12.74430
 Alpha virt. eigenvalues --   13.71937
  Beta  occ. eigenvalues --  -19.71802 -10.65862 -10.59867  -1.15682  -0.85965
  Beta  occ. eigenvalues --   -0.70414  -0.59246  -0.54059  -0.47190  -0.44616
  Beta  occ. eigenvalues --   -0.43190  -0.39876  -0.34428
  Beta virt. eigenvalues --    0.07571   0.10467   0.13534   0.13854   0.15920
  Beta virt. eigenvalues --    0.18321   0.23276   0.24930   0.30352   0.32188
  Beta virt. eigenvalues --    0.36921   0.39227   0.44055   0.44932   0.49466
  Beta virt. eigenvalues --    0.52313   0.53733   0.55700   0.55756   0.56201
  Beta virt. eigenvalues --    0.62211   0.62980   0.64558   0.68987   0.73111
  Beta virt. eigenvalues --    0.76184   0.81573   0.83505   0.87492   0.91854
  Beta virt. eigenvalues --    0.97395   1.02512   1.04594   1.11334   1.13453
  Beta virt. eigenvalues --    1.14709   1.15709   1.16284   1.18148   1.22689
  Beta virt. eigenvalues --    1.25225   1.26126   1.29445   1.32171   1.36713
  Beta virt. eigenvalues --    1.38986   1.42333   1.46278   1.46589   1.53782
  Beta virt. eigenvalues --    1.57786   1.62275   1.65907   1.73954   1.94576
  Beta virt. eigenvalues --    2.05419   2.09712   2.16633   2.22133   2.31472
  Beta virt. eigenvalues --    2.40016   2.42332   2.51191   2.51450   2.53190
  Beta virt. eigenvalues --    2.59118   2.68860   2.69801   2.78590   2.85877
  Beta virt. eigenvalues --    2.90202   2.92614   2.97541   2.99470   3.05564
  Beta virt. eigenvalues --    3.06594   3.07216   3.12642   3.12694   3.14746
  Beta virt. eigenvalues --    3.17791   3.21279   3.22580   3.24779   3.25375
  Beta virt. eigenvalues --    3.34351   3.35427   3.44488   3.51099   3.51602
  Beta virt. eigenvalues --    3.54056   3.56513   3.57736   3.60556   3.61959
  Beta virt. eigenvalues --    3.65238   3.69102   3.74798   3.81857   3.83802
  Beta virt. eigenvalues --    3.90449   3.91406   3.94647   3.95461   3.97538
  Beta virt. eigenvalues --    4.00408   4.03232   4.04012   4.10617   4.15314
  Beta virt. eigenvalues --    4.17343   4.18769   4.22180   4.24141   4.24506
  Beta virt. eigenvalues --    4.25013   4.36419   4.39333   4.44577   4.47108
  Beta virt. eigenvalues --    4.50208   4.51142   4.59217   4.67253   4.82996
  Beta virt. eigenvalues --    4.85225   4.86164   4.97100   4.97276   5.01192
  Beta virt. eigenvalues --    5.03780   5.08832   5.12096   5.18063   5.34141
  Beta virt. eigenvalues --    5.36713   5.45552   5.46915   5.48894   5.51445
  Beta virt. eigenvalues --    5.55673   5.59714   5.65827   5.72486   5.90927
  Beta virt. eigenvalues --    6.03858   6.06797   6.06997   6.16974   6.33710
[...]
 Sum of electronic and thermal Free Energies=         -154.918275
 
                     E (Thermal)             CV                S
                      KCal/Mol        Cal/Mol-Kelvin    Cal/Mol-Kelvin
 Total                   53.154             13.484             64.564
 Electronic               0.000              0.000              0.000
 Translational            0.889              2.981             37.406
 Rotational               0.889              2.981             22.296
 Vibrational             51.376              7.522              4.862
 Vibration     1          0.657              1.781              1.813
 Vibration     2          0.680              1.710              1.531
 Vibration     3          0.781              1.431              0.899
                       Q            Log10(Q)             Ln(Q)
 Total Bot       0.517404D-25        -25.286171        -58.223559
 Total V=0       0.490140D+12         11.690320         26.917956
 Vib (Bot)       0.253187D-36        -36.596559        -84.266690
 Vib (Bot)    1  0.822101D+00         -0.085075         -0.195893
 Vib (Bot)    2  0.685445D+00         -0.164027         -0.377687
 Vib (Bot)    3  0.420641D+00         -0.376088         -0.865974
 Vib (V=0)       0.239846D+01          0.379932          0.874825
 Vib (V=0)    1  0.146221D+01          0.165010          0.379949
 Vib (V=0)    2  0.134843D+01          0.129829          0.298941
 Vib (V=0)    3  0.115341D+01          0.061982          0.142719
 Electronic      0.100000D+01          0.000000          0.000000
 Translational   0.122796D+08          7.089183         16.323448
 Rotational      0.166420D+05          4.221205          9.719683
 ***** Axes restored to original set *****
 -------------------------------------------------------------------
 Center     Atomic                   Forces (Hartrees/Bohr)
 Number     Number              X              Y              Z
 -------------------------------------------------------------------
      1        6           0.000172729    0.000016861    0.000052587
      2        6          -0.000306754    0.000251801    0.000005661
      3        8           0.000186895   -0.000272563   -0.000047010
      4        1          -0.000025986    0.000029831    0.000002268
      5        1          -0.000008717   -0.000020853    0.000026307
      6        1           0.000009444   -0.000000939   -0.000033620
      7        1           0.000019046   -0.000035311   -0.000023256
      8        1           0.000013299   -0.000044079    0.000005498
      9        1          -0.000059957    0.000075251    0.000011565
 -------------------------------------------------------------------
 Cartesian Forces:  Max     0.000306754 RMS     0.000108787
 FormGI is forming the generalized inverse of G from B-inverse, IUseBI=4.

 GradGradGradGradGradGradGradGradGradGradGradGradGradGradGradGradGradGrad
 Berny optimization.
 Internal  Forces:  Max     0.000184329 RMS     0.000060890
 Search for a local minimum.
 Step number   1 out of a maximum of    2
 All quantities printed in internal units (Hartrees-Bohrs-Radians)
 Second derivative matrix not updated -- analytic derivatives used.
 ITU=  0
     Eigenvalues ---    0.00210   0.00296   0.04418   0.04484   0.05032
     Eigenvalues ---    0.06385   0.10170   0.12086   0.12441   0.13406
     Eigenvalues ---    0.16138   0.16686   0.24481   0.31063   0.31996
     Eigenvalues ---    0.32165   0.34211   0.34272   0.34949   0.38276
     Eigenvalues ---    0.53465
 Angle between quadratic step and forces=  44.86 degrees.
 Linear search not attempted -- first point.
 Iteration  1 RMS(Cart)=  0.00040067 RMS(Int)=  0.00000021
 Iteration  2 RMS(Cart)=  0.00000025 RMS(Int)=  0.00000008
 Variable       Old X    -DE/DX   Delta X   Delta X   Delta X     New X
                                 (Linear)    (Quad)   (Total)
    R1        2.85759  -0.00012   0.00000  -0.00038  -0.00038   2.85721
    R2        2.05812   0.00003   0.00000   0.00014   0.00014   2.05826
    R3        2.05649   0.00003   0.00000   0.00007   0.00007   2.05656
    R4        2.05648   0.00003   0.00000   0.00008   0.00008   2.05656
    R5        2.69211   0.00018   0.00000   0.00097   0.00097   2.69307
    R6        2.06796  -0.00001   0.00000  -0.00013  -0.00013   2.06783
    R7        2.06796  -0.00001   0.00000  -0.00013  -0.00013   2.06783
    R8        1.81349   0.00002   0.00000   0.00010   0.00010   1.81359
    A1        1.92962  -0.00003   0.00000  -0.00005  -0.00005   1.92957
    A2        1.92548   0.00001   0.00000   0.00002   0.00002   1.92550
    A3        1.92554   0.00000   0.00000  -0.00004  -0.00004   1.92550
    A4        1.89576   0.00001   0.00000  -0.00005  -0.00005   1.89571
    A5        1.89577   0.00001   0.00000  -0.00006  -0.00006   1.89571
    A6        1.89080   0.00001   0.00000   0.00017   0.00017   1.89097
    A7        1.88039  -0.00016   0.00000  -0.00082  -0.00082   1.87956
    A8        1.92044   0.00003   0.00000   0.00024   0.00024   1.92068
    A9        1.92041   0.00003   0.00000   0.00027   0.00027   1.92068
   A10        1.93201   0.00005   0.00000  -0.00024  -0.00024   1.93177
   A11        1.93200   0.00005   0.00000  -0.00023  -0.00023   1.93177
   A12        1.87898   0.00002   0.00000   0.00079   0.00079   1.87977
   A13        1.89332  -0.00017   0.00000  -0.00109  -0.00109   1.89222
    D1        3.14128   0.00000   0.00000   0.00032   0.00032  -3.14159
    D2       -1.03409  -0.00003   0.00000  -0.00033  -0.00033  -1.03442
    D3        1.03348   0.00003   0.00000   0.00095   0.00095   1.03442
    D4        1.04397   0.00001   0.00000   0.00039   0.00039   1.04436
    D5       -3.13140  -0.00002   0.00000  -0.00026  -0.00026  -3.13166
    D6       -1.06383   0.00003   0.00000   0.00102   0.00102  -1.06281
    D7       -1.04455  -0.00001   0.00000   0.00019   0.00019  -1.04436
    D8        1.06327  -0.00003   0.00000  -0.00046  -0.00046   1.06281
    D9        3.13084   0.00002   0.00000   0.00082   0.00082   3.13166
   D10        3.14115   0.00000   0.00000   0.00044   0.00044  -3.14159
   D11        1.04061   0.00004   0.00000   0.00079   0.00079   1.04141
   D12       -1.04152  -0.00004   0.00000   0.00011   0.00011  -1.04141
         Item               Value     Threshold  Converged?
 Maximum Force            0.000184     0.000450     YES
 RMS     Force            0.000061     0.000300     YES
 Maximum Displacement     0.001015     0.001800     YES
 RMS     Displacement     0.000401     0.001200     YES
 Predicted change in Energy=-3.515242D-07
 Optimization completed.
    -- Stationary point found.
                           ----------------------------
                           !   Optimized Parameters   !
                           ! (Angstroms and Degrees)  !
 --------------------------                            --------------------------
 ! Name  Definition              Value          Derivative Info.                !
 --------------------------------------------------------------------------------
 ! R1    R(1,2)                  1.5122         -DE/DX =   -0.0001              !
 ! R2    R(1,4)                  1.0891         -DE/DX =    0.0                 !
 ! R3    R(1,5)                  1.0882         -DE/DX =    0.0                 !
 ! R4    R(1,6)                  1.0882         -DE/DX =    0.0                 !
 ! R5    R(2,3)                  1.4246         -DE/DX =    0.0002              !
 ! R6    R(2,7)                  1.0943         -DE/DX =    0.0                 !
 ! R7    R(2,8)                  1.0943         -DE/DX =    0.0                 !
 ! R8    R(3,9)                  0.9597         -DE/DX =    0.0                 !
 ! A1    A(2,1,4)              110.559          -DE/DX =    0.0                 !
 ! A2    A(2,1,5)              110.3217         -DE/DX =    0.0                 !
 ! A3    A(2,1,6)              110.3251         -DE/DX =    0.0                 !
 ! A4    A(4,1,5)              108.6189         -DE/DX =    0.0                 !
 ! A5    A(4,1,6)              108.6194         -DE/DX =    0.0                 !
 ! A6    A(5,1,6)              108.3348         -DE/DX =    0.0                 !
 ! A7    A(1,2,3)              107.7382         -DE/DX =   -0.0002              !
 ! A8    A(1,2,7)              110.0328         -DE/DX =    0.0                 !
 ! A9    A(1,2,8)              110.0316         -DE/DX =    0.0                 !
 ! A10   A(3,2,7)              110.696          -DE/DX =    0.0                 !
 ! A11   A(3,2,8)              110.6957         -DE/DX =    0.0                 !
 ! A12   A(7,2,8)              107.6578         -DE/DX =    0.0                 !
 ! A13   A(2,3,9)              108.479          -DE/DX =   -0.0002              !
 ! D1    D(4,1,2,3)           -180.0182         -DE/DX =    0.0                 !
 ! D2    D(4,1,2,7)            -59.2492         -DE/DX =    0.0                 !
 ! D3    D(4,1,2,8)             59.214          -DE/DX =    0.0                 !
 ! D4    D(5,1,2,3)             59.8148         -DE/DX =    0.0                 !
 ! D5    D(5,1,2,7)           -179.4162         -DE/DX =    0.0                 !
 ! D6    D(5,1,2,8)            -60.9531         -DE/DX =    0.0                 !
 ! D7    D(6,1,2,3)            -59.8483         -DE/DX =    0.0                 !
 ! D8    D(6,1,2,7)             60.9207         -DE/DX =    0.0                 !
 ! D9    D(6,1,2,8)            179.3839         -DE/DX =    0.0                 !
 ! D10   D(1,2,3,9)           -180.0251         -DE/DX =    0.0                 !
 ! D11   D(7,2,3,9)             59.6228         -DE/DX =    0.0                 !
 ! D12   D(8,2,3,9)            -59.6747         -DE/DX =    0.0                 !
 --------------------------------------------------------------------------------
 GradGradGradGradGradGradGradGradGradGradGradGradGradGradGradGradGradGrad


 ----------------------------------------------------------------------

 Electric dipole moment (input orientation):
 (Debye = 10**-18 statcoulomb cm , SI units = C m)
                  (au)            (Debye)         (10**-30 SI)
   Tot        0.606923D+00      0.154264D+01      0.514571D+01
   x         -0.167333D+00     -0.425317D+00     -0.141871D+01
   y          0.564433D+00      0.143465D+01      0.478547D+01
   z          0.147547D+00      0.375028D+00      0.125096D+01

 Dipole polarizability, Alpha (input orientation).
 (esu units = cm**3 , SI units = C**2 m**2 J**-1)
 Alpha(0;0):
               (au)            (10**-24 esu)      (10**-40 SI)
   iso        0.305211D+02      0.452276D+01      0.503225D+01
   aniso      0.583512D+01      0.864675D+00      0.962081D+00
   xx         0.326174D+02      0.483340D+01      0.537788D+01
   yx         0.141588D+01      0.209812D+00      0.233447D+00
   yy         0.304670D+02      0.451475D+01      0.502334D+01
   zx         0.179555D+01      0.266073D+00      0.296046D+00
   zy         0.135530D+01      0.200835D+00      0.223459D+00
   zz         0.284789D+02      0.422013D+01      0.469553D+01

 ----------------------------------------------------------------------

 Dipole orientation:
     6          2.66916973         -0.80503116          1.47715308
     6          4.91577071         -0.88489750          3.24130752
     8          7.14262467         -0.96274217          1.73051272
     1          0.91197008         -0.74416627          2.54692824
     1          2.64723180         -2.47179833          0.27276503
     1          2.76393570          0.86067037          0.27482952
     1          4.91825152          0.78491816          4.46121199
     1          4.80067579         -2.55176582          4.45981738
     1          8.58274113         -1.01317247          2.83154385

 Electric dipole moment (dipole orientation):
 (Debye = 10**-18 statcoulomb cm , SI units = C m)
                  (au)            (Debye)         (10**-30 SI)
   Tot        0.606923D+00      0.154264D+01      0.514571D+01
   x          0.000000D+00      0.000000D+00      0.000000D+00
   y          0.000000D+00      0.000000D+00      0.000000D+00
   z          0.606923D+00      0.154264D+01      0.514571D+01

 Dipole polarizability, Alpha (dipole orientation).
 (esu units = cm**3 , SI units = C**2 m**2 J**-1)
 Alpha(0;0):
               (au)            (10**-24 esu)      (10**-40 SI)
   iso        0.305211D+02      0.452276D+01      0.503225D+01
   aniso      0.583512D+01      0.864675D+00      0.962081D+00
   xx         0.338434D+02      0.501507D+01      0.558002D+01
   yx        -0.221047D+00     -0.327558D-01     -0.364457D-01
   yy         0.275609D+02      0.408410D+01      0.454417D+01
   zx         0.115465D+01      0.171102D+00      0.190377D+00
   zy        -0.414689D-01     -0.614506D-02     -0.683730D-02
   zz         0.301590D+02      0.446911D+01      0.497256D+01

 ----------------------------------------------------------------------
 1\1\GINC-N336\Freq\UB2PLYPD3-FC\CC-pVTZ\C2H6O1\QUANDEWANG\30-Jul-2019\
 0\\#N Geom=AllCheck Guess=TCheck SCRF=Check GenChk UB2PLYPD3(FC)/CC-pV
 TZ Freq\\Title Card Required\\0,1\C,1.0227122132,0.8886742931,0.975637
 3328\C,1.8727623416,1.9892232244,1.5696690297\O,3.1910301258,1.4762401
 773,1.7385126021\H,0.0002679603,1.2331465256,0.8269357094\H,1.00560489
 64,0.0252053878,1.6377626301\H,1.4270193244,0.5755047444,0.015045867\H
 ,1.8782719263,2.8586953342,0.9052008678\H,1.4558665229,2.3079518014,2.
 5299510781\H,3.7403646891,2.1671585117,2.115084883\\Version=ES64L-G16R
 evB.01\State=1-A\HF=-154.7787065\MP2=-154.9732491\PUHF=-154.7787065\PM
 P2-0=-154.9732491\S2=0.\S2-1=0.\S2A=0.\RMSD=3.172e-09\RMSF=1.088e-04\Z
 eroPoint=0.0803893\Thermal=0.0847059\Dipole=-0.1673328,0.5644333,0.147
 5475\DipoleDeriv=0.0291486,-0.053431,-0.0330663,-0.0955868,0.0229699,-
 0.0464072,-0.0473529,-0.0354645,0.0623605,0.8150689,-0.1026821,0.07207
 67,-0.0926729,0.3648958,-0.0372,0.0755005,-0.039798,0.4097975,-0.95391
 51,0.1077644,-0.0780063,0.1391285,-0.351366,0.0909153,-0.0674073,0.082
 7956,-0.5027098,-0.1229932,0.0402317,-0.0367284,0.0742427,0.0252038,0.
 0037614,-0.0251892,-0.0050731,0.0626764,0.0630419,0.0033263,-0.0126082
 ,-0.036168,-0.0781915,0.0633767,-0.000593,0.0980322,-0.0196063,0.03257
 77,0.0205896,0.0800607,-0.0150382,0.0238443,-0.0500635,0.0425672,-0.06
 52123,-0.0912352,-0.0421085,-0.0191205,-0.0109469,0.0268655,-0.1579212
 ,0.1017368,-0.0244091,0.1301014,-0.0568454,-0.0775409,0.030595,0.04819
 35,0.0421774,-0.0129604,-0.0576979,0.0811737,-0.1010201,-0.1664162,0.2
 567205,-0.0272733,-0.0289748,-0.0429482,0.1635253,-0.0684216,-0.034289
 9,-0.0643612,0.3019784\Polar=32.6173675,1.4158816,30.4670372,1.7955502
 ,1.3553012,28.4788771\PG=C01 [X(C2H6O1)]\NImag=0\\0.55818157,-0.039471
 09,0.53453866,-0.01926577,-0.02593907,0.56703777,-0.10593188,-0.058853
 00,-0.02565799,0.46732722,-0.04477269,-0.16178720,-0.03801714,0.010210
 46,0.56179865,-0.02088654,-0.04167388,-0.10353907,-0.03039783,-0.00947
 046,0.58640647,-0.03744143,0.00919756,-0.00761379,-0.19905673,0.071782
 07,-0.01071782,0.46955183,-0.02768715,0.01286864,-0.00414067,0.0306557
 1,-0.11410504,-0.00890454,0.11476844,0.41052675,-0.02011446,0.00544587
 ,0.00047277,-0.02463108,0.00177928,-0.07006627,0.14908036,0.15347069,0
 .13587692,-0.28152300,0.07875555,-0.03423575,-0.01520388,0.01061450,0.
 00032629,-0.00246320,-0.00469822,-0.00242181,0.30747710,0.08140565,-0.
 07660579,0.01104794,-0.02196930,0.01090901,-0.00112521,-0.00436352,-0.
 00417189,-0.00279559,-0.08714323,0.07921260,-0.03333534,0.01035883,-0.
 05199061,-0.01072377,0.00733847,-0.00289745,-0.00231083,-0.00288382,-0
 .00084461,0.03833579,-0.01138641,0.05215641,-0.04754356,-0.00077899,0.
 00199041,-0.00152853,-0.01676620,0.01244926,0.00178217,0.00099646,0.00
 050712,0.00185387,0.02453180,-0.01948303,0.04721420,-0.00270011,-0.212
 92668,0.12910843,0.00031472,-0.02339661,0.01705433,0.00093476,0.002797
 62,-0.00029534,-0.00056011,-0.00738967,0.00495198,0.00446837,0.2340446
 8,0.00254241,0.13121943,-0.15184050,-0.00058767,-0.01308934,0.00921046
 ,0.00153686,0.00082948,0.00022432,0.00026193,0.00167252,-0.00295052,-0
 .00129802,-0.14142561,0.16097815,-0.08615259,0.02919020,0.09121818,0.0
 0658792,-0.00634967,-0.01921317,0.00200891,0.00069245,0.00099670,-0.01
 035517,0.00764186,0.02766786,-0.00071510,-0.00027100,-0.00092995,0.089
 63027,0.02725158,-0.06884999,-0.06382052,0.01122375,-0.00939313,-0.025
 48668,0.00074545,0.00176847,0.00220899,0.00306054,-0.00389702,-0.00880
 776,-0.01075380,0.00837563,0.02305985,-0.02899474,0.07432592,0.0893578
 4,-0.06493095,-0.25731594,0.00557765,-0.00434262,-0.01290627,-0.000037
 47,0.00108636,0.00102522,-0.00214027,0.00217773,0.00576541,0.00753554,
 -0.00625003,-0.01692212,-0.09819296,0.07417209,0.27828529,-0.00005672,
 -0.01648591,0.01281336,-0.05024528,-0.01295350,0.01036470,-0.01615365,
 0.03486858,-0.02405970,0.00042163,0.00076816,0.00028614,-0.00181989,-0
 .00333218,-0.00251565,0.00058807,0.00098727,-0.00042107,0.06300071,-0.
 00288062,-0.01984443,0.01555379,-0.00999595,-0.20081704,0.11563453,0.0
 1152293,-0.00812796,0.00779148,-0.00040944,0.00057282,-0.00000150,-0.0
 0304954,-0.00272450,-0.00246710,0.00107748,0.00088339,0.00006530,0.004
 03326,0.22220977,-0.00096995,-0.01259133,0.00916749,0.00968624,0.11848
 331,-0.15054853,-0.00749904,0.00229859,0.00283903,0.00063995,0.0008914
 3,0.00034490,-0.00174620,-0.00303418,0.00002818,0.00046265,0.00047794,
 0.00110054,-0.00353086,-0.13071030,0.15580824,0.00825763,-0.00634457,-
 0.01890181,-0.07748419,0.02004894,0.07474930,-0.03138016,0.01738579,0.
 02515289,0.00066630,0.00092045,0.00059994,0.00040127,0.00074089,0.0007
 2417,-0.00193823,-0.00389876,-0.00179262,0.00235493,-0.00043640,0.0035
 2936,0.09780161,0.00753201,-0.00718510,-0.02413661,0.02044970,-0.07176
 993,-0.05418075,0.01315761,-0.00291313,-0.01067068,-0.00008251,0.00078
 470,0.00037486,0.00112912,0.00094709,0.00042451,-0.00301206,-0.0032107
 9,-0.00226775,-0.00890367,0.00766727,0.02353674,-0.02945065,0.07573205
 ,0.00419761,-0.00313440,-0.01181074,0.07656207,-0.05790006,-0.25235126
 ,-0.00074923,0.00198851,0.01285505,-0.00049322,0.00004866,-0.00010860,
 0.00000280,-0.00011262,0.00122151,-0.00216568,-0.00200622,0.00063398,0
 .00657190,-0.00506442,-0.01871729,-0.08497368,0.06642444,0.26748498,-0
 .00779003,0.00479025,-0.00034685,-0.02446464,-0.03181391,-0.01667419,-
 0.18684774,-0.16698206,-0.10451002,-0.00087365,-0.00179187,-0.00103679
 ,0.00035557,0.00040466,0.00026591,0.00034591,0.00037871,0.00011336,0.0
 0191020,0.00013827,-0.00057214,0.00132084,-0.00081956,0.00104744,0.216
 04355,0.00132243,-0.00020811,0.00034386,0.01796392,0.00856128,0.008152
 66,-0.21774530,-0.29864347,-0.15693471,0.00046291,0.00058523,0.0000553
 6,0.00022277,0.00027243,-0.00022375,0.00002547,-0.00000249,0.00028988,
 0.00101798,0.00018067,0.00064781,0.00103432,-0.00005216,-0.00024389,0.
 19569550,0.28930661,-0.00152580,0.00124550,-0.00018117,0.00017237,-0.0
 0478143,-0.00330807,-0.12168903,-0.14374458,-0.08238244,-0.00027292,-0
 .00053107,0.00052509,0.00004213,0.00000304,0.00005051,0.00015637,0.000
 20231,0.00033389,0.00049117,-0.00080179,-0.00002257,0.00091245,0.00049
 523,0.00079237,0.12171328,0.14791279,0.08419239\\-0.00017273,-0.000016
 86,-0.00005259,0.00030675,-0.00025180,-0.00000566,-0.00018690,0.000272
 56,0.00004701,0.00002599,-0.00002983,-0.00000227,0.00000872,0.00002085
 ,-0.00002631,-0.00000944,0.00000094,0.00003362,-0.00001905,0.00003531,
 0.00002326,-0.00001330,0.00004408,-0.00000550,0.00005996,-0.00007525,-
 0.00001156\\\@


 I WANT TO KNOW HOW GOD CREATED THE WORLD.  I AM NOT INTERESTED IN
 THIS OR THAT PHENOMENON, IN THE SPECTRUM OF THIS OR THAT ELEMENT.
 I WANT TO KNOW HIS THOUGHTS, THE REST ARE DETAILS.
     -- ALBERT EINSTEIN
 Job cpu time:       0 days  3 hours  9 minutes 35.3 seconds.
 Elapsed time:       0 days  0 hours  4 minutes 51.5 seconds.
 File lengths (MBytes):  RWF=   6270 Int=      0 D2E=      0 Chk=      6 Scr=      1
 Normal termination of Gaussian 16 at Tue Jul 30 15:28:35 2019.
