 Entering Gaussian System, Link 0=g16
 Initial command:
 /ichec/packages/gaussian/16b01/l1.exe "/localscratch/339543/Gau-92624.inp" -scrdir="/localscratch/339543/"
 Entering Link 1 = /ichec/packages/gaussian/16b01/l1.exe PID=     92635.
  
 Copyright (c) 1988-2017, Gaussian, Inc.  All Rights Reserved.
  
 This is part of the Gaussian(R) 16 program.  It is based on
 the Gaussian(R) 09 system (copyright 2009, Gaussian, Inc.),
 the Gaussian(R) 03 system (copyright 2003, Gaussian, Inc.),
 the Gaussian(R) 98 system (copyright 1998, Gaussian, Inc.),
 the Gaussian(R) 94 system (copyright 1995, Gaussian, Inc.),
 the Gaussian 92(TM) system (copyright 1992, Gaussian, Inc.),
 the Gaussian 90(TM) system (copyright 1990, Gaussian, Inc.),
 the Gaussian 88(TM) system (copyright 1988, Gaussian, Inc.),
 the Gaussian 86(TM) system (copyright 1986, Carnegie Mellon
 University), and the Gaussian 82(TM) system (copyright 1983,
 Carnegie Mellon University). Gaussian is a federally registered
 trademark of Gaussian, Inc.
  
 This software contains proprietary and confidential information,
 including trade secrets, belonging to Gaussian, Inc.
  
 This software is provided under written license and may be
 used, copied, transmitted, or stored only in accord with that
 written license.
  
 The following legend is applicable only to US Government
 contracts under FAR:
  
                    RESTRICTED RIGHTS LEGEND
  
 Use, reproduction and disclosure by the US Government is
 subject to restrictions as set forth in subparagraphs (a)
 and (c) of the Commercial Computer Software - Restricted
 Rights clause in FAR 52.227-19.
  
 Gaussian, Inc.
 340 Quinnipiac St., Bldg. 40, Wallingford CT 06492
  
  
 ---------------------------------------------------------------
 Warning -- This program may not be used in any manner that
 competes with the business of Gaussian, Inc. or will provide
 assistance to any competitor of Gaussian, Inc.  The licensee
 of this program is prohibited from giving any competitor of
 Gaussian, Inc. access to this program.  By using this program,
 the user acknowledges that Gaussian, Inc. is engaged in the
 business of creating and licensing software in the field of
 computational chemistry and represents and warrants to the
 licensee that it is not a competitor of Gaussian, Inc. and that
 it will not use this program in any manner prohibited above.
 ---------------------------------------------------------------
  

 Cite this work as:
 Gaussian 16, Revision B.01,
 M. J. Frisch, G. W. Trucks, H. B. Schlegel, G. E. Scuseria, 
 M. A. Robb, J. R. Cheeseman, G. Scalmani, V. Barone, 
 G. A. Petersson, H. Nakatsuji, X. Li, M. Caricato, A. V. Marenich, 
 J. Bloino, B. G. Janesko, R. Gomperts, B. Mennucci, H. P. Hratchian, 
 J. V. Ortiz, A. F. Izmaylov, J. L. Sonnenberg, D. Williams-Young, 
 F. Ding, F. Lipparini, F. Egidi, J. Goings, B. Peng, A. Petrone, 
 T. Henderson, D. Ranasinghe, V. G. Zakrzewski, J. Gao, N. Rega, 
 G. Zheng, W. Liang, M. Hada, M. Ehara, K. Toyota, R. Fukuda, 
 J. Hasegawa, M. Ishida, T. Nakajima, Y. Honda, O. Kitao, H. Nakai, 
 T. Vreven, K. Throssell, J. A. Montgomery, Jr., J. E. Peralta, 
 F. Ogliaro, M. J. Bearpark, J. J. Heyd, E. N. Brothers, K. N. Kudin, 
 V. N. Staroverov, T. A. Keith, R. Kobayashi, J. Normand, 
 K. Raghavachari, A. P. Rendell, J. C. Burant, S. S. Iyengar, 
 J. Tomasi, M. Cossi, J. M. Millam, M. Klene, C. Adamo, R. Cammi, 
 J. W. Ochterski, R. L. Martin, K. Morokuma, O. Farkas, 
 J. B. Foresman, and D. J. Fox, Gaussian, Inc., Wallingford CT, 2016.
 
 ******************************************
 Gaussian 16:  ES64L-G16RevB.01 20-Dec-2017
                 1-Jun-2019 
 ******************************************
 %mem=80GB
 %nproc=40
 Will use up to   40 processors via shared memory.
 ----------------------------------------------------------------------
 # opt=(maxcyc=500,modredundant) uB2PLYPD3/cc-pvtz scf=maxcyc=500 nosym
 m
 ----------------------------------------------------------------------
 1/6=500,18=120,19=15,38=1/1,3;
 2/9=110,12=2,15=1,17=6,18=5,40=1/2;
 3/5=16,6=1,11=2,25=1,30=1,71=1,74=-60,116=2/1,2,3;
 4//1;
 5/5=2,7=500,38=5/2;
 8/6=4,10=1/1;
 9/15=2,16=-3/6;
 10/5=1,31=1/2;
 6/7=2,8=2,9=2,10=2/1;
 7/12=2,30=1/1,2,3,16;
 1/6=500,18=20,19=15/3(2);
 2/9=110,15=1/2;
 99//99;
 2/9=110,15=1/2;
 3/5=16,6=1,11=2,25=1,30=1,71=1,74=-60,116=2/1,2,3;
 4/5=5,16=3,69=1/1;
 5/5=2,7=500,38=5/2;
 8/6=4,10=1/1;
 9/15=2,16=-3/6;
 10/5=1,31=1/2;
 7/12=2,30=1/1,2,3,16;
 1/6=500,18=20,19=15/3(-8);
 2/9=110,15=1/2;
 6/7=2,8=2,9=2,10=2/1;
 99/9=10/99;
 -------------------
 Title Card Required
 -------------------
 Symbolic Z-matrix:
 Charge =  0 Multiplicity = 1
 C                     0.76184  -0.00001  -0.00004 
 H                     1.15641  -0.87505  -0.51543 
 H                     1.15654   0.884    -0.49993 
 H                     1.1564   -0.00886   1.0155 
 C                    -0.76185   0.00001   0.00001 
 H                    -1.15655   0.00952  -1.01549 
 H                    -1.15648   0.8747    0.51599 
 H                    -1.15624  -0.88429   0.49956 
 
 The following ModRedundant input section has been read:
 D    *          1       5    *    R                                           
 D       2       1       5       6 S  36 10.000                                
 

 GradGradGradGradGradGradGradGradGradGradGradGradGradGradGradGradGradGrad
 Berny optimization.
 Initialization pass.
                           ----------------------------
                           !    Initial Parameters    !
                           ! (Angstroms and Degrees)  !
 --------------------------                            --------------------------
 ! Name  Definition              Value          Derivative Info.                !
 --------------------------------------------------------------------------------
 ! R1    R(1,2)                  1.0895         estimate D2E/DX2                !
 ! R2    R(1,3)                  1.0896         estimate D2E/DX2                !
 ! R3    R(1,4)                  1.0895         estimate D2E/DX2                !
 ! R4    R(1,5)                  1.5237         estimate D2E/DX2                !
 ! R5    R(5,6)                  1.0895         estimate D2E/DX2                !
 ! R6    R(5,7)                  1.0895         estimate D2E/DX2                !
 ! R7    R(5,8)                  1.0895         estimate D2E/DX2                !
 ! A1    A(2,1,3)              107.6621         estimate D2E/DX2                !
 ! A2    A(2,1,4)              107.6536         estimate D2E/DX2                !
 ! A3    A(2,1,5)              111.2344         estimate D2E/DX2                !
 ! A4    A(3,1,4)              107.6404         estimate D2E/DX2                !
 ! A5    A(3,1,5)              111.2387         estimate D2E/DX2                !
 ! A6    A(4,1,5)              111.2298         estimate D2E/DX2                !
 ! A7    A(1,5,6)              111.2372         estimate D2E/DX2                !
 ! A8    A(1,5,7)              111.2372         estimate D2E/DX2                !
 ! A9    A(1,5,8)              111.2215         estimate D2E/DX2                !
 ! A10   A(6,5,7)              107.6492         estimate D2E/DX2                !
 ! A11   A(6,5,8)              107.6561         estimate D2E/DX2                !
 ! A12   A(7,5,8)              107.6584         estimate D2E/DX2                !
 ! D1    D(2,1,5,6)            -60.0387         Scan                            !
 --------------------------------------------------------------------------------
 Trust Radius=3.00D-01 FncErr=1.00D-07 GrdErr=1.00D-07 EigMax=2.50D+02 EigMin=1.00D-04
 Number of optimizations in scan=  37
 Number of steps in this run=    100 maximum allowed number of steps=    100.
 GradGradGradGradGradGradGradGradGradGradGradGradGradGradGradGradGradGrad

                          Input orientation:                          
 ---------------------------------------------------------------------
 Center     Atomic      Atomic             Coordinates (Angstroms)
 Number     Number       Type             X           Y           Z
 ---------------------------------------------------------------------
      1          6           0        0.761838   -0.000013   -0.000038
      2          1           0        1.156409   -0.875050   -0.515431
      3          1           0        1.156540    0.884003   -0.499934
      4          1           0        1.156396   -0.008855    1.015502
      5          6           0       -0.761852    0.000010    0.000005
      6          1           0       -1.156545    0.009520   -1.015491
      7          1           0       -1.156479    0.874695    0.515992
      8          1           0       -1.156235   -0.884294    0.499564
 ---------------------------------------------------------------------
                    Distance matrix (angstroms):
                    1          2          3          4          5
     1  C    0.000000
     2  H    1.089498   0.000000
     3  H    1.089573   1.759121   0.000000
     4  H    1.089530   1.758991   1.758904   0.000000
     5  C    1.523690   2.170514   2.170624   2.170481   0.000000
     6  H    2.170583   2.526318   2.526041   3.078143   1.089544
     7  H    2.170562   3.078131   2.526311   2.525779   1.089517
     8  H    2.170382   2.525594   3.078116   2.526034   1.089537
                    6          7          8
     6  H    0.000000
     7  H    1.758968   0.000000
     8  H    1.759061   1.759066   0.000000
 Symmetry turned off by external request.
 Stoichiometry    C2H6
 Framework group  C1[X(C2H6)]
 Deg. of freedom    18
 Full point group                 C1      NOp   1
 Rotational constants (GHZ):          81.0328845          20.1068213          20.1063950
 Standard basis: CC-pVTZ (5D, 7F)
   144 basis functions,   206 primitive gaussians,   160 cartesian basis functions
     9 alpha electrons        9 beta electrons
       nuclear repulsion energy        42.3422620291 Hartrees.
 NAtoms=    8 NActive=    8 NUniq=    8 SFac= 1.00D+00 NAtFMM=   60 NAOKFM=F Big=F
 Integral buffers will be    131072 words long.
 Raffenetti 2 integral format.
 Two-electron integral symmetry is turned off.
 Nuclear repulsion after empirical dispersion term =       42.3399512872 Hartrees.
 One-electron integrals computed using PRISM.
 NBasis=   144 RedAO= T EigKep=  1.27D-03  NBF=   144
 NBsUse=   144 1.00D-06 EigRej= -1.00D+00 NBFU=   144
 ExpMin= 1.03D-01 ExpMax= 8.24D+03 ExpMxC= 2.81D+02 IAcc=3 IRadAn=         5 AccDes= 0.00D+00
 Harris functional with IExCor=  419 and IRadAn=       5 diagonalized for initial guess.
 HarFok:  IExCor=  419 AccDes= 0.00D+00 IRadAn=         5 IDoV= 1 UseB2=F ITyADJ=14
 ICtDFT=  3500011 ScaDFX=  1.000000  1.000000  1.000000  1.000000
 FoFCou: FMM=F IPFlag=           0 FMFlag=      100000 FMFlg1=           0
         NFxFlg=           0 DoJE=T BraDBF=F KetDBF=T FulRan=T
         wScrn=  0.000000 ICntrl=       500 IOpCl=  0 I1Cent=   200000004 NGrid=           0
         NMat0=    1 NMatS0=      1 NMatT0=    0 NMatD0=    1 NMtDS0=    0 NMtDT0=    0
 Symmetry not used in FoFCou.
 Initial guess <Sx>= 0.0000 <Sy>= 0.0000 <Sz>= 0.0000 <S**2>=-0.0000 S=-0.0000
 Keep R1 and R2 ints in memory in canonical form, NReq=148554108.
 Requested convergence on RMS density matrix=1.00D-08 within 500 cycles.
 Requested convergence on MAX density matrix=1.00D-06.
 Requested convergence on             energy=1.00D-06.
 No special actions if energy rises.
 Integral accuracy reduced to 1.0D-05 until final iterations.
 Initial convergence to 1.0D-05 achieved.  Increase integral accuracy.
 SCF Done:  E(UB2PLYPD3) =  -79.6542028615     A.U. after    9 cycles
            NFock=  9  Conv=0.28D-08     -V/T= 2.0049
 <Sx>= 0.0000 <Sy>= 0.0000 <Sz>= 0.0000 <S**2>=-0.0000 S=-0.0000
 <L.S>=  0.00000000000    
 Annihilation of the first spin contaminant:
 S**2 before annihilation    -0.0000,   after     0.0000
 DoSCS=T DFT=T ScalE2(SS,OS)=  0.270000  0.270000
 ExpMin= 1.03D-01 ExpMax= 8.24D+03 ExpMxC= 2.81D+02 IAcc=3 IRadAn=         5 AccDes= 0.00D+00
 HarFok:  IExCor=  205 AccDes= 0.00D+00 IRadAn=         5 IDoV=-2 UseB2=F ITyADJ=14
 ICtDFT= 12500011 ScaDFX=  1.000000  1.000000  1.000000  1.000000
 Range of M.O.s used for correlation:     3   144
 NBasis=   144 NAE=     9 NBE=     9 NFC=     2 NFV=     0
 NROrb=    142 NOA=     7 NOB=     7 NVA=   135 NVB=   135

 **** Warning!!: The largest alpha MO coefficient is  0.10689941D+02


 **** Warning!!: The largest beta MO coefficient is  0.10689941D+02

 DoSCS=T DFT=T ScalE2(SS,OS)=  0.270000  0.270000
 Fully direct method using O(ONN) memory.
 JobTyp=2 Pass  1:  I=   3 to   9 NPSUse= 40 ParTrn=T ParDer=T DoDerP=T.
 JobTyp=3 Pass  1:  I=   3 to   9 NPSUse= 40 ParTrn=T ParDer=T DoDerP=T.
 Spin components of T(2) and E(2):
     alpha-alpha T2 =       0.1884502889D-01 E2=     -0.1228392702D-01
     alpha-beta  T2 =       0.1321503285D+00 E2=     -0.9530365177D-01
     beta-beta   T2 =       0.1884502889D-01 E2=     -0.1228392702D-01
 (S**2,0)=  0.00000D+00           (S**2,1)=  0.00000D+00
 E(PUHF)=      -0.79654202862D+02        E(PMP2)=      -0.79774074367D+02
 E2(B2PLYPD3) =    -0.1198715058D+00 E(B2PLYPD3) =    -0.79774074367338D+02
          IDoAtm=11111111
          Differentiating once with respect to electric field.
                with respect to dipole field.
          Differentiating once with respect to nuclear coordinates.
 Keep R1 and R2 ints in memory in canonical form, NReq=148559674.
          There are     1 degrees of freedom in the 1st order CPHF.  IDoFFX=0 NUNeed=     1.
 LinEq1:  Iter=  0 NonCon=     1 RMS=5.30D-04 Max=5.79D-03 NDo=     1
 AX will form     1 AO Fock derivatives at one time.
 LinEq1:  Iter=  1 NonCon=     1 RMS=2.59D-04 Max=4.79D-03 NDo=     1
 LinEq1:  Iter=  2 NonCon=     1 RMS=4.37D-05 Max=4.79D-04 NDo=     1
 LinEq1:  Iter=  3 NonCon=     1 RMS=7.07D-06 Max=9.51D-05 NDo=     1
 LinEq1:  Iter=  4 NonCon=     1 RMS=9.53D-07 Max=1.35D-05 NDo=     1
 LinEq1:  Iter=  5 NonCon=     1 RMS=5.46D-08 Max=5.52D-07 NDo=     1
 LinEq1:  Iter=  6 NonCon=     1 RMS=5.01D-09 Max=8.18D-08 NDo=     1
 LinEq1:  Iter=  7 NonCon=     1 RMS=5.37D-10 Max=8.64D-09 NDo=     1
 LinEq1:  Iter=  8 NonCon=     1 RMS=2.56D-10 Max=3.62D-09 NDo=     1
 LinEq1:  Iter=  9 NonCon=     0 RMS=2.51D-11 Max=2.81D-10 NDo=     1
 Linear equations converged to 1.000D-10 1.000D-09 after     9 iterations.
 End of Minotr F.D. properties file   721 does not exist.
 End of Minotr F.D. properties file   722 does not exist.
 End of Minotr F.D. properties file   788 does not exist.

 **********************************************************************

            Population analysis using the SCF Density.

 **********************************************************************

 Alpha  occ. eigenvalues --  -10.59902 -10.59863  -0.86487  -0.71087  -0.50401
 Alpha  occ. eigenvalues --   -0.50398  -0.42839  -0.40389  -0.40386
 Alpha virt. eigenvalues --    0.08129   0.12158   0.14685   0.14686   0.17322
 Alpha virt. eigenvalues --    0.17322   0.26169   0.30455   0.32500   0.32501
 Alpha virt. eigenvalues --    0.32922   0.32924   0.50561   0.50562   0.52768
 Alpha virt. eigenvalues --    0.53024   0.56612   0.56615   0.56935   0.61849
 Alpha virt. eigenvalues --    0.61851   0.69916   0.72337   0.85315   0.85317
 Alpha virt. eigenvalues --    0.93281   1.00267   1.02401   1.02404   1.11636
 Alpha virt. eigenvalues --    1.13618   1.13620   1.16866   1.16869   1.17436
 Alpha virt. eigenvalues --    1.22779   1.24819   1.24820   1.33191   1.37131
 Alpha virt. eigenvalues --    1.37133   1.45767   1.45769   1.47322   1.47322
 Alpha virt. eigenvalues --    1.62382   1.63802   1.63811   1.67931   2.28129
 Alpha virt. eigenvalues --    2.28137   2.37989   2.44056   2.44057   2.49381
 Alpha virt. eigenvalues --    2.52572   2.66270   2.66273   2.70055   2.86576
 Alpha virt. eigenvalues --    2.86579   2.87852   2.89880   2.98909   2.99627
 Alpha virt. eigenvalues --    2.99633   3.05019   3.05021   3.11936   3.18120
 Alpha virt. eigenvalues --    3.18122   3.20688   3.20691   3.23732   3.23737
 Alpha virt. eigenvalues --    3.37721   3.37728   3.44014   3.47342   3.56156
 Alpha virt. eigenvalues --    3.56162   3.58619   3.59683   3.59690   3.68977
 Alpha virt. eigenvalues --    3.70572   3.70575   3.86572   3.86579   3.91158
 Alpha virt. eigenvalues --    3.91163   3.92925   3.93977   4.05112   4.05119
 Alpha virt. eigenvalues --    4.13273   4.14251   4.14253   4.17275   4.21083
 Alpha virt. eigenvalues --    4.24507   4.24515   4.27828   4.40418   4.44480
 Alpha virt. eigenvalues --    4.44482   4.46378   4.49248   4.49249   4.66781
 Alpha virt. eigenvalues --    4.95817   4.95820   4.96367   4.97965   4.97972
 Alpha virt. eigenvalues --    4.99502   5.00737   5.12497   5.12527   5.44416
 Alpha virt. eigenvalues --    5.48656   5.49612   5.49628   5.49726   5.49768
 Alpha virt. eigenvalues --    5.49783   5.59803   5.60061   5.60063   6.04123
 Alpha virt. eigenvalues --    6.04134   6.06954   6.06964  13.44123  13.53868
  Beta  occ. eigenvalues --  -10.59902 -10.59863  -0.86487  -0.71087  -0.50401
  Beta  occ. eigenvalues --   -0.50398  -0.42839  -0.40389  -0.40386
  Beta virt. eigenvalues --    0.08129   0.12158   0.14685   0.14686   0.17322
  Beta virt. eigenvalues --    0.17322   0.26169   0.30455   0.32500   0.32501
  Beta virt. eigenvalues --    0.32922   0.32924   0.50561   0.50562   0.52768
  Beta virt. eigenvalues --    0.53024   0.56612   0.56615   0.56935   0.61849
  Beta virt. eigenvalues --    0.61851   0.69916   0.72337   0.85315   0.85317
  Beta virt. eigenvalues --    0.93281   1.00267   1.02401   1.02404   1.11636
  Beta virt. eigenvalues --    1.13618   1.13620   1.16866   1.16869   1.17436
  Beta virt. eigenvalues --    1.22779   1.24819   1.24820   1.33191   1.37131
  Beta virt. eigenvalues --    1.37133   1.45767   1.45769   1.47322   1.47322
  Beta virt. eigenvalues --    1.62382   1.63802   1.63811   1.67931   2.28129
  Beta virt. eigenvalues --    2.28137   2.37989   2.44056   2.44057   2.49381
  Beta virt. eigenvalues --    2.52572   2.66270   2.66273   2.70055   2.86576
  Beta virt. eigenvalues --    2.86579   2.87852   2.89880   2.98909   2.99627
  Beta virt. eigenvalues --    2.99633   3.05019   3.05021   3.11936   3.18120
  Beta virt. eigenvalues --    3.18122   3.20688   3.20691   3.23732   3.23737
  Beta virt. eigenvalues --    3.37721   3.37728   3.44014   3.47342   3.56156
  Beta virt. eigenvalues --    3.56162   3.58619   3.59683   3.59690   3.68977
  Beta virt. eigenvalues --    3.70572   3.70575   3.86572   3.86579   3.91158
  Beta virt. eigenvalues --    3.91163   3.92925   3.93977   4.05112   4.05119
  Beta virt. eigenvalues --    4.13273   4.14251   4.14253   4.17275   4.21083
  Beta virt. eigenvalues --    4.24507   4.24515   4.27828   4.40418   4.44480
  Beta virt. eigenvalues --    4.44482   4.46378   4.49248   4.49249   4.66781
  Beta virt. eigenvalues --    4.95817   4.95820   4.96367   4.97965   4.97972
  Beta virt. eigenvalues --    4.99502   5.00737   5.12497   5.12527   5.44416
  Beta virt. eigenvalues --    5.48656   5.49612   5.49628   5.49726   5.49768
  Beta virt. eigenvalues --    5.49783   5.59803   5.60061   5.60063   6.04123
  Beta virt. eigenvalues --    6.04134   6.06954   6.06964  13.44123  13.53868
          Condensed to atoms (all electrons):
               1          2          3          4          5          6
     1  C    4.820729   0.410876   0.410857   0.410864   0.334186  -0.035038
     2  H    0.410876   0.599444  -0.033087  -0.033102  -0.035041  -0.005294
     3  H    0.410857  -0.033087   0.599509  -0.033117  -0.035038  -0.005307
     4  H    0.410864  -0.033102  -0.033117   0.599516  -0.035044   0.007367
     5  C    0.334186  -0.035041  -0.035038  -0.035044   4.820709   0.410864
     6  H   -0.035038  -0.005294  -0.005307   0.007367   0.410864   0.599491
     7  H   -0.035035   0.007365  -0.005291  -0.005309   0.410870  -0.033109
     8  H   -0.035058  -0.005308   0.007367  -0.005298   0.410867  -0.033097
               7          8
     1  C   -0.035035  -0.035058
     2  H    0.007365  -0.005308
     3  H   -0.005291   0.007367
     4  H   -0.005309  -0.005298
     5  C    0.410870   0.410867
     6  H   -0.033109  -0.033097
     7  H    0.599466  -0.033092
     8  H   -0.033092   0.599495
          Atomic-Atomic Spin Densities.
               1          2          3          4          5          6
     1  C    0.000000  -0.000000   0.000000  -0.000000   0.000000   0.000000
     2  H   -0.000000   0.000000  -0.000000   0.000000   0.000000  -0.000000
     3  H    0.000000  -0.000000   0.000000   0.000000   0.000000   0.000000
     4  H   -0.000000   0.000000   0.000000  -0.000000   0.000000   0.000000
     5  C    0.000000   0.000000   0.000000   0.000000  -0.000000  -0.000000
     6  H    0.000000  -0.000000   0.000000   0.000000  -0.000000   0.000000
     7  H   -0.000000  -0.000000   0.000000  -0.000000   0.000000  -0.000000
     8  H    0.000000   0.000000  -0.000000   0.000000   0.000000  -0.000000
               7          8
     1  C   -0.000000   0.000000
     2  H   -0.000000   0.000000
     3  H    0.000000  -0.000000
     4  H   -0.000000   0.000000
     5  C    0.000000   0.000000
     6  H   -0.000000  -0.000000
     7  H    0.000000   0.000000
     8  H    0.000000   0.000000
 Mulliken charges and spin densities:
               1          2
     1  C   -0.282381   0.000000
     2  H    0.094145  -0.000000
     3  H    0.094107   0.000000
     4  H    0.094123  -0.000000
     5  C   -0.282373  -0.000000
     6  H    0.094122   0.000000
     7  H    0.094135   0.000000
     8  H    0.094122   0.000000
 Sum of Mulliken charges =  -0.00000   0.00000
 Mulliken charges and spin densities with hydrogens summed into heavy atoms:
               1          2
     1  C   -0.000006   0.000000
     5  C    0.000006  -0.000000
 Electronic spatial extent (au):  <R**2>=            109.5311
 Charge=             -0.0000 electrons
 Dipole moment (field-independent basis, Debye):
    X=              0.0000    Y=             -0.0000    Z=              0.0001  Tot=              0.0001
 Quadrupole moment (field-independent basis, Debye-Ang):
   XX=            -15.6854   YY=            -14.9592   ZZ=            -14.9600
   XY=             -0.0002   XZ=              0.0002   YZ=              0.0001
 Traceless Quadrupole moment (field-independent basis, Debye-Ang):
   XX=             -0.4838   YY=              0.2423   ZZ=              0.2415
   XY=             -0.0002   XZ=              0.0002   YZ=              0.0001
 Octapole moment (field-independent basis, Debye-Ang**2):
  XXX=              0.0003  YYY=             -0.0012  ZZZ=              0.0002  XYY=              0.0003
  XXY=              0.0007  XXZ=             -0.0002  XZZ=             -0.0004  YZZ=              0.0008
  YYZ=              0.0001  XYZ=              0.0003
 Hexadecapole moment (field-independent basis, Debye-Ang**3):
 XXXX=            -95.7802 YYYY=            -30.1522 ZZZZ=            -30.1520 XXXY=             -0.0011
 XXXZ=              0.0007 YYYX=              0.0359 YYYZ=              0.0002 ZZZX=              1.3369
 ZZZY=              0.0004 XXYY=            -19.9650 XXZZ=            -19.9657 YYZZ=            -10.0508
 XXYZ=              0.0004 YYXZ=             -1.3367 ZZXY=             -0.0366
 N-N= 4.233995128720D+01 E-N=-2.687069269274D+02  KE= 7.926565132759D+01
                          Isotropic Fermi Contact Couplings
        Atom                 a.u.       MegaHertz       Gauss      10(-4) cm-1
     1  C(13)             -0.00000      -0.00000      -0.00000      -0.00000
     2  H(1)              -0.00000      -0.00000      -0.00000      -0.00000
     3  H(1)              -0.00000      -0.00000      -0.00000      -0.00000
     4  H(1)               0.00000       0.00000       0.00000       0.00000
     5  C(13)              0.00000       0.00000       0.00000       0.00000
     6  H(1)               0.00000       0.00000       0.00000       0.00000
     7  H(1)               0.00000       0.00000       0.00000       0.00000
     8  H(1)               0.00000       0.00000       0.00000       0.00000
 --------------------------------------------------------
       Center         ----  Spin Dipole Couplings  ----
                      3XX-RR        3YY-RR        3ZZ-RR
 --------------------------------------------------------
     1   Atom        0.000000      0.000000      0.000000
     2   Atom        0.000000      0.000000      0.000000
     3   Atom        0.000000      0.000000      0.000000
     4   Atom        0.000000      0.000000      0.000000
     5   Atom        0.000000      0.000000      0.000000
     6   Atom        0.000000      0.000000      0.000000
     7   Atom        0.000000      0.000000      0.000000
     8   Atom        0.000000      0.000000      0.000000
 --------------------------------------------------------
                        XY            XZ            YZ
 --------------------------------------------------------
     1   Atom        0.000000      0.000000      0.000000
     2   Atom        0.000000      0.000000      0.000000
     3   Atom        0.000000      0.000000      0.000000
     4   Atom        0.000000      0.000000      0.000000
     5   Atom        0.000000      0.000000      0.000000
     6   Atom        0.000000      0.000000      0.000000
     7   Atom        0.000000      0.000000      0.000000
     8   Atom        0.000000      0.000000      0.000000
 --------------------------------------------------------


 ---------------------------------------------------------------------------------
              Anisotropic Spin Dipole Couplings in Principal Axis System
 ---------------------------------------------------------------------------------

       Atom             a.u.   MegaHertz   Gauss  10(-4) cm-1        Axes

              Baa     0.0000     0.000     0.000     0.000  1.0000  0.0000  0.0000
     1 C(13)  Bbb     0.0000     0.000     0.000     0.000 -0.0000  1.0000  0.0000
              Bcc     0.0000     0.000     0.000     0.000  0.0000  0.0000  1.0000
 
              Baa     0.0000     0.000     0.000     0.000  1.0000  0.0000  0.0000
     2 H(1)   Bbb     0.0000     0.000     0.000     0.000 -0.0000  1.0000  0.0000
              Bcc     0.0000     0.000     0.000     0.000  0.0000  0.0000  1.0000
 
              Baa     0.0000     0.000     0.000     0.000  1.0000  0.0000  0.0000
     3 H(1)   Bbb     0.0000     0.000     0.000     0.000 -0.0000  1.0000  0.0000
              Bcc     0.0000     0.000     0.000     0.000  0.0000  0.0000  1.0000
 
              Baa     0.0000     0.000     0.000     0.000  1.0000  0.0000  0.0000
     4 H(1)   Bbb     0.0000     0.000     0.000     0.000 -0.0000  1.0000  0.0000
              Bcc     0.0000     0.000     0.000     0.000  0.0000  0.0000  1.0000
 
              Baa     0.0000     0.000     0.000     0.000  1.0000  0.0000  0.0000
     5 C(13)  Bbb     0.0000     0.000     0.000     0.000 -0.0000  1.0000  0.0000
              Bcc     0.0000     0.000     0.000     0.000  0.0000  0.0000  1.0000
 
              Baa     0.0000     0.000     0.000     0.000  1.0000  0.0000  0.0000
     6 H(1)   Bbb     0.0000     0.000     0.000     0.000 -0.0000  1.0000  0.0000
              Bcc     0.0000     0.000     0.000     0.000  0.0000  0.0000  1.0000
 
              Baa     0.0000     0.000     0.000     0.000  1.0000  0.0000  0.0000
     7 H(1)   Bbb     0.0000     0.000     0.000     0.000 -0.0000  1.0000  0.0000
              Bcc     0.0000     0.000     0.000     0.000  0.0000  0.0000  1.0000
 
              Baa     0.0000     0.000     0.000     0.000  1.0000  0.0000  0.0000
     8 H(1)   Bbb     0.0000     0.000     0.000     0.000 -0.0000  1.0000  0.0000
              Bcc     0.0000     0.000     0.000     0.000  0.0000  0.0000  1.0000
 

 ---------------------------------------------------------------------------------

 Calling FoFJK, ICntrl=  10002127 FMM=F ISym2X=0 I1Cent= 0 IOpClX= 1 NMat=1 NMatS=1 NMatT=0.
 -------------------------------------------------------------------
 Center     Atomic                   Forces (Hartrees/Bohr)
 Number     Number              X              Y              Z
 -------------------------------------------------------------------
      1        6           0.000756988    0.000059580    0.000015616
      2        1           0.000090751    0.000230092    0.000122243
      3        1           0.000066407   -0.000267724    0.000129477
      4        1           0.000080367   -0.000011545   -0.000268771
      5        6          -0.000742094   -0.000016509   -0.000012281
      6        1          -0.000074729   -0.000011544    0.000280432
      7        1          -0.000080180   -0.000232750   -0.000129761
      8        1          -0.000097509    0.000250401   -0.000136955
 -------------------------------------------------------------------
 Cartesian Forces:  Max     0.000756988 RMS     0.000260490

 GradGradGradGradGradGradGradGradGradGradGradGradGradGradGradGradGradGrad
 Berny optimization.
 FormGI is forming the generalized inverse of G from B-inverse, IUseBI=4.
 Internal  Forces:  Max     0.000994512 RMS     0.000289450
 Search for a local minimum.
 Step number   1 out of a maximum of  100 on scan point     1 out of    37
 All quantities printed in internal units (Hartrees-Bohrs-Radians)
 Mixed Optimization -- En-DIIS/RFO-DIIS
 Second derivative matrix not updated -- first step.
 The second derivative matrix:
                          R1        R2        R3        R4        R5
           R1           0.34871
           R2           0.00000   0.34862
           R3           0.00000   0.00000   0.34867
           R4           0.00000   0.00000   0.00000   0.30014
           R5           0.00000   0.00000   0.00000   0.00000   0.34865
           R6           0.00000   0.00000   0.00000   0.00000   0.00000
           R7           0.00000   0.00000   0.00000   0.00000   0.00000
           A1           0.00000   0.00000   0.00000   0.00000   0.00000
           A2           0.00000   0.00000   0.00000   0.00000   0.00000
           A3           0.00000   0.00000   0.00000   0.00000   0.00000
           A4           0.00000   0.00000   0.00000   0.00000   0.00000
           A5           0.00000   0.00000   0.00000   0.00000   0.00000
           A6           0.00000   0.00000   0.00000   0.00000   0.00000
           A7           0.00000   0.00000   0.00000   0.00000   0.00000
           A8           0.00000   0.00000   0.00000   0.00000   0.00000
           A9           0.00000   0.00000   0.00000   0.00000   0.00000
           A10          0.00000   0.00000   0.00000   0.00000   0.00000
           A11          0.00000   0.00000   0.00000   0.00000   0.00000
           A12          0.00000   0.00000   0.00000   0.00000   0.00000
           D1           0.00000   0.00000   0.00000   0.00000   0.00000
                          R6        R7        A1        A2        A3
           R6           0.34869
           R7           0.00000   0.34866
           A1           0.00000   0.00000   0.16000
           A2           0.00000   0.00000   0.00000   0.16000
           A3           0.00000   0.00000   0.00000   0.00000   0.16000
           A4           0.00000   0.00000   0.00000   0.00000   0.00000
           A5           0.00000   0.00000   0.00000   0.00000   0.00000
           A6           0.00000   0.00000   0.00000   0.00000   0.00000
           A7           0.00000   0.00000   0.00000   0.00000   0.00000
           A8           0.00000   0.00000   0.00000   0.00000   0.00000
           A9           0.00000   0.00000   0.00000   0.00000   0.00000
           A10          0.00000   0.00000   0.00000   0.00000   0.00000
           A11          0.00000   0.00000   0.00000   0.00000   0.00000
           A12          0.00000   0.00000   0.00000   0.00000   0.00000
           D1           0.00000   0.00000   0.00000   0.00000   0.00000
                          A4        A5        A6        A7        A8
           A4           0.16000
           A5           0.00000   0.16000
           A6           0.00000   0.00000   0.16000
           A7           0.00000   0.00000   0.00000   0.16000
           A8           0.00000   0.00000   0.00000   0.00000   0.16000
           A9           0.00000   0.00000   0.00000   0.00000   0.00000
           A10          0.00000   0.00000   0.00000   0.00000   0.00000
           A11          0.00000   0.00000   0.00000   0.00000   0.00000
           A12          0.00000   0.00000   0.00000   0.00000   0.00000
           D1           0.00000   0.00000   0.00000   0.00000   0.00000
                          A9        A10       A11       A12       D1
           A9           0.16000
           A10          0.00000   0.16000
           A11          0.00000   0.00000   0.16000
           A12          0.00000   0.00000   0.00000   0.16000
           D1           0.00000   0.00000   0.00000   0.00000   0.00453
 ITU=  0
     Eigenvalues ---    0.16000   0.16000   0.16000   0.16000   0.16000
     Eigenvalues ---    0.16000   0.16000   0.16000   0.16000   0.16000
     Eigenvalues ---    0.30014   0.34862   0.34865   0.34866   0.34867
     Eigenvalues ---    0.34869   0.348711000.000001000.000001000.00000
 RFO step:  Lambda=-6.52683769D-06 EMin= 1.60000000D-01
 Linear search not attempted -- first point.
 Iteration  1 RMS(Cart)=  0.00211445 RMS(Int)=  0.00000100
 Iteration  2 RMS(Cart)=  0.00000081 RMS(Int)=  0.00000042
 Iteration  1 RMS(Cart)=  0.00000000 RMS(Int)=  0.00000000
 Variable       Old X    -DE/DX   Delta X   Delta X   Delta X     New X
                                 (Linear)    (Quad)   (Total)
    R1        2.05885  -0.00021   0.00000  -0.00060  -0.00060   2.05825
    R2        2.05900  -0.00025   0.00000  -0.00072  -0.00072   2.05827
    R3        2.05891  -0.00022   0.00000  -0.00063  -0.00063   2.05828
    R4        2.87936   0.00099   0.00000   0.00331   0.00331   2.88267
    R5        2.05894  -0.00023   0.00000  -0.00067  -0.00067   2.05827
    R6        2.05889  -0.00022   0.00000  -0.00063  -0.00063   2.05826
    R7        2.05893  -0.00023   0.00000  -0.00066  -0.00066   2.05826
    A1        1.87906  -0.00020   0.00000  -0.00124  -0.00124   1.87782
    A2        1.87891  -0.00019   0.00000  -0.00116  -0.00116   1.87775
    A3        1.94141   0.00016   0.00000   0.00103   0.00103   1.94244
    A4        1.87868  -0.00015   0.00000  -0.00095  -0.00095   1.87773
    A5        1.94148   0.00016   0.00000   0.00102   0.00102   1.94250
    A6        1.94133   0.00018   0.00000   0.00109   0.00109   1.94242
    A7        1.94145   0.00016   0.00000   0.00101   0.00101   1.94246
    A8        1.94145   0.00016   0.00000   0.00098   0.00098   1.94243
    A9        1.94118   0.00020   0.00000   0.00126   0.00125   1.94244
   A10        1.87883  -0.00018   0.00000  -0.00110  -0.00110   1.87773
   A11        1.87895  -0.00018   0.00000  -0.00114  -0.00114   1.87781
   A12        1.87899  -0.00019   0.00000  -0.00120  -0.00120   1.87779
    D1       -1.04787   0.00001   0.00000   0.00000   0.00000  -1.04787
         Item               Value     Threshold  Converged?
 Maximum Force            0.000995     0.000450     NO 
 RMS     Force            0.000297     0.000300     YES
 Maximum Displacement     0.003726     0.001800     NO 
 RMS     Displacement     0.002114     0.001200     NO 
 Predicted change in Energy=-3.263419D-06
 GradGradGradGradGradGradGradGradGradGradGradGradGradGradGradGradGradGrad

                          Input orientation:                          
 ---------------------------------------------------------------------
 Center     Atomic      Atomic             Coordinates (Angstroms)
 Number     Number       Type             X           Y           Z
 ---------------------------------------------------------------------
      1          6           0        0.762727    0.000026   -0.000005
      2          1           0        1.158278   -0.874360   -0.515077
      3          1           0        1.158287    0.883332   -0.499643
      4          1           0        1.158262   -0.008876    1.014794
      5          6           0       -0.762716   -0.000028    0.000020
      6          1           0       -1.158291    0.009502   -1.014751
      7          1           0       -1.158268    0.874043    0.515636
      8          1           0       -1.158207   -0.883622    0.499195
 ---------------------------------------------------------------------
                    Distance matrix (angstroms):
                    1          2          3          4          5
     1  C    0.000000
     2  H    1.089180   0.000000
     3  H    1.089190   1.757760   0.000000
     4  H    1.089194   1.757717   1.757713   0.000000
     5  C    1.525443   2.172557   2.172612   2.172556   0.000000
     6  H    2.172581   2.529304   2.528922   3.079904   1.089188
     7  H    2.172559   3.079882   2.529290   2.528836   1.089184
     8  H    2.172562   2.528822   3.079927   2.529239   1.089187
                    6          7          8
     6  H    0.000000
     7  H    1.757702   0.000000
     8  H    1.757756   1.757742   0.000000
 Symmetry turned off by external request.
 Stoichiometry    C2H6
 Framework group  C1[X(C2H6)]
 Deg. of freedom    18
 Full point group                 C1      NOp   1
 Rotational constants (GHZ):          81.1515644          20.0642466          20.0641108
 Standard basis: CC-pVTZ (5D, 7F)
   144 basis functions,   206 primitive gaussians,   160 cartesian basis functions
     9 alpha electrons        9 beta electrons
       nuclear repulsion energy        42.3246829975 Hartrees.
 NAtoms=    8 NActive=    8 NUniq=    8 SFac= 1.00D+00 NAtFMM=   60 NAOKFM=F Big=F
 Integral buffers will be    131072 words long.
 Raffenetti 2 integral format.
 Two-electron integral symmetry is turned off.
 Nuclear repulsion after empirical dispersion term =       42.3223729368 Hartrees.
 One-electron integrals computed using PRISM.
 NBasis=   144 RedAO= T EigKep=  1.28D-03  NBF=   144
 NBsUse=   144 1.00D-06 EigRej= -1.00D+00 NBFU=   144
 Initial guess from the checkpoint file:  "/localscratch/339543/Gau-92635.chk"
 B after Tr=     0.000013    0.000001    0.000025
         Rot=    1.000000   -0.000000    0.000002   -0.000008 Ang=   0.00 deg.
 Initial guess <Sx>= 0.0000 <Sy>= 0.0000 <Sz>= 0.0000 <S**2>= 0.0000 S= 0.0000
 Keep R1 and R2 ints in memory in canonical form, NReq=148554108.
 Requested convergence on RMS density matrix=1.00D-08 within 500 cycles.
 Requested convergence on MAX density matrix=1.00D-06.
 Requested convergence on             energy=1.00D-06.
 No special actions if energy rises.
 SCF Done:  E(UB2PLYPD3) =  -79.6542090103     A.U. after    6 cycles
            NFock=  6  Conv=0.41D-08     -V/T= 2.0049
 <Sx>= 0.0000 <Sy>= 0.0000 <Sz>= 0.0000 <S**2>=-0.0000 S=-0.0000
 <L.S>=  0.00000000000    
 Annihilation of the first spin contaminant:
 S**2 before annihilation    -0.0000,   after     0.0000
 DoSCS=T DFT=T ScalE2(SS,OS)=  0.270000  0.270000
 ExpMin= 1.03D-01 ExpMax= 8.24D+03 ExpMxC= 2.81D+02 IAcc=3 IRadAn=         5 AccDes= 0.00D+00
 HarFok:  IExCor=  205 AccDes= 0.00D+00 IRadAn=         5 IDoV=-2 UseB2=F ITyADJ=14
 ICtDFT= 12500011 ScaDFX=  1.000000  1.000000  1.000000  1.000000
 Range of M.O.s used for correlation:     3   144
 NBasis=   144 NAE=     9 NBE=     9 NFC=     2 NFV=     0
 NROrb=    142 NOA=     7 NOB=     7 NVA=   135 NVB=   135

 **** Warning!!: The largest alpha MO coefficient is  0.10671129D+02


 **** Warning!!: The largest beta MO coefficient is  0.10671129D+02

 DoSCS=T DFT=T ScalE2(SS,OS)=  0.270000  0.270000
 Fully direct method using O(ONN) memory.
 JobTyp=2 Pass  1:  I=   3 to   9 NPSUse= 40 ParTrn=T ParDer=T DoDerP=T.
 JobTyp=3 Pass  1:  I=   3 to   9 NPSUse= 40 ParTrn=T ParDer=T DoDerP=T.
 Spin components of T(2) and E(2):
     alpha-alpha T2 =       0.1884686521D-01 E2=     -0.1228297043D-01
     alpha-beta  T2 =       0.1321536891D+00 E2=     -0.9530216009D-01
     beta-beta   T2 =       0.1884686521D-01 E2=     -0.1228297043D-01
 (S**2,0)=  0.00000D+00           (S**2,1)=  0.00000D+00
 E(PUHF)=      -0.79654209010D+02        E(PMP2)=      -0.79774077111D+02
 E2(B2PLYPD3) =    -0.1198681009D+00 E(B2PLYPD3) =    -0.79774077111257D+02
          IDoAtm=11111111
          Differentiating once with respect to electric field.
                with respect to dipole field.
          Differentiating once with respect to nuclear coordinates.
 Keep R1 and R2 ints in memory in canonical form, NReq=148559674.
          There are     1 degrees of freedom in the 1st order CPHF.  IDoFFX=0 NUNeed=     1.
 LinEq1:  Iter=  0 NonCon=     1 RMS=5.30D-04 Max=5.91D-03 NDo=     1
 AX will form     1 AO Fock derivatives at one time.
 LinEq1:  Iter=  1 NonCon=     1 RMS=2.59D-04 Max=4.78D-03 NDo=     1
 LinEq1:  Iter=  2 NonCon=     1 RMS=4.37D-05 Max=4.71D-04 NDo=     1
 LinEq1:  Iter=  3 NonCon=     1 RMS=7.06D-06 Max=9.50D-05 NDo=     1
 LinEq1:  Iter=  4 NonCon=     1 RMS=9.52D-07 Max=1.35D-05 NDo=     1
 LinEq1:  Iter=  5 NonCon=     1 RMS=5.45D-08 Max=5.62D-07 NDo=     1
 LinEq1:  Iter=  6 NonCon=     1 RMS=4.98D-09 Max=8.12D-08 NDo=     1
 LinEq1:  Iter=  7 NonCon=     1 RMS=4.11D-10 Max=8.23D-09 NDo=     1
 LinEq1:  Iter=  8 NonCon=     1 RMS=1.18D-10 Max=1.52D-09 NDo=     1
 LinEq1:  Iter=  9 NonCon=     0 RMS=2.37D-11 Max=2.67D-10 NDo=     1
 Linear equations converged to 1.000D-10 1.000D-09 after     9 iterations.
 End of Minotr F.D. properties file   721 does not exist.
 End of Minotr F.D. properties file   722 does not exist.
 End of Minotr F.D. properties file   788 does not exist.
 Calling FoFJK, ICntrl=  10002127 FMM=F ISym2X=0 I1Cent= 0 IOpClX= 1 NMat=1 NMatS=1 NMatT=0.
 -------------------------------------------------------------------
 Center     Atomic                   Forces (Hartrees/Bohr)
 Number     Number              X              Y              Z
 -------------------------------------------------------------------
      1        6          -0.000060127    0.000001095    0.000012866
      2        1          -0.000030743   -0.000011712   -0.000014129
      3        1          -0.000038752    0.000009615   -0.000008885
      4        1          -0.000035163   -0.000003084    0.000011182
      5        6           0.000064194    0.000007517   -0.000003511
      6        1           0.000034722   -0.000006519   -0.000014051
      7        1           0.000032925    0.000013236    0.000009509
      8        1           0.000032945   -0.000010149    0.000007018
 -------------------------------------------------------------------
 Cartesian Forces:  Max     0.000064194 RMS     0.000026085

 GradGradGradGradGradGradGradGradGradGradGradGradGradGradGradGradGradGrad
 Berny optimization.
 Using GEDIIS/GDIIS optimizer.
 FormGI is forming the generalized inverse of G from B-inverse, IUseBI=4.
 Internal  Forces:  Max     0.000164786 RMS     0.000046736
 Search for a local minimum.
 Step number   2 out of a maximum of  100 on scan point     1 out of    37
 All quantities printed in internal units (Hartrees-Bohrs-Radians)
 Mixed Optimization -- En-DIIS/RFO-DIIS
 Swapping is turned off.
 Update second derivatives using D2CorX and points    1    2
 DE= -2.74D-06 DEPred=-3.26D-06 R= 8.41D-01
 TightC=F SS=  1.41D+00  RLast= 5.30D-03 DXNew= 5.0454D-01 1.5914D-02
 Trust test= 8.41D-01 RLast= 5.30D-03 DXMaxT set to 3.00D-01
 The second derivative matrix:
                          R1        R2        R3        R4        R5
           R1           0.34806
           R2          -0.00101   0.34714
           R3          -0.00089  -0.00131   0.34752
           R4          -0.00096   0.00009   0.00012   0.32643
           R5          -0.00086  -0.00129  -0.00114  -0.00032   0.34754
           R6          -0.00073  -0.00112  -0.00099  -0.00070  -0.00096
           R7          -0.00088  -0.00131  -0.00115  -0.00015  -0.00113
           A1           0.00029   0.00010   0.00008  -0.00576   0.00017
           A2           0.00032   0.00015   0.00013  -0.00569   0.00022
           A3          -0.00033  -0.00018  -0.00015   0.00527  -0.00024
           A4           0.00066   0.00058   0.00050  -0.00678   0.00061
           A5          -0.00056  -0.00046  -0.00039   0.00651  -0.00050
           A6          -0.00032  -0.00016  -0.00013   0.00542  -0.00022
           A7          -0.00044  -0.00032  -0.00027   0.00580  -0.00036
           A8          -0.00043  -0.00031  -0.00026   0.00563  -0.00035
           A9          -0.00019   0.00002   0.00003   0.00529  -0.00006
           A10          0.00044   0.00030   0.00025  -0.00611   0.00035
           A11          0.00039   0.00023   0.00019  -0.00598   0.00029
           A12          0.00029   0.00010   0.00008  -0.00563   0.00017
           D1          -0.00000  -0.00000  -0.00000   0.00001  -0.00000
                          R6        R7        A1        A2        A3
           R6           0.34786
           R7          -0.00098   0.34751
           A1           0.00024   0.00014   0.16125
           A2           0.00028   0.00018   0.00123   0.16121
           A3          -0.00029  -0.00021  -0.00114  -0.00112   0.16103
           A4           0.00064   0.00057   0.00144   0.00140  -0.00128
           A5          -0.00054  -0.00046  -0.00139  -0.00135   0.00124
           A6          -0.00028  -0.00018  -0.00117  -0.00115   0.00106
           A7          -0.00041  -0.00033  -0.00125  -0.00122   0.00112
           A8          -0.00040  -0.00032  -0.00121  -0.00118   0.00108
           A9          -0.00014  -0.00003  -0.00116  -0.00115   0.00106
           A10          0.00040   0.00031   0.00131   0.00129  -0.00118
           A11          0.00035   0.00025   0.00129   0.00127  -0.00117
           A12          0.00024   0.00014   0.00122   0.00120  -0.00111
           D1          -0.00000  -0.00000  -0.00000  -0.00000   0.00000
                          A4        A5        A6        A7        A8
           A4           0.16150
           A5          -0.00148   0.16145
           A6          -0.00133   0.00128   0.16110
           A7          -0.00136   0.00133   0.00116   0.16120
           A8          -0.00132   0.00129   0.00112   0.00117   0.16113
           A9          -0.00137   0.00131   0.00109   0.00117   0.00113
           A10          0.00145  -0.00141  -0.00122  -0.00128  -0.00124
           A11          0.00144  -0.00140  -0.00120  -0.00126  -0.00123
           A12          0.00140  -0.00135  -0.00115  -0.00122  -0.00118
           D1          -0.00000   0.00000   0.00000   0.00000   0.00000
                          A9        A10       A11       A12       D1
           A9           0.16107
           A10         -0.00123   0.16135
           A11         -0.00120   0.00134   0.16132
           A12         -0.00113   0.00128   0.00126   0.16120
           D1           0.00000  -0.00000  -0.00000  -0.00000   0.00453
 ITU=  1  0
     Eigenvalues ---    0.15982   0.16000   0.16000   0.16000   0.16000
     Eigenvalues ---    0.16000   0.16000   0.16000   0.16000   0.17230
     Eigenvalues ---    0.32895   0.34236   0.34864   0.34866   0.34867
     Eigenvalues ---    0.34869   0.348801000.000001000.000001000.00000
 En-DIIS/RFO-DIIS/Sim-DIIS IScMMF=       -3 using points:     2    1
 RFO step:  Lambda=-1.62924681D-07.
 DidBck=F Rises=F RFO-DIIS coefs:    0.85477    0.14523
 Iteration  1 RMS(Cart)=  0.00034245 RMS(Int)=  0.00000005
 Iteration  2 RMS(Cart)=  0.00000003 RMS(Int)=  0.00000005
 Iteration  1 RMS(Cart)=  0.00000000 RMS(Int)=  0.00000000
 Variable       Old X    -DE/DX   Delta X   Delta X   Delta X     New X
                                 (Linear)    (Quad)   (Total)
    R1        2.05825   0.00000   0.00009  -0.00008   0.00001   2.05826
    R2        2.05827  -0.00000   0.00011  -0.00011  -0.00001   2.05826
    R3        2.05828  -0.00000   0.00009  -0.00010  -0.00001   2.05827
    R4        2.88267  -0.00016  -0.00048   0.00002  -0.00046   2.88221
    R5        2.05827   0.00000   0.00010  -0.00010  -0.00000   2.05827
    R6        2.05826   0.00000   0.00009  -0.00009   0.00001   2.05827
    R7        2.05826  -0.00000   0.00010  -0.00010  -0.00000   2.05826
    A1        1.87782   0.00004   0.00018   0.00001   0.00019   1.87801
    A2        1.87775   0.00004   0.00017   0.00002   0.00019   1.87794
    A3        1.94244  -0.00003  -0.00015  -0.00003  -0.00018   1.94226
    A4        1.87773   0.00004   0.00014   0.00009   0.00023   1.87796
    A5        1.94250  -0.00004  -0.00015  -0.00007  -0.00022   1.94228
    A6        1.94242  -0.00003  -0.00016  -0.00002  -0.00018   1.94224
    A7        1.94246  -0.00004  -0.00015  -0.00005  -0.00019   1.94227
    A8        1.94243  -0.00004  -0.00014  -0.00005  -0.00019   1.94225
    A9        1.94244  -0.00003  -0.00018   0.00001  -0.00017   1.94226
   A10        1.87773   0.00004   0.00016   0.00004   0.00021   1.87793
   A11        1.87781   0.00004   0.00017   0.00003   0.00020   1.87801
   A12        1.87779   0.00004   0.00017   0.00001   0.00019   1.87798
    D1       -1.04787   0.00001   0.00000   0.00000   0.00000  -1.04787
         Item               Value     Threshold  Converged?
 Maximum Force            0.000165     0.000450     YES
 RMS     Force            0.000048     0.000300     YES
 Maximum Displacement     0.000645     0.001800     YES
 RMS     Displacement     0.000342     0.001200     YES
 Predicted change in Energy=-8.146227D-08
 Optimization completed.
    -- Stationary point found.
                           ----------------------------
                           !   Optimized Parameters   !
                           ! (Angstroms and Degrees)  !
 --------------------------                            --------------------------
 ! Name  Definition              Value          Derivative Info.                !
 --------------------------------------------------------------------------------
 ! R1    R(1,2)                  1.0892         -DE/DX =    0.0                 !
 ! R2    R(1,3)                  1.0892         -DE/DX =    0.0                 !
 ! R3    R(1,4)                  1.0892         -DE/DX =    0.0                 !
 ! R4    R(1,5)                  1.5254         -DE/DX =   -0.0002              !
 ! R5    R(5,6)                  1.0892         -DE/DX =    0.0                 !
 ! R6    R(5,7)                  1.0892         -DE/DX =    0.0                 !
 ! R7    R(5,8)                  1.0892         -DE/DX =    0.0                 !
 ! A1    A(2,1,3)              107.5913         -DE/DX =    0.0                 !
 ! A2    A(2,1,4)              107.5872         -DE/DX =    0.0                 !
 ! A3    A(2,1,5)              111.2934         -DE/DX =    0.0                 !
 ! A4    A(3,1,4)              107.5861         -DE/DX =    0.0                 !
 ! A5    A(3,1,5)              111.2972         -DE/DX =    0.0                 !
 ! A6    A(4,1,5)              111.2925         -DE/DX =    0.0                 !
 ! A7    A(1,5,6)              111.2949         -DE/DX =    0.0                 !
 ! A8    A(1,5,7)              111.2933         -DE/DX =    0.0                 !
 ! A9    A(1,5,8)              111.2933         -DE/DX =    0.0                 !
 ! A10   A(6,5,7)              107.586          -DE/DX =    0.0                 !
 ! A11   A(6,5,8)              107.5905         -DE/DX =    0.0                 !
 ! A12   A(7,5,8)              107.5896         -DE/DX =    0.0                 !
 ! D1    D(2,1,5,6)            -60.0387         -DE/DX =    0.0                 !
 --------------------------------------------------------------------------------
 Iteration  1 RMS(Cart)=  0.09100844 RMS(Int)=  0.00382267
 Iteration  2 RMS(Cart)=  0.00403596 RMS(Int)=  0.00000426
 Iteration  3 RMS(Cart)=  0.00000645 RMS(Int)=  0.00000000
 Iteration  4 RMS(Cart)=  0.00000000 RMS(Int)=  0.00000000
 Iteration  1 RMS(Cart)=  0.00000000 RMS(Int)=  0.00000000
 GradGradGradGradGradGradGradGradGradGradGradGradGradGradGradGradGradGrad

                          Input orientation:                          
 ---------------------------------------------------------------------
 Center     Atomic      Atomic             Coordinates (Angstroms)
 Number     Number       Type             X           Y           Z
 ---------------------------------------------------------------------
      1          6           0        0.762607    0.000026    0.000002
      2          1           0        1.157980   -0.826201   -0.589365
      3          1           0        1.157945    0.923583   -0.420801
      4          1           0        1.157957   -0.097300    1.010230
      5          6           0       -0.762591   -0.000028    0.000022
      6          1           0       -1.157962   -0.078978   -1.011797
      7          1           0       -1.157956    0.915723    0.437533
      8          1           0       -1.157907   -0.836809    0.574344
 ---------------------------------------------------------------------
                    Distance matrix (angstroms):
                    1          2          3          4          5
     1  C    0.000000
     2  H    1.089185   0.000000
     3  H    1.089186   1.757884   0.000000
     4  H    1.089190   1.757840   1.757854   0.000000
     5  C    1.525198   2.172219   2.172236   2.172208   0.000000
     6  H    2.172226   2.469895   2.591878   3.074478   1.089187
     7  H    2.172210   3.074472   2.469858   2.591843   1.089187
     8  H    2.172219   2.591846   3.074486   2.469838   1.089185
                    6          7          8
     6  H    0.000000
     7  H    1.757836   0.000000
     8  H    1.757883   1.757864   0.000000
 Symmetry turned off by external request.
 Stoichiometry    C2H6
 Framework group  C1[X(C2H6)]
 Deg. of freedom    18
 Full point group                 C1      NOp   1
 Rotational constants (GHZ):          81.1396956          20.0709480          20.0708386
 Standard basis: CC-pVTZ (5D, 7F)
   144 basis functions,   206 primitive gaussians,   160 cartesian basis functions
     9 alpha electrons        9 beta electrons
       nuclear repulsion energy        42.3287315895 Hartrees.
 NAtoms=    8 NActive=    8 NUniq=    8 SFac= 1.00D+00 NAtFMM=   60 NAOKFM=F Big=F
 Integral buffers will be    131072 words long.
 Raffenetti 2 integral format.
 Two-electron integral symmetry is turned off.
 Nuclear repulsion after empirical dispersion term =       42.3264215341 Hartrees.
 One-electron integrals computed using PRISM.
 NBasis=   144 RedAO= T EigKep=  1.26D-03  NBF=   144
 NBsUse=   144 1.00D-06 EigRej= -1.00D+00 NBFU=   144
 Initial guess from the checkpoint file:  "/localscratch/339543/Gau-92635.chk"
 B after Tr=     0.000003   -0.000000    0.000005
         Rot=    1.000000    0.000000    0.000001    0.000000 Ang=   0.00 deg.
 Initial guess <Sx>= 0.0000 <Sy>= 0.0000 <Sz>= 0.0000 <S**2>=-0.0000 S=-0.0000
 Keep R1 and R2 ints in memory in canonical form, NReq=148554108.
 Requested convergence on RMS density matrix=1.00D-08 within 500 cycles.
 Requested convergence on MAX density matrix=1.00D-06.
 Requested convergence on             energy=1.00D-06.
 No special actions if energy rises.
 SCF Done:  E(UB2PLYPD3) =  -79.6539026435     A.U. after    8 cycles
            NFock=  8  Conv=0.12D-08     -V/T= 2.0049
 <Sx>= 0.0000 <Sy>= 0.0000 <Sz>= 0.0000 <S**2>=-0.0000 S=-0.0000
 <L.S>=  0.00000000000    
 Annihilation of the first spin contaminant:
 S**2 before annihilation    -0.0000,   after     0.0000
 DoSCS=T DFT=T ScalE2(SS,OS)=  0.270000  0.270000
 ExpMin= 1.03D-01 ExpMax= 8.24D+03 ExpMxC= 2.81D+02 IAcc=3 IRadAn=         5 AccDes= 0.00D+00
 HarFok:  IExCor=  205 AccDes= 0.00D+00 IRadAn=         5 IDoV=-2 UseB2=F ITyADJ=14
 ICtDFT= 12500011 ScaDFX=  1.000000  1.000000  1.000000  1.000000
 Range of M.O.s used for correlation:     3   144
 NBasis=   144 NAE=     9 NBE=     9 NFC=     2 NFV=     0
 NROrb=    142 NOA=     7 NOB=     7 NVA=   135 NVB=   135

 **** Warning!!: The largest alpha MO coefficient is  0.10694267D+02


 **** Warning!!: The largest beta MO coefficient is  0.10694267D+02

 DoSCS=T DFT=T ScalE2(SS,OS)=  0.270000  0.270000
 Fully direct method using O(ONN) memory.
 JobTyp=2 Pass  1:  I=   3 to   9 NPSUse= 40 ParTrn=T ParDer=T DoDerP=T.
 JobTyp=3 Pass  1:  I=   3 to   9 NPSUse= 40 ParTrn=T ParDer=T DoDerP=T.
 Spin components of T(2) and E(2):
     alpha-alpha T2 =       0.1884535906D-01 E2=     -0.1228352997D-01
     alpha-beta  T2 =       0.1321570763D+00 E2=     -0.9530680756D-01
     beta-beta   T2 =       0.1884535906D-01 E2=     -0.1228352997D-01
 (S**2,0)=  0.00000D+00           (S**2,1)=  0.00000D+00
 E(PUHF)=      -0.79653902644D+02        E(PMP2)=      -0.79773776511D+02
 E2(B2PLYPD3) =    -0.1198738675D+00 E(B2PLYPD3) =    -0.79773776511032D+02
          IDoAtm=11111111
          Differentiating once with respect to electric field.
                with respect to dipole field.
          Differentiating once with respect to nuclear coordinates.
 Keep R1 and R2 ints in memory in canonical form, NReq=148559674.
          There are     1 degrees of freedom in the 1st order CPHF.  IDoFFX=0 NUNeed=     1.
 LinEq1:  Iter=  0 NonCon=     1 RMS=5.30D-04 Max=4.49D-03 NDo=     1
 AX will form     1 AO Fock derivatives at one time.
 LinEq1:  Iter=  1 NonCon=     1 RMS=2.59D-04 Max=4.78D-03 NDo=     1
 LinEq1:  Iter=  2 NonCon=     1 RMS=4.37D-05 Max=4.90D-04 NDo=     1
 LinEq1:  Iter=  3 NonCon=     1 RMS=7.06D-06 Max=9.48D-05 NDo=     1
 LinEq1:  Iter=  4 NonCon=     1 RMS=9.50D-07 Max=1.35D-05 NDo=     1
 LinEq1:  Iter=  5 NonCon=     1 RMS=5.48D-08 Max=5.21D-07 NDo=     1
 LinEq1:  Iter=  6 NonCon=     1 RMS=5.10D-09 Max=7.70D-08 NDo=     1
 LinEq1:  Iter=  7 NonCon=     1 RMS=4.04D-10 Max=7.51D-09 NDo=     1
 LinEq1:  Iter=  8 NonCon=     0 RMS=4.75D-11 Max=5.40D-10 NDo=     1
 Linear equations converged to 1.000D-10 1.000D-09 after     8 iterations.
 End of Minotr F.D. properties file   721 does not exist.
 End of Minotr F.D. properties file   722 does not exist.
 End of Minotr F.D. properties file   788 does not exist.
 Calling FoFJK, ICntrl=  10002127 FMM=F ISym2X=0 I1Cent= 0 IOpClX= 1 NMat=1 NMatS=1 NMatT=0.
 -------------------------------------------------------------------
 Center     Atomic                   Forces (Hartrees/Bohr)
 Number     Number              X              Y              Z
 -------------------------------------------------------------------
      1        6           0.000392129   -0.000004320    0.000008243
      2        1           0.000079332   -0.000268606    0.000525515
      3        1           0.000077543   -0.000324329   -0.000501639
      4        1           0.000078307    0.000594875   -0.000031381
      5        6          -0.000390782    0.000008008   -0.000002355
      6        1          -0.000078444    0.000588672    0.000041736
      7        1          -0.000078505   -0.000332723    0.000495540
      8        1          -0.000079579   -0.000261576   -0.000535659
 -------------------------------------------------------------------
 Cartesian Forces:  Max     0.000594875 RMS     0.000320392

 GradGradGradGradGradGradGradGradGradGradGradGradGradGradGradGradGradGrad
 Berny optimization.
 FormGI is forming the generalized inverse of G from B-inverse, IUseBI=4.
 Internal  Forces:  Max     0.003382925 RMS     0.001061792
 Search for a local minimum.
 Step number   1 out of a maximum of  100 on scan point     2 out of    37
 All quantities printed in internal units (Hartrees-Bohrs-Radians)
 Mixed Optimization -- RFO/linear search
 Second derivative matrix not updated -- first step.
 The second derivative matrix:
                          R1        R2        R3        R4        R5
           R1           0.34806
           R2          -0.00101   0.34714
           R3          -0.00089  -0.00131   0.34752
           R4          -0.00096   0.00009   0.00012   0.32643
           R5          -0.00086  -0.00129  -0.00114  -0.00032   0.34754
           R6          -0.00073  -0.00112  -0.00099  -0.00070  -0.00096
           R7          -0.00088  -0.00131  -0.00115  -0.00015  -0.00113
           A1           0.00029   0.00010   0.00008  -0.00576   0.00017
           A2           0.00032   0.00015   0.00013  -0.00569   0.00022
           A3          -0.00033  -0.00018  -0.00015   0.00527  -0.00024
           A4           0.00066   0.00058   0.00050  -0.00678   0.00061
           A5          -0.00056  -0.00046  -0.00039   0.00651  -0.00050
           A6          -0.00032  -0.00016  -0.00013   0.00542  -0.00022
           A7          -0.00044  -0.00032  -0.00027   0.00580  -0.00036
           A8          -0.00043  -0.00031  -0.00026   0.00563  -0.00035
           A9          -0.00019   0.00002   0.00003   0.00529  -0.00006
           A10          0.00044   0.00030   0.00025  -0.00611   0.00035
           A11          0.00039   0.00023   0.00019  -0.00598   0.00029
           A12          0.00029   0.00010   0.00008  -0.00563   0.00017
           D1          -0.00000  -0.00000  -0.00000   0.00001  -0.00000
                          R6        R7        A1        A2        A3
           R6           0.34786
           R7          -0.00098   0.34751
           A1           0.00024   0.00014   0.16125
           A2           0.00028   0.00018   0.00123   0.16121
           A3          -0.00029  -0.00021  -0.00114  -0.00112   0.16103
           A4           0.00064   0.00057   0.00144   0.00140  -0.00128
           A5          -0.00054  -0.00046  -0.00139  -0.00135   0.00124
           A6          -0.00028  -0.00018  -0.00117  -0.00115   0.00106
           A7          -0.00041  -0.00033  -0.00125  -0.00122   0.00112
           A8          -0.00040  -0.00032  -0.00121  -0.00118   0.00108
           A9          -0.00014  -0.00003  -0.00116  -0.00115   0.00106
           A10          0.00040   0.00031   0.00131   0.00129  -0.00118
           A11          0.00035   0.00025   0.00129   0.00127  -0.00117
           A12          0.00024   0.00014   0.00122   0.00120  -0.00111
           D1          -0.00000  -0.00000  -0.00000  -0.00000   0.00000
                          A4        A5        A6        A7        A8
           A4           0.16150
           A5          -0.00148   0.16145
           A6          -0.00133   0.00128   0.16110
           A7          -0.00136   0.00133   0.00116   0.16120
           A8          -0.00132   0.00129   0.00112   0.00117   0.16113
           A9          -0.00137   0.00131   0.00109   0.00117   0.00113
           A10          0.00145  -0.00141  -0.00122  -0.00128  -0.00124
           A11          0.00144  -0.00140  -0.00120  -0.00126  -0.00123
           A12          0.00140  -0.00135  -0.00115  -0.00122  -0.00118
           D1          -0.00000   0.00000   0.00000   0.00000   0.00000
                          A9        A10       A11       A12       D1
           A9           0.16107
           A10         -0.00123   0.16135
           A11         -0.00120   0.00134   0.16132
           A12         -0.00113   0.00128   0.00126   0.16120
           D1           0.00000  -0.00000  -0.00000  -0.00000   0.00453
 ITU=  0
     Eigenvalues ---    0.15982   0.16000   0.16000   0.16000   0.16000
     Eigenvalues ---    0.16000   0.16000   0.16000   0.16000   0.17230
     Eigenvalues ---    0.32895   0.34236   0.34864   0.34866   0.34867
     Eigenvalues ---    0.34869   0.348801000.000001000.000001000.00000
 RFO step:  Lambda=-6.78654573D-05 EMin= 1.59818716D-01
 Linear search not attempted -- first point.
 Iteration  1 RMS(Cart)=  0.01141876 RMS(Int)=  0.00008388
 Iteration  2 RMS(Cart)=  0.00008468 RMS(Int)=  0.00001380
 Iteration  3 RMS(Cart)=  0.00000000 RMS(Int)=  0.00001380
 Iteration  1 RMS(Cart)=  0.00000000 RMS(Int)=  0.00000000
 Variable       Old X    -DE/DX   Delta X   Delta X   Delta X     New X
                                 (Linear)    (Quad)   (Total)
    R1        2.05826  -0.00005   0.00000  -0.00014  -0.00014   2.05812
    R2        2.05826  -0.00005   0.00000  -0.00015  -0.00015   2.05811
    R3        2.05827  -0.00005   0.00000  -0.00016  -0.00016   2.05811
    R4        2.88221   0.00063   0.00000   0.00182   0.00182   2.88403
    R5        2.05827  -0.00005   0.00000  -0.00015  -0.00015   2.05812
    R6        2.05827  -0.00005   0.00000  -0.00014  -0.00014   2.05812
    R7        2.05826  -0.00005   0.00000  -0.00015  -0.00015   2.05811
    A1        1.87801  -0.00154   0.00000  -0.00953  -0.00954   1.86847
    A2        1.87794   0.00133   0.00000   0.00840   0.00838   1.88632
    A3        1.94226   0.00010   0.00000   0.00053   0.00051   1.94277
    A4        1.87796  -0.00011   0.00000  -0.00053  -0.00055   1.87741
    A5        1.94228  -0.00066   0.00000  -0.00427  -0.00429   1.93799
    A6        1.94224   0.00087   0.00000   0.00530   0.00528   1.94752
    A7        1.94227   0.00010   0.00000   0.00052   0.00050   1.94277
    A8        1.94225   0.00086   0.00000   0.00529   0.00527   1.94752
    A9        1.94226  -0.00066   0.00000  -0.00423  -0.00425   1.93801
   A10        1.87793   0.00133   0.00000   0.00841   0.00839   1.88633
   A11        1.87801  -0.00154   0.00000  -0.00952  -0.00954   1.86847
   A12        1.87798  -0.00011   0.00000  -0.00057  -0.00058   1.87740
    D1       -0.87334  -0.00338   0.00000   0.00000  -0.00000  -0.87334
         Item               Value     Threshold  Converged?
 Maximum Force            0.001543     0.000450     NO 
 RMS     Force            0.000764     0.000300     NO 
 Maximum Displacement     0.022933     0.001800     NO 
 RMS     Displacement     0.011425     0.001200     NO 
 Predicted change in Energy=-3.394667D-05
 GradGradGradGradGradGradGradGradGradGradGradGradGradGradGradGradGradGrad

                          Input orientation:                          
 ---------------------------------------------------------------------
 Center     Atomic      Atomic             Coordinates (Angstroms)
 Number     Number       Type             X           Y           Z
 ---------------------------------------------------------------------
      1          6           0        0.763083   -0.001899    0.003319
      2          1           0        1.157090   -0.829390   -0.585051
      3          1           0        1.158420    0.915401   -0.430751
      4          1           0        1.161290   -0.085777    1.013542
      5          6           0       -0.763063    0.003800    0.000084
      6          1           0       -1.157047   -0.073636   -1.012308
      7          1           0       -1.161278    0.912617    0.449125
      8          1           0       -1.158424   -0.841100    0.562209
 ---------------------------------------------------------------------
                    Distance matrix (angstroms):
                    1          2          3          4          5
     1  C    0.000000
     2  H    1.089110   0.000000
     3  H    1.089104   1.751600   0.000000
     4  H    1.089108   1.763088   1.757370   0.000000
     5  C    1.526160   2.173379   2.169962   2.176754   0.000000
     6  H    2.173371   2.471627   2.584142   3.078782   1.089108
     7  H    2.176752   3.078789   2.480965   2.590305   1.089110
     8  H    2.169978   2.584173   3.072300   2.480985   1.089105
                    6          7          8
     6  H    0.000000
     7  H    1.763093   0.000000
     8  H    1.751600   1.757361   0.000000
 Symmetry turned off by external request.
 Stoichiometry    C2H6
 Framework group  C1[X(C2H6)]
 Deg. of freedom    18
 Full point group                 C1      NOp   1
 Rotational constants (GHZ):          81.1848827          20.0619655          20.0329320
 Standard basis: CC-pVTZ (5D, 7F)
   144 basis functions,   206 primitive gaussians,   160 cartesian basis functions
     9 alpha electrons        9 beta electrons
       nuclear repulsion energy        42.3169610443 Hartrees.
 NAtoms=    8 NActive=    8 NUniq=    8 SFac= 1.00D+00 NAtFMM=   60 NAOKFM=F Big=F
 Integral buffers will be    131072 words long.
 Raffenetti 2 integral format.
 Two-electron integral symmetry is turned off.
 Nuclear repulsion after empirical dispersion term =       42.3146513484 Hartrees.
 One-electron integrals computed using PRISM.
 NBasis=   144 RedAO= T EigKep=  1.27D-03  NBF=   144
 NBsUse=   144 1.00D-06 EigRej= -1.00D+00 NBFU=   144
 Initial guess from the checkpoint file:  "/localscratch/339543/Gau-92635.chk"
 B after Tr=     0.000002    0.000999    0.001774
         Rot=    1.000000   -0.000000    0.000343    0.000605 Ang=   0.08 deg.
 Initial guess <Sx>= 0.0000 <Sy>= 0.0000 <Sz>= 0.0000 <S**2>= 0.0000 S= 0.0000
 ExpMin= 1.03D-01 ExpMax= 8.24D+03 ExpMxC= 2.81D+02 IAcc=3 IRadAn=         5 AccDes= 0.00D+00
 Harris functional with IExCor=  419 and IRadAn=       5 diagonalized for initial guess.
 HarFok:  IExCor=  419 AccDes= 0.00D+00 IRadAn=         5 IDoV= 1 UseB2=F ITyADJ=14
 ICtDFT=  3500011 ScaDFX=  1.000000  1.000000  1.000000  1.000000
 FoFCou: FMM=F IPFlag=           0 FMFlag=      100000 FMFlg1=           0
         NFxFlg=           0 DoJE=T BraDBF=F KetDBF=T FulRan=T
         wScrn=  0.000000 ICntrl=       500 IOpCl=  0 I1Cent=   200000004 NGrid=           0
         NMat0=    1 NMatS0=      1 NMatT0=    0 NMatD0=    1 NMtDS0=    0 NMtDT0=    0
 Symmetry not used in FoFCou.
 Keep R1 and R2 ints in memory in canonical form, NReq=148554108.
 Requested convergence on RMS density matrix=1.00D-08 within 500 cycles.
 Requested convergence on MAX density matrix=1.00D-06.
 Requested convergence on             energy=1.00D-06.
 No special actions if energy rises.
 Integral accuracy reduced to 1.0D-05 until final iterations.
 Initial convergence to 1.0D-05 achieved.  Increase integral accuracy.
 SCF Done:  E(UB2PLYPD3) =  -79.6539345097     A.U. after    7 cycles
            NFock=  7  Conv=0.28D-08     -V/T= 2.0049
 <Sx>= 0.0000 <Sy>= 0.0000 <Sz>= 0.0000 <S**2>=-0.0000 S=-0.0000
 <L.S>=  0.00000000000    
 Annihilation of the first spin contaminant:
 S**2 before annihilation    -0.0000,   after     0.0000
 DoSCS=T DFT=T ScalE2(SS,OS)=  0.270000  0.270000
 ExpMin= 1.03D-01 ExpMax= 8.24D+03 ExpMxC= 2.81D+02 IAcc=3 IRadAn=         5 AccDes= 0.00D+00
 HarFok:  IExCor=  205 AccDes= 0.00D+00 IRadAn=         5 IDoV=-2 UseB2=F ITyADJ=14
 ICtDFT= 12500011 ScaDFX=  1.000000  1.000000  1.000000  1.000000
 Range of M.O.s used for correlation:     3   144
 NBasis=   144 NAE=     9 NBE=     9 NFC=     2 NFV=     0
 NROrb=    142 NOA=     7 NOB=     7 NVA=   135 NVB=   135

 **** Warning!!: The largest alpha MO coefficient is  0.10680882D+02


 **** Warning!!: The largest beta MO coefficient is  0.10680882D+02

 DoSCS=T DFT=T ScalE2(SS,OS)=  0.270000  0.270000
 Fully direct method using O(ONN) memory.
 JobTyp=2 Pass  1:  I=   3 to   9 NPSUse= 40 ParTrn=T ParDer=T DoDerP=T.
 JobTyp=3 Pass  1:  I=   3 to   9 NPSUse= 40 ParTrn=T ParDer=T DoDerP=T.
 Spin components of T(2) and E(2):
     alpha-alpha T2 =       0.1884857500D-01 E2=     -0.1228324131D-01
     alpha-beta  T2 =       0.1321764470D+00 E2=     -0.9530830967D-01
     beta-beta   T2 =       0.1884857500D-01 E2=     -0.1228324131D-01
 (S**2,0)=  0.00000D+00           (S**2,1)=  0.00000D+00
 E(PUHF)=      -0.79653934510D+02        E(PMP2)=      -0.79773809302D+02
 E2(B2PLYPD3) =    -0.1198747923D+00 E(B2PLYPD3) =    -0.79773809302049D+02
          IDoAtm=11111111
          Differentiating once with respect to electric field.
                with respect to dipole field.
          Differentiating once with respect to nuclear coordinates.
 Keep R1 and R2 ints in memory in canonical form, NReq=148559674.
          There are     1 degrees of freedom in the 1st order CPHF.  IDoFFX=0 NUNeed=     1.
 LinEq1:  Iter=  0 NonCon=     1 RMS=5.30D-04 Max=4.68D-03 NDo=     1
 AX will form     1 AO Fock derivatives at one time.
 LinEq1:  Iter=  1 NonCon=     1 RMS=2.59D-04 Max=4.78D-03 NDo=     1
 LinEq1:  Iter=  2 NonCon=     1 RMS=4.37D-05 Max=4.94D-04 NDo=     1
 LinEq1:  Iter=  3 NonCon=     1 RMS=7.06D-06 Max=9.48D-05 NDo=     1
 LinEq1:  Iter=  4 NonCon=     1 RMS=9.51D-07 Max=1.35D-05 NDo=     1
 LinEq1:  Iter=  5 NonCon=     1 RMS=5.48D-08 Max=5.41D-07 NDo=     1
 LinEq1:  Iter=  6 NonCon=     1 RMS=5.13D-09 Max=7.78D-08 NDo=     1
 LinEq1:  Iter=  7 NonCon=     1 RMS=4.66D-10 Max=8.02D-09 NDo=     1
 LinEq1:  Iter=  8 NonCon=     0 RMS=9.70D-11 Max=9.17D-10 NDo=     1
 Linear equations converged to 1.000D-10 1.000D-09 after     8 iterations.
 End of Minotr F.D. properties file   721 does not exist.
 End of Minotr F.D. properties file   722 does not exist.
 End of Minotr F.D. properties file   788 does not exist.
 Calling FoFJK, ICntrl=  10002127 FMM=F ISym2X=0 I1Cent= 0 IOpClX= 1 NMat=1 NMatS=1 NMatT=0.
 -------------------------------------------------------------------
 Center     Atomic                   Forces (Hartrees/Bohr)
 Number     Number              X              Y              Z
 -------------------------------------------------------------------
      1        6          -0.000075190    0.001514033   -0.001448939
      2        1          -0.000093258   -0.000899540    0.001249775
      3        1           0.000204489    0.000203802   -0.000106525
      4        1          -0.000158477    0.000037187   -0.000177812
      5        6           0.000073969   -0.002021003    0.000553459
      6        1           0.000091390    0.001534834   -0.000127294
      7        1           0.000159896   -0.000172325   -0.000061603
      8        1          -0.000202818   -0.000196987    0.000118938
 -------------------------------------------------------------------
 Cartesian Forces:  Max     0.002021003 RMS     0.000759925

 GradGradGradGradGradGradGradGradGradGradGradGradGradGradGradGradGradGrad
 Berny optimization.
 Using GEDIIS/GDIIS optimizer.
 FormGI is forming the generalized inverse of G from B-inverse, IUseBI=4.
 Internal  Forces:  Max     0.003012825 RMS     0.000690697
 Search for a local minimum.
 Step number   2 out of a maximum of  100 on scan point     2 out of    37
 All quantities printed in internal units (Hartrees-Bohrs-Radians)
 Mixed Optimization -- En-DIIS/RFO-DIIS
 Update second derivatives using D2CorX and points    1    2
 DE= -3.28D-05 DEPred=-3.39D-05 R= 9.66D-01
 TightC=F SS=  1.41D+00  RLast= 2.05D-02 DXNew= 5.0454D-01 6.1433D-02
 Trust test= 9.66D-01 RLast= 2.05D-02 DXMaxT set to 3.00D-01
 The second derivative matrix:
                          R1        R2        R3        R4        R5
           R1           0.34803
           R2          -0.00092   0.34875
           R3          -0.00100  -0.00219   0.34790
           R4          -0.00077  -0.00309   0.00246   0.32873
           R5          -0.00089  -0.00119  -0.00125  -0.00014   0.34751
           R6          -0.00084  -0.00201  -0.00060   0.00167  -0.00108
           R7          -0.00079   0.00031  -0.00203  -0.00332  -0.00103
           A1          -0.00032   0.00633  -0.00489  -0.00792  -0.00040
           A2           0.00086  -0.00495   0.00427  -0.00436   0.00073
           A3          -0.00035  -0.00130   0.00053   0.00700  -0.00026
           A4           0.00062   0.00106   0.00014  -0.00701   0.00057
           A5          -0.00074   0.00331  -0.00308   0.00318  -0.00065
           A6          -0.00003  -0.00432   0.00299   0.00813   0.00004
           A7          -0.00046  -0.00143   0.00040   0.00751  -0.00039
           A8          -0.00014  -0.00446   0.00285   0.00834  -0.00009
           A9          -0.00037   0.00377  -0.00265   0.00200  -0.00021
           A10          0.00097  -0.00482   0.00440  -0.00477   0.00086
           A11         -0.00022   0.00646  -0.00477  -0.00813  -0.00028
           A12          0.00025   0.00060  -0.00030  -0.00590   0.00014
           D1           0.00014   0.00180  -0.00091  -0.00396   0.00015
                          R6        R7        A1        A2        A3
           R6           0.34826
           R7          -0.00187   0.34912
           A1          -0.00477   0.00636   0.15944
           A2           0.00446  -0.00491   0.00383   0.15813
           A3           0.00040  -0.00132  -0.00425   0.00138   0.16175
           A4           0.00027   0.00105   0.00148   0.00144  -0.00152
           A5          -0.00326   0.00331   0.00269  -0.00424  -0.00088
           A6           0.00287  -0.00434  -0.00323  -0.00007   0.00329
           A7           0.00027  -0.00144  -0.00433   0.00126   0.00183
           A8           0.00275  -0.00447  -0.00327  -0.00009   0.00331
           A9          -0.00284   0.00371   0.00287  -0.00400  -0.00105
           A10          0.00458  -0.00479   0.00389  -0.00178   0.00132
           A11         -0.00466   0.00647  -0.00054   0.00387  -0.00427
           A12         -0.00014   0.00064   0.00132   0.00121  -0.00137
           D1          -0.00093   0.00179   0.00807  -0.00666  -0.00129
                          A4        A5        A6        A7        A8
           A4           0.16151
           A5          -0.00110   0.16601
           A6          -0.00158  -0.00276   0.16423
           A7          -0.00160  -0.00077   0.00336   0.16191
           A8          -0.00157  -0.00275   0.00426   0.00337   0.16427
           A9          -0.00098   0.00583  -0.00291  -0.00092  -0.00287
           A10          0.00149  -0.00431  -0.00013   0.00120  -0.00014
           A11          0.00148   0.00267  -0.00325  -0.00434  -0.00327
           A12          0.00142  -0.00093  -0.00144  -0.00147  -0.00147
           D1           0.00061   0.00466  -0.00524  -0.00128  -0.00524
                          A9        A10       A11       A12       D1
           A9           0.16555
           A10         -0.00410   0.15830
           A11          0.00282   0.00392   0.15948
           A12         -0.00072   0.00128   0.00135   0.16122
           D1           0.00463  -0.00667   0.00806   0.00063   0.00648
 ITU=  1  0
 Use linear search instead of GDIIS.
     Eigenvalues ---    0.14268   0.15982   0.16000   0.16000   0.16000
     Eigenvalues ---    0.16000   0.16000   0.16000   0.17195   0.18068
     Eigenvalues ---    0.33013   0.34248   0.34864   0.34866   0.34869
     Eigenvalues ---    0.34878   0.357621000.000001000.000001000.00000
 RFO step:  Lambda=-1.73049285D-06 EMin= 1.42675211D-01
 Quartic linear search produced a step of -0.03310.
 Iteration  1 RMS(Cart)=  0.00090054 RMS(Int)=  0.00000060
 Iteration  2 RMS(Cart)=  0.00000072 RMS(Int)=  0.00000047
 Iteration  1 RMS(Cart)=  0.00000000 RMS(Int)=  0.00000000
 Variable       Old X    -DE/DX   Delta X   Delta X   Delta X     New X
                                 (Linear)    (Quad)   (Total)
    R1        2.05812  -0.00003   0.00000  -0.00008  -0.00008   2.05804
    R2        2.05811   0.00029   0.00001   0.00079   0.00080   2.05890
    R3        2.05811  -0.00023   0.00001  -0.00063  -0.00063   2.05749
    R4        2.88403  -0.00013  -0.00006  -0.00025  -0.00031   2.88371
    R5        2.05812  -0.00002   0.00000  -0.00007  -0.00007   2.05805
    R6        2.05812  -0.00023   0.00000  -0.00064  -0.00064   2.05748
    R7        2.05811   0.00029   0.00000   0.00079   0.00079   2.05890
    A1        1.86847  -0.00001   0.00032  -0.00066  -0.00034   1.86813
    A2        1.88632   0.00006  -0.00028   0.00085   0.00058   1.88690
    A3        1.94277  -0.00014  -0.00002  -0.00082  -0.00084   1.94193
    A4        1.87741   0.00001   0.00002  -0.00000   0.00002   1.87743
    A5        1.93799   0.00022   0.00014   0.00109   0.00124   1.93923
    A6        1.94752  -0.00013  -0.00017  -0.00045  -0.00063   1.94689
    A7        1.94277  -0.00014  -0.00002  -0.00081  -0.00083   1.94194
    A8        1.94752  -0.00013  -0.00017  -0.00045  -0.00063   1.94689
    A9        1.93801   0.00022   0.00014   0.00108   0.00122   1.93923
   A10        1.88633   0.00006  -0.00028   0.00085   0.00057   1.88690
[...]
           R2           1.08871   1.08915
           R3           1.08948   1.08916
           R4           1.52621   1.52556
           R5           1.08913   1.08916
           R6           1.08948   1.08916
           R7           1.08871   1.08915
           A1         108.07344 107.59017
           A2         107.05333 107.60167
           A3         111.37176 111.28659
           A4         107.56912 107.58932
           A5         111.51024 111.28973
           A6         111.06037 111.29106
           A7         111.37188 111.28672
           A8         111.06030 111.29103
           A9         111.51010 111.28966
           A10        107.05330 107.60162
           A11        108.07339 107.59008
           A12        107.56929 107.58944
           D1         -70.03868 -60.03868
 GradGradGradGradGradGradGradGradGradGradGradGradGradGradGradGradGradGrad

                          Input orientation:                          
 ---------------------------------------------------------------------
 Center     Atomic      Atomic             Coordinates (Angstroms)
 Number     Number       Type             X           Y           Z
 ---------------------------------------------------------------------
      1          6           0        0.762786    0.000703   -0.000381
      2          1           0        1.157642    0.875486    0.514499
      3          1           0        1.159314   -0.882140    0.499216
      4          1           0        1.157735    0.009765   -1.015371
      5          6           0       -0.762768   -0.000709    0.000406
      6          1           0       -1.157637   -0.010627    1.015413
      7          1           0       -1.157705   -0.875036   -0.515199
      8          1           0       -1.159295    0.882574   -0.498415
 ---------------------------------------------------------------------
                    Distance matrix (angstroms):
                    1          2          3          4          5
     1  C    0.000000
     2  H    1.089155   0.000000
     3  H    1.089148   1.757694   0.000000
     4  H    1.089161   1.757833   1.757690   0.000000
     5  C    1.525555   2.172552   2.172587   2.172613   0.000000
     6  H    2.172554   2.529155   2.528687   3.079846   1.089155
     7  H    2.172612   3.079844   2.529361   2.528697   1.089161
     8  H    2.172586   2.528683   3.079843   2.529361   1.089149
                    6          7          8
     6  H    0.000000
     7  H    1.757833   0.000000
     8  H    1.757693   1.757691   0.000000
 Symmetry turned off by external request.
 Stoichiometry    C2H6
 Framework group  C1[X(C2H6)]
 Deg. of freedom    18
 Full point group                 C1      NOp   1
 Rotational constants (GHZ):          81.1508954          20.0632802          20.0627488

 **********************************************************************

            Population analysis using the SCF Density.

 **********************************************************************

 Alpha  occ. eigenvalues --  -10.59906 -10.59867  -0.86450  -0.71132  -0.50375
 Alpha  occ. eigenvalues --   -0.50372  -0.42835  -0.40409  -0.40406
 Alpha virt. eigenvalues --    0.08134   0.12144   0.14701   0.14702   0.17328
 Alpha virt. eigenvalues --    0.17328   0.26149   0.30482   0.32524   0.32524
 Alpha virt. eigenvalues --    0.32892   0.32894   0.50595   0.50595   0.52797
 Alpha virt. eigenvalues --    0.52920   0.56617   0.56619   0.56944   0.61823
 Alpha virt. eigenvalues --    0.61826   0.69904   0.72386   0.85255   0.85255
 Alpha virt. eigenvalues --    0.93357   1.00284   1.02446   1.02449   1.11633
 Alpha virt. eigenvalues --    1.13583   1.13584   1.16809   1.16810   1.17367
 Alpha virt. eigenvalues --    1.22774   1.24772   1.24773   1.33242   1.37185
 Alpha virt. eigenvalues --    1.37187   1.45764   1.45766   1.47332   1.47333
 Alpha virt. eigenvalues --    1.62450   1.63946   1.63956   1.67992   2.28023
 Alpha virt. eigenvalues --    2.28026   2.38047   2.43901   2.43902   2.49317
 Alpha virt. eigenvalues --    2.52414   2.66253   2.66256   2.69855   2.86615
 Alpha virt. eigenvalues --    2.86616   2.87873   2.89932   2.98913   2.99645
 Alpha virt. eigenvalues --    2.99648   3.05047   3.05049   3.11832   3.18086
 Alpha virt. eigenvalues --    3.18088   3.20638   3.20639   3.23715   3.23716
 Alpha virt. eigenvalues --    3.37732   3.37740   3.44129   3.47418   3.56213
 Alpha virt. eigenvalues --    3.56222   3.58591   3.59795   3.59803   3.69071
 Alpha virt. eigenvalues --    3.70474   3.70478   3.86408   3.86416   3.90956
 Alpha virt. eigenvalues --    3.90958   3.92783   3.93885   4.05147   4.05153
 Alpha virt. eigenvalues --    4.13386   4.14249   4.14251   4.17402   4.21296
 Alpha virt. eigenvalues --    4.24540   4.24548   4.27987   4.40647   4.44347
 Alpha virt. eigenvalues --    4.44349   4.46364   4.49188   4.49191   4.66817
 Alpha virt. eigenvalues --    4.95860   4.95861   4.96228   4.98031   4.98035
 Alpha virt. eigenvalues --    4.99533   5.00833   5.12709   5.12729   5.44288
 Alpha virt. eigenvalues --    5.48265   5.49686   5.49862   5.49882   5.49955
 Alpha virt. eigenvalues --    5.49973   5.59478   5.59903   5.59906   6.04161
 Alpha virt. eigenvalues --    6.04174   6.07073   6.07084  13.44201  13.52815
  Beta  occ. eigenvalues --  -10.59906 -10.59867  -0.86450  -0.71132  -0.50375
  Beta  occ. eigenvalues --   -0.50372  -0.42835  -0.40409  -0.40406
  Beta virt. eigenvalues --    0.08134   0.12144   0.14701   0.14702   0.17328
  Beta virt. eigenvalues --    0.17328   0.26149   0.30482   0.32524   0.32524
  Beta virt. eigenvalues --    0.32892   0.32894   0.50595   0.50595   0.52797
  Beta virt. eigenvalues --    0.52920   0.56617   0.56619   0.56944   0.61823
  Beta virt. eigenvalues --    0.61826   0.69904   0.72386   0.85255   0.85255
  Beta virt. eigenvalues --    0.93357   1.00284   1.02446   1.02449   1.11633
  Beta virt. eigenvalues --    1.13583   1.13584   1.16809   1.16810   1.17367
  Beta virt. eigenvalues --    1.22774   1.24772   1.24773   1.33242   1.37185
  Beta virt. eigenvalues --    1.37187   1.45764   1.45766   1.47332   1.47333
  Beta virt. eigenvalues --    1.62450   1.63946   1.63956   1.67992   2.28023
  Beta virt. eigenvalues --    2.28026   2.38047   2.43901   2.43902   2.49317
  Beta virt. eigenvalues --    2.52414   2.66253   2.66256   2.69855   2.86615
  Beta virt. eigenvalues --    2.86616   2.87873   2.89932   2.98913   2.99645
  Beta virt. eigenvalues --    2.99648   3.05047   3.05049   3.11832   3.18086
  Beta virt. eigenvalues --    3.18088   3.20638   3.20639   3.23715   3.23716
  Beta virt. eigenvalues --    3.37732   3.37740   3.44129   3.47418   3.56213
  Beta virt. eigenvalues --    3.56222   3.58591   3.59795   3.59803   3.69071
  Beta virt. eigenvalues --    3.70474   3.70478   3.86408   3.86416   3.90956
  Beta virt. eigenvalues --    3.90958   3.92783   3.93885   4.05147   4.05153
  Beta virt. eigenvalues --    4.13386   4.14249   4.14251   4.17402   4.21296
  Beta virt. eigenvalues --    4.24540   4.24548   4.27987   4.40647   4.44347
  Beta virt. eigenvalues --    4.44349   4.46364   4.49188   4.49191   4.66817
  Beta virt. eigenvalues --    4.95860   4.95861   4.96228   4.98031   4.98035
  Beta virt. eigenvalues --    4.99533   5.00833   5.12709   5.12729   5.44288
  Beta virt. eigenvalues --    5.48265   5.49686   5.49862   5.49882   5.49955
  Beta virt. eigenvalues --    5.49973   5.59478   5.59903   5.59906   6.04161
  Beta virt. eigenvalues --    6.04174   6.07073   6.07084  13.44201  13.52815
          Condensed to atoms (all electrons):
               1          2          3          4          5          6
     1  C    4.820725   0.410836   0.410834   0.410835   0.334303  -0.034844
     2  H    0.410836   0.599202  -0.033179  -0.033160  -0.034844  -0.005239
     3  H    0.410834  -0.033179   0.599220  -0.033180  -0.034840  -0.005261
     4  H    0.410835  -0.033160  -0.033180   0.599201  -0.034840   0.007309
     5  C    0.334303  -0.034844  -0.034840  -0.034840   4.820725   0.410836
     6  H   -0.034844  -0.005239  -0.005261   0.007309   0.410836   0.599203
     7  H   -0.034840   0.007309  -0.005241  -0.005257   0.410835  -0.033160
     8  H   -0.034840  -0.005261   0.007310  -0.005241   0.410834  -0.033179
               7          8
     1  C   -0.034840  -0.034840
     2  H    0.007309  -0.005261
     3  H   -0.005241   0.007310
     4  H   -0.005257  -0.005241
     5  C    0.410835   0.410834
     6  H   -0.033160  -0.033179
     7  H    0.599200  -0.033180
     8  H   -0.033180   0.599220
          Atomic-Atomic Spin Densities.
               1          2          3          4          5          6
     1  C    0.000000  -0.000000   0.000000  -0.000000  -0.000000   0.000000
     2  H   -0.000000  -0.000000   0.000000  -0.000000  -0.000000   0.000000
     3  H    0.000000   0.000000   0.000000  -0.000000  -0.000000  -0.000000
     4  H   -0.000000  -0.000000  -0.000000   0.000000  -0.000000   0.000000
     5  C   -0.000000  -0.000000  -0.000000  -0.000000  -0.000000   0.000000
     6  H    0.000000   0.000000  -0.000000   0.000000   0.000000  -0.000000
     7  H    0.000000  -0.000000   0.000000   0.000000  -0.000000   0.000000
     8  H    0.000000  -0.000000  -0.000000  -0.000000   0.000000   0.000000
               7          8
     1  C    0.000000   0.000000
     2  H   -0.000000  -0.000000
     3  H    0.000000  -0.000000
     4  H    0.000000  -0.000000
     5  C   -0.000000   0.000000
     6  H    0.000000   0.000000
     7  H   -0.000000  -0.000000
     8  H   -0.000000   0.000000
 Mulliken charges and spin densities:
               1          2
     1  C   -0.283009   0.000000
     2  H    0.094337  -0.000000
     3  H    0.094338   0.000000
     4  H    0.094334  -0.000000
     5  C   -0.283009  -0.000000
     6  H    0.094336   0.000000
     7  H    0.094335   0.000000
     8  H    0.094338   0.000000
 Sum of Mulliken charges =  -0.00000   0.00000
 Mulliken charges and spin densities with hydrogens summed into heavy atoms:
               1          2
     1  C    0.000000   0.000000
     5  C   -0.000000  -0.000000
 Electronic spatial extent (au):  <R**2>=            109.6396
 Charge=             -0.0000 electrons
 Dipole moment (field-independent basis, Debye):
    X=             -0.0000    Y=              0.0000    Z=              0.0000  Tot=              0.0000
 Quadrupole moment (field-independent basis, Debye-Ang):
   XX=            -15.6669   YY=            -14.9630   ZZ=            -14.9625
   XY=             -0.0009   XZ=              0.0005   YZ=              0.0004
 Traceless Quadrupole moment (field-independent basis, Debye-Ang):
   XX=             -0.4694   YY=              0.2345   ZZ=              0.2350
   XY=             -0.0009   XZ=              0.0005   YZ=              0.0004
 Octapole moment (field-independent basis, Debye-Ang**2):
  XXX=             -0.0004  YYY=              0.0014  ZZZ=             -0.0007  XYY=             -0.0002
  XXY=             -0.0001  XXZ=             -0.0004  XZZ=             -0.0001  YZZ=             -0.0013
  YYZ=             -0.0002  XYZ=             -0.0000
 Hexadecapole moment (field-independent basis, Debye-Ang**3):
 XXXX=            -95.9109 YYYY=            -30.1351 ZZZZ=            -30.1326 XXXY=             -0.0332
 XXXZ=              0.0185 YYYX=             -0.0635 YYYZ=              0.0034 ZZZX=             -1.3215
 ZZZY=             -0.0013 XXYY=            -19.9821 XXZZ=            -19.9845 YYZZ=            -10.0463
 XXYZ=             -0.0021 YYXZ=              1.3417 ZZXY=              0.0274
 N-N= 4.232196476823D+01 E-N=-2.686704905462D+02  KE= 7.926516843076D+01
                          Isotropic Fermi Contact Couplings
        Atom                 a.u.       MegaHertz       Gauss      10(-4) cm-1
     1  C(13)             -0.00000      -0.00000      -0.00000      -0.00000
     2  H(1)               0.00000       0.00000       0.00000       0.00000
     3  H(1)               0.00000       0.00000       0.00000       0.00000
     4  H(1)              -0.00000      -0.00000      -0.00000      -0.00000
     5  C(13)              0.00000       0.00000       0.00000       0.00000
     6  H(1)               0.00000       0.00000       0.00000       0.00000
     7  H(1)               0.00000       0.00000       0.00000       0.00000
     8  H(1)               0.00000       0.00000       0.00000       0.00000
 --------------------------------------------------------
       Center         ----  Spin Dipole Couplings  ----
                      3XX-RR        3YY-RR        3ZZ-RR
 --------------------------------------------------------
     1   Atom        0.000000      0.000000      0.000000
     2   Atom        0.000000      0.000000      0.000000
     3   Atom        0.000000      0.000000      0.000000
     4   Atom        0.000000      0.000000      0.000000
     5   Atom        0.000000      0.000000      0.000000
     6   Atom        0.000000      0.000000      0.000000
     7   Atom        0.000000      0.000000      0.000000
     8   Atom        0.000000      0.000000      0.000000
 --------------------------------------------------------
                        XY            XZ            YZ
 --------------------------------------------------------
     1   Atom        0.000000      0.000000      0.000000
     2   Atom        0.000000      0.000000      0.000000
     3   Atom        0.000000      0.000000      0.000000
     4   Atom        0.000000      0.000000      0.000000
     5   Atom        0.000000      0.000000      0.000000
     6   Atom        0.000000      0.000000      0.000000
     7   Atom        0.000000      0.000000      0.000000
     8   Atom        0.000000      0.000000      0.000000
 --------------------------------------------------------


 ---------------------------------------------------------------------------------
              Anisotropic Spin Dipole Couplings in Principal Axis System
 ---------------------------------------------------------------------------------

       Atom             a.u.   MegaHertz   Gauss  10(-4) cm-1        Axes

              Baa     0.0000     0.000     0.000     0.000  1.0000  0.0000  0.0000
     1 C(13)  Bbb     0.0000     0.000     0.000     0.000 -0.0000  1.0000  0.0000
              Bcc     0.0000     0.000     0.000     0.000  0.0000  0.0000  1.0000
 
              Baa     0.0000     0.000     0.000     0.000  1.0000  0.0000  0.0000
     2 H(1)   Bbb     0.0000     0.000     0.000     0.000 -0.0000  1.0000  0.0000
              Bcc     0.0000     0.000     0.000     0.000  0.0000  0.0000  1.0000
 
              Baa     0.0000     0.000     0.000     0.000  1.0000  0.0000  0.0000
     3 H(1)   Bbb     0.0000     0.000     0.000     0.000 -0.0000  1.0000  0.0000
              Bcc     0.0000     0.000     0.000     0.000  0.0000  0.0000  1.0000
 
              Baa     0.0000     0.000     0.000     0.000  1.0000  0.0000  0.0000
     4 H(1)   Bbb     0.0000     0.000     0.000     0.000 -0.0000  1.0000  0.0000
              Bcc     0.0000     0.000     0.000     0.000  0.0000  0.0000  1.0000
 
              Baa     0.0000     0.000     0.000     0.000  1.0000  0.0000  0.0000
     5 C(13)  Bbb     0.0000     0.000     0.000     0.000 -0.0000  1.0000  0.0000
              Bcc     0.0000     0.000     0.000     0.000  0.0000  0.0000  1.0000
 
              Baa     0.0000     0.000     0.000     0.000  1.0000  0.0000  0.0000
     6 H(1)   Bbb     0.0000     0.000     0.000     0.000 -0.0000  1.0000  0.0000
              Bcc     0.0000     0.000     0.000     0.000  0.0000  0.0000  1.0000
 
              Baa     0.0000     0.000     0.000     0.000  1.0000  0.0000  0.0000
     7 H(1)   Bbb     0.0000     0.000     0.000     0.000 -0.0000  1.0000  0.0000
              Bcc     0.0000     0.000     0.000     0.000  0.0000  0.0000  1.0000
 
              Baa     0.0000     0.000     0.000     0.000  1.0000  0.0000  0.0000
     8 H(1)   Bbb     0.0000     0.000     0.000     0.000 -0.0000  1.0000  0.0000
              Bcc     0.0000     0.000     0.000     0.000  0.0000  0.0000  1.0000
 

 ---------------------------------------------------------------------------------

 1\1\GINC-N69\Scan\UB2PLYPD3-FC\CC-pVTZ\C2H6\ROOT\01-Jun-2019\0\\# opt=
 (maxcyc=500,modredundant) uB2PLYPD3/cc-pvtz scf=maxcyc=500 nosymm\\Tit
 le Card Required\\0,1\C,0.7627862045,0.0007030757,-0.0003808871\H,1.15
 76416433,0.8754860498,0.5144993645\H,1.1593139429,-0.8821404837,0.4992
 162897\H,1.1577353225,0.0097647251,-1.0153714317\C,-0.7627681086,-0.00
 07089425,0.0004062166\H,-1.1576371904,-0.0106270703,1.0154131749\H,-1.
 1577052299,-0.8750355522,-0.515199179\H,-1.1592945843,0.8825741982,-0.
 4984145479\\Version=ES64L-G16RevB.01\HF=-79.654209,-79.6539345,-79.653
 1677,-79.6520791,-79.650938,-79.6500637,-79.6497329,-79.6500585,-79.65
 09295,-79.65207,-79.6531602,-79.6539311,-79.6542094,-79.6539352,-79.65
 31667,-79.6520768,-79.6509351,-79.650062,-79.6497322,-79.6500574,-79.6
 509287,-79.6520713,-79.6531626,-79.6539322,-79.6542095,-79.6539364,-79
 .65317,-79.6520804,-79.6509371,-79.6500624,-79.6497322,-79.6500569,-79
 .6509265,-79.6520676,-79.6531594,-79.653931,-79.6542095\MP2=-79.774077
 1,-79.7738093,-79.7730612,-79.7719962,-79.7708748,-79.7700109,-79.7696
 824,-79.7700059,-79.7708667,-79.7719874,-79.7730538,-79.7738059,-79.77
 40771,-79.7738099,-79.7730601,-79.7719933,-79.7708712,-79.7700091,-79.
 7696822,-79.7700045,-79.7708653,-79.7719883,-79.7730561,-79.773807,-79
 .7740771,-79.7738111,-79.7730635,-79.7719972,-79.7708735,-79.7700095,-
 79.7696822,-79.7700041,-79.770863,-79.7719844,-79.7730528,-79.7738058,
 -79.7740771\PUHF=-79.654209,-79.6539345,-79.6531677,-79.6520791,-79.65
 0938,-79.6500637,-79.6497329,-79.6500585,-79.6509295,-79.65207,-79.653
 1602,-79.6539311,-79.6542094,-79.6539352,-79.6531667,-79.6520768,-79.6
 509351,-79.650062,-79.6497322,-79.6500574,-79.6509287,-79.6520713,-79.
 6531626,-79.6539322,-79.6542095,-79.6539364,-79.65317,-79.6520804,-79.
 6509371,-79.6500624,-79.6497322,-79.6500569,-79.6509265,-79.6520676,-7
 9.6531594,-79.653931,-79.6542095\PMP2-0=-79.7740771,-79.7738093,-79.77
 30612,-79.7719962,-79.7708748,-79.7700109,-79.7696824,-79.7700059,-79.
 7708667,-79.7719874,-79.7730538,-79.7738059,-79.7740771,-79.7738099,-7
 9.7730601,-79.7719933,-79.7708712,-79.7700091,-79.7696822,-79.7700045,
 -79.7708653,-79.7719883,-79.7730561,-79.773807,-79.7740771,-79.7738111
 ,-79.7730635,-79.7719972,-79.7708735,-79.7700095,-79.7696822,-79.77000
 41,-79.770863,-79.7719844,-79.7730528,-79.7738058,-79.7740771\S2=0.,0.
 ,0.,0.,0.,0.,0.,0.,0.,0.,0.,0.,0.,0.,0.,0.,0.,0.,0.,0.,0.,0.,0.,0.,0.,
 0.,0.,0.,0.,0.,0.,0.,0.,0.,0.,0.,0.\S2-1=0.,0.,0.,0.,0.,0.,0.,0.,0.,0.
 ,0.,0.,0.,0.,0.,0.,0.,0.,0.,0.,0.,0.,0.,0.,0.,0.,0.,0.,0.,0.,0.,0.,0.,
 0.,0.,0.,0.\S2A=0.,0.,0.,0.,0.,0.,0.,0.,0.,0.,0.,0.,0.,0.,0.,0.,0.,0.,
 0.,0.,0.,0.,0.,0.,0.,0.,0.,0.,0.,0.,0.,0.,0.,0.,0.,0.,0.\RMSD=4.130e-0
 9,2.804e-09,1.915e-09,1.386e-09,8.672e-10,9.061e-09,7.091e-10,8.382e-0
 9,2.072e-09,9.014e-10,1.359e-09,1.687e-09,7.543e-09,3.072e-09,2.066e-0
 9,1.411e-09,1.044e-09,2.232e-09,6.790e-10,8.518e-09,2.595e-09,1.167e-0
 9,1.481e-09,3.597e-09,9.565e-09,4.165e-09,2.599e-09,1.503e-09,1.167e-0
 9,2.400e-09,6.361e-10,6.844e-09,2.284e-09,1.024e-09,1.356e-09,1.906e-0
 9,7.860e-09\PG=C01 [X(C2H6)]\\@


 THE TEST OF A FIRST RATE INTELLIGENCE IS THE ABILITY TO HOLD TWO OPPOSED
 IDEAS IN THE MIND AT THE SAME TIME, AND STILL RETAIN THE ABILITY TO FUNCTION.
 ONE SHOULD, FOR EXAMPLE, BE ABLE TO SEE THAT THINGS ARE HOPELESS AND YET BE
 DETERMINED TO MAKE THEM OTHERWISE.

                                                       -- F. SCOTT FITZGERALD
 Job cpu time:       0 days  9 hours 55 minutes 44.1 seconds.
 Elapsed time:       0 days  0 hours 18 minutes 47.9 seconds.
 File lengths (MBytes):  RWF=     21 Int=      0 D2E=      0 Chk=      6 Scr=      1
 Normal termination of Gaussian 16 at Sat Jun  1 00:46:16 2019.
