 Entering Gaussian System, Link 0=g16
 Initial command:
 /ichec/packages/gaussian/16b01/l1.exe "/localscratch/339542/Gau-84134.inp" -scrdir="/localscratch/339542/"
 Entering Link 1 = /ichec/packages/gaussian/16b01/l1.exe PID=     84136.
  
 Copyright (c) 1988-2017, Gaussian, Inc.  All Rights Reserved.
  
 This is part of the Gaussian(R) 16 program.  It is based on
 the Gaussian(R) 09 system (copyright 2009, Gaussian, Inc.),
 the Gaussian(R) 03 system (copyright 2003, Gaussian, Inc.),
 the Gaussian(R) 98 system (copyright 1998, Gaussian, Inc.),
 the Gaussian(R) 94 system (copyright 1995, Gaussian, Inc.),
 the Gaussian 92(TM) system (copyright 1992, Gaussian, Inc.),
 the Gaussian 90(TM) system (copyright 1990, Gaussian, Inc.),
 the Gaussian 88(TM) system (copyright 1988, Gaussian, Inc.),
 the Gaussian 86(TM) system (copyright 1986, Carnegie Mellon
 University), and the Gaussian 82(TM) system (copyright 1983,
 Carnegie Mellon University). Gaussian is a federally registered
 trademark of Gaussian, Inc.
  
 This software contains proprietary and confidential information,
 including trade secrets, belonging to Gaussian, Inc.
  
 This software is provided under written license and may be
 used, copied, transmitted, or stored only in accord with that
 written license.
  
 The following legend is applicable only to US Government
 contracts under FAR:
  
                    RESTRICTED RIGHTS LEGEND
  
 Use, reproduction and disclosure by the US Government is
 subject to restrictions as set forth in subparagraphs (a)
 and (c) of the Commercial Computer Software - Restricted
 Rights clause in FAR 52.227-19.
  
 Gaussian, Inc.
 340 Quinnipiac St., Bldg. 40, Wallingford CT 06492
  
  
 ---------------------------------------------------------------
 Warning -- This program may not be used in any manner that
 competes with the business of Gaussian, Inc. or will provide
 assistance to any competitor of Gaussian, Inc.  The licensee
 of this program is prohibited from giving any competitor of
 Gaussian, Inc. access to this program.  By using this program,
 the user acknowledges that Gaussian, Inc. is engaged in the
 business of creating and licensing software in the field of
 computational chemistry and represents and warrants to the
 licensee that it is not a competitor of Gaussian, Inc. and that
 it will not use this program in any manner prohibited above.
 ---------------------------------------------------------------
  

 Cite this work as:
 Gaussian 16, Revision B.01,
 M. J. Frisch, G. W. Trucks, H. B. Schlegel, G. E. Scuseria, 
 M. A. Robb, J. R. Cheeseman, G. Scalmani, V. Barone, 
 G. A. Petersson, H. Nakatsuji, X. Li, M. Caricato, A. V. Marenich, 
 J. Bloino, B. G. Janesko, R. Gomperts, B. Mennucci, H. P. Hratchian, 
 J. V. Ortiz, A. F. Izmaylov, J. L. Sonnenberg, D. Williams-Young, 
 F. Ding, F. Lipparini, F. Egidi, J. Goings, B. Peng, A. Petrone, 
 T. Henderson, D. Ranasinghe, V. G. Zakrzewski, J. Gao, N. Rega, 
 G. Zheng, W. Liang, M. Hada, M. Ehara, K. Toyota, R. Fukuda, 
 J. Hasegawa, M. Ishida, T. Nakajima, Y. Honda, O. Kitao, H. Nakai, 
 T. Vreven, K. Throssell, J. A. Montgomery, Jr., J. E. Peralta, 
 F. Ogliaro, M. J. Bearpark, J. J. Heyd, E. N. Brothers, K. N. Kudin, 
 V. N. Staroverov, T. A. Keith, R. Kobayashi, J. Normand, 
 K. Raghavachari, A. P. Rendell, J. C. Burant, S. S. Iyengar, 
 J. Tomasi, M. Cossi, J. M. Millam, M. Klene, C. Adamo, R. Cammi, 
 J. W. Ochterski, R. L. Martin, K. Morokuma, O. Farkas, 
 J. B. Foresman, and D. J. Fox, Gaussian, Inc., Wallingford CT, 2016.
 
 ******************************************
 Gaussian 16:  ES64L-G16RevB.01 20-Dec-2017
                31-May-2019 
 ******************************************
 %mem=80GB
 %nproc=40
 Will use up to   40 processors via shared memory.
 -----------------------------------------------
 # opt=maxcyc=500 freq=noraman uB2PLYPD3/cc-pvtz
 -----------------------------------------------
 1/6=500,18=20,19=15,38=1/1,3;
 2/9=110,12=2,17=6,18=5,40=1/2;
 3/5=16,6=1,11=2,25=1,30=1,71=1,74=-60,116=2/1,2,3;
 4//1;
 5/5=2,38=5/2;
 8/6=4,10=1/1;
 9/15=2,16=-3/6;
 10/5=1/2;
 6/7=2,8=2,9=2,10=2/1;
 7/12=2/1,2,3,16;
 1/6=500,18=20,19=15/3(2);
 2/9=110/2;
 99//99;
 2/9=110/2;
 3/5=16,6=1,11=2,25=1,30=1,71=1,74=-60,116=2/1,2,3;
 4/5=5,16=3,69=1/1;
 5/5=2,38=5/2;
 8/6=4,10=1/1;
 9/15=2,16=-3/6;
 10/5=1/2;
 7/12=2/1,2,3,16;
 1/6=500,18=20,19=15/3(-8);
 2/9=110/2;
 6/7=2,8=2,9=2,10=2/1;
 99/9=10/99;
 -------------------
 Title Card Required
 -------------------
 Symbolic Z-matrix:
 Charge =  0 Multiplicity = 2
 C                     1.27481  -0.22233   0.0001 
 C                     0.13448   0.45801   0.00012 
 C                    -1.22975  -0.16289  -0.00005 
 H                    -1.16569  -1.25215  -0.00194 
 H                     1.25948  -1.29222  -0.00012 
 H                    -1.79955   0.1482    0.87986 
 H                     2.20903   0.29934   0.0003 
 H                     0.19373   1.52636   0.00028 
 

 GradGradGradGradGradGradGradGradGradGradGradGradGradGradGradGradGradGrad
 Berny optimization.
 Initialization pass.
                           ----------------------------
                           !    Initial Parameters    !
                           ! (Angstroms and Degrees)  !
 --------------------------                            --------------------------
 ! Name  Definition              Value          Derivative Info.                !
 --------------------------------------------------------------------------------
 ! R1    R(1,2)                  1.3279         estimate D2E/DX2                !
 ! R2    R(1,5)                  1.07           estimate D2E/DX2                !
 ! R3    R(1,7)                  1.07           estimate D2E/DX2                !
 ! R4    R(2,3)                  1.4989         estimate D2E/DX2                !
 ! R5    R(2,8)                  1.07           estimate D2E/DX2                !
 ! R6    R(3,4)                  1.0911         estimate D2E/DX2                !
 ! R7    R(3,6)                  1.0935         estimate D2E/DX2                !
 ! A1    A(2,1,5)              120.0            estimate D2E/DX2                !
 ! A2    A(2,1,7)              120.0            estimate D2E/DX2                !
 ! A3    A(5,1,7)              120.0            estimate D2E/DX2                !
 ! A4    A(1,2,3)              124.7078         estimate D2E/DX2                !
 ! A5    A(1,2,8)              117.6461         estimate D2E/DX2                !
 ! A6    A(3,2,8)              117.6461         estimate D2E/DX2                !
 ! A7    A(2,3,4)              111.1057         estimate D2E/DX2                !
 ! A8    A(2,3,6)              110.8757         estimate D2E/DX2                !
 ! A9    A(4,3,6)              108.4199         estimate D2E/DX2                !
 ! D1    D(5,1,2,3)              0.0039         estimate D2E/DX2                !
 ! D2    D(5,1,2,8)           -179.9961         estimate D2E/DX2                !
 ! D3    D(7,1,2,3)           -179.9961         estimate D2E/DX2                !
 ! D4    D(7,1,2,8)              0.0039         estimate D2E/DX2                !
 ! D5    D(1,2,3,4)             -0.0974         estimate D2E/DX2                !
 ! D6    D(1,2,3,6)            120.5464         estimate D2E/DX2                !
 ! D7    D(8,2,3,4)            179.9026         estimate D2E/DX2                !
 ! D8    D(8,2,3,6)            -59.4536         estimate D2E/DX2                !
 --------------------------------------------------------------------------------
 Trust Radius=3.00D-01 FncErr=1.00D-07 GrdErr=1.00D-07 EigMax=2.50D+02 EigMin=1.00D-04
 Number of steps in this run=    100 maximum allowed number of steps=    100.
 GradGradGradGradGradGradGradGradGradGradGradGradGradGradGradGradGradGrad

                          Input orientation:                          
 ---------------------------------------------------------------------
 Center     Atomic      Atomic             Coordinates (Angstroms)
 Number     Number       Type             X           Y           Z
 ---------------------------------------------------------------------
      1          6           0        1.274812   -0.222332    0.000099
      2          6           0        0.134476    0.458005    0.000124
      3          6           0       -1.229746   -0.162885   -0.000054
      4          1           0       -1.165686   -1.252151   -0.001938
      5          1           0        1.259485   -1.292222   -0.000120
      6          1           0       -1.799550    0.148195    0.879858
      7          1           0        2.209028    0.299339    0.000298
      8          1           0        0.193733    1.526363    0.000283
 ---------------------------------------------------------------------
                    Distance matrix (angstroms):
                    1          2          3          4          5
     1  C    0.000000
     2  C    1.327865   0.000000
     3  C    2.505263   1.498868   0.000000
     4  H    2.648879   2.148269   1.091150   0.000000
     5  H    1.070000   2.080610   2.733436   2.425502   0.000000
     6  H    3.219156   2.147177   1.093477   1.772094   3.493831
     7  H    1.070000   2.080610   3.469700   3.714272   1.853294
     8  H    2.055886   1.070000   2.209038   3.093245   3.013345
                    6          7          8
     6  H    0.000000
     7  H    4.106722   0.000000
     8  H    2.578018   2.359449   0.000000
 Stoichiometry    C3H5(2)
 Framework group  C1[X(C3H5)]
 Deg. of freedom    18
 Full point group                 C1      NOp   1
 Largest Abelian subgroup         C1      NOp   1
 Largest concise Abelian subgroup C1      NOp   1
                         Standard orientation:                         
 ---------------------------------------------------------------------
 Center     Atomic      Atomic             Coordinates (Angstroms)
 Number     Number       Type             X           Y           Z
 ---------------------------------------------------------------------
      1          6           0        1.193956   -0.236651    0.034818
      2          6           0        0.067479    0.461746   -0.045891
      3          6           0       -1.305224   -0.136914   -0.108337
      4          1           0       -1.260203   -1.226780   -0.080544
      5          1           0        1.159973   -1.305830    0.059322
      6          1           0       -1.917988    0.205081    0.730265
      7          1           0        2.135661    0.269757    0.075350
      8          1           0        0.145292    1.528685   -0.067936
 ---------------------------------------------------------------------
 Rotational constants (GHZ):          51.2920212          10.1859796           8.7038419
 Standard basis: CC-pVTZ (5D, 7F)
 There are   180 symmetry adapted cartesian basis functions of A   symmetry.
 There are   160 symmetry adapted basis functions of A   symmetry.
   160 basis functions,   241 primitive gaussians,   180 cartesian basis functions
    12 alpha electrons       11 beta electrons
       nuclear repulsion energy        64.6294784593 Hartrees.
 NAtoms=    8 NActive=    8 NUniq=    8 SFac= 1.00D+00 NAtFMM=   60 NAOKFM=F Big=F
 Integral buffers will be    131072 words long.
 Raffenetti 2 integral format.
 Two-electron integral symmetry is turned on.
 Nuclear repulsion after empirical dispersion term =       64.6262428084 Hartrees.
 One-electron integrals computed using PRISM.
 NBasis=   160 RedAO= T EigKep=  5.19D-04  NBF=   160
 NBsUse=   160 1.00D-06 EigRej= -1.00D+00 NBFU=   160
 ExpMin= 1.03D-01 ExpMax= 8.24D+03 ExpMxC= 2.81D+02 IAcc=3 IRadAn=         5 AccDes= 0.00D+00
 Harris functional with IExCor=  419 and IRadAn=       5 diagonalized for initial guess.
 HarFok:  IExCor=  419 AccDes= 0.00D+00 IRadAn=         5 IDoV= 1 UseB2=F ITyADJ=14
 ICtDFT=  3500011 ScaDFX=  1.000000  1.000000  1.000000  1.000000
 FoFCou: FMM=F IPFlag=           0 FMFlag=      100000 FMFlg1=           0
         NFxFlg=           0 DoJE=T BraDBF=F KetDBF=T FulRan=T
         wScrn=  0.000000 ICntrl=       500 IOpCl=  0 I1Cent=   200000004 NGrid=           0
         NMat0=    1 NMatS0=      1 NMatT0=    0 NMatD0=    1 NMtDS0=    0 NMtDT0=    0
 Petite list used in FoFCou.
 Initial guess <Sx>= 0.0000 <Sy>= 0.0000 <Sz>= 0.5000 <S**2>= 0.7500 S= 0.5000
 Keep R1 and R2 ints in memory in canonical form, NReq=206286080.
 Requested convergence on RMS density matrix=1.00D-08 within 128 cycles.
 Requested convergence on MAX density matrix=1.00D-06.
 Requested convergence on             energy=1.00D-06.
 No special actions if energy rises.
 Integral accuracy reduced to 1.0D-05 until final iterations.
 Initial convergence to 1.0D-05 achieved.  Increase integral accuracy.
 SCF Done:  E(UB2PLYPD3) =  -117.007562252     A.U. after   18 cycles
            NFock= 18  Conv=0.67D-08     -V/T= 2.0046
 <Sx>= 0.0000 <Sy>= 0.0000 <Sz>= 0.5000 <S**2>= 0.7995 S= 0.5244
 <L.S>=  0.00000000000    
 Annihilation of the first spin contaminant:
 S**2 before annihilation     0.7995,   after     0.7505
 DoSCS=T DFT=T ScalE2(SS,OS)=  0.270000  0.270000
 ExpMin= 1.03D-01 ExpMax= 8.24D+03 ExpMxC= 2.81D+02 IAcc=3 IRadAn=         5 AccDes= 0.00D+00
 HarFok:  IExCor=  205 AccDes= 0.00D+00 IRadAn=         5 IDoV=-2 UseB2=F ITyADJ=14
 ICtDFT= 12500011 ScaDFX=  1.000000  1.000000  1.000000  1.000000
 Range of M.O.s used for correlation:     4   160
 NBasis=   160 NAE=    12 NBE=    11 NFC=     3 NFV=     0
 NROrb=    157 NOA=     9 NOB=     8 NVA=   148 NVB=   149

 **** Warning!!: The largest alpha MO coefficient is  0.11665116D+02


 **** Warning!!: The largest beta MO coefficient is  0.11603334D+02

 DoSCS=T DFT=T ScalE2(SS,OS)=  0.270000  0.270000
 Fully direct method using O(ONN) memory.
 JobTyp=2 Pass  1:  I=   4 to  12 NPSUse= 40 ParTrn=T ParDer=T DoDerP=T.
 JobTyp=3 Pass  1:  I=   4 to  11 NPSUse= 40 ParTrn=T ParDer=T DoDerP=T.
 Spin components of T(2) and E(2):
     alpha-alpha T2 =       0.3148175397D-01 E2=     -0.1955566284D-01
     alpha-beta  T2 =       0.1804202332D+00 E2=     -0.1188895442D+00
     beta-beta   T2 =       0.2569831807D-01 E2=     -0.1538148332D-01
 (S**2,0)=  0.79947D+00           (S**2,1)=  0.76036D+00
 Scaling Projection term by:   0.270000
 E(PUHF)=      -0.11701385574D+03        E(PMP2)=      -0.11716242027D+03
 E2(B2PLYPD3) =    -0.1538266904D+00 E(B2PLYPD3) =    -0.11716138894281D+03
          IDoAtm=11111111
          Differentiating once with respect to electric field.
                with respect to dipole field.
          Differentiating once with respect to nuclear coordinates.
 Keep R1 and R2 ints in memory in canonical form, NReq=206291708.
          There are     1 degrees of freedom in the 1st order CPHF.  IDoFFX=0 NUNeed=     1.
 LinEq1:  Iter=  0 NonCon=     1 RMS=1.11D-03 Max=3.06D-02 NDo=     1
 AX will form     1 AO Fock derivatives at one time.
 LinEq1:  Iter=  1 NonCon=     1 RMS=3.93D-04 Max=6.81D-03 NDo=     1
 LinEq1:  Iter=  2 NonCon=     1 RMS=2.46D-04 Max=5.95D-03 NDo=     1
 LinEq1:  Iter=  3 NonCon=     1 RMS=8.44D-05 Max=2.80D-03 NDo=     1
 LinEq1:  Iter=  4 NonCon=     1 RMS=5.33D-05 Max=1.39D-03 NDo=     1
 LinEq1:  Iter=  5 NonCon=     1 RMS=1.79D-05 Max=4.62D-04 NDo=     1
 LinEq1:  Iter=  6 NonCon=     1 RMS=6.85D-06 Max=8.42D-05 NDo=     1
 LinEq1:  Iter=  7 NonCon=     1 RMS=3.27D-06 Max=4.66D-05 NDo=     1
 LinEq1:  Iter=  8 NonCon=     1 RMS=1.11D-06 Max=1.20D-05 NDo=     1
 LinEq1:  Iter=  9 NonCon=     1 RMS=2.92D-07 Max=4.18D-06 NDo=     1
 LinEq1:  Iter= 10 NonCon=     1 RMS=7.45D-08 Max=7.42D-07 NDo=     1
 LinEq1:  Iter= 11 NonCon=     1 RMS=1.38D-08 Max=1.55D-07 NDo=     1
 LinEq1:  Iter= 12 NonCon=     1 RMS=3.34D-09 Max=4.63D-08 NDo=     1
 LinEq1:  Iter= 13 NonCon=     1 RMS=7.04D-10 Max=8.26D-09 NDo=     1
 LinEq1:  Iter= 14 NonCon=     1 RMS=1.37D-10 Max=1.83D-09 NDo=     1
 LinEq1:  Iter= 15 NonCon=     0 RMS=4.34D-11 Max=6.51D-10 NDo=     1
 Linear equations converged to 1.000D-10 1.000D-09 after    15 iterations.
 End of Minotr F.D. properties file   721 does not exist.
 End of Minotr F.D. properties file   722 does not exist.
 End of Minotr F.D. properties file   788 does not exist.

 **********************************************************************

            Population analysis using the SCF Density.

 **********************************************************************

 Orbital symmetries:
 Alpha Orbitals:
       Occupied  (A) (A) (A) (A) (A) (A) (A) (A) (A) (A) (A) (A)
       Virtual   (A) (A) (A) (A) (A) (A) (A) (A) (A) (A) (A) (A)
                 (A) (A) (A) (A) (A) (A) (A) (A) (A) (A) (A) (A)
                 (A) (A) (A) (A) (A) (A) (A) (A) (A) (A) (A) (A)
                 (A) (A) (A) (A) (A) (A) (A) (A) (A) (A) (A) (A)
                 (A) (A) (A) (A) (A) (A) (A) (A) (A) (A) (A) (A)
                 (A) (A) (A) (A) (A) (A) (A) (A) (A) (A) (A) (A)
                 (A) (A) (A) (A) (A) (A) (A) (A) (A) (A) (A) (A)
                 (A) (A) (A) (A) (A) (A) (A) (A) (A) (A) (A) (A)
                 (A) (A) (A) (A) (A) (A) (A) (A) (A) (A) (A) (A)
                 (A) (A) (A) (A) (A) (A) (A) (A) (A) (A) (A) (A)
                 (A) (A) (A) (A) (A) (A) (A) (A) (A) (A) (A) (A)
                 (A) (A) (A) (A) (A) (A) (A) (A) (A) (A) (A) (A)
                 (A) (A) (A) (A)
 Beta  Orbitals:
       Occupied  (A) (A) (A) (A) (A) (A) (A) (A) (A) (A) (A)
       Virtual   (A) (A) (A) (A) (A) (A) (A) (A) (A) (A) (A) (A)
                 (A) (A) (A) (A) (A) (A) (A) (A) (A) (A) (A) (A)
                 (A) (A) (A) (A) (A) (A) (A) (A) (A) (A) (A) (A)
                 (A) (A) (A) (A) (A) (A) (A) (A) (A) (A) (A) (A)
                 (A) (A) (A) (A) (A) (A) (A) (A) (A) (A) (A) (A)
                 (A) (A) (A) (A) (A) (A) (A) (A) (A) (A) (A) (A)
                 (A) (A) (A) (A) (A) (A) (A) (A) (A) (A) (A) (A)
                 (A) (A) (A) (A) (A) (A) (A) (A) (A) (A) (A) (A)
                 (A) (A) (A) (A) (A) (A) (A) (A) (A) (A) (A) (A)
                 (A) (A) (A) (A) (A) (A) (A) (A) (A) (A) (A) (A)
                 (A) (A) (A) (A) (A) (A) (A) (A) (A) (A) (A) (A)
                 (A) (A) (A) (A) (A) (A) (A) (A) (A) (A) (A) (A)
                 (A) (A) (A) (A) (A)
 The electronic state is 2-A.
 Alpha  occ. eigenvalues --  -10.63586 -10.62215 -10.61516  -0.91275  -0.79048
 Alpha  occ. eigenvalues --   -0.64647  -0.54770  -0.49990  -0.45892  -0.41928
 Alpha  occ. eigenvalues --   -0.36902  -0.28278
 Alpha virt. eigenvalues --    0.07761   0.09462   0.11421   0.12490   0.16033
 Alpha virt. eigenvalues --    0.17801   0.23880   0.30904   0.32402   0.33513
 Alpha virt. eigenvalues --    0.36926   0.38065   0.38949   0.42056   0.45569
 Alpha virt. eigenvalues --    0.48535   0.49958   0.51129   0.53187   0.53426
 Alpha virt. eigenvalues --    0.56379   0.58310   0.61494   0.63959   0.69755
 Alpha virt. eigenvalues --    0.71855   0.75040   0.80723   0.81905   0.90300
 Alpha virt. eigenvalues --    0.95607   0.96959   1.00196   1.03861   1.08110
 Alpha virt. eigenvalues --    1.09345   1.10557   1.15692   1.16888   1.20733
 Alpha virt. eigenvalues --    1.21941   1.25445   1.28759   1.34563   1.37378
 Alpha virt. eigenvalues --    1.39073   1.42657   1.46077   1.50281   1.53873
 Alpha virt. eigenvalues --    1.55447   1.57583   1.62014   1.75061   1.94514
 Alpha virt. eigenvalues --    2.13763   2.16827   2.25149   2.30183   2.35152
 Alpha virt. eigenvalues --    2.38928   2.40481   2.45445   2.49539   2.56296
 Alpha virt. eigenvalues --    2.63865   2.65329   2.67390   2.79025   2.82595
 Alpha virt. eigenvalues --    2.85231   2.86479   2.89065   2.93858   2.95783
 Alpha virt. eigenvalues --    2.97410   2.99295   3.00488   3.02487   3.05771
 Alpha virt. eigenvalues --    3.08532   3.11899   3.13981   3.15732   3.21792
 Alpha virt. eigenvalues --    3.22656   3.23663   3.28174   3.31462   3.37111
 Alpha virt. eigenvalues --    3.37966   3.39323   3.40573   3.49249   3.52432
 Alpha virt. eigenvalues --    3.54083   3.63553   3.65177   3.70428   3.72643
 Alpha virt. eigenvalues --    3.75249   3.81968   3.83881   3.85810   3.89700
 Alpha virt. eigenvalues --    3.92394   3.95933   4.00490   4.01940   4.05217
 Alpha virt. eigenvalues --    4.10698   4.11918   4.14545   4.17753   4.21027
 Alpha virt. eigenvalues --    4.25735   4.29698   4.36760   4.38457   4.47506
 Alpha virt. eigenvalues --    4.51203   4.56812   4.58747   4.64129   4.81622
 Alpha virt. eigenvalues --    4.82840   4.92023   4.96560   4.97458   5.05496
 Alpha virt. eigenvalues --    5.12051   5.12941   5.17961   5.19149   5.26527
 Alpha virt. eigenvalues --    5.33620   5.36772   5.40496   5.52435   5.62708
 Alpha virt. eigenvalues --    5.72526   5.94344   6.03668   6.16620   6.44331
 Alpha virt. eigenvalues --   11.17296  12.09257  14.36915
  Beta  occ. eigenvalues --  -10.62659 -10.61872 -10.60862  -0.90213  -0.75250
  Beta  occ. eigenvalues --   -0.64060  -0.54165  -0.49305  -0.44693  -0.41423
  Beta  occ. eigenvalues --   -0.32619
  Beta virt. eigenvalues --   -0.02098   0.09286   0.10041   0.11553   0.12870
  Beta virt. eigenvalues --    0.16303   0.18271   0.24424   0.31218   0.32957
  Beta virt. eigenvalues --    0.35412   0.37771   0.38808   0.42557   0.43066
  Beta virt. eigenvalues --    0.46507   0.49064   0.50585   0.51684   0.54047
  Beta virt. eigenvalues --    0.54365   0.57181   0.59038   0.62917   0.64636
  Beta virt. eigenvalues --    0.70125   0.73222   0.75172   0.80897   0.82716
  Beta virt. eigenvalues --    0.92115   0.95882   0.97507   1.00559   1.04674
  Beta virt. eigenvalues --    1.08782   1.09700   1.11806   1.16288   1.18604
  Beta virt. eigenvalues --    1.21500   1.22104   1.26532   1.29575   1.34922
  Beta virt. eigenvalues --    1.37892   1.39890   1.43324   1.46916   1.50745
  Beta virt. eigenvalues --    1.54734   1.56285   1.57719   1.62610   1.75544
  Beta virt. eigenvalues --    1.95244   2.15041   2.17102   2.29282   2.30612
  Beta virt. eigenvalues --    2.35343   2.40080   2.42157   2.46288   2.50050
  Beta virt. eigenvalues --    2.57205   2.64491   2.66967   2.68786   2.79825
  Beta virt. eigenvalues --    2.83334   2.86700   2.87165   2.89733   2.95144
  Beta virt. eigenvalues --    2.97044   2.98207   3.00240   3.01732   3.03458
  Beta virt. eigenvalues --    3.07524   3.09599   3.12864   3.15291   3.17482
  Beta virt. eigenvalues --    3.22659   3.23509   3.26060   3.29929   3.32264
  Beta virt. eigenvalues --    3.37283   3.38352   3.40440   3.41009   3.49996
  Beta virt. eigenvalues --    3.52585   3.54893   3.63788   3.65486   3.70651
  Beta virt. eigenvalues --    3.73154   3.75932   3.82442   3.84481   3.86117
  Beta virt. eigenvalues --    3.90137   3.92958   3.96167   4.00720   4.02230
  Beta virt. eigenvalues --    4.05484   4.11002   4.12540   4.14942   4.17912
  Beta virt. eigenvalues --    4.21584   4.26163   4.29936   4.36892   4.38650
  Beta virt. eigenvalues --    4.47970   4.51610   4.57109   4.59130   4.64686
  Beta virt. eigenvalues --    4.81905   4.83016   4.92435   4.97039   4.98669
  Beta virt. eigenvalues --    5.05903   5.12633   5.13369   5.18662   5.19806
  Beta virt. eigenvalues --    5.27028   5.34027   5.37145   5.41143   5.52807
  Beta virt. eigenvalues --    5.62837   5.72965   5.95066   6.03859   6.16819
  Beta virt. eigenvalues --    6.44497  11.17253  12.10706  14.37295
          Condensed to atoms (all electrons):
               1          2          3          4          5          6
     1  C    4.982936   0.590241  -0.063726  -0.001871   0.408845   0.003039
     2  C    0.590241   4.877422   0.397585  -0.052660  -0.049855  -0.045373
     3  C   -0.063726   0.397585   5.111728   0.412235  -0.005653   0.406194
     4  H   -0.001871  -0.052660   0.412235   0.578388   0.004390  -0.044722
     5  H    0.408845  -0.049855  -0.005653   0.004390   0.540844   0.000179
     6  H    0.003039  -0.045373   0.406194  -0.044722   0.000179   0.574876
     7  H    0.420802  -0.048184   0.006628  -0.000029  -0.032008  -0.000445
     8  H   -0.051415   0.414583  -0.032931   0.005482   0.006645  -0.003586
               7          8
     1  C    0.420802  -0.051415
     2  C   -0.048184   0.414583
     3  C    0.006628  -0.032931
     4  H   -0.000029   0.005482
     5  H   -0.032008   0.006645
     6  H   -0.000445  -0.003586
     7  H    0.527895  -0.007532
     8  H   -0.007532   0.532193
          Atomic-Atomic Spin Densities.
               1          2          3          4          5          6
     1  C    0.409373   0.010070  -0.026933  -0.000490   0.003694  -0.002000
     2  C    0.010070  -0.269074  -0.026697   0.002385   0.000721   0.004844
     3  C   -0.026933  -0.026697   0.995828   0.004761   0.000246   0.001826
     4  H   -0.000490   0.002385   0.004761  -0.032924  -0.000156   0.006705
     5  H    0.003694   0.000721   0.000246  -0.000156  -0.022119  -0.000005
     6  H   -0.002000   0.004844   0.001826   0.006705  -0.000005  -0.034819
     7  H    0.002730  -0.001356   0.000722   0.000067   0.002682   0.000113
     8  H   -0.001967  -0.001575  -0.001971  -0.000137  -0.000094   0.000496
               7          8
     1  C    0.002730  -0.001967
     2  C   -0.001356  -0.001575
     3  C    0.000722  -0.001971
     4  H    0.000067  -0.000137
     5  H    0.002682  -0.000094
     6  H    0.000113   0.000496
     7  H   -0.020014   0.000501
     8  H    0.000501   0.015382
 Mulliken charges and spin densities:
               1          2
     1  C   -0.288851   0.394478
     2  C   -0.083760  -0.280681
     3  C   -0.232060   0.947781
     4  H    0.098786  -0.019790
     5  H    0.126612  -0.015031
     6  H    0.109838  -0.022839
     7  H    0.132873  -0.014554
     8  H    0.136561   0.010636
 Sum of Mulliken charges =  -0.00000   1.00000
 Mulliken charges and spin densities with hydrogens summed into heavy atoms:
               1          2
     1  C   -0.029366   0.364893
     2  C    0.052801  -0.270045
     3  C   -0.023435   0.905152
 Electronic spatial extent (au):  <R**2>=            179.7801
 Charge=             -0.0000 electrons
 Dipole moment (field-independent basis, Debye):
    X=              0.4060    Y=             -0.0581    Z=              0.5085  Tot=              0.6533
 Quadrupole moment (field-independent basis, Debye-Ang):
   XX=            -19.4165   YY=            -18.0910   ZZ=            -21.6360
   XY=              0.2619   XZ=             -0.9841   YZ=              0.0493
 Traceless Quadrupole moment (field-independent basis, Debye-Ang):
   XX=              0.2980   YY=              1.6235   ZZ=             -1.9215
   XY=              0.2619   XZ=             -0.9841   YZ=              0.0493
 Octapole moment (field-independent basis, Debye-Ang**2):
  XXX=              5.5366  YYY=             -0.3348  ZZZ=              1.1024  XYY=              0.9205
  XXY=              0.3951  XXZ=              2.6230  XZZ=             -0.7782  YZZ=              0.1245
  YYZ=              0.1715  XYZ=             -0.2897
 Hexadecapole moment (field-independent basis, Debye-Ang**3):
 XXXX=           -172.9256 YYYY=            -49.6908 ZZZZ=            -28.4016 XXXY=              2.3289
 XXXZ=             -4.9094 YYYX=              0.3051 YYYZ=             -0.2210 ZZZX=             -2.1220
 ZZZY=              0.1618 XXYY=            -37.7818 XXZZ=            -35.2395 YYZZ=            -14.5853
 XXYZ=              0.5502 YYXZ=             -0.3582 ZZXY=             -0.3114
 N-N= 6.462624280842D+01 E-N=-4.003383267906D+02  KE= 1.164770208456D+02
                          Isotropic Fermi Contact Couplings
        Atom                 a.u.       MegaHertz       Gauss      10(-4) cm-1
     1  C(13)              0.02099      23.59836       8.42048       7.87157
     2  C(13)             -0.01594     -17.92093      -6.39463      -5.97778
     3  C(13)              0.23479     263.94540      94.18228      88.04271
     4  H(1)              -0.00326     -14.58083      -5.20280      -4.86364
     5  H(1)              -0.00329     -14.68839      -5.24118      -4.89952
     6  H(1)              -0.00425     -19.01848      -6.78627      -6.34388
     7  H(1)              -0.00240     -10.71498      -3.82337      -3.57413
     8  H(1)               0.00238      10.62726       3.79207       3.54487
 --------------------------------------------------------
       Center         ----  Spin Dipole Couplings  ----
                      3XX-RR        3YY-RR        3ZZ-RR
 --------------------------------------------------------
     1   Atom       -0.121385     -0.153106      0.274491
     2   Atom        0.091541      0.033857     -0.125399
     3   Atom       -0.200290     -0.347502      0.547792
     4   Atom       -0.045699      0.061617     -0.015918
     5   Atom       -0.012437      0.016793     -0.004356
     6   Atom        0.000613     -0.036222      0.035609
     7   Atom        0.013276     -0.012640     -0.000636
     8   Atom        0.009752      0.000468     -0.010219
 --------------------------------------------------------
                        XY            XZ            YZ
 --------------------------------------------------------
     1   Atom       -0.005223     -0.095453      0.027161
     2   Atom        0.002605      0.022652      0.001250
     3   Atom       -0.177572      0.518391     -0.341148
     4   Atom       -0.005378      0.020038     -0.001514
     5   Atom       -0.003180     -0.001178      0.004624
     6   Atom       -0.035826     -0.029551      0.014864
     7   Atom        0.016901      0.001110      0.003622
     8   Atom        0.007804      0.002486      0.001710
 --------------------------------------------------------


 ---------------------------------------------------------------------------------
              Anisotropic Spin Dipole Couplings in Principal Axis System
 ---------------------------------------------------------------------------------

       Atom             a.u.   MegaHertz   Gauss  10(-4) cm-1        Axes

              Baa    -0.1549   -20.783    -7.416    -6.933 -0.0661  0.9948 -0.0776
     1 C(13)  Bbb    -0.1431   -19.205    -6.853    -6.406  0.9728  0.0816  0.2170
              Bcc     0.2980    39.989    14.269    13.339 -0.2222  0.0612  0.9731
 
              Baa    -0.1277   -17.142    -6.117    -5.718 -0.1027 -0.0060  0.9947
     2 C(13)  Bbb     0.0337     4.528     1.616     1.510 -0.0456  0.9990  0.0014
              Bcc     0.0940    12.614     4.501     4.208  0.9937  0.0452  0.1028
 
              Baa    -0.4672   -62.699   -22.373   -20.914  0.8119  0.5344 -0.2351
     3 C(13)  Bbb    -0.4616   -61.947   -22.104   -20.663 -0.3875  0.7945  0.4675
              Bcc     0.9289   124.647    44.477    41.578  0.4366 -0.2885  0.8522
 
              Baa    -0.0559   -29.835   -10.646    -9.952  0.8941  0.0352 -0.4465
     4 H(1)   Bbb    -0.0061    -3.229    -1.152    -1.077  0.4444  0.0553  0.8941
              Bcc     0.0620    33.065    11.798    11.029 -0.0561  0.9978 -0.0338
 
              Baa    -0.0128    -6.850    -2.444    -2.285  0.9919  0.0929  0.0871
     5 H(1)   Bbb    -0.0053    -2.822    -1.007    -0.941 -0.0656 -0.2135  0.9747
              Bcc     0.0181     9.672     3.451     3.226 -0.1091  0.9725  0.2057
 
              Baa    -0.0582   -31.041   -11.076   -10.354  0.5324  0.8458  0.0337
     6 H(1)   Bbb    -0.0045    -2.410    -0.860    -0.804  0.6434 -0.4302  0.6332
              Bcc     0.0627    33.451    11.936    11.158 -0.5501  0.3154  0.7732
 
              Baa    -0.0213   -11.390    -4.064    -3.799 -0.4313  0.8924 -0.1329
     7 H(1)   Bbb    -0.0006    -0.303    -0.108    -0.101 -0.1622  0.0682  0.9844
              Bcc     0.0219    11.694     4.173     3.901  0.8875  0.4461  0.1153
 
              Baa    -0.0106    -5.652    -2.017    -1.885 -0.0855 -0.0930  0.9920
     8 H(1)   Bbb    -0.0040    -2.113    -0.754    -0.705 -0.4995  0.8655  0.0380
              Bcc     0.0146     7.766     2.771     2.590  0.8621  0.4922  0.1205
 

 ---------------------------------------------------------------------------------

 Calling FoFJK, ICntrl=  10002127 FMM=F ISym2X=0 I1Cent= 0 IOpClX= 1 NMat=1 NMatS=1 NMatT=0.
 ***** Axes restored to original set *****
 -------------------------------------------------------------------
 Center     Atomic                   Forces (Hartrees/Bohr)
 Number     Number              X              Y              Z
 -------------------------------------------------------------------
      1        6           0.000169504   -0.003076440   -0.004094164
      2        6          -0.039596992   -0.006284369   -0.011123780
      3        6           0.047152903   -0.003010286    0.038484174
      4        1          -0.005661657    0.001525179   -0.011841667
      5        1           0.004007392   -0.008078317   -0.000851571
      6        1          -0.011439418    0.008778641   -0.014916586
      7        1           0.007700598   -0.000021729    0.001770617
      8        1          -0.002332330    0.010167321    0.002572977
 -------------------------------------------------------------------
 Cartesian Forces:  Max     0.047152903 RMS     0.016247880

 GradGradGradGradGradGradGradGradGradGradGradGradGradGradGradGradGradGrad
 Berny optimization.
 FormGI is forming the generalized inverse of G from B-inverse, IUseBI=4.
 Internal  Forces:  Max     0.030374934 RMS     0.010815560
 Search for a local minimum.
 Step number   1 out of a maximum of  100
 All quantities printed in internal units (Hartrees-Bohrs-Radians)
 Mixed Optimization -- RFO/linear search
 Second derivative matrix not updated -- first step.
 ITU=  0
     Eigenvalues ---    0.00781   0.01912   0.03043   0.03043   0.05120
     Eigenvalues ---    0.16000   0.16000   0.16000   0.16000   0.16000
     Eigenvalues ---    0.22000   0.32496   0.34414   0.34680   0.37230
     Eigenvalues ---    0.37230   0.37230   0.60013
 RFO step:  Lambda=-2.09395311D-02 EMin= 7.80918152D-03
 Linear search not attempted -- first point.
 Iteration  1 RMS(Cart)=  0.07392429 RMS(Int)=  0.03038320
 Iteration  2 RMS(Cart)=  0.02646334 RMS(Int)=  0.01215785
 Iteration  3 RMS(Cart)=  0.00116824 RMS(Int)=  0.01210339
 Iteration  4 RMS(Cart)=  0.00002519 RMS(Int)=  0.01210336
 Iteration  5 RMS(Cart)=  0.00000104 RMS(Int)=  0.01210336
 Iteration  6 RMS(Cart)=  0.00000004 RMS(Int)=  0.01210336
 Variable       Old X    -DE/DX   Delta X   Delta X   Delta X     New X
                                 (Linear)    (Quad)   (Total)
    R1        2.50930   0.01593   0.00000   0.02564   0.02564   2.53494
    R2        2.02201   0.00802   0.00000   0.02040   0.02040   2.04240
    R3        2.02201   0.00671   0.00000   0.01707   0.01707   2.03908
    R4        2.83245  -0.03037   0.00000  -0.08781  -0.08781   2.74464
    R5        2.02201   0.01002   0.00000   0.02549   0.02549   2.04750
    R6        2.06197  -0.00183   0.00000  -0.00499  -0.00499   2.05699
    R7        2.06637  -0.00354   0.00000  -0.00971  -0.00971   2.05666
    A1        2.09440   0.00301   0.00000   0.01666   0.01662   2.11102
    A2        2.09440   0.00231   0.00000   0.01275   0.01272   2.10711
    A3        2.09440  -0.00532   0.00000  -0.02941  -0.02945   2.06495
    A4        2.17656  -0.00346   0.00000  -0.01435  -0.01435   2.16221
    A5        2.05331   0.00465   0.00000   0.02333   0.02333   2.07664
    A6        2.05331  -0.00120   0.00000  -0.00898  -0.00899   2.04432
    A7        1.93916   0.01330   0.00000   0.13281   0.10273   2.04189
    A8        1.93515   0.01963   0.00000   0.16803   0.13821   2.07336
    A9        1.89228   0.00346   0.00000   0.13084   0.09395   1.98624
    D1        0.00007   0.00084   0.00000   0.01699   0.01701   0.01708
    D2       -3.14152   0.00065   0.00000   0.01202   0.01200  -3.12952
    D3       -3.14152   0.00165   0.00000   0.03264   0.03266  -3.10886
    D4        0.00007   0.00145   0.00000   0.02768   0.02766   0.02772
    D5       -0.00170  -0.01013   0.00000  -0.07342  -0.08291  -0.08461
    D6        2.10393   0.01643   0.00000   0.29469   0.30422   2.40815
    D7        3.13989  -0.00993   0.00000  -0.06846  -0.07799   3.06190
    D8       -1.03766   0.01663   0.00000   0.29965   0.30914  -0.72852
         Item               Value     Threshold  Converged?
 Maximum Force            0.030375     0.000450     NO 
 RMS     Force            0.010816     0.000300     NO 
 Maximum Displacement     0.217733     0.001800     NO 
 RMS     Displacement     0.092154     0.001200     NO 
 Predicted change in Energy=-1.452985D-02
 GradGradGradGradGradGradGradGradGradGradGradGradGradGradGradGradGradGrad

                          Input orientation:                          
 ---------------------------------------------------------------------
 Center     Atomic      Atomic             Coordinates (Angstroms)
 Number     Number       Type             X           Y           Z
 ---------------------------------------------------------------------
      1          6           0        1.297029   -0.226547   -0.020722
      2          6           0        0.138795    0.447729    0.036666
      3          6           0       -1.165738   -0.187566    0.100363
      4          1           0       -1.191293   -1.272717    0.018818
      5          1           0        1.310920   -1.307112   -0.037981
      6          1           0       -1.914770    0.219855    0.776708
      7          1           0        2.240020    0.297703   -0.036332
      8          1           0        0.161589    1.530968    0.041028
 ---------------------------------------------------------------------
                    Distance matrix (angstroms):
                    1          2          3          4          5
     1  C    0.000000
     2  C    1.341435   0.000000
     3  C    2.466050   1.452399   0.000000
     4  H    2.699589   2.174715   1.088510   0.000000
     5  H    1.080793   2.111615   2.721462   2.503094   0.000000
     6  H    3.339284   2.194702   1.088339   1.823619   3.660658
     7  H    1.079034   2.107838   3.442871   3.774013   1.854363
     8  H    2.093298   1.083488   2.172252   3.113106   3.062989
                    6          7          8
     6  H    0.000000
     7  H    4.234309   0.000000
     8  H    2.563495   2.418016   0.000000
 Stoichiometry    C3H5(2)
 Framework group  C1[X(C3H5)]
 Deg. of freedom    18
 Full point group                 C1      NOp   1
 Largest Abelian subgroup         C1      NOp   1
 Largest concise Abelian subgroup C1      NOp   1
                         Standard orientation:                         
 ---------------------------------------------------------------------
 Center     Atomic      Atomic             Coordinates (Angstroms)
 Number     Number       Type             X           Y           Z
 ---------------------------------------------------------------------
      1          6           0        1.200816   -0.222970    0.030671
      2          6           0        0.048711    0.460215   -0.042536
      3          6           0       -1.262590   -0.163771   -0.066951
      4          1           0       -1.291606   -1.251247   -0.104470
      5          1           0        1.205509   -1.303343    0.060405
      6          1           0       -2.063912    0.276917    0.523101
      7          1           0        2.146675    0.294352    0.075859
      8          1           0        0.081715    1.542480   -0.081995
 ---------------------------------------------------------------------
 Rotational constants (GHZ):          52.2067120          10.3272522           8.7329549
 Standard basis: CC-pVTZ (5D, 7F)
 There are   180 symmetry adapted cartesian basis functions of A   symmetry.
 There are   160 symmetry adapted basis functions of A   symmetry.
   160 basis functions,   241 primitive gaussians,   180 cartesian basis functions
    12 alpha electrons       11 beta electrons
       nuclear repulsion energy        64.7635189659 Hartrees.
 NAtoms=    8 NActive=    8 NUniq=    8 SFac= 1.00D+00 NAtFMM=   60 NAOKFM=F Big=F
 Integral buffers will be    131072 words long.
 Raffenetti 2 integral format.
 Two-electron integral symmetry is turned on.
 Nuclear repulsion after empirical dispersion term =       64.7603023682 Hartrees.
 One-electron integrals computed using PRISM.
 NBasis=   160 RedAO= T EigKep=  5.24D-04  NBF=   160
 NBsUse=   160 1.00D-06 EigRej= -1.00D+00 NBFU=   160
 Initial guess from the checkpoint file:  "/localscratch/339542/Gau-84136.chk"
 B after Tr=    -0.000000    0.000000    0.000000
         Rot=    0.999939    0.008280    0.003151   -0.006661 Ang=   1.27 deg.
 Initial guess <Sx>= 0.0000 <Sy>= 0.0000 <Sz>= 0.5000 <S**2>= 0.7989 S= 0.5242
 ExpMin= 1.03D-01 ExpMax= 8.24D+03 ExpMxC= 2.81D+02 IAcc=3 IRadAn=         5 AccDes= 0.00D+00
 Harris functional with IExCor=  419 and IRadAn=       5 diagonalized for initial guess.
 HarFok:  IExCor=  419 AccDes= 0.00D+00 IRadAn=         5 IDoV= 1 UseB2=F ITyADJ=14
 ICtDFT=  3500011 ScaDFX=  1.000000  1.000000  1.000000  1.000000
 FoFCou: FMM=F IPFlag=           0 FMFlag=      100000 FMFlg1=           0
         NFxFlg=           0 DoJE=T BraDBF=F KetDBF=T FulRan=T
         wScrn=  0.000000 ICntrl=       500 IOpCl=  0 I1Cent=   200000004 NGrid=           0
         NMat0=    1 NMatS0=      1 NMatT0=    0 NMatD0=    1 NMtDS0=    0 NMtDT0=    0
 Petite list used in FoFCou.
 Keep R1 and R2 ints in memory in canonical form, NReq=206286080.
 Requested convergence on RMS density matrix=1.00D-08 within 128 cycles.
 Requested convergence on MAX density matrix=1.00D-06.
 Requested convergence on             energy=1.00D-06.
 No special actions if energy rises.
 Integral accuracy reduced to 1.0D-05 until final iterations.
 Initial convergence to 1.0D-05 achieved.  Increase integral accuracy.
 SCF Done:  E(UB2PLYPD3) =  -117.023234017     A.U. after   17 cycles
            NFock= 17  Conv=0.37D-08     -V/T= 2.0049
 <Sx>= 0.0000 <Sy>= 0.0000 <Sz>= 0.5000 <S**2>= 0.8204 S= 0.5346
 <L.S>=  0.00000000000    
 Annihilation of the first spin contaminant:
 S**2 before annihilation     0.8204,   after     0.7508
 DoSCS=T DFT=T ScalE2(SS,OS)=  0.270000  0.270000
 ExpMin= 1.03D-01 ExpMax= 8.24D+03 ExpMxC= 2.81D+02 IAcc=3 IRadAn=         5 AccDes= 0.00D+00
 HarFok:  IExCor=  205 AccDes= 0.00D+00 IRadAn=         5 IDoV=-2 UseB2=F ITyADJ=14
 ICtDFT= 12500011 ScaDFX=  1.000000  1.000000  1.000000  1.000000
 Range of M.O.s used for correlation:     4   160
 NBasis=   160 NAE=    12 NBE=    11 NFC=     3 NFV=     0
 NROrb=    157 NOA=     9 NOB=     8 NVA=   148 NVB=   149

 **** Warning!!: The largest alpha MO coefficient is  0.13164610D+02


 **** Warning!!: The largest beta MO coefficient is  0.13328932D+02

 DoSCS=T DFT=T ScalE2(SS,OS)=  0.270000  0.270000
 Fully direct method using O(ONN) memory.
 JobTyp=2 Pass  1:  I=   4 to  12 NPSUse= 40 ParTrn=T ParDer=T DoDerP=T.
 JobTyp=3 Pass  1:  I=   4 to  11 NPSUse= 40 ParTrn=T ParDer=T DoDerP=T.
 Spin components of T(2) and E(2):
     alpha-alpha T2 =       0.3176410079D-01 E2=     -0.1971887925D-01
     alpha-beta  T2 =       0.1780942473D+00 E2=     -0.1184000196D+00
     beta-beta   T2 =       0.2533708633D-01 E2=     -0.1522674063D-01
 (S**2,0)=  0.82044D+00           (S**2,1)=  0.76416D+00
 Scaling Projection term by:   0.270000
 E(PUHF)=      -0.11703209648D+03        E(PMP2)=      -0.11717802309D+03
 E2(B2PLYPD3) =    -0.1533456395D+00 E(B2PLYPD3) =    -0.11717657965632D+03
          IDoAtm=11111111
          Differentiating once with respect to electric field.
                with respect to dipole field.
          Differentiating once with respect to nuclear coordinates.
 Keep R1 and R2 ints in memory in canonical form, NReq=206291708.
          There are     1 degrees of freedom in the 1st order CPHF.  IDoFFX=0 NUNeed=     1.
 LinEq1:  Iter=  0 NonCon=     1 RMS=1.19D-03 Max=3.65D-02 NDo=     1
 AX will form     1 AO Fock derivatives at one time.
 LinEq1:  Iter=  1 NonCon=     1 RMS=4.00D-04 Max=7.73D-03 NDo=     1
 LinEq1:  Iter=  2 NonCon=     1 RMS=2.31D-04 Max=4.47D-03 NDo=     1
 LinEq1:  Iter=  3 NonCon=     1 RMS=7.34D-05 Max=2.26D-03 NDo=     1
 LinEq1:  Iter=  4 NonCon=     1 RMS=4.45D-05 Max=1.06D-03 NDo=     1
 LinEq1:  Iter=  5 NonCon=     1 RMS=1.48D-05 Max=3.48D-04 NDo=     1
 LinEq1:  Iter=  6 NonCon=     1 RMS=5.74D-06 Max=9.52D-05 NDo=     1
 LinEq1:  Iter=  7 NonCon=     1 RMS=2.86D-06 Max=5.08D-05 NDo=     1
 LinEq1:  Iter=  8 NonCon=     1 RMS=1.06D-06 Max=1.10D-05 NDo=     1
 LinEq1:  Iter=  9 NonCon=     1 RMS=2.75D-07 Max=3.44D-06 NDo=     1
 LinEq1:  Iter= 10 NonCon=     1 RMS=6.29D-08 Max=6.48D-07 NDo=     1
 LinEq1:  Iter= 11 NonCon=     1 RMS=1.08D-08 Max=1.28D-07 NDo=     1
 LinEq1:  Iter= 12 NonCon=     1 RMS=2.44D-09 Max=1.97D-08 NDo=     1
 LinEq1:  Iter= 13 NonCon=     1 RMS=5.34D-10 Max=6.11D-09 NDo=     1
 LinEq1:  Iter= 14 NonCon=     0 RMS=8.46D-11 Max=8.30D-10 NDo=     1
 Linear equations converged to 1.000D-10 1.000D-09 after    14 iterations.
 End of Minotr F.D. properties file   721 does not exist.
 End of Minotr F.D. properties file   722 does not exist.
 End of Minotr F.D. properties file   788 does not exist.
 Calling FoFJK, ICntrl=  10002127 FMM=F ISym2X=0 I1Cent= 0 IOpClX= 1 NMat=1 NMatS=1 NMatT=0.
 ***** Axes restored to original set *****
 -------------------------------------------------------------------
 Center     Atomic                   Forces (Hartrees/Bohr)
 Number     Number              X              Y              Z
 -------------------------------------------------------------------
      1        6           0.007124959   -0.002923685   -0.004195961
      2        6          -0.031960245   -0.004067468   -0.002259481
      3        6           0.024802949   -0.000665431    0.019034906
      4        1          -0.000468875    0.003648469   -0.003642048
      5        1           0.001050807    0.000004614    0.000137294
      6        1          -0.001798813    0.005281532   -0.012475542
      7        1           0.001036900   -0.001382970   -0.000632387
      8        1           0.000212317    0.000104940    0.004033218
 -------------------------------------------------------------------
 Cartesian Forces:  Max     0.031960245 RMS     0.009858121

 GradGradGradGradGradGradGradGradGradGradGradGradGradGradGradGradGradGrad
 Berny optimization.
 Using GEDIIS/GDIIS optimizer.
 FormGI is forming the generalized inverse of G from B-inverse, IUseBI=4.
 Internal  Forces:  Max     0.023728011 RMS     0.006444213
 Search for a local minimum.
 Step number   2 out of a maximum of  100
 All quantities printed in internal units (Hartrees-Bohrs-Radians)
 Mixed Optimization -- RFO/linear search
 Update second derivatives using D2CorX and points    1    2
 DE= -1.52D-02 DEPred=-1.45D-02 R= 1.05D+00
 TightC=F SS=  1.41D+00  RLast= 5.04D-01 DXNew= 5.0454D-01 1.5114D+00
 Trust test= 1.05D+00 RLast= 5.04D-01 DXMaxT set to 5.05D-01
 ITU=  1  0
 Use linear search instead of GDIIS.
     Eigenvalues ---    0.00672   0.01925   0.02939   0.03044   0.03781
     Eigenvalues ---    0.15590   0.16000   0.16000   0.16000   0.17016
     Eigenvalues ---    0.22054   0.25576   0.34403   0.34692   0.37230
     Eigenvalues ---    0.37230   0.38397   0.58699
 RFO step:  Lambda=-1.87070529D-02 EMin= 6.72044143D-03
 Quartic linear search produced a step of  2.00000.
 Iteration  1 RMS(Cart)=  0.09763011 RMS(Int)=  0.22555127
 Iteration  2 RMS(Cart)=  0.06573535 RMS(Int)=  0.15873640
 Iteration  3 RMS(Cart)=  0.05919805 RMS(Int)=  0.10119460
 Iteration  4 RMS(Cart)=  0.05556876 RMS(Int)=  0.06374334
 Iteration  5 RMS(Cart)=  0.02014284 RMS(Int)=  0.06047464
 Iteration  6 RMS(Cart)=  0.00133189 RMS(Int)=  0.06045027
 Iteration  7 RMS(Cart)=  0.00019610 RMS(Int)=  0.06044976
 Iteration  8 RMS(Cart)=  0.00002936 RMS(Int)=  0.06044975
 Iteration  9 RMS(Cart)=  0.00000443 RMS(Int)=  0.06044975
 Iteration 10 RMS(Cart)=  0.00000067 RMS(Int)=  0.06044975
 Variable       Old X    -DE/DX   Delta X   Delta X   Delta X     New X
                                 (Linear)    (Quad)   (Total)
    R1        2.53494   0.01032   0.05129   0.00609   0.05738   2.59232
    R2        2.04240   0.00001   0.04079  -0.03101   0.00978   2.05218
    R3        2.03908   0.00024   0.03414  -0.02428   0.00986   2.04894
    R4        2.74464  -0.02373  -0.17563  -0.05678  -0.23241   2.51223
    R5        2.04750   0.00013   0.05098  -0.03793   0.01305   2.06054
    R6        2.05699  -0.00335  -0.00998  -0.01763  -0.02761   2.02938
    R7        2.05666  -0.00454  -0.01942  -0.01962  -0.03904   2.01763
    A1        2.11102   0.00024   0.03325  -0.02011   0.01307   2.12409
    A2        2.10711   0.00165   0.02544   0.00716   0.03253   2.13964
    A3        2.06495  -0.00189  -0.05889   0.01342  -0.04554   2.01941
    A4        2.16221   0.00079  -0.02870   0.03039   0.00146   2.16368
    A5        2.07664  -0.00040   0.04666  -0.03839   0.00804   2.08468
    A6        2.04432  -0.00039  -0.01797   0.00820  -0.00999   2.03433
    A7        2.04189   0.00223   0.20546  -0.02175   0.01380   2.05569
    A8        2.07336   0.00399   0.27643  -0.04514   0.06156   2.13492
    A9        1.98624   0.00220   0.18791   0.08015   0.09626   2.08250
    D1        0.01708  -0.00046   0.03402  -0.04816  -0.01419   0.00289
    D2       -3.12952   0.00017   0.02400   0.00192   0.02597  -3.10355
    D3       -3.10886  -0.00082   0.06533  -0.08432  -0.01904  -3.12790
    D4        0.02772  -0.00018   0.05531  -0.03425   0.02111   0.04884
    D5       -0.08461  -0.00273  -0.16582   0.34849   0.19385   0.10924
    D6        2.40815   0.01132   0.60844   0.39876   0.99590  -2.87914
    D7        3.06190  -0.00335  -0.15598   0.29939   0.15471  -3.06657
    D8       -0.72852   0.01070   0.61828   0.34966   0.95676   0.22824
         Item               Value     Threshold  Converged?
 Maximum Force            0.023728     0.000450     NO 
 RMS     Force            0.006444     0.000300     NO 
 Maximum Displacement     0.965561     0.001800     NO 
 RMS     Displacement     0.283441     0.001200     NO 
 Predicted change in Energy=-1.171709D-02
 GradGradGradGradGradGradGradGradGradGradGradGradGradGradGradGradGradGrad

                          Input orientation:                          
 ---------------------------------------------------------------------
 Center     Atomic      Atomic             Coordinates (Angstroms)
 Number     Number       Type             X           Y           Z
 ---------------------------------------------------------------------
      1          6           0        1.281134   -0.239812   -0.074022
      2          6           0        0.102066    0.412658    0.182709
      3          6           0       -1.073654   -0.196566    0.300472
      4          1           0       -1.084315   -1.270362    0.289788
      5          1           0        1.320969   -1.317566   -0.201256
      6          1           0       -1.998483    0.335814    0.265756
      7          1           0        2.230166    0.278483   -0.153437
      8          1           0        0.098668    1.499663    0.268541
 ---------------------------------------------------------------------
                    Distance matrix (angstroms):
                    1          2          3          4          5
     1  C    0.000000
     2  C    1.371797   0.000000
     3  C    2.384772   1.329413   0.000000
     4  H    2.605712   2.061921   1.073901   0.000000
     5  H    1.085969   2.151007   2.691206   2.455350   0.000000
     6  H    3.347040   2.103594   1.067681   1.848264   3.737717
     7  H    1.084251   2.158659   3.368521   3.685262   1.837471
     8  H    2.131043   1.090393   2.062171   3.012131   3.106687
                    6          7          8
     6  H    0.000000
     7  H    4.249763   0.000000
     8  H    2.398457   2.492514   0.000000
 Stoichiometry    C3H5(2)
 Framework group  C1[X(C3H5)]
 Deg. of freedom    18
 Full point group                 C1      NOp   1
 Largest Abelian subgroup         C1      NOp   1
 Largest concise Abelian subgroup C1      NOp   1
                         Standard orientation:                         
 ---------------------------------------------------------------------
 Center     Atomic      Atomic             Coordinates (Angstroms)
 Number     Number       Type             X           Y           Z
 ---------------------------------------------------------------------
      1          6           0        1.197969   -0.181133   -0.015701
      2          6           0       -0.023664    0.441806    0.021555
      3          6           0       -1.186492   -0.202509    0.016332
      4          1           0       -1.165346   -1.274039    0.084454
      5          1           0        1.286006   -1.262808   -0.055154
      6          1           0       -2.111191    0.290147   -0.189014
      7          1           0        2.133592    0.366496    0.001973
      8          1           0       -0.069939    1.531213    0.024626
 ---------------------------------------------------------------------
 Rotational constants (GHZ):          55.4854684          10.9154241           9.1397871
 Standard basis: CC-pVTZ (5D, 7F)
 There are   180 symmetry adapted cartesian basis functions of A   symmetry.
 There are   160 symmetry adapted basis functions of A   symmetry.
   160 basis functions,   241 primitive gaussians,   180 cartesian basis functions
    12 alpha electrons       11 beta electrons
       nuclear repulsion energy        66.1933682578 Hartrees.
 NAtoms=    8 NActive=    8 NUniq=    8 SFac= 1.00D+00 NAtFMM=   60 NAOKFM=F Big=F
 Integral buffers will be    131072 words long.
 Raffenetti 2 integral format.
 Two-electron integral symmetry is turned on.
 Nuclear repulsion after empirical dispersion term =       66.1901317718 Hartrees.
 One-electron integrals computed using PRISM.
 NBasis=   160 RedAO= T EigKep=  4.62D-04  NBF=   160
 NBsUse=   160 1.00D-06 EigRej= -1.00D+00 NBFU=   160
 Initial guess from the checkpoint file:  "/localscratch/339542/Gau-84136.chk"
 B after Tr=    -0.000000   -0.000000   -0.000000
         Rot=    0.999771    0.002052    0.000392   -0.021295 Ang=   2.45 deg.
 Initial guess <Sx>= 0.0000 <Sy>= 0.0000 <Sz>= 0.5000 <S**2>= 0.8154 S= 0.5322
 ExpMin= 1.03D-01 ExpMax= 8.24D+03 ExpMxC= 2.81D+02 IAcc=3 IRadAn=         5 AccDes= 0.00D+00
 Harris functional with IExCor=  419 and IRadAn=       5 diagonalized for initial guess.
 HarFok:  IExCor=  419 AccDes= 0.00D+00 IRadAn=         5 IDoV= 1 UseB2=F ITyADJ=14
 ICtDFT=  3500011 ScaDFX=  1.000000  1.000000  1.000000  1.000000
 FoFCou: FMM=F IPFlag=           0 FMFlag=      100000 FMFlg1=           0
         NFxFlg=           0 DoJE=T BraDBF=F KetDBF=T FulRan=T
         wScrn=  0.000000 ICntrl=       500 IOpCl=  0 I1Cent=   200000004 NGrid=           0
         NMat0=    1 NMatS0=      1 NMatT0=    0 NMatD0=    1 NMtDS0=    0 NMtDT0=    0
 Petite list used in FoFCou.
 Keep R1 and R2 ints in memory in canonical form, NReq=206286080.
 Requested convergence on RMS density matrix=1.00D-08 within 128 cycles.
 Requested convergence on MAX density matrix=1.00D-06.
 Requested convergence on             energy=1.00D-06.
 No special actions if energy rises.
 Integral accuracy reduced to 1.0D-05 until final iterations.
 Initial convergence to 1.0D-05 achieved.  Increase integral accuracy.
 SCF Done:  E(UB2PLYPD3) =  -117.031056414     A.U. after   17 cycles
            NFock= 17  Conv=0.28D-08     -V/T= 2.0029
 <Sx>= 0.0000 <Sy>= 0.0000 <Sz>= 0.5000 <S**2>= 0.8171 S= 0.5330
 <L.S>=  0.00000000000    
 Annihilation of the first spin contaminant:
 S**2 before annihilation     0.8171,   after     0.7508
 DoSCS=T DFT=T ScalE2(SS,OS)=  0.270000  0.270000
 ExpMin= 1.03D-01 ExpMax= 8.24D+03 ExpMxC= 2.81D+02 IAcc=3 IRadAn=         5 AccDes= 0.00D+00
 HarFok:  IExCor=  205 AccDes= 0.00D+00 IRadAn=         5 IDoV=-2 UseB2=F ITyADJ=14
 ICtDFT= 12500011 ScaDFX=  1.000000  1.000000  1.000000  1.000000
 Range of M.O.s used for correlation:     4   160
 NBasis=   160 NAE=    12 NBE=    11 NFC=     3 NFV=     0
 NROrb=    157 NOA=     9 NOB=     8 NVA=   148 NVB=   149

 **** Warning!!: The largest alpha MO coefficient is  0.13876474D+02


 **** Warning!!: The largest beta MO coefficient is  0.14551589D+02

 DoSCS=T DFT=T ScalE2(SS,OS)=  0.270000  0.270000
 Fully direct method using O(ONN) memory.
 JobTyp=2 Pass  1:  I=   4 to  12 NPSUse= 40 ParTrn=T ParDer=T DoDerP=T.
 JobTyp=3 Pass  1:  I=   4 to  11 NPSUse= 40 ParTrn=T ParDer=T DoDerP=T.
 Spin components of T(2) and E(2):
     alpha-alpha T2 =       0.3133312793D-01 E2=     -0.1983432008D-01
     alpha-beta  T2 =       0.1729539690D+00 E2=     -0.1178123460D+00
     beta-beta   T2 =       0.2472485733D-01 E2=     -0.1518489120D-01
 (S**2,0)=  0.81713D+00           (S**2,1)=  0.75741D+00
 Scaling Projection term by:   0.270000
 E(PUHF)=      -0.11704062304D+03        E(PMP2)=      -0.11718532977D+03
 E2(B2PLYPD3) =    -0.1528315573D+00 E(B2PLYPD3) =    -0.11718388797170D+03
          IDoAtm=11111111
          Differentiating once with respect to electric field.
                with respect to dipole field.
          Differentiating once with respect to nuclear coordinates.
 Keep R1 and R2 ints in memory in canonical form, NReq=206291708.
          There are     1 degrees of freedom in the 1st order CPHF.  IDoFFX=0 NUNeed=     1.
 LinEq1:  Iter=  0 NonCon=     1 RMS=1.14D-03 Max=3.48D-02 NDo=     1
 AX will form     1 AO Fock derivatives at one time.
 LinEq1:  Iter=  1 NonCon=     1 RMS=3.65D-04 Max=6.75D-03 NDo=     1
 LinEq1:  Iter=  2 NonCon=     1 RMS=1.86D-04 Max=2.79D-03 NDo=     1
 LinEq1:  Iter=  3 NonCon=     1 RMS=4.18D-05 Max=7.89D-04 NDo=     1
 LinEq1:  Iter=  4 NonCon=     1 RMS=2.22D-05 Max=4.74D-04 NDo=     1
 LinEq1:  Iter=  5 NonCon=     1 RMS=8.71D-06 Max=2.54D-04 NDo=     1
 LinEq1:  Iter=  6 NonCon=     1 RMS=3.01D-06 Max=6.71D-05 NDo=     1
 LinEq1:  Iter=  7 NonCon=     1 RMS=1.40D-06 Max=4.51D-05 NDo=     1
 LinEq1:  Iter=  8 NonCon=     1 RMS=7.44D-07 Max=1.48D-05 NDo=     1
 LinEq1:  Iter=  9 NonCon=     1 RMS=2.35D-07 Max=3.76D-06 NDo=     1
 LinEq1:  Iter= 10 NonCon=     1 RMS=4.96D-08 Max=6.45D-07 NDo=     1
 LinEq1:  Iter= 11 NonCon=     1 RMS=7.15D-09 Max=1.02D-07 NDo=     1
 LinEq1:  Iter= 12 NonCon=     1 RMS=1.09D-09 Max=1.20D-08 NDo=     1
 LinEq1:  Iter= 13 NonCon=     1 RMS=3.44D-10 Max=5.17D-09 NDo=     1
 LinEq1:  Iter= 14 NonCon=     1 RMS=8.41D-11 Max=1.05D-09 NDo=     1
 LinEq1:  Iter= 15 NonCon=     0 RMS=2.29D-11 Max=2.68D-10 NDo=     1
 Linear equations converged to 1.000D-10 1.000D-09 after    15 iterations.
 End of Minotr F.D. properties file   721 does not exist.
 End of Minotr F.D. properties file   722 does not exist.
 End of Minotr F.D. properties file   788 does not exist.
 Calling FoFJK, ICntrl=  10002127 FMM=F ISym2X=0 I1Cent= 0 IOpClX= 1 NMat=1 NMatS=1 NMatT=0.
 ***** Axes restored to original set *****
 -------------------------------------------------------------------
 Center     Atomic                   Forces (Hartrees/Bohr)
 Number     Number              X              Y              Z
 -------------------------------------------------------------------
      1        6           0.021041657   -0.005612035    0.000361877
      2        6           0.025812419    0.032495821   -0.002021016
      3        6          -0.030998586   -0.023836330   -0.001912069
      4        1          -0.006232093   -0.005825898   -0.000972543
      5        1          -0.002862817    0.003172568    0.001235573
      6        1          -0.007231894    0.002641293    0.006171052
      7        1          -0.004283864    0.000116462    0.000114624
      8        1           0.004755178   -0.003151881   -0.002977496
 -------------------------------------------------------------------
 Cartesian Forces:  Max     0.032495821 RMS     0.012884296

 GradGradGradGradGradGradGradGradGradGradGradGradGradGradGradGradGradGrad
 Berny optimization.
 Using GEDIIS/GDIIS optimizer.
 FormGI is forming the generalized inverse of G from B-inverse, IUseBI=4.
 Internal  Forces:  Max     0.051996172 RMS     0.011604757
 Search for a local minimum.
 Step number   3 out of a maximum of  100
 All quantities printed in internal units (Hartrees-Bohrs-Radians)
 Mixed Optimization -- RFO/linear search
 Update second derivatives using D2CorX and points    2    3
 DE= -7.31D-03 DEPred=-1.17D-02 R= 6.24D-01
 TightC=F SS=  1.41D+00  RLast= 1.43D+00 DXNew= 8.4853D-01 4.2923D+00
 Trust test= 6.24D-01 RLast= 1.43D+00 DXMaxT set to 8.49D-01
 ITU=  1  1  0
 Use linear search instead of GDIIS.
     Eigenvalues ---    0.01052   0.01574   0.01972   0.03043   0.03133
     Eigenvalues ---    0.15650   0.15999   0.16000   0.16110   0.17031
     Eigenvalues ---    0.22216   0.28544   0.34395   0.34699   0.37230
     Eigenvalues ---    0.37234   0.38623   0.58721
 RFO step:  Lambda=-4.95099095D-03 EMin= 1.05221553D-02
 Quartic linear search produced a step of -0.31946.
 Iteration  1 RMS(Cart)=  0.07666664 RMS(Int)=  0.01056483
 Iteration  2 RMS(Cart)=  0.00174168 RMS(Int)=  0.01042781
 Iteration  3 RMS(Cart)=  0.00000792 RMS(Int)=  0.01042780
 Iteration  4 RMS(Cart)=  0.00000020 RMS(Int)=  0.01042780
 Variable       Old X    -DE/DX   Delta X   Delta X   Delta X     New X
                                 (Linear)    (Quad)   (Total)
    R1        2.59232   0.01273  -0.01833   0.01310  -0.00523   2.58709
    R2        2.05218  -0.00340  -0.00313  -0.01336  -0.01649   2.03570
    R3        2.04894  -0.00370  -0.00315  -0.01235  -0.01550   2.03344
    R4        2.51223   0.05200   0.07424   0.09796   0.17220   2.68443
    R5        2.06054  -0.00339  -0.00417  -0.01505  -0.01921   2.04133
    R6        2.02938   0.00590   0.00882   0.00787   0.01669   2.04606
    R7        2.01763   0.00738   0.01247   0.01066   0.02313   2.04075
    A1        2.12409  -0.00245  -0.00417  -0.01488  -0.01906   2.10502
    A2        2.13964  -0.00092  -0.01039  -0.00270  -0.01310   2.12654
    A3        2.01941   0.00337   0.01455   0.01768   0.03222   2.05163
    A4        2.16368   0.00376  -0.00047   0.01808   0.01761   2.18129
    A5        2.08468  -0.00706  -0.00257  -0.03535  -0.03792   2.04676
    A6        2.03433   0.00333   0.00319   0.01755   0.02074   2.05507
    A7        2.05569   0.00699  -0.00441   0.01438   0.03929   2.09498
    A8        2.13492  -0.00100  -0.01967  -0.02419  -0.01455   2.12037
    A9        2.08250  -0.00533  -0.03075  -0.02285  -0.02397   2.05852
    D1        0.00289   0.00023   0.00453  -0.00861  -0.00423  -0.00134
    D2       -3.10355  -0.00101  -0.00830  -0.01911  -0.02726  -3.13081
    D3       -3.12790   0.00017   0.00608  -0.02081  -0.01487   3.14041
    D4        0.04884  -0.00107  -0.00674  -0.03131  -0.03790   0.01093
    D5        0.10924  -0.00156  -0.06193  -0.03200  -0.09592   0.01332
    D6       -2.87914  -0.00614  -0.31815   0.21650  -0.09996  -2.97910
    D7       -3.06657  -0.00054  -0.04942  -0.02276  -0.07387  -3.14044
    D8        0.22824  -0.00513  -0.30564   0.22574  -0.07791   0.15032
         Item               Value     Threshold  Converged?
 Maximum Force            0.051996     0.000450     NO 
 RMS     Force            0.011605     0.000300     NO 
 Maximum Displacement     0.201043     0.001800     NO 
 RMS     Displacement     0.076744     0.001200     NO 
 Predicted change in Energy=-5.973300D-03
 GradGradGradGradGradGradGradGradGradGradGradGradGradGradGradGradGradGrad

                          Input orientation:                          
 ---------------------------------------------------------------------
 Center     Atomic      Atomic             Coordinates (Angstroms)
 Number     Number       Type             X           Y           Z
 ---------------------------------------------------------------------
      1          6           0        1.323973   -0.225854   -0.067799
      2          6           0        0.136833    0.415728    0.163090
      3          6           0       -1.122617   -0.226658    0.301140
      4          1           0       -1.190702   -1.305336    0.236921
      5          1           0        1.359061   -1.298699   -0.158521
      6          1           0       -2.042906    0.337426    0.334370
      7          1           0        2.250616    0.312415   -0.165166
      8          1           0        0.162294    1.493289    0.234513
 ---------------------------------------------------------------------
                    Distance matrix (angstroms):
                    1          2          3          4          5
     1  C    0.000000
     2  C    1.369029   0.000000
     3  C    2.474250   1.420538   0.000000
     4  H    2.753493   2.174824   1.082731   0.000000
     5  H    1.077246   2.129915   2.742131   2.580254   0.000000
     6  H    3.437281   2.187859   1.079920   1.853217   3.806997
     7  H    1.076049   2.141613   3.447715   3.823802   1.841359
     8  H    2.096746   1.080226   2.147941   3.108521   3.062993
                    6          7          8
     6  H    0.000000
     7  H    4.322556   0.000000
     8  H    2.491766   2.432138   0.000000
 Stoichiometry    C3H5(2)
 Framework group  C1[X(C3H5)]
 Deg. of freedom    18
 Full point group                 C1      NOp   1
 Largest Abelian subgroup         C1      NOp   1
 Largest concise Abelian subgroup C1      NOp   1
                         Standard orientation:                         
 ---------------------------------------------------------------------
 Center     Atomic      Atomic             Coordinates (Angstroms)
 Number     Number       Type             X           Y           Z
 ---------------------------------------------------------------------
      1          6           0        1.226215   -0.203812   -0.008062
      2          6           0        0.021967    0.447061    0.011643
      3          6           0       -1.247874   -0.189657    0.016369
      4          1           0       -1.312160   -1.270478    0.016377
      5          1           0        1.267814   -1.280185   -0.020290
      6          1           0       -2.160811    0.371610   -0.116872
      7          1           0        2.160272    0.330421   -0.011823
      8          1           0        0.043036    1.527081    0.012904
 ---------------------------------------------------------------------
 Rotational constants (GHZ):          54.7940141          10.2052893           8.6086651
 Standard basis: CC-pVTZ (5D, 7F)
 There are   180 symmetry adapted cartesian basis functions of A   symmetry.
 There are   160 symmetry adapted basis functions of A   symmetry.
   160 basis functions,   241 primitive gaussians,   180 cartesian basis functions
    12 alpha electrons       11 beta electrons
       nuclear repulsion energy        64.7185093590 Hartrees.
 NAtoms=    8 NActive=    8 NUniq=    8 SFac= 1.00D+00 NAtFMM=   60 NAOKFM=F Big=F
 Integral buffers will be    131072 words long.
 Raffenetti 2 integral format.
 Two-electron integral symmetry is turned on.
 Nuclear repulsion after empirical dispersion term =       64.7153096857 Hartrees.
 One-electron integrals computed using PRISM.
 NBasis=   160 RedAO= T EigKep=  5.34D-04  NBF=   160
 NBsUse=   160 1.00D-06 EigRej= -1.00D+00 NBFU=   160
 Initial guess from the checkpoint file:  "/localscratch/339542/Gau-84136.chk"
 B after Tr=     0.000000    0.000000    0.000000
         Rot=    0.999897   -0.001089    0.000020    0.014326 Ang=  -1.65 deg.
 Initial guess <Sx>= 0.0000 <Sy>= 0.0000 <Sz>= 0.5000 <S**2>= 0.8207 S= 0.5348
 ExpMin= 1.03D-01 ExpMax= 8.24D+03 ExpMxC= 2.81D+02 IAcc=3 IRadAn=         5 AccDes= 0.00D+00
 Harris functional with IExCor=  419 and IRadAn=       5 diagonalized for initial guess.
 HarFok:  IExCor=  419 AccDes= 0.00D+00 IRadAn=         5 IDoV= 1 UseB2=F ITyADJ=14
 ICtDFT=  3500011 ScaDFX=  1.000000  1.000000  1.000000  1.000000
 FoFCou: FMM=F IPFlag=           0 FMFlag=      100000 FMFlg1=           0
         NFxFlg=           0 DoJE=T BraDBF=F KetDBF=T FulRan=T
         wScrn=  0.000000 ICntrl=       500 IOpCl=  0 I1Cent=   200000004 NGrid=           0
         NMat0=    1 NMatS0=      1 NMatT0=    0 NMatD0=    1 NMtDS0=    0 NMtDT0=    0
 Petite list used in FoFCou.
 Keep R1 and R2 ints in memory in canonical form, NReq=206286080.
 Requested convergence on RMS density matrix=1.00D-08 within 128 cycles.
 Requested convergence on MAX density matrix=1.00D-06.
 Requested convergence on             energy=1.00D-06.
 No special actions if energy rises.
 Integral accuracy reduced to 1.0D-05 until final iterations.
 Initial convergence to 1.0D-05 achieved.  Increase integral accuracy.
 SCF Done:  E(UB2PLYPD3) =  -117.033810502     A.U. after   15 cycles
            NFock= 15  Conv=0.41D-08     -V/T= 2.0050
 <Sx>= 0.0000 <Sy>= 0.0000 <Sz>= 0.5000 <S**2>= 0.8318 S= 0.5401
 <L.S>=  0.00000000000    
 Annihilation of the first spin contaminant:
 S**2 before annihilation     0.8318,   after     0.7510
 DoSCS=T DFT=T ScalE2(SS,OS)=  0.270000  0.270000
 ExpMin= 1.03D-01 ExpMax= 8.24D+03 ExpMxC= 2.81D+02 IAcc=3 IRadAn=         5 AccDes= 0.00D+00
 HarFok:  IExCor=  205 AccDes= 0.00D+00 IRadAn=         5 IDoV=-2 UseB2=F ITyADJ=14
 ICtDFT= 12500011 ScaDFX=  1.000000  1.000000  1.000000  1.000000
 Range of M.O.s used for correlation:     4   160
 NBasis=   160 NAE=    12 NBE=    11 NFC=     3 NFV=     0
 NROrb=    157 NOA=     9 NOB=     8 NVA=   148 NVB=   149

 **** Warning!!: The largest alpha MO coefficient is  0.12536572D+02


 **** Warning!!: The largest beta MO coefficient is  0.12558264D+02

 DoSCS=T DFT=T ScalE2(SS,OS)=  0.270000  0.270000
 Fully direct method using O(ONN) memory.
 JobTyp=2 Pass  1:  I=   4 to  12 NPSUse= 40 ParTrn=T ParDer=T DoDerP=T.
 JobTyp=3 Pass  1:  I=   4 to  11 NPSUse= 40 ParTrn=T ParDer=T DoDerP=T.
 Spin components of T(2) and E(2):
     alpha-alpha T2 =       0.3187161750D-01 E2=     -0.1980190784D-01
     alpha-beta  T2 =       0.1761684151D+00 E2=     -0.1180379818D+00
     beta-beta   T2 =       0.2516300063D-01 E2=     -0.1514169182D-01
 (S**2,0)=  0.83175D+00           (S**2,1)=  0.76446D+00
 Scaling Projection term by:   0.270000
 E(PUHF)=      -0.11704433602D+03        E(PMP2)=      -0.11718847317D+03
 E2(B2PLYPD3) =    -0.1529815814D+00 E(B2PLYPD3) =    -0.11718679208367D+03
          IDoAtm=11111111
          Differentiating once with respect to electric field.
                with respect to dipole field.
          Differentiating once with respect to nuclear coordinates.
 Keep R1 and R2 ints in memory in canonical form, NReq=206291708.
          There are     1 degrees of freedom in the 1st order CPHF.  IDoFFX=0 NUNeed=     1.
 LinEq1:  Iter=  0 NonCon=     1 RMS=1.23D-03 Max=3.96D-02 NDo=     1
 AX will form     1 AO Fock derivatives at one time.
 LinEq1:  Iter=  1 NonCon=     1 RMS=3.88D-04 Max=7.79D-03 NDo=     1
 LinEq1:  Iter=  2 NonCon=     1 RMS=1.99D-04 Max=3.08D-03 NDo=     1
 LinEq1:  Iter=  3 NonCon=     1 RMS=4.96D-05 Max=1.06D-03 NDo=     1
 LinEq1:  Iter=  4 NonCon=     1 RMS=3.01D-05 Max=7.41D-04 NDo=     1
 LinEq1:  Iter=  5 NonCon=     1 RMS=1.11D-05 Max=2.70D-04 NDo=     1
 LinEq1:  Iter=  6 NonCon=     1 RMS=3.42D-06 Max=5.95D-05 NDo=     1
 LinEq1:  Iter=  7 NonCon=     1 RMS=1.49D-06 Max=4.09D-05 NDo=     1
 LinEq1:  Iter=  8 NonCon=     1 RMS=8.17D-07 Max=1.42D-05 NDo=     1
 LinEq1:  Iter=  9 NonCon=     1 RMS=2.54D-07 Max=4.32D-06 NDo=     1
 LinEq1:  Iter= 10 NonCon=     1 RMS=5.45D-08 Max=6.80D-07 NDo=     1
 LinEq1:  Iter= 11 NonCon=     1 RMS=8.04D-09 Max=1.22D-07 NDo=     1
 LinEq1:  Iter= 12 NonCon=     1 RMS=1.24D-09 Max=1.16D-08 NDo=     1
 LinEq1:  Iter= 13 NonCon=     1 RMS=3.17D-10 Max=3.53D-09 NDo=     1
 LinEq1:  Iter= 14 NonCon=     0 RMS=5.60D-11 Max=7.95D-10 NDo=     1
 Linear equations converged to 1.000D-10 1.000D-09 after    14 iterations.
 End of Minotr F.D. properties file   721 does not exist.
 End of Minotr F.D. properties file   722 does not exist.
 End of Minotr F.D. properties file   788 does not exist.
 Calling FoFJK, ICntrl=  10002127 FMM=F ISym2X=0 I1Cent= 0 IOpClX= 1 NMat=1 NMatS=1 NMatT=0.
 ***** Axes restored to original set *****
 -------------------------------------------------------------------
 Center     Atomic                   Forces (Hartrees/Bohr)
 Number     Number              X              Y              Z
 -------------------------------------------------------------------
      1        6          -0.003277016   -0.001204543    0.001958082
      2        6          -0.020247940   -0.010715952    0.002114992
      3        6           0.021785917    0.009173186   -0.007726280
      4        1           0.000160415    0.001698509    0.000792691
      5        1           0.000522617   -0.002594329   -0.000154593
      6        1           0.001976095   -0.000025860    0.003260142
      7        1           0.000938550    0.001408065   -0.000094057
      8        1          -0.001858636    0.002260925   -0.000150977
 -------------------------------------------------------------------
 Cartesian Forces:  Max     0.021785917 RMS     0.007072066

 GradGradGradGradGradGradGradGradGradGradGradGradGradGradGradGradGradGrad
 Berny optimization.
 Using GEDIIS/GDIIS optimizer.
 FormGI is forming the generalized inverse of G from B-inverse, IUseBI=4.
 Internal  Forces:  Max     0.026471267 RMS     0.005621790
 Search for a local minimum.
 Step number   4 out of a maximum of  100
 All quantities printed in internal units (Hartrees-Bohrs-Radians)
 Mixed Optimization -- RFO/linear search
 Update second derivatives using D2CorX and points    3    4
 DE= -2.90D-03 DEPred=-5.97D-03 R= 4.86D-01
 Trust test= 4.86D-01 RLast= 2.66D-01 DXMaxT set to 8.49D-01
 ITU=  0  1  1  0
 Use linear search instead of GDIIS.
     Eigenvalues ---    0.01053   0.01576   0.01925   0.03043   0.03133
     Eigenvalues ---    0.15459   0.15968   0.16000   0.16127   0.17043
     Eigenvalues ---    0.22297   0.34297   0.34681   0.37140   0.37227
     Eigenvalues ---    0.37675   0.41221   0.60915
 RFO step:  Lambda=-1.20088422D-03 EMin= 1.05250943D-02
 Quartic linear search produced a step of -0.33183.
 Iteration  1 RMS(Cart)=  0.04368711 RMS(Int)=  0.00387441
 Iteration  2 RMS(Cart)=  0.00319844 RMS(Int)=  0.00245311
 Iteration  3 RMS(Cart)=  0.00000502 RMS(Int)=  0.00245310
 Iteration  4 RMS(Cart)=  0.00000000 RMS(Int)=  0.00245310
 Variable       Old X    -DE/DX   Delta X   Delta X   Delta X     New X
                                 (Linear)    (Quad)   (Total)
    R1        2.58709  -0.00074   0.00174   0.00476   0.00650   2.59359
    R2        2.03570   0.00261   0.00547   0.00599   0.01146   2.04716
    R3        2.03344   0.00152   0.00514   0.00308   0.00822   2.04166
    R4        2.68443  -0.02647  -0.05714  -0.01176  -0.06890   2.61552
    R5        2.04133   0.00220   0.00638   0.00609   0.01247   2.05380
    R6        2.04606  -0.00175  -0.00554   0.00246  -0.00308   2.04298
    R7        2.04075  -0.00160  -0.00767   0.00386  -0.00381   2.03694
    A1        2.10502   0.00108   0.00633   0.00395   0.01026   2.11528
    A2        2.12654  -0.00130   0.00435  -0.00642  -0.00209   2.12445
    A3        2.05163   0.00022  -0.01069   0.00247  -0.00823   2.04339
    A4        2.18129  -0.00228  -0.00584  -0.00626  -0.01211   2.16917
    A5        2.04676   0.00303   0.01258   0.00694   0.01951   2.06627
    A6        2.05507  -0.00075  -0.00688  -0.00045  -0.00734   2.04773
    A7        2.09498   0.00068  -0.01304   0.02398   0.00402   2.09900
    A8        2.12037  -0.00083   0.00483   0.01093   0.00883   2.12920
    A9        2.05852   0.00058   0.00795  -0.00675  -0.00574   2.05279
    D1       -0.00134   0.00016   0.00140   0.01458   0.01610   0.01476
    D2       -3.13081  -0.00039   0.00904  -0.00850   0.00043  -3.13038
    D3        3.14041   0.00022   0.00494   0.02314   0.02819  -3.11459
    D4        0.01093  -0.00033   0.01258   0.00006   0.01252   0.02345
    D5        0.01332   0.00029   0.03183   0.03868   0.07041   0.08373
    D6       -2.97910  -0.00320   0.03317  -0.18512  -0.15162  -3.13072
    D7       -3.14044   0.00086   0.02451   0.06191   0.08610  -3.05434
    D8        0.15032  -0.00263   0.02585  -0.16188  -0.13594   0.01439
         Item               Value     Threshold  Converged?
 Maximum Force            0.026471     0.000450     NO 
 RMS     Force            0.005622     0.000300     NO 
 Maximum Displacement     0.109557     0.001800     NO 
 RMS     Displacement     0.044779     0.001200     NO 
 Predicted change in Energy=-1.450040D-03
 GradGradGradGradGradGradGradGradGradGradGradGradGradGradGradGradGradGrad

                          Input orientation:                          
 ---------------------------------------------------------------------
 Center     Atomic      Atomic             Coordinates (Angstroms)
 Number     Number       Type             X           Y           Z
 ---------------------------------------------------------------------
      1          6           0        1.311699   -0.233235   -0.067583
      2          6           0        0.120699    0.418143    0.134642
      3          6           0       -1.105422   -0.214705    0.243250
      4          1           0       -1.162922   -1.294269    0.247094
      5          1           0        1.351646   -1.311060   -0.168872
      6          1           0       -2.020594    0.334938    0.392345
      7          1           0        2.249266    0.300903   -0.121706
      8          1           0        0.132180    1.501597    0.219378
 ---------------------------------------------------------------------
                    Distance matrix (angstroms):
                    1          2          3          4          5
     1  C    0.000000
     2  C    1.372468   0.000000
     3  C    2.437096   1.384076   0.000000
     4  H    2.710824   2.143054   1.081100   0.000000
     5  H    1.083311   2.144177   2.721952   2.548796   0.000000
     6  H    3.411529   2.158348   1.077903   1.846893   3.794242
     7  H    1.080400   2.147151   3.413646   3.784655   1.845635
     8  H    2.117369   1.086824   2.116111   3.081384   3.090125
                    6          7          8
     6  H    0.000000
     7  H    4.300827   0.000000
     8  H    2.454679   2.457653   0.000000
 Stoichiometry    C3H5(2)
 Framework group  C1[X(C3H5)]
 Deg. of freedom    18
 Full point group                 C1      NOp   1
 Largest Abelian subgroup         C1      NOp   1
 Largest concise Abelian subgroup C1      NOp   1
                         Standard orientation:                         
 ---------------------------------------------------------------------
 Center     Atomic      Atomic             Coordinates (Angstroms)
 Number     Number       Type             X           Y           Z
 ---------------------------------------------------------------------
      1          6           0        1.216315   -0.196647   -0.003786
      2          6           0        0.004314    0.447326    0.000675
      3          6           0       -1.220778   -0.196687   -0.007161
      4          1           0       -1.270165   -1.274532    0.060595
      5          1           0        1.277099   -1.277987   -0.027692
      6          1           0       -2.151645    0.346751   -0.013208
      7          1           0        2.148988    0.347784    0.027512
      8          1           0       -0.003381    1.534036    0.014421
 ---------------------------------------------------------------------
 Rotational constants (GHZ):          54.7468641          10.4778681           8.7966010
 Standard basis: CC-pVTZ (5D, 7F)
 There are   180 symmetry adapted cartesian basis functions of A   symmetry.
 There are   160 symmetry adapted basis functions of A   symmetry.
   160 basis functions,   241 primitive gaussians,   180 cartesian basis functions
    12 alpha electrons       11 beta electrons
       nuclear repulsion energy        65.2024269622 Hartrees.
[...]
 Atom     6 has atomic number  1 and mass   1.00783
 Atom     7 has atomic number  1 and mass   1.00783
 Atom     8 has atomic number  1 and mass   1.00783
 Molecular mass:    41.03913 amu.
 Principal axes and moments of inertia in atomic units:
                           1         2         3
     Eigenvalues --    32.76681 172.78261 205.54940
           X            1.00000  -0.00004  -0.00001
           Y            0.00004   1.00000   0.00001
           Z            0.00001  -0.00001   1.00000
 This molecule is an asymmetric top.
 Rotational symmetry number  1.
 Rotational temperatures (Kelvin)      2.64334     0.50129     0.42138
 Rotational constants (GHZ):          55.07834    10.44516     8.78009
 Zero-point vibrational energy     174637.9 (Joules/Mol)
                                   41.73947 (Kcal/Mol)
 Warning -- explicit consideration of   3 degrees of freedom as
           vibrations may cause significant error
 Vibrational temperatures:    620.28   776.82   812.77  1157.52  1190.78
          (Kelvin)           1358.32  1480.99  1510.83  1714.10  1853.43
                             2062.75  2187.74  2210.83  4552.23  4552.57
                             4562.34  4700.00  4703.92
 
 Zero-point correction=                           0.066516 (Hartree/Particle)
 Thermal correction to Energy=                    0.070307
 Thermal correction to Enthalpy=                  0.071251
 Thermal correction to Gibbs Free Energy=         0.041398
 Sum of electronic and zero-point Energies=           -117.121908
 Sum of electronic and thermal Energies=              -117.118118
 Sum of electronic and thermal Enthalpies=            -117.117174
 Sum of electronic and thermal Free Energies=         -117.147026
 
                     E (Thermal)             CV                S
                      KCal/Mol        Cal/Mol-Kelvin    Cal/Mol-Kelvin
 Total                   44.118             12.592             62.830
 Electronic               0.000              0.000              1.377
 Translational            0.889              2.981             37.063
 Rotational               0.889              2.981             21.681
 Vibrational             42.341              6.630              2.709
 Vibration     1          0.792              1.402              0.855
 Vibration     2          0.895              1.162              0.565
 Vibration     3          0.921              1.107              0.514
                       Q            Log10(Q)             Ln(Q)
 Total Bot       0.908210D-19        -19.041814        -43.845396
 Total V=0       0.357628D+12         11.553432         26.602760
 Vib (Bot)       0.359861D-30        -30.443865        -70.099591
 Vib (Bot)    1  0.403801D+00         -0.393832         -0.906832
 Vib (Bot)    2  0.293467D+00         -0.532441         -1.225990
 Vib (Bot)    3  0.273816D+00         -0.562541         -1.295299
 Vib (V=0)       0.141703D+01          0.151380          0.348566
 Vib (V=0)    1  0.114269D+01          0.057930          0.133389
 Vib (V=0)    2  0.107976D+01          0.033328          0.076740
 Vib (V=0)    3  0.107007D+01          0.029411          0.067720
 Electronic      0.200000D+01          0.301030          0.693147
 Translational   0.103336D+08          7.014251         16.150910
 Rotational      0.122115D+05          4.086771          9.410137
 ***** Axes restored to original set *****
 -------------------------------------------------------------------
 Center     Atomic                   Forces (Hartrees/Bohr)
 Number     Number              X              Y              Z
 -------------------------------------------------------------------
      1        6           0.000334136   -0.000194942   -0.000057314
      2        6          -0.000325482    0.000079216    0.000005875
      3        6           0.000035403    0.000041436    0.000041558
      4        1           0.000032518    0.000019508   -0.000023358
      5        1          -0.000067959    0.000073946    0.000043706
      6        1           0.000033999    0.000001209   -0.000025483
      7        1          -0.000088950    0.000047720   -0.000011145
      8        1           0.000046335   -0.000068094    0.000026163
 -------------------------------------------------------------------
 Cartesian Forces:  Max     0.000334136 RMS     0.000112444
 FormGI is forming the generalized inverse of G from B-inverse, IUseBI=4.

 GradGradGradGradGradGradGradGradGradGradGradGradGradGradGradGradGradGrad
 Berny optimization.
 Internal  Forces:  Max     0.000192347 RMS     0.000062421
 Search for a local minimum.
 Step number   1 out of a maximum of    2
 All quantities printed in internal units (Hartrees-Bohrs-Radians)
 Second derivative matrix not updated -- analytic derivatives used.
 ITU=  0
     Eigenvalues ---    0.01805   0.01848   0.02370   0.02850   0.03199
     Eigenvalues ---    0.10314   0.10621   0.10845   0.11180   0.13699
     Eigenvalues ---    0.18039   0.32021   0.35546   0.36374   0.36459
     Eigenvalues ---    0.36951   0.36972   0.53431
 Angle between quadratic step and forces=  52.26 degrees.
 Linear search not attempted -- first point.
 Iteration  1 RMS(Cart)=  0.00072513 RMS(Int)=  0.00000046
 Iteration  2 RMS(Cart)=  0.00000047 RMS(Int)=  0.00000009
 Variable       Old X    -DE/DX   Delta X   Delta X   Delta X     New X
                                 (Linear)    (Quad)   (Total)
    R1        2.60508   0.00019   0.00000   0.00068   0.00068   2.60575
    R2        2.04220  -0.00008   0.00000  -0.00025  -0.00025   2.04195
    R3        2.03760  -0.00005   0.00000  -0.00017  -0.00017   2.03743
    R4        2.60622  -0.00012   0.00000  -0.00046  -0.00046   2.60576
    R5        2.04805  -0.00007   0.00000  -0.00018  -0.00018   2.04787
    R6        2.04200  -0.00002   0.00000  -0.00005  -0.00005   2.04195
    R7        2.03752  -0.00003   0.00000  -0.00009  -0.00009   2.03743
    A1        2.10886  -0.00004   0.00000  -0.00037  -0.00037   2.10849
    A2        2.12072  -0.00007   0.00000  -0.00071  -0.00071   2.12001
    A3        2.05360   0.00010   0.00000   0.00108   0.00108   2.05468
    A4        2.17565   0.00002   0.00000   0.00012   0.00012   2.17577
    A5        2.05425  -0.00006   0.00000  -0.00054  -0.00054   2.05371
    A6        2.05329   0.00003   0.00000   0.00042   0.00042   2.05371
    A7        2.10877  -0.00003   0.00000  -0.00028  -0.00028   2.10849
    A8        2.12001  -0.00000   0.00000  -0.00000  -0.00000   2.12001
    A9        2.05440   0.00004   0.00000   0.00028   0.00028   2.05468
    D1        0.00108  -0.00002   0.00000  -0.00108  -0.00108   0.00000
    D2       -3.14014  -0.00003   0.00000  -0.00145  -0.00145  -3.14159
    D3       -3.14046  -0.00002   0.00000  -0.00113  -0.00113  -3.14159
    D4        0.00151  -0.00003   0.00000  -0.00151  -0.00151   0.00000
    D5        0.00081  -0.00002   0.00000  -0.00081  -0.00081  -0.00000
    D6        3.14108   0.00001   0.00000   0.00052   0.00052  -3.14159
    D7       -3.14116  -0.00001   0.00000  -0.00044  -0.00044   3.14159
    D8       -0.00089   0.00002   0.00000   0.00089   0.00089   0.00000
         Item               Value     Threshold  Converged?
 Maximum Force            0.000192     0.000450     YES
 RMS     Force            0.000062     0.000300     YES
 Maximum Displacement     0.001830     0.001800     NO 
 RMS     Displacement     0.000725     0.001200     YES
 Predicted change in Energy=-3.241277D-07
                           ----------------------------
                           ! Non-Optimized Parameters !
                           ! (Angstroms and Degrees)  !
 --------------------------                            --------------------------
 ! Name  Definition              Value          Derivative Info.                !
 --------------------------------------------------------------------------------
 ! R1    R(1,2)                  1.3789         -DE/DX =    0.0002              !
 ! R2    R(1,5)                  1.0806         -DE/DX =   -0.0001              !
 ! R3    R(1,7)                  1.0782         -DE/DX =   -0.0001              !
 ! R4    R(2,3)                  1.3789         -DE/DX =   -0.0001              !
 ! R5    R(2,8)                  1.0837         -DE/DX =   -0.0001              !
 ! R6    R(3,4)                  1.0806         -DE/DX =    0.0                 !
 ! R7    R(3,6)                  1.0782         -DE/DX =    0.0                 !
 ! A1    A(2,1,5)              120.8078         -DE/DX =    0.0                 !
 ! A2    A(2,1,7)              121.4675         -DE/DX =   -0.0001              !
 ! A3    A(5,1,7)              117.7247         -DE/DX =    0.0001              !
 ! A4    A(1,2,3)              124.6624         -DE/DX =    0.0                 !
 ! A5    A(1,2,8)              117.6688         -DE/DX =   -0.0001              !
 ! A6    A(3,2,8)              117.6688         -DE/DX =    0.0                 !
 ! A7    A(2,3,4)              120.8078         -DE/DX =    0.0                 !
 ! A8    A(2,3,6)              121.4675         -DE/DX =    0.0                 !
 ! A9    A(4,3,6)              117.7247         -DE/DX =    0.0                 !
 ! D1    D(5,1,2,3)              0.0001         -DE/DX =    0.0                 !
 ! D2    D(5,1,2,8)           -179.9999         -DE/DX =    0.0                 !
 ! D3    D(7,1,2,3)           -179.9999         -DE/DX =    0.0                 !
 ! D4    D(7,1,2,8)              0.0001         -DE/DX =    0.0                 !
 ! D5    D(1,2,3,4)             -0.0001         -DE/DX =    0.0                 !
 ! D6    D(1,2,3,6)           -179.9999         -DE/DX =    0.0                 !
 ! D7    D(8,2,3,4)            180.0            -DE/DX =    0.0                 !
 ! D8    D(8,2,3,6)              0.0001         -DE/DX =    0.0                 !
 --------------------------------------------------------------------------------
 GradGradGradGradGradGradGradGradGradGradGradGradGradGradGradGradGradGrad


 ----------------------------------------------------------------------

 Electric dipole moment (input orientation):
 (Debye = 10**-18 statcoulomb cm , SI units = C m)
                  (au)            (Debye)         (10**-30 SI)
   Tot        0.262801D-01      0.667973D-01      0.222812D+00
   x          0.441846D-03      0.112306D-02      0.374612D-02
   y          0.262083D-01      0.666149D-01      0.222203D+00
   z          0.189010D-02      0.480416D-02      0.160249D-01

 Dipole polarizability, Alpha (input orientation).
 (esu units = cm**3 , SI units = C**2 m**2 J**-1)
 Alpha(0;0):
               (au)            (10**-24 esu)      (10**-40 SI)
   iso        0.367066D+02      0.543936D+01      0.605210D+01
   aniso      0.290593D+02      0.430615D+01      0.479124D+01
   xx         0.541600D+02      0.802568D+01      0.892977D+01
   yx        -0.458093D-01     -0.678824D-02     -0.755294D-02
   yy         0.338224D+02      0.501196D+01      0.557656D+01
   zx        -0.426971D+01     -0.632706D+00     -0.703980D+00
   zy         0.806243D+00      0.119473D+00      0.132931D+00
   zz         0.221375D+02      0.328043D+01      0.364998D+01

 ----------------------------------------------------------------------

 Dipole orientation:
     6          2.49825451          0.04120878         -0.40767067
     6          0.20444466         -0.21021303          0.80131357
     6         -2.08699710         -0.48384187         -0.40979766
     1         -2.19552438         -0.51663119         -2.44864725
     1          2.61260462          0.03727741         -2.44666654
     1         -3.82605259         -0.67417125          0.63469031
     1          4.23552811          0.24784804          0.63683733
     1          0.20054526         -0.19095986          2.84927062

 Electric dipole moment (dipole orientation):
 (Debye = 10**-18 statcoulomb cm , SI units = C m)
                  (au)            (Debye)         (10**-30 SI)
   Tot        0.262801D-01      0.667973D-01      0.222812D+00
   x          0.000000D+00      0.000000D+00      0.000000D+00
   y          0.000000D+00      0.000000D+00      0.000000D+00
   z          0.262801D-01      0.667973D-01      0.222812D+00

 Dipole polarizability, Alpha (dipole orientation).
 (esu units = cm**3 , SI units = C**2 m**2 J**-1)
 Alpha(0;0):
               (au)            (10**-24 esu)      (10**-40 SI)
   iso        0.367066D+02      0.543936D+01      0.605210D+01
   aniso      0.290593D+02      0.430615D+01      0.479124D+01
   xx         0.542913D+02      0.804514D+01      0.895143D+01
   yx         0.375012D+01      0.555711D+00      0.618312D+00
   yy         0.219570D+02      0.325369D+01      0.362022D+01
   zx        -0.990709D-02     -0.146808D-02     -0.163346D-02
   zy         0.112145D+00      0.166182D-01      0.184902D-01
   zz         0.338715D+02      0.501923D+01      0.558465D+01

 ----------------------------------------------------------------------
 1\1\GINC-N68\Freq\UB2PLYPD3-FC\CC-pVTZ\C3H5(2)\ROOT\31-May-2019\0\\#N 
 Geom=AllCheck Guess=TCheck SCRF=Check GenChk UB2PLYPD3(FC)/CC-pVTZ Fre
 q\\Title Card Required\\0,2\C,1.3177025666,-0.2342457139,-0.0594898359
 \C,0.1170282499,0.4131565142,0.1396144983\C,-1.1037410917,-0.217470493
 9,0.2583102457\H,-1.1790244027,-1.2937904637,0.198982817\H,1.360089621
 3,-1.3113853871,-0.1360350345\H,-2.0128986765,0.3408635484,0.413977905
 4\H,2.2443683118,0.3104876304,-0.1442433881\H,0.1330266813,1.494696315
 6,0.2074322721\\Version=ES64L-G16RevB.01\State=2-A\HF=-117.0355222\MP2
 =-117.1884246\PUHF=-117.0458505\PMP2-0=-117.1900385\S2=0.827264\S2-1=0
 .76169\S2A=0.750948\RMSD=8.655e-10\RMSF=1.124e-04\ZeroPoint=0.0665161\
 Thermal=0.0703066\Dipole=0.0004418,0.0262083,0.0018901\DipoleDeriv=0.0
 194522,0.0436602,-0.0372371,0.0661644,0.0853979,0.0160477,-0.0357457,0
 .0190896,-0.2831146,-0.0607014,0.0028272,-0.008083,0.0029742,0.0931596
 ,0.0135603,-0.0078616,0.0134461,-0.1211747,0.0164089,-0.0364445,-0.042
 3877,-0.0590713,0.0868354,0.0320386,-0.0445236,0.0289746,-0.2813638,0.
 0283849,0.0320759,0.0167412,-0.0286567,-0.0873566,-0.0109508,0.0130245
 ,-0.0187893,0.1373498,0.0281047,-0.0374382,0.0121513,0.0232125,-0.0873
 932,-0.0179733,0.0160916,-0.0100964,0.1374707,-0.0375102,0.0312219,0.0
 254063,0.0682916,0.0090286,-0.0174823,0.0281065,-0.0126297,0.1363193,-
 0.0407837,-0.0328421,0.0215257,-0.0697781,0.0105525,0.0005278,0.019075
 1,-0.0042838,0.1380459,0.0466447,-0.0030605,0.0118832,-0.0031365,-0.11
 02242,-0.015768,0.0118331,-0.0157112,0.1364673\Polar=54.1599608,-0.045
 8093,33.8223709,-4.2697092,0.8062429,22.1374671\PG=C01 [X(C3H5)]\NImag
 =0\\0.65823406,0.01010369,0.64480875,-0.07430750,0.03569017,0.09487851
 ,-0.22957318,0.06565289,0.02813881,0.55082410,0.13398679,-0.18709258,-
 0.02667910,0.00509402,0.70374869,0.03257926,-0.01772889,-0.05223323,-0
 .05576908,0.03707676,0.13146834,-0.10155433,0.02074440,0.01569952,-0.2
 3451930,-0.13498537,0.01577202,0.65644792,-0.01841215,0.03359044,0.004
 06603,-0.06664395,-0.18398995,-0.00018676,-0.00174503,0.64527834,0.013
 10811,-0.00103034,0.00644290,0.02034990,0.00877059,-0.04899553,-0.0753
 7443,0.03656160,0.09501125,0.00110438,-0.00063917,-0.00069092,0.003746
 23,-0.02940078,-0.00194612,-0.05992312,-0.01456675,0.00344748,0.054162
 36,0.00190686,0.00118159,0.00007499,0.00044005,-0.01269082,-0.00108820
 ,-0.01726480,-0.34046926,-0.01794020,0.02194699,0.36024465,-0.00051506
 ,0.00040250,-0.00374958,-0.00005200,0.00280573,0.00353388,0.00329250,-
 0.01824927,-0.02810739,-0.00357987,0.01926701,0.01778223,-0.05925701,0
 .00540913,0.00461724,0.00460435,0.02890410,0.00172886,0.00106847,0.000
 72551,-0.00059852,-0.00007698,-0.00089839,-0.00004651,0.05317878,0.008
 10594,-0.34044850,-0.02174513,-0.00093160,-0.01310888,-0.00095441,-0.0
 0182825,0.00119760,0.00057191,0.00091169,0.00035839,-0.00009805,-0.011
 91668,0.36041871,0.00482629,-0.02141625,-0.02863638,-0.00028951,-0.004
 84977,0.00306786,-0.00073816,0.00024855,-0.00374305,0.00007109,0.00014
 119,0.00000214,-0.00560833,0.02424107,0.01846928,-0.00305866,-0.004094
 12,0.00085213,-0.01663475,0.01780909,0.00395395,-0.26174225,0.12669063
 ,0.03952004,0.00504364,-0.00373630,-0.00048138,0.00014882,0.00002663,-
 0.00003055,0.27623997,-0.00317682,-0.00079869,0.00000526,-0.01384455,0
 .01115628,0.00223893,0.13098905,-0.14145887,-0.02485351,0.02375806,-0.
 00949267,-0.00394486,-0.00035080,0.00028685,0.00007229,-0.13732595,0.1
 3864151,0.00092752,0.00012354,0.00538346,0.00184790,-0.00191750,0.0042
 8184,0.03984630,-0.02429646,-0.03018893,0.00128805,-0.00032423,0.00301
 480,-0.00005568,0.00002287,-0.00009380,-0.04327632,0.02608203,0.021907
 42,-0.26982992,-0.12670999,0.02373551,-0.01673554,-0.01730256,0.001652
 74,-0.00283142,0.00401763,0.00134802,0.00015844,-0.00001906,-0.0000358
 8,0.00440310,0.00331452,0.00006314,-0.00098143,-0.00071437,0.00009249,
 0.28484393,-0.13099560,-0.13761115,0.00954490,0.01434689,0.01120966,-0
 .00144196,0.00309931,-0.00089591,-0.00082568,0.00036041,0.00028184,-0.
 00002317,-0.02418669,-0.00922740,0.00233360,0.00074184,0.00051319,-0.0
 0006939,0.13720638,0.13457193,0.02341344,0.00900000,-0.02591031,0.0037
 9992,0.00268580,0.00434139,0.00126565,-0.00095456,0.00528588,-0.000011
 06,0.00002704,-0.00009981,-0.00174367,-0.00125051,0.00336561,0.0001849
 4,0.00012089,0.00005146,-0.02615947,-0.00996466,0.01733229,0.00393467,
 0.02953317,0.00195522,-0.06171192,-0.00410529,0.00202835,0.00305403,-0
 .03006590,-0.00180059,-0.00421494,-0.00237537,0.00141819,-0.00406954,0
 .00231774,0.00170603,0.00098465,0.00066537,-0.00067026,0.00097283,-0.0
 0057253,-0.00074973,0.06105022,-0.00151872,-0.01362986,-0.00095714,-0.
 00411375,-0.32923241,-0.01791546,0.00099069,-0.01325240,-0.00125438,-0
 .00237044,0.00058628,-0.00015990,0.00231381,0.00052323,-0.00077067,-0.
 00011183,0.00115241,0.00037913,0.00020743,0.00115784,0.00033599,0.0046
 0280,0.35269492,-0.00003206,-0.00504072,0.00382463,0.00197406,-0.01789
 252,-0.04546456,0.00023660,0.00281086,0.00429487,0.00142136,-0.0001576
 2,0.00762373,0.00170661,-0.00078774,0.00756835,-0.00072280,0.00027895,
 -0.00435625,-0.00069655,0.00044636,-0.00436651,-0.00388721,0.02034242,
 0.03087573\\-0.00033414,0.00019494,0.00005731,0.00032548,-0.00007922,-
 0.00000587,-0.00003540,-0.00004144,-0.00004156,-0.00003252,-0.00001951
 ,0.00002336,0.00006796,-0.00007395,-0.00004371,-0.00003400,-0.00000121
 ,0.00002548,0.00008895,-0.00004772,0.00001115,-0.00004633,0.00006809,-
 0.00002616\\\@


 NOBODY LOSES ALL THE TIME
 I HAD AN UNCLE NAMED
 SOL WHO WAS A BORN FAILURE AND
 NEARLY EVERYBODY SAID HE SHOULD HAVE GONE
 INTO VAUDEVILLE PERHAPS BECAUSE MY UNCLE SOL COULD
 SING MCCANN HE WAS A DIVER ON XMAS EVE LIKE HELL ITSELF WHICH
 MAY OR MAY NOT ACCOUNT FOR THE FACT THAT MY UNCLE
 SOL INDULGED IN THAT POSSIBLY MOST INEXCUSABLE
 OF ALL TO USE A HIGHFALOOTIN PHRASE
 LUXURIES THAT IS OR TO
 WIT FARMING AND BE
 IT NEEDLESSLY
 ADDED
 MY UNCLE SOL'S FARM     
 FAILED BECAUSE THE CHICKENS
 ATE THE VEGETABLES SO
 MY UNCLE SOL HAD A
 CHICKEN FARM TILL THE
 SKUNKS ATE THE CHICKENS WHEN 
 MY UNCLE SOL
 HAD A SKUNK FARM BUT
 THE SKUNKS CAUGHT COLD AND
 DIED AND SO
 MY UNCLE SOL IMITATED THE
 SKUNKS IN A SUBTLE MANNER
 OR BY DROWNING HIMSELF IN THE WATERTANK
 BUT SOMEBODY WHO'D GIVEN MY UNCLE SOL A VICTOR     
 VICTROLA AND RECORDS WHILE HE LIVED PRESENTED TO
 HIM UPON THE AUSPICIOUS OCCASION OF HIS DECEASE A
 SCRUMPTIOUS NOT TO MENTION SPLENDIFEROUS FUNERAL WITH
 TALL BOYS IN BLACK GLOVES AND FLOWERS AND EVERYTHING AND
 I REMEMBER WE ALL CRIED LIKE THE MISSOURI
 WHEN MY UNCLE SOL'S COFFIN LURCHED BECAUSE     
 SOMEBODY PRESSED A BUTTON
 (AND DOWN WENT
 MY UNCLE
 SOL
 AND STARTED A WORM FARM)
           E. E. CUMMINGS
 Job cpu time:       0 days  2 hours 19 minutes 57.9 seconds.
 Elapsed time:       0 days  0 hours  3 minutes 36.2 seconds.
 File lengths (MBytes):  RWF=   4493 Int=      0 D2E=      0 Chk=      6 Scr=      1
 Normal termination of Gaussian 16 at Fri May 31 22:46:45 2019.
