 Entering Gaussian System, Link 0=g16
 Initial command:
 /ichec/packages/gaussian/16b01/l1.exe "/localscratch/339543/Gau-53162.inp" -scrdir="/localscratch/339543/"
 Entering Link 1 = /ichec/packages/gaussian/16b01/l1.exe PID=     53177.
  
 Copyright (c) 1988-2017, Gaussian, Inc.  All Rights Reserved.
  
 This is part of the Gaussian(R) 16 program.  It is based on
 the Gaussian(R) 09 system (copyright 2009, Gaussian, Inc.),
 the Gaussian(R) 03 system (copyright 2003, Gaussian, Inc.),
 the Gaussian(R) 98 system (copyright 1998, Gaussian, Inc.),
 the Gaussian(R) 94 system (copyright 1995, Gaussian, Inc.),
 the Gaussian 92(TM) system (copyright 1992, Gaussian, Inc.),
 the Gaussian 90(TM) system (copyright 1990, Gaussian, Inc.),
 the Gaussian 88(TM) system (copyright 1988, Gaussian, Inc.),
 the Gaussian 86(TM) system (copyright 1986, Carnegie Mellon
 University), and the Gaussian 82(TM) system (copyright 1983,
 Carnegie Mellon University). Gaussian is a federally registered
 trademark of Gaussian, Inc.
  
 This software contains proprietary and confidential information,
 including trade secrets, belonging to Gaussian, Inc.
  
 This software is provided under written license and may be
 used, copied, transmitted, or stored only in accord with that
 written license.
  
 The following legend is applicable only to US Government
 contracts under FAR:
  
                    RESTRICTED RIGHTS LEGEND
  
 Use, reproduction and disclosure by the US Government is
 subject to restrictions as set forth in subparagraphs (a)
 and (c) of the Commercial Computer Software - Restricted
 Rights clause in FAR 52.227-19.
  
 Gaussian, Inc.
 340 Quinnipiac St., Bldg. 40, Wallingford CT 06492
  
  
 ---------------------------------------------------------------
 Warning -- This program may not be used in any manner that
 competes with the business of Gaussian, Inc. or will provide
 assistance to any competitor of Gaussian, Inc.  The licensee
 of this program is prohibited from giving any competitor of
 Gaussian, Inc. access to this program.  By using this program,
 the user acknowledges that Gaussian, Inc. is engaged in the
 business of creating and licensing software in the field of
 computational chemistry and represents and warrants to the
 licensee that it is not a competitor of Gaussian, Inc. and that
 it will not use this program in any manner prohibited above.
 ---------------------------------------------------------------
  

 Cite this work as:
 Gaussian 16, Revision B.01,
 M. J. Frisch, G. W. Trucks, H. B. Schlegel, G. E. Scuseria, 
 M. A. Robb, J. R. Cheeseman, G. Scalmani, V. Barone, 
 G. A. Petersson, H. Nakatsuji, X. Li, M. Caricato, A. V. Marenich, 
 J. Bloino, B. G. Janesko, R. Gomperts, B. Mennucci, H. P. Hratchian, 
 J. V. Ortiz, A. F. Izmaylov, J. L. Sonnenberg, D. Williams-Young, 
 F. Ding, F. Lipparini, F. Egidi, J. Goings, B. Peng, A. Petrone, 
 T. Henderson, D. Ranasinghe, V. G. Zakrzewski, J. Gao, N. Rega, 
 G. Zheng, W. Liang, M. Hada, M. Ehara, K. Toyota, R. Fukuda, 
 J. Hasegawa, M. Ishida, T. Nakajima, Y. Honda, O. Kitao, H. Nakai, 
 T. Vreven, K. Throssell, J. A. Montgomery, Jr., J. E. Peralta, 
 F. Ogliaro, M. J. Bearpark, J. J. Heyd, E. N. Brothers, K. N. Kudin, 
 V. N. Staroverov, T. A. Keith, R. Kobayashi, J. Normand, 
 K. Raghavachari, A. P. Rendell, J. C. Burant, S. S. Iyengar, 
 J. Tomasi, M. Cossi, J. M. Millam, M. Klene, C. Adamo, R. Cammi, 
 J. W. Ochterski, R. L. Martin, K. Morokuma, O. Farkas, 
 J. B. Foresman, and D. J. Fox, Gaussian, Inc., Wallingford CT, 2016.
 
 ******************************************
 Gaussian 16:  ES64L-G16RevB.01 20-Dec-2017
                 1-Jun-2019 
 ******************************************
 %mem=80GB
 %nproc=40
 Will use up to   40 processors via shared memory.
 ----------------------------------------------------------------------
 # opt=(maxcyc=500,modredundant) uB2PLYPD3/cc-pvtz scf=maxcyc=500 nosym
 m
 ----------------------------------------------------------------------
 1/6=500,18=120,19=15,38=1/1,3;
 2/9=110,12=2,15=1,17=6,18=5,40=1/2;
 3/5=16,6=1,11=2,25=1,30=1,71=1,74=-60,116=2/1,2,3;
 4//1;
 5/5=2,7=500,38=5/2;
 8/6=4,10=1/1;
 9/15=2,16=-3/6;
 10/5=1,31=1/2;
 6/7=2,8=2,9=2,10=2/1;
 7/12=2,30=1/1,2,3,16;
 1/6=500,18=20,19=15/3(2);
 2/9=110,15=1/2;
 99//99;
 2/9=110,15=1/2;
 3/5=16,6=1,11=2,25=1,30=1,71=1,74=-60,116=2/1,2,3;
 4/5=5,16=3,69=1/1;
 5/5=2,7=500,38=5/2;
 8/6=4,10=1/1;
 9/15=2,16=-3/6;
 10/5=1,31=1/2;
 7/12=2,30=1/1,2,3,16;
 1/6=500,18=20,19=15/3(-8);
 2/9=110,15=1/2;
 6/7=2,8=2,9=2,10=2/1;
 99/9=10/99;
 -------------------
 Title Card Required
 -------------------
 Symbolic Z-matrix:
 Charge =  0 Multiplicity = 1
 C                     1.27481  -0.22233   0.0001 
 C                     0.13448   0.45801   0.00012 
 C                    -1.22975  -0.16289  -0.00005 
 H                    -1.16569  -1.25215  -0.00194 
 H                     0.17055   1.54523  -0.00026 
 H                     1.2832   -1.30795  -0.00012 
 H                    -1.80101   0.15112  -0.878 
 H                     2.23525   0.27883  -0.00056 
 H                    -1.79955   0.1482    0.87986 
 
 The following ModRedundant input section has been read:
 D    *          2       3    *    R                                           
 D       1       2       3       4 S  36 10.000                                
 

 GradGradGradGradGradGradGradGradGradGradGradGradGradGradGradGradGradGrad
 Berny optimization.
 Initialization pass.
                           ----------------------------
                           !    Initial Parameters    !
                           ! (Angstroms and Degrees)  !
 --------------------------                            --------------------------
 ! Name  Definition              Value          Derivative Info.                !
 --------------------------------------------------------------------------------
 ! R1    R(1,2)                  1.3279         estimate D2E/DX2                !
 ! R2    R(1,6)                  1.0857         estimate D2E/DX2                !
 ! R3    R(1,8)                  1.0833         estimate D2E/DX2                !
 ! R4    R(2,3)                  1.4989         estimate D2E/DX2                !
 ! R5    R(2,5)                  1.0878         estimate D2E/DX2                !
 ! R6    R(3,4)                  1.0911         estimate D2E/DX2                !
 ! R7    R(3,7)                  1.0935         estimate D2E/DX2                !
 ! R8    R(3,9)                  1.0935         estimate D2E/DX2                !
 ! A1    A(2,1,6)              121.2633         estimate D2E/DX2                !
 ! A2    A(2,1,8)              121.6233         estimate D2E/DX2                !
 ! A3    A(6,1,8)              117.1133         estimate D2E/DX2                !
 ! A4    A(1,2,3)              124.7078         estimate D2E/DX2                !
 ! A5    A(1,2,5)              118.9207         estimate D2E/DX2                !
 ! A6    A(3,2,5)              116.3715         estimate D2E/DX2                !
 ! A7    A(2,3,4)              111.1057         estimate D2E/DX2                !
 ! A8    A(2,3,7)              110.8937         estimate D2E/DX2                !
 ! A9    A(2,3,9)              110.8757         estimate D2E/DX2                !
 ! A10   A(4,3,7)              108.4178         estimate D2E/DX2                !
 ! A11   A(4,3,9)              108.4199         estimate D2E/DX2                !
 ! A12   A(7,3,9)              106.9868         estimate D2E/DX2                !
 ! D1    D(6,1,2,3)              0.0039         estimate D2E/DX2                !
 ! D2    D(6,1,2,5)           -179.9633         estimate D2E/DX2                !
 ! D3    D(8,1,2,3)            179.951          estimate D2E/DX2                !
 ! D4    D(8,1,2,5)             -0.0162         estimate D2E/DX2                !
 ! D5    D(1,2,3,4)             -0.0974         Scan                            !
 --------------------------------------------------------------------------------
 Trust Radius=3.00D-01 FncErr=1.00D-07 GrdErr=1.00D-07 EigMax=2.50D+02 EigMin=1.00D-04
 Number of optimizations in scan=  37
 Number of steps in this run=    100 maximum allowed number of steps=    100.
 GradGradGradGradGradGradGradGradGradGradGradGradGradGradGradGradGradGrad

                          Input orientation:                          
 ---------------------------------------------------------------------
 Center     Atomic      Atomic             Coordinates (Angstroms)
 Number     Number       Type             X           Y           Z
 ---------------------------------------------------------------------
      1          6           0        1.274812   -0.222332    0.000099
      2          6           0        0.134476    0.458005    0.000124
      3          6           0       -1.229746   -0.162885   -0.000054
      4          1           0       -1.165686   -1.252151   -0.001938
      5          1           0        0.170545    1.545233   -0.000261
      6          1           0        1.283197   -1.307952   -0.000121
      7          1           0       -1.801008    0.151116   -0.877998
      8          1           0        2.235251    0.278832   -0.000555
      9          1           0       -1.799550    0.148195    0.879858
 ---------------------------------------------------------------------
                    Distance matrix (angstroms):
                    1          2          3          4          5
     1  C    0.000000
     2  C    1.327865   0.000000
     3  C    2.505263   1.498868   0.000000
     4  H    2.648879   2.148269   1.091150   0.000000
     5  H    2.084153   1.087826   2.208729   3.100141   0.000000
     6  H    1.085652   2.106695   2.761532   2.449519   3.062460
     7  H    3.220433   2.147412   1.093491   1.772082   2.569242
     8  H    1.083332   2.108402   3.493039   3.729649   2.422144
     9  H    3.219156   2.147177   1.093477   1.772094   2.570525
                    6          7          8          9
     6  H    0.000000
     7  H    3.523048   0.000000
     8  H    1.850484   4.132506   0.000000
     9  H    3.521087   1.757859   4.131805   0.000000
 Symmetry turned off by external request.
 Stoichiometry    C3H6
 Framework group  C1[X(C3H6)]
 Deg. of freedom    21
 Full point group                 C1      NOp   1
 Rotational constants (GHZ):          46.7285884           9.3549060           8.1877449
 Standard basis: CC-pVTZ (5D, 7F)
   174 basis functions,   258 primitive gaussians,   195 cartesian basis functions
    12 alpha electrons       12 beta electrons
       nuclear repulsion energy        70.8631595966 Hartrees.
 NAtoms=    9 NActive=    9 NUniq=    9 SFac= 1.00D+00 NAtFMM=   60 NAOKFM=F Big=F
 Integral buffers will be    131072 words long.
 Raffenetti 2 integral format.
 Two-electron integral symmetry is turned off.
 Nuclear repulsion after empirical dispersion term =       70.8596184315 Hartrees.
 One-electron integrals computed using PRISM.
 NBasis=   174 RedAO= T EigKep=  5.07D-04  NBF=   174
 NBsUse=   174 1.00D-06 EigRej= -1.00D+00 NBFU=   174
 ExpMin= 1.03D-01 ExpMax= 8.24D+03 ExpMxC= 2.81D+02 IAcc=3 IRadAn=         5 AccDes= 0.00D+00
 Harris functional with IExCor=  419 and IRadAn=       5 diagonalized for initial guess.
 HarFok:  IExCor=  419 AccDes= 0.00D+00 IRadAn=         5 IDoV= 1 UseB2=F ITyADJ=14
 ICtDFT=  3500011 ScaDFX=  1.000000  1.000000  1.000000  1.000000
 FoFCou: FMM=F IPFlag=           0 FMFlag=      100000 FMFlg1=           0
         NFxFlg=           0 DoJE=T BraDBF=F KetDBF=T FulRan=T
         wScrn=  0.000000 ICntrl=       500 IOpCl=  0 I1Cent=   200000004 NGrid=           0
         NMat0=    1 NMatS0=      1 NMatT0=    0 NMatD0=    1 NMtDS0=    0 NMtDT0=    0
 Symmetry not used in FoFCou.
 Initial guess <Sx>= 0.0000 <Sy>= 0.0000 <Sz>= 0.0000 <S**2>=-0.0000 S=-0.0000
 Keep R1 and R2 ints in memory in canonical form, NReq=272700278.
 Requested convergence on RMS density matrix=1.00D-08 within 500 cycles.
 Requested convergence on MAX density matrix=1.00D-06.
 Requested convergence on             energy=1.00D-06.
 No special actions if energy rises.
 Integral accuracy reduced to 1.0D-05 until final iterations.
 Initial convergence to 1.0D-05 achieved.  Increase integral accuracy.
 SCF Done:  E(UB2PLYPD3) =  -117.668710544     A.U. after   11 cycles
            NFock= 11  Conv=0.60D-08     -V/T= 2.0050
 <Sx>= 0.0000 <Sy>= 0.0000 <Sz>= 0.0000 <S**2>=-0.0000 S=-0.0000
 <L.S>=  0.00000000000    
 Annihilation of the first spin contaminant:
 S**2 before annihilation    -0.0000,   after     0.0000
 DoSCS=T DFT=T ScalE2(SS,OS)=  0.270000  0.270000
 ExpMin= 1.03D-01 ExpMax= 8.24D+03 ExpMxC= 2.81D+02 IAcc=3 IRadAn=         5 AccDes= 0.00D+00
 HarFok:  IExCor=  205 AccDes= 0.00D+00 IRadAn=         5 IDoV=-2 UseB2=F ITyADJ=14
 ICtDFT= 12500011 ScaDFX=  1.000000  1.000000  1.000000  1.000000
 Range of M.O.s used for correlation:     4   174
 NBasis=   174 NAE=    12 NBE=    12 NFC=     3 NFV=     0
 NROrb=    171 NOA=     9 NOB=     9 NVA=   162 NVB=   162

 **** Warning!!: The largest alpha MO coefficient is  0.12380463D+02


 **** Warning!!: The largest beta MO coefficient is  0.12380463D+02

 DoSCS=T DFT=T ScalE2(SS,OS)=  0.270000  0.270000
 Fully direct method using O(ONN) memory.
 JobTyp=2 Pass  1:  I=   4 to  12 NPSUse= 40 ParTrn=T ParDer=T DoDerP=T.
 JobTyp=3 Pass  1:  I=   4 to  12 NPSUse= 40 ParTrn=T ParDer=T DoDerP=T.
 Spin components of T(2) and E(2):
     alpha-alpha T2 =       0.2959933262D-01 E2=     -0.1839004973D-01
     alpha-beta  T2 =       0.1973818856D+00 E2=     -0.1299878109D+00
     beta-beta   T2 =       0.2959933262D-01 E2=     -0.1839004973D-01
 (S**2,0)=  0.00000D+00           (S**2,1)=  0.00000D+00
 E(PUHF)=      -0.11766871054D+03        E(PMP2)=      -0.11783547845D+03
 E2(B2PLYPD3) =    -0.1667679103D+00 E(B2PLYPD3) =    -0.11783547845394D+03
          IDoAtm=111111111
          Differentiating once with respect to electric field.
                with respect to dipole field.
          Differentiating once with respect to nuclear coordinates.
 Keep R1 and R2 ints in memory in canonical form, NReq=272706688.
          There are     1 degrees of freedom in the 1st order CPHF.  IDoFFX=0 NUNeed=     1.
 LinEq1:  Iter=  0 NonCon=     1 RMS=6.48D-04 Max=1.12D-02 NDo=     1
 AX will form     1 AO Fock derivatives at one time.
 LinEq1:  Iter=  1 NonCon=     1 RMS=2.67D-04 Max=2.86D-03 NDo=     1
 LinEq1:  Iter=  2 NonCon=     1 RMS=6.42D-05 Max=1.55D-03 NDo=     1
 LinEq1:  Iter=  3 NonCon=     1 RMS=3.42D-05 Max=6.80D-04 NDo=     1
 LinEq1:  Iter=  4 NonCon=     1 RMS=1.01D-05 Max=1.46D-04 NDo=     1
 LinEq1:  Iter=  5 NonCon=     1 RMS=2.56D-06 Max=2.57D-05 NDo=     1
 LinEq1:  Iter=  6 NonCon=     1 RMS=6.89D-07 Max=8.89D-06 NDo=     1
 LinEq1:  Iter=  7 NonCon=     1 RMS=2.61D-07 Max=3.58D-06 NDo=     1
 LinEq1:  Iter=  8 NonCon=     1 RMS=9.05D-08 Max=9.13D-07 NDo=     1
 LinEq1:  Iter=  9 NonCon=     1 RMS=1.11D-08 Max=1.40D-07 NDo=     1
 LinEq1:  Iter= 10 NonCon=     1 RMS=2.07D-09 Max=1.72D-08 NDo=     1
 LinEq1:  Iter= 11 NonCon=     1 RMS=3.27D-10 Max=4.31D-09 NDo=     1
 LinEq1:  Iter= 12 NonCon=     0 RMS=4.09D-11 Max=3.39D-10 NDo=     1
 Linear equations converged to 1.000D-10 1.000D-09 after    12 iterations.
 End of Minotr F.D. properties file   721 does not exist.
 End of Minotr F.D. properties file   722 does not exist.
 End of Minotr F.D. properties file   788 does not exist.

 **********************************************************************

            Population analysis using the SCF Density.

 **********************************************************************

 Alpha  occ. eigenvalues --  -10.61883 -10.60909 -10.60253  -0.90343  -0.78913
 Alpha  occ. eigenvalues --   -0.63910  -0.54016  -0.48951  -0.47885  -0.43613
 Alpha  occ. eigenvalues --   -0.40677  -0.30258
 Alpha virt. eigenvalues --    0.07482   0.08811   0.11687   0.12350   0.15638
 Alpha virt. eigenvalues --    0.16144   0.18203   0.23871   0.30392   0.30864
 Alpha virt. eigenvalues --    0.32390   0.36186   0.38002   0.39149   0.42377
 Alpha virt. eigenvalues --    0.48038   0.48800   0.50725   0.52529   0.53240
 Alpha virt. eigenvalues --    0.53608   0.55256   0.57857   0.60634   0.62191
 Alpha virt. eigenvalues --    0.70047   0.70853   0.73736   0.75003   0.79826
 Alpha virt. eigenvalues --    0.81803   0.95048   0.95066   0.98171   0.98425
 Alpha virt. eigenvalues --    1.07082   1.07731   1.08727   1.10756   1.12734
 Alpha virt. eigenvalues --    1.16891   1.17409   1.21999   1.23538   1.26460
 Alpha virt. eigenvalues --    1.29188   1.29686   1.36926   1.38530   1.41091
 Alpha virt. eigenvalues --    1.45087   1.46727   1.48801   1.51959   1.58318
 Alpha virt. eigenvalues --    1.58771   1.59797   1.63837   1.76728   1.93546
 Alpha virt. eigenvalues --    2.15983   2.20460   2.29078   2.34123   2.38914
 Alpha virt. eigenvalues --    2.39258   2.44799   2.48678   2.53360   2.59525
 Alpha virt. eigenvalues --    2.66609   2.72079   2.72391   2.78414   2.85424
 Alpha virt. eigenvalues --    2.87338   2.87975   2.90024   2.94278   2.97793
 Alpha virt. eigenvalues --    2.98657   3.01215   3.01493   3.02157   3.05870
 Alpha virt. eigenvalues --    3.09815   3.11383   3.14294   3.15677   3.17977
 Alpha virt. eigenvalues --    3.23348   3.23515   3.26499   3.31283   3.36960
 Alpha virt. eigenvalues --    3.39156   3.40407   3.43481   3.45538   3.51962
 Alpha virt. eigenvalues --    3.55825   3.56686   3.57693   3.58908   3.64832
 Alpha virt. eigenvalues --    3.72622   3.74098   3.78968   3.82381   3.83129
 Alpha virt. eigenvalues --    3.86565   3.87029   3.91382   3.95487   4.01220
 Alpha virt. eigenvalues --    4.01471   4.04124   4.05070   4.08121   4.14655
 Alpha virt. eigenvalues --    4.16029   4.17330   4.22687   4.24262   4.24792
 Alpha virt. eigenvalues --    4.33819   4.35106   4.38251   4.41135   4.51030
 Alpha virt. eigenvalues --    4.52434   4.56791   4.59894   4.67060   4.78229
 Alpha virt. eigenvalues --    4.83599   4.87323   4.94335   4.96652   4.99752
 Alpha virt. eigenvalues --    5.08265   5.09435   5.14460   5.16520   5.20186
 Alpha virt. eigenvalues --    5.32839   5.34016   5.36811   5.40741   5.44604
 Alpha virt. eigenvalues --    5.49955   5.55897   5.58067   5.75050   5.97807
 Alpha virt. eigenvalues --    6.00689   6.07035   6.13822   6.41569  11.04027
 Alpha virt. eigenvalues --   13.67277  14.30648
  Beta  occ. eigenvalues --  -10.61883 -10.60909 -10.60253  -0.90343  -0.78913
  Beta  occ. eigenvalues --   -0.63910  -0.54016  -0.48951  -0.47885  -0.43613
  Beta  occ. eigenvalues --   -0.40677  -0.30258
  Beta virt. eigenvalues --    0.07482   0.08811   0.11687   0.12350   0.15638
  Beta virt. eigenvalues --    0.16144   0.18203   0.23871   0.30392   0.30864
  Beta virt. eigenvalues --    0.32390   0.36186   0.38002   0.39149   0.42377
  Beta virt. eigenvalues --    0.48038   0.48800   0.50725   0.52529   0.53240
  Beta virt. eigenvalues --    0.53608   0.55256   0.57857   0.60634   0.62191
  Beta virt. eigenvalues --    0.70047   0.70853   0.73736   0.75003   0.79826
  Beta virt. eigenvalues --    0.81803   0.95048   0.95066   0.98171   0.98425
  Beta virt. eigenvalues --    1.07082   1.07731   1.08727   1.10756   1.12734
  Beta virt. eigenvalues --    1.16891   1.17409   1.21999   1.23538   1.26460
  Beta virt. eigenvalues --    1.29188   1.29686   1.36926   1.38530   1.41091
  Beta virt. eigenvalues --    1.45087   1.46727   1.48801   1.51959   1.58318
  Beta virt. eigenvalues --    1.58771   1.59797   1.63837   1.76728   1.93546
  Beta virt. eigenvalues --    2.15983   2.20460   2.29078   2.34123   2.38914
  Beta virt. eigenvalues --    2.39258   2.44799   2.48678   2.53360   2.59525
  Beta virt. eigenvalues --    2.66609   2.72079   2.72391   2.78414   2.85424
  Beta virt. eigenvalues --    2.87338   2.87975   2.90024   2.94278   2.97793
  Beta virt. eigenvalues --    2.98657   3.01215   3.01493   3.02157   3.05870
  Beta virt. eigenvalues --    3.09815   3.11383   3.14294   3.15677   3.17977
  Beta virt. eigenvalues --    3.23348   3.23515   3.26499   3.31283   3.36960
  Beta virt. eigenvalues --    3.39156   3.40407   3.43481   3.45538   3.51962
  Beta virt. eigenvalues --    3.55825   3.56686   3.57693   3.58908   3.64832
  Beta virt. eigenvalues --    3.72622   3.74098   3.78968   3.82381   3.83129
  Beta virt. eigenvalues --    3.86565   3.87029   3.91382   3.95487   4.01220
  Beta virt. eigenvalues --    4.01471   4.04124   4.05070   4.08121   4.14655
  Beta virt. eigenvalues --    4.16029   4.17330   4.22687   4.24262   4.24792
  Beta virt. eigenvalues --    4.33819   4.35106   4.38251   4.41135   4.51030
  Beta virt. eigenvalues --    4.52434   4.56791   4.59894   4.67060   4.78229
  Beta virt. eigenvalues --    4.83599   4.87323   4.94335   4.96652   4.99752
  Beta virt. eigenvalues --    5.08265   5.09435   5.14460   5.16520   5.20186
  Beta virt. eigenvalues --    5.32839   5.34016   5.36811   5.40741   5.44604
  Beta virt. eigenvalues --    5.49955   5.55897   5.58067   5.75050   5.97807
  Beta virt. eigenvalues --    6.00689   6.07035   6.13822   6.41569  11.04027
  Beta virt. eigenvalues --   13.67277  14.30648
          Condensed to atoms (all electrons):
               1          2          3          4          5          6
     1  C    4.948408   0.640371  -0.058419  -0.003054  -0.045606   0.407669
     2  C    0.640371   4.895798   0.352233  -0.039879   0.412899  -0.048376
     3  C   -0.058419   0.352233   4.781290   0.408859  -0.040023  -0.007378
     4  H   -0.003054  -0.039879   0.408859   0.584893   0.005813   0.004493
     5  H   -0.045606   0.412899  -0.040023   0.005813   0.544666   0.006902
     6  H    0.407669  -0.048376  -0.007378   0.004493   0.006902   0.555527
     7  H    0.000494  -0.040128   0.409559  -0.028049  -0.002534   0.000114
     8  H    0.419522  -0.046344   0.006649  -0.000015  -0.008241  -0.035961
     9  H    0.000460  -0.040158   0.409510  -0.028033  -0.002499   0.000116
               7          8          9
     1  C    0.000494   0.419522   0.000460
     2  C   -0.040128  -0.046344  -0.040158
     3  C    0.409559   0.006649   0.409510
     4  H   -0.028049  -0.000015  -0.028033
     5  H   -0.002534  -0.008241  -0.002499
     6  H    0.000114  -0.035961   0.000116
     7  H    0.600902  -0.000326  -0.037592
     8  H   -0.000326   0.542145  -0.000326
     9  H   -0.037592  -0.000326   0.600932
          Atomic-Atomic Spin Densities.
               1          2          3          4          5          6
     1  C   -0.000000   0.000000  -0.000000   0.000000   0.000000   0.000000
     2  C    0.000000   0.000000   0.000000   0.000000  -0.000000  -0.000000
     3  C   -0.000000   0.000000  -0.000000  -0.000000  -0.000000   0.000000
     4  H    0.000000   0.000000  -0.000000  -0.000000   0.000000   0.000000
     5  H    0.000000  -0.000000  -0.000000   0.000000   0.000000   0.000000
     6  H    0.000000  -0.000000   0.000000   0.000000   0.000000   0.000000
     7  H   -0.000000   0.000000  -0.000000   0.000000   0.000000   0.000000
     8  H   -0.000000   0.000000   0.000000  -0.000000   0.000000  -0.000000
     9  H   -0.000000  -0.000000   0.000000   0.000000  -0.000000  -0.000000
               7          8          9
     1  C   -0.000000  -0.000000  -0.000000
     2  C    0.000000   0.000000  -0.000000
     3  C   -0.000000   0.000000   0.000000
     4  H    0.000000  -0.000000   0.000000
     5  H    0.000000   0.000000  -0.000000
     6  H    0.000000  -0.000000  -0.000000
     7  H    0.000000  -0.000000   0.000000
     8  H   -0.000000   0.000000   0.000000
     9  H    0.000000   0.000000   0.000000
 Mulliken charges and spin densities:
               1          2
     1  C   -0.309844  -0.000000
     2  C   -0.086416   0.000000
     3  C   -0.262280  -0.000000
     4  H    0.094973   0.000000
     5  H    0.128623   0.000000
     6  H    0.116895   0.000000
     7  H    0.097560   0.000000
     8  H    0.122898  -0.000000
     9  H    0.097591   0.000000
 Sum of Mulliken charges =  -0.00000   0.00000
 Mulliken charges and spin densities with hydrogens summed into heavy atoms:
               1          2
     1  C   -0.070052  -0.000000
     2  C    0.042207   0.000000
     3  C    0.027844  -0.000000
 Electronic spatial extent (au):  <R**2>=            196.6610
 Charge=             -0.0000 electrons
 Dipole moment (field-independent basis, Debye):
    X=             -0.3789    Y=              0.0788    Z=             -0.0008  Tot=              0.3870
 Quadrupole moment (field-independent basis, Debye-Ang):
   XX=            -19.4088   YY=            -19.0390   ZZ=            -21.9596
   XY=             -0.1738   XZ=             -0.0014   YZ=             -0.0003
 Traceless Quadrupole moment (field-independent basis, Debye-Ang):
   XX=              0.7270   YY=              1.0968   ZZ=             -1.8238
   XY=             -0.1738   XZ=             -0.0014   YZ=             -0.0003
 Octapole moment (field-independent basis, Debye-Ang**2):
  XXX=              1.8824  YYY=             -0.1873  ZZZ=              0.0017  XYY=              0.5002
  XXY=              0.7481  XXZ=             -0.0051  XZZ=             -2.6929  YZZ=              0.2407
  YYZ=             -0.0043  XYZ=              0.0006
 Hexadecapole moment (field-independent basis, Debye-Ang**3):
 XXXX=           -183.5138 YYYY=            -51.7394 ZZZZ=            -32.2038 XXXY=              1.0458
 XXXZ=             -0.0043 YYYX=             -0.2554 YYYZ=              0.0022 ZZZX=             -0.0075
 ZZZY=             -0.0014 XXYY=            -40.7901 XXZZ=            -37.3082 YYZZ=            -15.7074
 XXYZ=             -0.0043 YYXZ=              0.0024 ZZXY=             -0.6924
 N-N= 7.085961843154D+01 E-N=-4.141352362570D+02  KE= 1.170830710374D+02
                          Isotropic Fermi Contact Couplings
        Atom                 a.u.       MegaHertz       Gauss      10(-4) cm-1
     1  C(13)              0.00000       0.00000       0.00000       0.00000
     2  C(13)              0.00000       0.00000       0.00000       0.00000
     3  C(13)              0.00000       0.00000       0.00000       0.00000
     4  H(1)              -0.00000      -0.00000      -0.00000      -0.00000
     5  H(1)               0.00000       0.00000       0.00000       0.00000
     6  H(1)              -0.00000      -0.00000      -0.00000      -0.00000
     7  H(1)               0.00000       0.00000       0.00000       0.00000
     8  H(1)               0.00000       0.00000       0.00000       0.00000
     9  H(1)              -0.00000      -0.00000      -0.00000      -0.00000
 --------------------------------------------------------
       Center         ----  Spin Dipole Couplings  ----
                      3XX-RR        3YY-RR        3ZZ-RR
 --------------------------------------------------------
     1   Atom        0.000000      0.000000      0.000000
     2   Atom        0.000000      0.000000      0.000000
     3   Atom        0.000000      0.000000      0.000000
     4   Atom        0.000000      0.000000      0.000000
     5   Atom        0.000000      0.000000      0.000000
     6   Atom        0.000000      0.000000      0.000000
     7   Atom        0.000000      0.000000      0.000000
     8   Atom        0.000000      0.000000      0.000000
     9   Atom        0.000000      0.000000      0.000000
 --------------------------------------------------------
                        XY            XZ            YZ
 --------------------------------------------------------
     1   Atom        0.000000      0.000000      0.000000
     2   Atom        0.000000      0.000000      0.000000
     3   Atom        0.000000      0.000000      0.000000
     4   Atom        0.000000      0.000000      0.000000
     5   Atom        0.000000      0.000000      0.000000
     6   Atom        0.000000      0.000000      0.000000
     7   Atom        0.000000      0.000000      0.000000
     8   Atom        0.000000      0.000000      0.000000
     9   Atom        0.000000      0.000000      0.000000
 --------------------------------------------------------


 ---------------------------------------------------------------------------------
              Anisotropic Spin Dipole Couplings in Principal Axis System
 ---------------------------------------------------------------------------------

       Atom             a.u.   MegaHertz   Gauss  10(-4) cm-1        Axes

              Baa     0.0000     0.000     0.000     0.000  1.0000  0.0000  0.0000
     1 C(13)  Bbb     0.0000     0.000     0.000     0.000 -0.0000  1.0000  0.0000
              Bcc     0.0000     0.000     0.000     0.000  0.0000  0.0000  1.0000
 
              Baa     0.0000     0.000     0.000     0.000  1.0000  0.0000  0.0000
     2 C(13)  Bbb     0.0000     0.000     0.000     0.000 -0.0000  1.0000  0.0000
              Bcc     0.0000     0.000     0.000     0.000  0.0000  0.0000  1.0000
 
              Baa     0.0000     0.000     0.000     0.000  1.0000  0.0000  0.0000
     3 C(13)  Bbb     0.0000     0.000     0.000     0.000 -0.0000  1.0000  0.0000
              Bcc     0.0000     0.000     0.000     0.000  0.0000  0.0000  1.0000
 
              Baa     0.0000     0.000     0.000     0.000  1.0000  0.0000  0.0000
     4 H(1)   Bbb     0.0000     0.000     0.000     0.000 -0.0000  1.0000  0.0000
              Bcc     0.0000     0.000     0.000     0.000  0.0000  0.0000  1.0000
 
              Baa     0.0000     0.000     0.000     0.000  1.0000  0.0000  0.0000
     5 H(1)   Bbb     0.0000     0.000     0.000     0.000 -0.0000  1.0000  0.0000
              Bcc     0.0000     0.000     0.000     0.000  0.0000  0.0000  1.0000
 
              Baa     0.0000     0.000     0.000     0.000  1.0000  0.0000  0.0000
     6 H(1)   Bbb     0.0000     0.000     0.000     0.000 -0.0000  1.0000  0.0000
              Bcc     0.0000     0.000     0.000     0.000  0.0000  0.0000  1.0000
 
              Baa     0.0000     0.000     0.000     0.000  1.0000  0.0000  0.0000
     7 H(1)   Bbb     0.0000     0.000     0.000     0.000 -0.0000  1.0000  0.0000
              Bcc     0.0000     0.000     0.000     0.000  0.0000  0.0000  1.0000
 
              Baa     0.0000     0.000     0.000     0.000  1.0000  0.0000  0.0000
     8 H(1)   Bbb     0.0000     0.000     0.000     0.000 -0.0000  1.0000  0.0000
              Bcc     0.0000     0.000     0.000     0.000  0.0000  0.0000  1.0000
 
              Baa     0.0000     0.000     0.000     0.000  1.0000  0.0000  0.0000
     9 H(1)   Bbb     0.0000     0.000     0.000     0.000 -0.0000  1.0000  0.0000
              Bcc     0.0000     0.000     0.000     0.000  0.0000  0.0000  1.0000
 

 ---------------------------------------------------------------------------------

 Calling FoFJK, ICntrl=  10002127 FMM=F ISym2X=0 I1Cent= 0 IOpClX= 1 NMat=1 NMatS=1 NMatT=0.
 -------------------------------------------------------------------
 Center     Atomic                   Forces (Hartrees/Bohr)
 Number     Number              X              Y              Z
 -------------------------------------------------------------------
      1        6           0.003180592   -0.001818138   -0.000052549
      2        6          -0.002392940    0.001846922   -0.000060070
      3        6           0.000356971    0.000258286    0.000025444
      4        1          -0.000324076    0.001730395    0.000013262
      5        1          -0.000085951   -0.002281671    0.000023528
      6        1           0.000077662    0.002412110    0.000013857
      7        1           0.000608907   -0.000548819    0.001450960
      8        1          -0.001989194   -0.001049216    0.000033380
      9        1           0.000568029   -0.000549870   -0.001447811
 -------------------------------------------------------------------
 Cartesian Forces:  Max     0.003180592 RMS     0.001325749

 GradGradGradGradGradGradGradGradGradGradGradGradGradGradGradGradGradGrad
 Berny optimization.
 FormGI is forming the generalized inverse of G from B-inverse, IUseBI=4.
 Internal  Forces:  Max     0.002411269 RMS     0.001083178
 Search for a local minimum.
 Step number   1 out of a maximum of  100 on scan point     1 out of    37
 All quantities printed in internal units (Hartrees-Bohrs-Radians)
 Mixed Optimization -- RFO/linear search
 Second derivative matrix not updated -- first step.
 ITU=  0
     Eigenvalues ---    0.03043   0.03043   0.03043   0.16000   0.16000
     Eigenvalues ---    0.16000   0.16000   0.16000   0.16000   0.16000
     Eigenvalues ---    0.16000   0.22000   0.32496   0.34412   0.34414
     Eigenvalues ---    0.34680   0.35065   0.35320   0.35595   0.60013
     Eigenvalues --- 1000.000001000.000001000.000001000.000001000.00000
 RFO step:  Lambda=-8.47403112D-05 EMin= 3.04296771D-02
 Linear search not attempted -- first point.
 Iteration  1 RMS(Cart)=  0.00377035 RMS(Int)=  0.00000462
 Iteration  2 RMS(Cart)=  0.00000682 RMS(Int)=  0.00000069
 Iteration  3 RMS(Cart)=  0.00000000 RMS(Int)=  0.00000069
 Iteration  1 RMS(Cart)=  0.00000000 RMS(Int)=  0.00000000
 Variable       Old X    -DE/DX   Delta X   Delta X   Delta X     New X
                                 (Linear)    (Quad)   (Total)
    R1        2.50930   0.00132   0.00000   0.00220   0.00220   2.51151
    R2        2.05159  -0.00241   0.00000  -0.00683  -0.00683   2.04476
    R3        2.04720  -0.00225   0.00000  -0.00632  -0.00632   2.04088
    R4        2.83245  -0.00147   0.00000  -0.00452  -0.00452   2.82793
    R5        2.05569  -0.00228   0.00000  -0.00651  -0.00651   2.04918
    R6        2.06197  -0.00175   0.00000  -0.00504  -0.00504   2.05694
    R7        2.06640  -0.00164   0.00000  -0.00477  -0.00477   2.06163
    R8        2.06637  -0.00162   0.00000  -0.00470  -0.00470   2.06167
    A1        2.11644   0.00012   0.00000   0.00078   0.00078   2.11722
    A2        2.12273  -0.00005   0.00000  -0.00032  -0.00032   2.12240
    A3        2.04401  -0.00007   0.00000  -0.00045  -0.00045   2.04356
    A4        2.17656   0.00056   0.00000   0.00253   0.00253   2.17909
    A5        2.07556  -0.00027   0.00000  -0.00120  -0.00120   2.07436
    A6        2.03107  -0.00029   0.00000  -0.00133  -0.00133   2.02974
    A7        1.93916   0.00025   0.00000   0.00154   0.00154   1.94070
    A8        1.93546   0.00024   0.00000   0.00147   0.00147   1.93693
    A9        1.93515   0.00031   0.00000   0.00193   0.00192   1.93707
   A10        1.89225  -0.00021   0.00000  -0.00129  -0.00129   1.89095
   A11        1.89228  -0.00019   0.00000  -0.00120  -0.00120   1.89108
   A12        1.86727  -0.00044   0.00000  -0.00272  -0.00272   1.86455
    D1        0.00007   0.00002   0.00000   0.00055   0.00055   0.00062
    D2       -3.14095  -0.00004   0.00000  -0.00132  -0.00132   3.14091
    D3        3.14074   0.00006   0.00000   0.00185   0.00185  -3.14060
    D4       -0.00028  -0.00000   0.00000  -0.00002  -0.00002  -0.00030
    D5       -0.00170   0.00003   0.00000   0.00000   0.00000  -0.00170
         Item               Value     Threshold  Converged?
 Maximum Force            0.002411     0.000450     NO 
 RMS     Force            0.001105     0.000300     NO 
 Maximum Displacement     0.009565     0.001800     NO 
 RMS     Displacement     0.003769     0.001200     NO 
 Predicted change in Energy=-4.238124D-05
 GradGradGradGradGradGradGradGradGradGradGradGradGradGradGradGradGradGrad

                          Input orientation:                          
 ---------------------------------------------------------------------
 Center     Atomic      Atomic             Coordinates (Angstroms)
 Number     Number       Type             X           Y           Z
 ---------------------------------------------------------------------
      1          6           0        1.276005   -0.222923   -0.000446
      2          6           0        0.133694    0.456378   -0.000481
      3          6           0       -1.229031   -0.162021   -0.000002
      4          1           0       -1.167994   -1.248793   -0.001342
      5          1           0        0.169401    1.540171    0.000353
      6          1           0        1.286751   -1.304911   -0.000626
      7          1           0       -1.800236    0.150866   -0.875238
      8          1           0        2.232603    0.278372    0.000111
      9          1           0       -1.798902    0.148921    0.876824
 ---------------------------------------------------------------------
                    Distance matrix (angstroms):
                    1          2          3          4          5
     1  C    0.000000
     2  C    1.329031   0.000000
     3  C    2.505776   1.496475   0.000000
     4  H    2.650573   2.145227   1.088485   0.000000
     5  H    2.081604   1.084381   2.202968   3.093048   0.000000
     6  H    1.082041   2.105155   2.763215   2.455386   3.056626
     7  H    3.219975   2.144441   1.090969   1.767051   2.564430
     8  H    1.079989   2.106443   3.489535   3.727773   2.418458
     9  H    3.219149   2.144556   1.090991   1.767151   2.564760
                    6          7          8          9
     6  H    0.000000
     7  H    3.523311   0.000000
     8  H    1.844294   4.128715   0.000000
     9  H    3.522045   1.752064   4.127761   0.000000
 Symmetry turned off by external request.
 Stoichiometry    C3H6
 Framework group  C1[X(C3H6)]
 Deg. of freedom    21
 Full point group                 C1      NOp   1
 Rotational constants (GHZ):          46.9920233           9.3549962           8.1931410
 Standard basis: CC-pVTZ (5D, 7F)
   174 basis functions,   258 primitive gaussians,   195 cartesian basis functions
    12 alpha electrons       12 beta electrons
       nuclear repulsion energy        70.9368515422 Hartrees.
 NAtoms=    9 NActive=    9 NUniq=    9 SFac= 1.00D+00 NAtFMM=   60 NAOKFM=F Big=F
 Integral buffers will be    131072 words long.
 Raffenetti 2 integral format.
 Two-electron integral symmetry is turned off.
 Nuclear repulsion after empirical dispersion term =       70.9333094526 Hartrees.
 One-electron integrals computed using PRISM.
 NBasis=   174 RedAO= T EigKep=  5.08D-04  NBF=   174
 NBsUse=   174 1.00D-06 EigRej= -1.00D+00 NBFU=   174
 Initial guess from the checkpoint file:  "/localscratch/339543/Gau-53177.chk"
 B after Tr=     0.000443   -0.000533   -0.000432
         Rot=    1.000000    0.000046   -0.000060    0.000079 Ang=   0.01 deg.
 Initial guess <Sx>= 0.0000 <Sy>= 0.0000 <Sz>= 0.0000 <S**2>= 0.0000 S= 0.0000
 Keep R1 and R2 ints in memory in canonical form, NReq=272700278.
 Requested convergence on RMS density matrix=1.00D-08 within 500 cycles.
 Requested convergence on MAX density matrix=1.00D-06.
 Requested convergence on             energy=1.00D-06.
 No special actions if energy rises.
 SCF Done:  E(UB2PLYPD3) =  -117.668821906     A.U. after    8 cycles
            NFock=  8  Conv=0.30D-08     -V/T= 2.0048
 <Sx>= 0.0000 <Sy>= 0.0000 <Sz>= 0.0000 <S**2>=-0.0000 S=-0.0000
 <L.S>=  0.00000000000    
 Annihilation of the first spin contaminant:
 S**2 before annihilation    -0.0000,   after     0.0000
 DoSCS=T DFT=T ScalE2(SS,OS)=  0.270000  0.270000
 ExpMin= 1.03D-01 ExpMax= 8.24D+03 ExpMxC= 2.81D+02 IAcc=3 IRadAn=         5 AccDes= 0.00D+00
 HarFok:  IExCor=  205 AccDes= 0.00D+00 IRadAn=         5 IDoV=-2 UseB2=F ITyADJ=14
 ICtDFT= 12500011 ScaDFX=  1.000000  1.000000  1.000000  1.000000
 Range of M.O.s used for correlation:     4   174
 NBasis=   174 NAE=    12 NBE=    12 NFC=     3 NFV=     0
 NROrb=    171 NOA=     9 NOB=     9 NVA=   162 NVB=   162

 **** Warning!!: The largest alpha MO coefficient is  0.12363457D+02


 **** Warning!!: The largest beta MO coefficient is  0.12363457D+02

 DoSCS=T DFT=T ScalE2(SS,OS)=  0.270000  0.270000
 Fully direct method using O(ONN) memory.
 JobTyp=2 Pass  1:  I=   4 to  12 NPSUse= 40 ParTrn=T ParDer=T DoDerP=T.
 JobTyp=3 Pass  1:  I=   4 to  12 NPSUse= 40 ParTrn=T ParDer=T DoDerP=T.
 Spin components of T(2) and E(2):
     alpha-alpha T2 =       0.2955489938D-01 E2=     -0.1838835616D-01
     alpha-beta  T2 =       0.1969577209D+00 E2=     -0.1299226683D+00
     beta-beta   T2 =       0.2955489938D-01 E2=     -0.1838835616D-01
 (S**2,0)=  0.00000D+00           (S**2,1)=  0.00000D+00
 E(PUHF)=      -0.11766882191D+03        E(PMP2)=      -0.11783552129D+03
 E2(B2PLYPD3) =    -0.1666993806D+00 E(B2PLYPD3) =    -0.11783552128712D+03
          IDoAtm=111111111
          Differentiating once with respect to electric field.
                with respect to dipole field.
          Differentiating once with respect to nuclear coordinates.
 Keep R1 and R2 ints in memory in canonical form, NReq=272706688.
          There are     1 degrees of freedom in the 1st order CPHF.  IDoFFX=0 NUNeed=     1.
 LinEq1:  Iter=  0 NonCon=     1 RMS=6.48D-04 Max=1.13D-02 NDo=     1
 AX will form     1 AO Fock derivatives at one time.
 LinEq1:  Iter=  1 NonCon=     1 RMS=2.66D-04 Max=2.84D-03 NDo=     1
 LinEq1:  Iter=  2 NonCon=     1 RMS=6.42D-05 Max=1.56D-03 NDo=     1
 LinEq1:  Iter=  3 NonCon=     1 RMS=3.43D-05 Max=6.79D-04 NDo=     1
 LinEq1:  Iter=  4 NonCon=     1 RMS=1.01D-05 Max=1.45D-04 NDo=     1
 LinEq1:  Iter=  5 NonCon=     1 RMS=2.56D-06 Max=2.56D-05 NDo=     1
 LinEq1:  Iter=  6 NonCon=     1 RMS=6.89D-07 Max=8.86D-06 NDo=     1
 LinEq1:  Iter=  7 NonCon=     1 RMS=2.62D-07 Max=3.58D-06 NDo=     1
 LinEq1:  Iter=  8 NonCon=     1 RMS=9.01D-08 Max=9.14D-07 NDo=     1
 LinEq1:  Iter=  9 NonCon=     1 RMS=1.11D-08 Max=1.38D-07 NDo=     1
 LinEq1:  Iter= 10 NonCon=     1 RMS=2.06D-09 Max=1.71D-08 NDo=     1
 LinEq1:  Iter= 11 NonCon=     1 RMS=3.25D-10 Max=4.29D-09 NDo=     1
 LinEq1:  Iter= 12 NonCon=     0 RMS=4.04D-11 Max=3.25D-10 NDo=     1
 Linear equations converged to 1.000D-10 1.000D-09 after    12 iterations.
 End of Minotr F.D. properties file   721 does not exist.
 End of Minotr F.D. properties file   722 does not exist.
 End of Minotr F.D. properties file   788 does not exist.
 Calling FoFJK, ICntrl=  10002127 FMM=F ISym2X=0 I1Cent= 0 IOpClX= 1 NMat=1 NMatS=1 NMatT=0.
 -------------------------------------------------------------------
 Center     Atomic                   Forces (Hartrees/Bohr)
 Number     Number              X              Y              Z
 -------------------------------------------------------------------
      1        6           0.000148079   -0.000102181    0.000002716
      2        6          -0.000379376   -0.000060598    0.000102691
      3        6           0.000465707    0.000081955   -0.000052440
      4        1          -0.000111963   -0.000051316    0.000010468
      5        1           0.000093604    0.000033835   -0.000029243
      6        1          -0.000041706   -0.000022002   -0.000008614
      7        1          -0.000084088    0.000003852   -0.000021848
      8        1          -0.000033158    0.000110977   -0.000018776
      9        1          -0.000057099    0.000005478    0.000015047
 -------------------------------------------------------------------
 Cartesian Forces:  Max     0.000465707 RMS     0.000131945

 GradGradGradGradGradGradGradGradGradGradGradGradGradGradGradGradGradGrad
 Berny optimization.
 Using GEDIIS/GDIIS optimizer.
 FormGI is forming the generalized inverse of G from B-inverse, IUseBI=4.
 Internal  Forces:  Max     0.000210260 RMS     0.000081788
 Search for a local minimum.
 Step number   2 out of a maximum of  100 on scan point     1 out of    37
 All quantities printed in internal units (Hartrees-Bohrs-Radians)
 Mixed Optimization -- En-DIIS/RFO-DIIS
 Update second derivatives using D2CorX and points    1    2
 DE= -4.28D-05 DEPred=-4.24D-05 R= 1.01D+00
 TightC=F SS=  1.41D+00  RLast= 1.61D-02 DXNew= 5.0454D-01 4.8289D-02
 Trust test= 1.01D+00 RLast= 1.61D-02 DXMaxT set to 3.00D-01
 ITU=  1  0
 Use linear search instead of GDIIS.
     Eigenvalues ---    0.03043   0.03043   0.03054   0.15538   0.16000
     Eigenvalues ---    0.16000   0.16000   0.16000   0.16000   0.16000
     Eigenvalues ---    0.16105   0.21855   0.31671   0.34411   0.34535
     Eigenvalues ---    0.34803   0.35184   0.35486   0.36736   0.59830
     Eigenvalues --- 1000.000001000.000001000.000001000.000001000.00000
 RFO step:  Lambda=-9.60125716D-07 EMin= 3.04278163D-02
 Quartic linear search produced a step of  0.00832.
 Iteration  1 RMS(Cart)=  0.00092742 RMS(Int)=  0.00000075
 Iteration  2 RMS(Cart)=  0.00000084 RMS(Int)=  0.00000021
 Iteration  1 RMS(Cart)=  0.00000000 RMS(Int)=  0.00000000
 Variable       Old X    -DE/DX   Delta X   Delta X   Delta X     New X
                                 (Linear)    (Quad)   (Total)
    R1        2.51151   0.00007   0.00002   0.00012   0.00014   2.51165
    R2        2.04476   0.00002  -0.00006   0.00004  -0.00001   2.04475
    R3        2.04088   0.00002  -0.00005   0.00004  -0.00001   2.04088
    R4        2.82793  -0.00021  -0.00004  -0.00067  -0.00070   2.82722
    R5        2.04918   0.00004  -0.00005   0.00009   0.00003   2.04922
    R6        2.05694   0.00004  -0.00004   0.00012   0.00007   2.05701
    R7        2.06163   0.00006  -0.00004   0.00017   0.00013   2.06176
    R8        2.06167   0.00004  -0.00004   0.00011   0.00007   2.06175
    A1        2.11722   0.00002   0.00001   0.00013   0.00013   2.11735
    A2        2.12240  -0.00013  -0.00000  -0.00079  -0.00080   2.12161
    A3        2.04356   0.00011  -0.00000   0.00067   0.00066   2.04422
    A4        2.17909   0.00008   0.00002   0.00036   0.00038   2.17947
    A5        2.07436  -0.00013  -0.00001  -0.00078  -0.00079   2.07357
    A6        2.02974   0.00006  -0.00001   0.00042   0.00041   2.03014
    A7        1.94070   0.00018   0.00001   0.00111   0.00113   1.94182
    A8        1.93693   0.00004   0.00001   0.00023   0.00024   1.93717
    A9        1.93707  -0.00001   0.00002  -0.00006  -0.00005   1.93702
   A10        1.89095  -0.00005  -0.00001  -0.00032  -0.00033   1.89062
   A11        1.89108  -0.00006  -0.00001  -0.00039  -0.00040   1.89068
   A12        1.86455  -0.00010  -0.00002  -0.00065  -0.00068   1.86387
    D1        0.00062  -0.00002   0.00000  -0.00077  -0.00076  -0.00014
    D2        3.14091   0.00004  -0.00001   0.00126   0.00125  -3.14102
    D3       -3.14060  -0.00005   0.00002  -0.00155  -0.00154   3.14105
    D4       -0.00030   0.00001  -0.00000   0.00048   0.00048   0.00017
    D5       -0.00170   0.00001   0.00000   0.00000  -0.00000  -0.00170
         Item               Value     Threshold  Converged?
 Maximum Force            0.000210     0.000450     YES
 RMS     Force            0.000083     0.000300     YES
 Maximum Displacement     0.002131     0.001800     NO 
 RMS     Displacement     0.000927     0.001200     YES
 Predicted change in Energy=-4.830565D-07
 GradGradGradGradGradGradGradGradGradGradGradGradGradGradGradGradGradGrad

                          Input orientation:                          
 ---------------------------------------------------------------------
 Center     Atomic      Atomic             Coordinates (Angstroms)
 Number     Number       Type             X           Y           Z
 ---------------------------------------------------------------------
      1          6           0        1.276194   -0.223047   -0.000030
      2          6           0        0.133635    0.455985    0.000108
      3          6           0       -1.228819   -0.162113   -0.000011
      4          1           0       -1.169121   -1.248998   -0.001951
      5          1           0        0.169901    1.539776   -0.000354
      6          1           0        1.287377   -1.305021   -0.000113
      7          1           0       -1.800252    0.151603   -0.874887
      8          1           0        2.232253    0.279266   -0.000430
      9          1           0       -1.798875    0.148609    0.876821
 ---------------------------------------------------------------------
                    Distance matrix (angstroms):
                    1          2          3          4          5
     1  C    0.000000
     2  C    1.329107   0.000000
     3  C    2.505753   1.496103   0.000000
     4  H    2.651819   2.145726   1.088524   0.000000
     5  H    2.081209   1.084398   2.202917   3.093581   0.000000
     6  H    1.082033   2.105294   2.763599   2.457137   3.056408
     7  H    3.220288   2.144337   1.091038   1.766926   2.563852
     8  H    1.079985   2.106045   3.489102   3.728932   2.417060
     9  H    3.219168   2.144225   1.091030   1.766956   2.565319
                    6          7          8          9
     6  H    0.000000
     7  H    3.524264   0.000000
     8  H    1.844657   4.128204   0.000000
     9  H    3.522358   1.751711   4.127546   0.000000
 Symmetry turned off by external request.
 Stoichiometry    C3H6
 Framework group  C1[X(C3H6)]
 Deg. of freedom    21
 Full point group                 C1      NOp   1
 Rotational constants (GHZ):          47.0076013           9.3547642           8.1932707
 Standard basis: CC-pVTZ (5D, 7F)
   174 basis functions,   258 primitive gaussians,   195 cartesian basis functions
    12 alpha electrons       12 beta electrons
       nuclear repulsion energy        70.9385645063 Hartrees.
 NAtoms=    9 NActive=    9 NUniq=    9 SFac= 1.00D+00 NAtFMM=   60 NAOKFM=F Big=F
 Integral buffers will be    131072 words long.
 Raffenetti 2 integral format.
 Two-electron integral symmetry is turned off.
 Nuclear repulsion after empirical dispersion term =       70.9350225417 Hartrees.
 One-electron integrals computed using PRISM.
 NBasis=   174 RedAO= T EigKep=  5.08D-04  NBF=   174
 NBsUse=   174 1.00D-06 EigRej= -1.00D+00 NBFU=   174
 Initial guess from the checkpoint file:  "/localscratch/339543/Gau-53177.chk"
 B after Tr=     0.000134   -0.000240    0.000392
         Rot=    1.000000   -0.000050    0.000044   -0.000000 Ang=  -0.01 deg.
 Initial guess <Sx>= 0.0000 <Sy>= 0.0000 <Sz>= 0.0000 <S**2>=-0.0000 S=-0.0000
 Keep R1 and R2 ints in memory in canonical form, NReq=272700278.
 Requested convergence on RMS density matrix=1.00D-08 within 500 cycles.
 Requested convergence on MAX density matrix=1.00D-06.
 Requested convergence on             energy=1.00D-06.
 No special actions if energy rises.
 SCF Done:  E(UB2PLYPD3) =  -117.668821466     A.U. after    6 cycles
            NFock=  6  Conv=0.75D-08     -V/T= 2.0048
 <Sx>= 0.0000 <Sy>= 0.0000 <Sz>= 0.0000 <S**2>=-0.0000 S=-0.0000
 <L.S>=  0.00000000000    
 Annihilation of the first spin contaminant:
 S**2 before annihilation    -0.0000,   after    -0.0000
 DoSCS=T DFT=T ScalE2(SS,OS)=  0.270000  0.270000
 ExpMin= 1.03D-01 ExpMax= 8.24D+03 ExpMxC= 2.81D+02 IAcc=3 IRadAn=         5 AccDes= 0.00D+00
 HarFok:  IExCor=  205 AccDes= 0.00D+00 IRadAn=         5 IDoV=-2 UseB2=F ITyADJ=14
 ICtDFT= 12500011 ScaDFX=  1.000000  1.000000  1.000000  1.000000
 Range of M.O.s used for correlation:     4   174
 NBasis=   174 NAE=    12 NBE=    12 NFC=     3 NFV=     0
 NROrb=    171 NOA=     9 NOB=     9 NVA=   162 NVB=   162

 **** Warning!!: The largest alpha MO coefficient is  0.12368808D+02


 **** Warning!!: The largest beta MO coefficient is  0.12368808D+02

 DoSCS=T DFT=T ScalE2(SS,OS)=  0.270000  0.270000
 Fully direct method using O(ONN) memory.
 JobTyp=2 Pass  1:  I=   4 to  12 NPSUse= 40 ParTrn=T ParDer=T DoDerP=T.
 JobTyp=3 Pass  1:  I=   4 to  12 NPSUse= 40 ParTrn=T ParDer=T DoDerP=T.
 Spin components of T(2) and E(2):
     alpha-alpha T2 =       0.2955518110D-01 E2=     -0.1838879269D-01
     alpha-beta  T2 =       0.1969579319D+00 E2=     -0.1299227622D+00
     beta-beta   T2 =       0.2955518110D-01 E2=     -0.1838879269D-01
 (S**2,0)=  0.00000D+00           (S**2,1)=  0.00000D+00
 E(PUHF)=      -0.11766882147D+03        E(PMP2)=      -0.11783552181D+03
 E2(B2PLYPD3) =    -0.1667003475D+00 E(B2PLYPD3) =    -0.11783552181341D+03
          IDoAtm=111111111
          Differentiating once with respect to electric field.
                with respect to dipole field.
          Differentiating once with respect to nuclear coordinates.
 Keep R1 and R2 ints in memory in canonical form, NReq=272706688.
          There are     1 degrees of freedom in the 1st order CPHF.  IDoFFX=0 NUNeed=     1.
 LinEq1:  Iter=  0 NonCon=     1 RMS=6.48D-04 Max=1.13D-02 NDo=     1
 AX will form     1 AO Fock derivatives at one time.
 LinEq1:  Iter=  1 NonCon=     1 RMS=2.66D-04 Max=2.85D-03 NDo=     1
 LinEq1:  Iter=  2 NonCon=     1 RMS=6.43D-05 Max=1.57D-03 NDo=     1
 LinEq1:  Iter=  3 NonCon=     1 RMS=3.43D-05 Max=6.80D-04 NDo=     1
 LinEq1:  Iter=  4 NonCon=     1 RMS=1.01D-05 Max=1.45D-04 NDo=     1
 LinEq1:  Iter=  5 NonCon=     1 RMS=2.55D-06 Max=2.56D-05 NDo=     1
 LinEq1:  Iter=  6 NonCon=     1 RMS=6.88D-07 Max=8.85D-06 NDo=     1
 LinEq1:  Iter=  7 NonCon=     1 RMS=2.61D-07 Max=3.57D-06 NDo=     1
 LinEq1:  Iter=  8 NonCon=     1 RMS=9.00D-08 Max=9.13D-07 NDo=     1
 LinEq1:  Iter=  9 NonCon=     1 RMS=1.11D-08 Max=1.38D-07 NDo=     1
 LinEq1:  Iter= 10 NonCon=     1 RMS=2.06D-09 Max=1.71D-08 NDo=     1
 LinEq1:  Iter= 11 NonCon=     1 RMS=3.25D-10 Max=4.29D-09 NDo=     1
 LinEq1:  Iter= 12 NonCon=     0 RMS=4.04D-11 Max=3.25D-10 NDo=     1
 Linear equations converged to 1.000D-10 1.000D-09 after    12 iterations.
 End of Minotr F.D. properties file   721 does not exist.
 End of Minotr F.D. properties file   722 does not exist.
 End of Minotr F.D. properties file   788 does not exist.
 Calling FoFJK, ICntrl=  10002127 FMM=F ISym2X=0 I1Cent= 0 IOpClX= 1 NMat=1 NMatS=1 NMatT=0.
 -------------------------------------------------------------------
 Center     Atomic                   Forces (Hartrees/Bohr)
 Number     Number              X              Y              Z
 -------------------------------------------------------------------
      1        6           0.000049590   -0.000030157   -0.000017737
      2        6          -0.000114352   -0.000065906   -0.000064450
      3        6           0.000146375    0.000056036    0.000013600
      4        1          -0.000017595   -0.000019721    0.000011899
      5        1           0.000022253    0.000027140    0.000029212
      6        1          -0.000014982   -0.000015841    0.000007222
      7        1          -0.000024252    0.000003466   -0.000021571
      8        1           0.000001712    0.000043947    0.000015485
      9        1          -0.000048749    0.000001035    0.000026340
 -------------------------------------------------------------------
 Cartesian Forces:  Max     0.000146375 RMS     0.000047050

 GradGradGradGradGradGradGradGradGradGradGradGradGradGradGradGradGradGrad
 Berny optimization.
 Using GEDIIS/GDIIS optimizer.
 FormGI is forming the generalized inverse of G from B-inverse, IUseBI=4.
 Internal  Forces:  Max     0.000067827 RMS     0.000032109
 Search for a local minimum.
 Step number   3 out of a maximum of  100 on scan point     1 out of    37
 All quantities printed in internal units (Hartrees-Bohrs-Radians)
 Mixed Optimization -- En-DIIS/RFO-DIIS
 Swapping is turned off.
 Update second derivatives using D2CorX and points    1    2    3
 DE= -5.26D-07 DEPred=-4.83D-07 R= 1.09D+00
 Trust test= 1.09D+00 RLast= 3.06D-03 DXMaxT set to 3.00D-01
 ITU=  0  1  0
     Eigenvalues ---    0.03042   0.03043   0.04137   0.10842   0.16000
     Eigenvalues ---    0.16000   0.16000   0.16000   0.16000   0.16014
     Eigenvalues ---    0.16908   0.21511   0.30203   0.34437   0.34574
     Eigenvalues ---    0.34757   0.35164   0.35470   0.36401   0.59536
     Eigenvalues --- 1000.000001000.000001000.000001000.000001000.00000
 En-DIIS/RFO-DIIS/Sim-DIIS IScMMF=       -3 using points:     3    2
 RFO step:  Lambda=-2.60892187D-07.
 DidBck=F Rises=F RFO-DIIS coefs:    0.86615    0.13385
 Iteration  1 RMS(Cart)=  0.00062301 RMS(Int)=  0.00000035
 Iteration  2 RMS(Cart)=  0.00000041 RMS(Int)=  0.00000010
 Iteration  1 RMS(Cart)=  0.00000000 RMS(Int)=  0.00000000
 Variable       Old X    -DE/DX   Delta X   Delta X   Delta X     New X
                                 (Linear)    (Quad)   (Total)
    R1        2.51165   0.00003  -0.00002   0.00012   0.00010   2.51175
    R2        2.04475   0.00002   0.00000   0.00002   0.00002   2.04477
    R3        2.04088   0.00002   0.00000   0.00004   0.00004   2.04092
    R4        2.82722  -0.00007   0.00009  -0.00052  -0.00043   2.82680
    R5        2.04922   0.00003  -0.00000   0.00008   0.00007   2.04929
    R6        2.05701   0.00002  -0.00001   0.00007   0.00006   2.05707
    R7        2.06176   0.00003  -0.00002   0.00013   0.00011   2.06188
    R8        2.06175   0.00005  -0.00001   0.00016   0.00015   2.06190
    A1        2.11735   0.00000  -0.00002   0.00009   0.00007   2.11743
    A2        2.12161  -0.00004   0.00011  -0.00059  -0.00049   2.12112
    A3        2.04422   0.00004  -0.00009   0.00051   0.00042   2.04464
    A4        2.17947   0.00004  -0.00005   0.00037   0.00032   2.17979
    A5        2.07357  -0.00004   0.00011  -0.00057  -0.00047   2.07310
    A6        2.03014   0.00000  -0.00005   0.00020   0.00014   2.03029
    A7        1.94182   0.00002  -0.00015   0.00058   0.00043   1.94226
    A8        1.93717  -0.00000  -0.00003   0.00007   0.00004   1.93721
    A9        1.93702   0.00004   0.00001   0.00027   0.00027   1.93729
   A10        1.89062  -0.00002   0.00004  -0.00030  -0.00025   1.89037
   A11        1.89068  -0.00001   0.00005  -0.00025  -0.00019   1.89049
   A12        1.86387  -0.00002   0.00009  -0.00044  -0.00035   1.86352
    D1       -0.00014   0.00002   0.00010   0.00054   0.00064   0.00050
    D2       -3.14102  -0.00004  -0.00017  -0.00081  -0.00097   3.14119
    D3        3.14105   0.00004   0.00021   0.00095   0.00116  -3.14098
    D4        0.00017  -0.00002  -0.00006  -0.00040  -0.00046  -0.00029
    D5       -0.00170   0.00003   0.00000   0.00000   0.00000  -0.00170
         Item               Value     Threshold  Converged?
 Maximum Force            0.000068     0.000450     YES
 RMS     Force            0.000032     0.000300     YES
 Maximum Displacement     0.001095     0.001800     YES
 RMS     Displacement     0.000623     0.001200     YES
 Predicted change in Energy=-1.304518D-07
 Optimization completed.
    -- Stationary point found.
                           ----------------------------
                           !   Optimized Parameters   !
                           ! (Angstroms and Degrees)  !
 --------------------------                            --------------------------
 ! Name  Definition              Value          Derivative Info.                !
 --------------------------------------------------------------------------------
 ! R1    R(1,2)                  1.3291         -DE/DX =    0.0                 !
 ! R2    R(1,6)                  1.082          -DE/DX =    0.0                 !
 ! R3    R(1,8)                  1.08           -DE/DX =    0.0                 !
 ! R4    R(2,3)                  1.4961         -DE/DX =   -0.0001              !
 ! R5    R(2,5)                  1.0844         -DE/DX =    0.0                 !
 ! R6    R(3,4)                  1.0885         -DE/DX =    0.0                 !
 ! R7    R(3,7)                  1.091          -DE/DX =    0.0                 !
 ! R8    R(3,9)                  1.091          -DE/DX =    0.0                 !
 ! A1    A(2,1,6)              121.3155         -DE/DX =    0.0                 !
 ! A2    A(2,1,8)              121.5593         -DE/DX =    0.0                 !
 ! A3    A(6,1,8)              117.1252         -DE/DX =    0.0                 !
 ! A4    A(1,2,3)              124.8745         -DE/DX =    0.0                 !
 ! A5    A(1,2,5)              118.8068         -DE/DX =    0.0                 !
 ! A6    A(3,2,5)              116.3187         -DE/DX =    0.0                 !
 ! A7    A(2,3,4)              111.2583         -DE/DX =    0.0                 !
 ! A8    A(2,3,7)              110.9918         -DE/DX =    0.0                 !
 ! A9    A(2,3,9)              110.9832         -DE/DX =    0.0                 !
 ! A10   A(4,3,7)              108.3246         -DE/DX =    0.0                 !
 ! A11   A(4,3,9)              108.328          -DE/DX =    0.0                 !
 ! A12   A(7,3,9)              106.792          -DE/DX =    0.0                 !
 ! D1    D(6,1,2,3)             -0.0082         -DE/DX =    0.0                 !
 ! D2    D(6,1,2,5)            180.0326         -DE/DX =    0.0                 !
 ! D3    D(8,1,2,3)           -180.031          -DE/DX =    0.0                 !
 ! D4    D(8,1,2,5)              0.0099         -DE/DX =    0.0                 !
 ! D5    D(1,2,3,4)             -0.0974         -DE/DX =    0.0                 !
 --------------------------------------------------------------------------------
 Iteration  1 RMS(Cart)=  0.09122377 RMS(Int)=  0.00416607
 Iteration  2 RMS(Cart)=  0.00468315 RMS(Int)=  0.00000754
 Iteration  3 RMS(Cart)=  0.00001080 RMS(Int)=  0.00000000
 Iteration  4 RMS(Cart)=  0.00000000 RMS(Int)=  0.00000000
 Iteration  1 RMS(Cart)=  0.00000000 RMS(Int)=  0.00000000
 GradGradGradGradGradGradGradGradGradGradGradGradGradGradGradGradGradGrad

                          Input orientation:                          
 ---------------------------------------------------------------------
 Center     Atomic      Atomic             Coordinates (Angstroms)
 Number     Number       Type             X           Y           Z
 ---------------------------------------------------------------------
      1          6           0        1.276133   -0.222213   -0.028654
      2          6           0        0.133780    0.454764    0.029676
      3          6           0       -1.228711   -0.162265    0.006423
      4          1           0       -1.174169   -1.244504    0.110040
      5          1           0        0.170824    1.536247    0.100551
      6          1           0        1.287124   -1.301871   -0.099610
      7          1           0       -1.745854    0.067130   -0.926548
      8          1           0        2.232022    0.280016   -0.007254
      9          1           0       -1.848859    0.228758    0.814531
 ---------------------------------------------------------------------
                    Distance matrix (angstroms):
                    1          2          3          4          5
     1  C    0.000000
     2  C    1.329162   0.000000
     3  C    2.505807   1.495877   0.000000
     4  H    2.658627   2.145857   1.088555   0.000000
     5  H    2.081006   1.084436   2.202839   3.088960   0.000000
     6  H    1.082043   2.105394   2.763941   2.470872   3.056322
     7  H    3.165808   2.144213   1.091098   1.766840   2.624289
     8  H    1.080007   2.105830   3.488907   3.733638   2.416252
     9  H    3.268014   2.144280   1.091110   1.766923   2.509665
                    6          7          8          9
     6  H    0.000000
     7  H    3.428840   0.000000
     8  H    1.844920   4.088266   0.000000
     9  H    3.607336   1.751596   4.163118   0.000000
 Symmetry turned off by external request.
 Stoichiometry    C3H6
 Framework group  C1[X(C3H6)]
 Deg. of freedom    21
 Full point group                 C1      NOp   1
 Rotational constants (GHZ):          47.0175331           9.3541008           8.1932872
 Standard basis: CC-pVTZ (5D, 7F)
   174 basis functions,   258 primitive gaussians,   195 cartesian basis functions
    12 alpha electrons       12 beta electrons
       nuclear repulsion energy        70.9379698979 Hartrees.
 NAtoms=    9 NActive=    9 NUniq=    9 SFac= 1.00D+00 NAtFMM=   60 NAOKFM=F Big=F
 Integral buffers will be    131072 words long.
 Raffenetti 2 integral format.
 Two-electron integral symmetry is turned off.
 Nuclear repulsion after empirical dispersion term =       70.9344277551 Hartrees.
 One-electron integrals computed using PRISM.
 NBasis=   174 RedAO= T EigKep=  5.11D-04  NBF=   174
 NBsUse=   174 1.00D-06 EigRej= -1.00D+00 NBFU=   174
 Initial guess from the checkpoint file:  "/localscratch/339543/Gau-53177.chk"
 B after Tr=     0.000076   -0.000213    0.002916
         Rot=    0.999982   -0.005301   -0.002909   -0.000051 Ang=  -0.69 deg.
 Initial guess <Sx>= 0.0000 <Sy>= 0.0000 <Sz>= 0.0000 <S**2>=-0.0000 S=-0.0000
 Keep R1 and R2 ints in memory in canonical form, NReq=272700278.
 Requested convergence on RMS density matrix=1.00D-08 within 500 cycles.
 Requested convergence on MAX density matrix=1.00D-06.
 Requested convergence on             energy=1.00D-06.
 No special actions if energy rises.
 SCF Done:  E(UB2PLYPD3) =  -117.668597717     A.U. after    9 cycles
            NFock=  9  Conv=0.89D-08     -V/T= 2.0048
 <Sx>= 0.0000 <Sy>= 0.0000 <Sz>= 0.0000 <S**2>=-0.0000 S=-0.0000
 <L.S>=  0.00000000000    
 Annihilation of the first spin contaminant:
 S**2 before annihilation    -0.0000,   after    -0.0000
 DoSCS=T DFT=T ScalE2(SS,OS)=  0.270000  0.270000
 ExpMin= 1.03D-01 ExpMax= 8.24D+03 ExpMxC= 2.81D+02 IAcc=3 IRadAn=         5 AccDes= 0.00D+00
 HarFok:  IExCor=  205 AccDes= 0.00D+00 IRadAn=         5 IDoV=-2 UseB2=F ITyADJ=14
 ICtDFT= 12500011 ScaDFX=  1.000000  1.000000  1.000000  1.000000
 Range of M.O.s used for correlation:     4   174
 NBasis=   174 NAE=    12 NBE=    12 NFC=     3 NFV=     0
 NROrb=    171 NOA=     9 NOB=     9 NVA=   162 NVB=   162

 **** Warning!!: The largest alpha MO coefficient is  0.11834587D+02


 **** Warning!!: The largest beta MO coefficient is  0.11834587D+02

 DoSCS=T DFT=T ScalE2(SS,OS)=  0.270000  0.270000
 Fully direct method using O(ONN) memory.
 JobTyp=2 Pass  1:  I=   4 to  12 NPSUse= 40 ParTrn=T ParDer=T DoDerP=T.
 JobTyp=3 Pass  1:  I=   4 to  12 NPSUse= 40 ParTrn=T ParDer=T DoDerP=T.
 Spin components of T(2) and E(2):
     alpha-alpha T2 =       0.2955309747D-01 E2=     -0.1838865383D-01
     alpha-beta  T2 =       0.1969920965D+00 E2=     -0.1299301504D+00
     beta-beta   T2 =       0.2955309747D-01 E2=     -0.1838865383D-01
 (S**2,0)=  0.00000D+00           (S**2,1)=  0.00000D+00
 E(PUHF)=      -0.11766859772D+03        E(PMP2)=      -0.11783530518D+03
 E2(B2PLYPD3) =    -0.1667074580D+00 E(B2PLYPD3) =    -0.11783530517538D+03
          IDoAtm=111111111
          Differentiating once with respect to electric field.
                with respect to dipole field.
          Differentiating once with respect to nuclear coordinates.
 Keep R1 and R2 ints in memory in canonical form, NReq=272706688.
          There are     1 degrees of freedom in the 1st order CPHF.  IDoFFX=0 NUNeed=     1.
 LinEq1:  Iter=  0 NonCon=     1 RMS=6.48D-04 Max=1.10D-02 NDo=     1
 AX will form     1 AO Fock derivatives at one time.
 LinEq1:  Iter=  1 NonCon=     1 RMS=2.66D-04 Max=2.68D-03 NDo=     1
 LinEq1:  Iter=  2 NonCon=     1 RMS=6.44D-05 Max=1.57D-03 NDo=     1
 LinEq1:  Iter=  3 NonCon=     1 RMS=3.44D-05 Max=6.75D-04 NDo=     1
 LinEq1:  Iter=  4 NonCon=     1 RMS=1.01D-05 Max=1.46D-04 NDo=     1
 LinEq1:  Iter=  5 NonCon=     1 RMS=2.56D-06 Max=2.49D-05 NDo=     1
 LinEq1:  Iter=  6 NonCon=     1 RMS=6.85D-07 Max=8.75D-06 NDo=     1
 LinEq1:  Iter=  7 NonCon=     1 RMS=2.58D-07 Max=3.37D-06 NDo=     1
 LinEq1:  Iter=  8 NonCon=     1 RMS=9.01D-08 Max=8.17D-07 NDo=     1
 LinEq1:  Iter=  9 NonCon=     1 RMS=1.11D-08 Max=1.32D-07 NDo=     1
 LinEq1:  Iter= 10 NonCon=     1 RMS=2.06D-09 Max=1.74D-08 NDo=     1
 LinEq1:  Iter= 11 NonCon=     1 RMS=3.26D-10 Max=4.10D-09 NDo=     1
 LinEq1:  Iter= 12 NonCon=     0 RMS=4.11D-11 Max=3.25D-10 NDo=     1
 Linear equations converged to 1.000D-10 1.000D-09 after    12 iterations.
 End of Minotr F.D. properties file   721 does not exist.
 End of Minotr F.D. properties file   722 does not exist.
 End of Minotr F.D. properties file   788 does not exist.
 Calling FoFJK, ICntrl=  10002127 FMM=F ISym2X=0 I1Cent= 0 IOpClX= 1 NMat=1 NMatS=1 NMatT=0.
 -------------------------------------------------------------------
 Center     Atomic                   Forces (Hartrees/Bohr)
 Number     Number              X              Y              Z
 -------------------------------------------------------------------
      1        6          -0.000011530    0.000016181    0.000282724
      2        6           0.000324722    0.000193137    0.000473945
      3        6          -0.000433779    0.000076082    0.000676579
      4        1          -0.000023441   -0.000047642   -0.000672053
      5        1           0.000066435    0.000005241   -0.000583179
      6        1           0.000027907   -0.000047809    0.000346792
      7        1          -0.000241173    0.000243782   -0.000125248
      8        1          -0.000007040    0.000007874   -0.000296347
      9        1           0.000297900   -0.000446846   -0.000103212
 -------------------------------------------------------------------
 Cartesian Forces:  Max     0.000676579 RMS     0.000306838

 GradGradGradGradGradGradGradGradGradGradGradGradGradGradGradGradGradGrad
 Berny optimization.
 FormGI is forming the generalized inverse of G from B-inverse, IUseBI=4.
 Internal  Forces:  Max     0.002445192 RMS     0.000654142
 Search for a local minimum.
 Step number   1 out of a maximum of  100 on scan point     2 out of    37
 All quantities printed in internal units (Hartrees-Bohrs-Radians)
 Mixed Optimization -- RFO/linear search
 Second derivative matrix not updated -- first step.
 ITU=  0
     Eigenvalues ---    0.03042   0.03043   0.04137   0.10842   0.16000
     Eigenvalues ---    0.16000   0.16000   0.16000   0.16000   0.16014
     Eigenvalues ---    0.16908   0.21511   0.30203   0.34437   0.34574
     Eigenvalues ---    0.34757   0.35164   0.35470   0.36401   0.59536
     Eigenvalues --- 1000.000001000.000001000.000001000.000001000.00000
 RFO step:  Lambda=-8.09210800D-05 EMin= 3.04239522D-02
 Linear search not attempted -- first point.
 Iteration  1 RMS(Cart)=  0.01462126 RMS(Int)=  0.00016285
 Iteration  2 RMS(Cart)=  0.00016262 RMS(Int)=  0.00006931
 Iteration  3 RMS(Cart)=  0.00000001 RMS(Int)=  0.00006931
 Iteration  1 RMS(Cart)=  0.00000000 RMS(Int)=  0.00000000
 Variable       Old X    -DE/DX   Delta X   Delta X   Delta X     New X
                                 (Linear)    (Quad)   (Total)
    R1        2.51175   0.00001   0.00000  -0.00025  -0.00025   2.51150
    R2        2.04477   0.00003   0.00000   0.00022   0.00022   2.04499
    R3        2.04092  -0.00001   0.00000   0.00017   0.00017   2.04109
    R4        2.82680   0.00044   0.00000   0.00291   0.00291   2.82971
    R5        2.04929  -0.00003   0.00000   0.00003   0.00003   2.04932
    R6        2.05707  -0.00002   0.00000  -0.00015  -0.00015   2.05692
    R7        2.06188   0.00027   0.00000   0.00064   0.00064   2.06252
    R8        2.06190  -0.00041   0.00000  -0.00097  -0.00097   2.06093
    A1        2.11743   0.00003   0.00000  -0.00017  -0.00017   2.11725
    A2        2.12112  -0.00000   0.00000   0.00170   0.00170   2.12282
    A3        2.04464  -0.00002   0.00000  -0.00153  -0.00154   2.04310
    A4        2.17979  -0.00003   0.00000  -0.00066  -0.00086   2.17894
    A5        2.07310  -0.00006   0.00000   0.00137   0.00117   2.07427
    A6        2.03029   0.00009   0.00000  -0.00068  -0.00088   2.02940
    A7        1.94226   0.00002   0.00000  -0.00319  -0.00320   1.93906
    A8        1.93721   0.00042   0.00000   0.00171   0.00171   1.93892
    A9        1.93729  -0.00029   0.00000  -0.00070  -0.00071   1.93659
   A10        1.89037   0.00064   0.00000   0.00455   0.00454   1.89492
   A11        1.89049  -0.00084   0.00000  -0.00415  -0.00415   1.88633
   A12        1.86352   0.00005   0.00000   0.00199   0.00198   1.86550
    D1        0.00050  -0.00111   0.00000  -0.03094  -0.03094  -0.03043
    D2        3.14119   0.00050   0.00000   0.00774   0.00774  -3.13426
    D3       -3.14098  -0.00106   0.00000  -0.02437  -0.02436   3.11784
    D4       -0.00029   0.00055   0.00000   0.01431   0.01431   0.01402
    D5        0.17283  -0.00245   0.00000   0.00000   0.00000   0.17283
         Item               Value     Threshold  Converged?
 Maximum Force            0.001109     0.000450     NO 
 RMS     Force            0.000443     0.000300     NO 
 Maximum Displacement     0.035218     0.001800     NO 
 RMS     Displacement     0.014614     0.001200     NO 
 Predicted change in Energy=-4.051727D-05
 GradGradGradGradGradGradGradGradGradGradGradGradGradGradGradGradGradGrad

                          Input orientation:                          
 ---------------------------------------------------------------------
 Center     Atomic      Atomic             Coordinates (Angstroms)
 Number     Number       Type             X           Y           Z
 ---------------------------------------------------------------------
      1          6           0        1.276014   -0.222112   -0.025360
      2          6           0        0.134346    0.455226    0.038890
      3          6           0       -1.229596   -0.161846    0.005145
      4          1           0       -1.171989   -1.245010    0.095803
      5          1           0        0.170354    1.538039    0.086431
      6          1           0        1.286378   -1.302793   -0.080974
      7          1           0       -1.748204    0.082129   -0.923703
      8          1           0        2.232934    0.278752   -0.018327
      9          1           0       -1.847946    0.213675    0.821250
 ---------------------------------------------------------------------
                    Distance matrix (angstroms):
                    1          2          3          4          5
     1  C    0.000000
     2  C    1.329030   0.000000
     3  C    2.506520   1.497416   0.000000
     4  H    2.655884   2.144890   1.088476   0.000000
     5  H    2.081613   1.084454   2.203651   3.089876   0.000000
     6  H    1.082161   2.105273   2.763928   2.465392   3.056772
     7  H    3.169460   2.147039   1.091438   1.769947   2.611687
     8  H    1.080098   2.106773   3.490529   3.732074   2.418887
     9  H    3.265851   2.144741   1.090597   1.763789   2.523378
                    6          7          8          9
     6  H    0.000000
     7  H    3.440477   0.000000
     8  H    1.844229   4.087521   0.000000
     9  H    3.596897   1.752746   4.166858   0.000000
 Symmetry turned off by external request.
 Stoichiometry    C3H6
 Framework group  C1[X(C3H6)]
 Deg. of freedom    21
 Full point group                 C1      NOp   1
 Rotational constants (GHZ):          46.9734904           9.3490126           8.1893786
 Standard basis: CC-pVTZ (5D, 7F)
   174 basis functions,   258 primitive gaussians,   195 cartesian basis functions
    12 alpha electrons       12 beta electrons
       nuclear repulsion energy        70.9211112345 Hartrees.
 NAtoms=    9 NActive=    9 NUniq=    9 SFac= 1.00D+00 NAtFMM=   60 NAOKFM=F Big=F
 Integral buffers will be    131072 words long.
 Raffenetti 2 integral format.
 Two-electron integral symmetry is turned off.
 Nuclear repulsion after empirical dispersion term =       70.9175692997 Hartrees.
 One-electron integrals computed using PRISM.
 NBasis=   174 RedAO= T EigKep=  5.11D-04  NBF=   174
 NBsUse=   174 1.00D-06 EigRej= -1.00D+00 NBFU=   174
 Initial guess from the checkpoint file:  "/localscratch/339543/Gau-53177.chk"
 B after Tr=    -0.000170    0.000393    0.004422
         Rot=    0.999999   -0.001019    0.000500    0.000060 Ang=  -0.13 deg.
 Initial guess <Sx>= 0.0000 <Sy>= 0.0000 <Sz>= 0.0000 <S**2>= 0.0000 S= 0.0000
 ExpMin= 1.03D-01 ExpMax= 8.24D+03 ExpMxC= 2.81D+02 IAcc=3 IRadAn=         5 AccDes= 0.00D+00
 Harris functional with IExCor=  419 and IRadAn=       5 diagonalized for initial guess.
 HarFok:  IExCor=  419 AccDes= 0.00D+00 IRadAn=         5 IDoV= 1 UseB2=F ITyADJ=14
 ICtDFT=  3500011 ScaDFX=  1.000000  1.000000  1.000000  1.000000
 FoFCou: FMM=F IPFlag=           0 FMFlag=      100000 FMFlg1=           0
         NFxFlg=           0 DoJE=T BraDBF=F KetDBF=T FulRan=T
         wScrn=  0.000000 ICntrl=       500 IOpCl=  0 I1Cent=   200000004 NGrid=           0
         NMat0=    1 NMatS0=      1 NMatT0=    0 NMatD0=    1 NMtDS0=    0 NMtDT0=    0
 Symmetry not used in FoFCou.
 Keep R1 and R2 ints in memory in canonical form, NReq=272700278.
 Requested convergence on RMS density matrix=1.00D-08 within 500 cycles.
 Requested convergence on MAX density matrix=1.00D-06.
 Requested convergence on             energy=1.00D-06.
 No special actions if energy rises.
 Integral accuracy reduced to 1.0D-05 until final iterations.
 Initial convergence to 1.0D-05 achieved.  Increase integral accuracy.
 SCF Done:  E(UB2PLYPD3) =  -117.668621017     A.U. after    8 cycles
            NFock=  8  Conv=0.73D-08     -V/T= 2.0048
 <Sx>= 0.0000 <Sy>= 0.0000 <Sz>= 0.0000 <S**2>=-0.0000 S=-0.0000
 <L.S>=  0.00000000000    
 Annihilation of the first spin contaminant:
 S**2 before annihilation    -0.0000,   after    -0.0000
 DoSCS=T DFT=T ScalE2(SS,OS)=  0.270000  0.270000
 ExpMin= 1.03D-01 ExpMax= 8.24D+03 ExpMxC= 2.81D+02 IAcc=3 IRadAn=         5 AccDes= 0.00D+00
 HarFok:  IExCor=  205 AccDes= 0.00D+00 IRadAn=         5 IDoV=-2 UseB2=F ITyADJ=14
 ICtDFT= 12500011 ScaDFX=  1.000000  1.000000  1.000000  1.000000
 Range of M.O.s used for correlation:     4   174
 NBasis=   174 NAE=    12 NBE=    12 NFC=     3 NFV=     0
 NROrb=    171 NOA=     9 NOB=     9 NVA=   162 NVB=   162

 **** Warning!!: The largest alpha MO coefficient is  0.11880680D+02


 **** Warning!!: The largest beta MO coefficient is  0.11880680D+02

 DoSCS=T DFT=T ScalE2(SS,OS)=  0.270000  0.270000
 Fully direct method using O(ONN) memory.
 JobTyp=2 Pass  1:  I=   4 to  12 NPSUse= 40 ParTrn=T ParDer=T DoDerP=T.
 JobTyp=3 Pass  1:  I=   4 to  12 NPSUse= 40 ParTrn=T ParDer=T DoDerP=T.
 Spin components of T(2) and E(2):
     alpha-alpha T2 =       0.2955702512D-01 E2=     -0.1838743558D-01
     alpha-beta  T2 =       0.1970330534D+00 E2=     -0.1299355098D+00
     beta-beta   T2 =       0.2955702512D-01 E2=     -0.1838743558D-01
 (S**2,0)=  0.00000D+00           (S**2,1)=  0.00000D+00
 E(PUHF)=      -0.11766862102D+03        E(PMP2)=      -0.11783533140D+03
 E2(B2PLYPD3) =    -0.1667103809D+00 E(B2PLYPD3) =    -0.11783533139802D+03
          IDoAtm=111111111
          Differentiating once with respect to electric field.
                with respect to dipole field.
          Differentiating once with respect to nuclear coordinates.
 Keep R1 and R2 ints in memory in canonical form, NReq=272706688.
          There are     1 degrees of freedom in the 1st order CPHF.  IDoFFX=0 NUNeed=     1.
 LinEq1:  Iter=  0 NonCon=     1 RMS=6.48D-04 Max=1.09D-02 NDo=     1
 AX will form     1 AO Fock derivatives at one time.
 LinEq1:  Iter=  1 NonCon=     1 RMS=2.66D-04 Max=2.68D-03 NDo=     1
 LinEq1:  Iter=  2 NonCon=     1 RMS=6.43D-05 Max=1.57D-03 NDo=     1
 LinEq1:  Iter=  3 NonCon=     1 RMS=3.44D-05 Max=6.74D-04 NDo=     1
 LinEq1:  Iter=  4 NonCon=     1 RMS=1.01D-05 Max=1.46D-04 NDo=     1
 LinEq1:  Iter=  5 NonCon=     1 RMS=2.56D-06 Max=2.47D-05 NDo=     1
 LinEq1:  Iter=  6 NonCon=     1 RMS=6.89D-07 Max=8.74D-06 NDo=     1
 LinEq1:  Iter=  7 NonCon=     1 RMS=2.60D-07 Max=3.45D-06 NDo=     1
 LinEq1:  Iter=  8 NonCon=     1 RMS=9.04D-08 Max=8.46D-07 NDo=     1
 LinEq1:  Iter=  9 NonCon=     1 RMS=1.12D-08 Max=1.34D-07 NDo=     1
 LinEq1:  Iter= 10 NonCon=     1 RMS=2.07D-09 Max=1.73D-08 NDo=     1
 LinEq1:  Iter= 11 NonCon=     1 RMS=3.35D-10 Max=4.18D-09 NDo=     1
 LinEq1:  Iter= 12 NonCon=     0 RMS=4.64D-11 Max=4.22D-10 NDo=     1
 Linear equations converged to 1.000D-10 1.000D-09 after    12 iterations.
 End of Minotr F.D. properties file   721 does not exist.
 End of Minotr F.D. properties file   722 does not exist.
 End of Minotr F.D. properties file   788 does not exist.
 Calling FoFJK, ICntrl=  10002127 FMM=F ISym2X=0 I1Cent= 0 IOpClX= 1 NMat=1 NMatS=1 NMatT=0.
 -------------------------------------------------------------------
 Center     Atomic                   Forces (Hartrees/Bohr)
[...]
     3  C    2.505824   1.496109   0.000000
     4  H    2.651928   2.145757   1.088552   0.000000
     5  H    2.080921   1.084417   2.203243   3.093832   0.000000
     6  H    1.082056   2.105417   2.763853   2.457441   3.056290
     7  H    3.220868   2.144841   1.091065   1.766848   2.565018
     8  H    1.080006   2.105823   3.489007   3.729030   2.416185
     9  H    3.219230   2.144406   1.091079   1.766674   2.565833
                    6          7          8          9
     6  H    0.000000
     7  H    3.524847   0.000000
     8  H    1.844867   4.128812   0.000000
     9  H    3.522504   1.751653   4.127293   0.000000
 Symmetry turned off by external request.
 Stoichiometry    C3H6
 Framework group  C1[X(C3H6)]
 Deg. of freedom    21
 Full point group                 C1      NOp   1
 Rotational constants (GHZ):          47.0093140           9.3539624           8.1926801

 **********************************************************************

            Population analysis using the SCF Density.

 **********************************************************************

 Alpha  occ. eigenvalues --  -10.61840 -10.60804 -10.60186  -0.90381  -0.78992
 Alpha  occ. eigenvalues --   -0.64017  -0.54078  -0.49028  -0.47916  -0.43646
 Alpha  occ. eigenvalues --   -0.40760  -0.30219
 Alpha virt. eigenvalues --    0.07462   0.08821   0.11728   0.12380   0.15669
 Alpha virt. eigenvalues --    0.16179   0.18227   0.23911   0.30415   0.30867
 Alpha virt. eigenvalues --    0.32427   0.36247   0.38027   0.39215   0.42401
 Alpha virt. eigenvalues --    0.48036   0.48860   0.50827   0.52608   0.53328
 Alpha virt. eigenvalues --    0.53697   0.55379   0.57873   0.60685   0.62297
 Alpha virt. eigenvalues --    0.70075   0.70805   0.73799   0.75051   0.79980
 Alpha virt. eigenvalues --    0.81877   0.95093   0.95227   0.98324   0.98481
 Alpha virt. eigenvalues --    1.07207   1.07813   1.08879   1.10722   1.12796
 Alpha virt. eigenvalues --    1.16956   1.17444   1.21924   1.23557   1.26654
 Alpha virt. eigenvalues --    1.29239   1.29719   1.37060   1.38715   1.41245
 Alpha virt. eigenvalues --    1.45275   1.46937   1.48962   1.52109   1.58510
 Alpha virt. eigenvalues --    1.59006   1.59851   1.64079   1.77078   1.93778
 Alpha virt. eigenvalues --    2.16032   2.20114   2.28941   2.34086   2.38934
 Alpha virt. eigenvalues --    2.39178   2.44806   2.48613   2.53409   2.59659
 Alpha virt. eigenvalues --    2.66645   2.72133   2.72404   2.78584   2.85551
 Alpha virt. eigenvalues --    2.87401   2.88171   2.90069   2.94450   2.97719
 Alpha virt. eigenvalues --    2.98887   3.01261   3.01544   3.02229   3.05871
 Alpha virt. eigenvalues --    3.09776   3.11390   3.14438   3.15609   3.18164
 Alpha virt. eigenvalues --    3.23514   3.23610   3.26623   3.31405   3.36998
 Alpha virt. eigenvalues --    3.39372   3.40474   3.43817   3.45826   3.52391
 Alpha virt. eigenvalues --    3.56126   3.57047   3.58043   3.59380   3.64950
 Alpha virt. eigenvalues --    3.72959   3.74342   3.79414   3.82690   3.83523
 Alpha virt. eigenvalues --    3.86946   3.86993   3.91585   3.95720   4.01321
 Alpha virt. eigenvalues --    4.01730   4.04343   4.05386   4.08408   4.15117
 Alpha virt. eigenvalues --    4.16562   4.17930   4.23401   4.24659   4.25373
 Alpha virt. eigenvalues --    4.34476   4.35532   4.38630   4.41626   4.51587
 Alpha virt. eigenvalues --    4.52979   4.57312   4.60380   4.67293   4.78872
 Alpha virt. eigenvalues --    4.84377   4.88285   4.94915   4.97542   5.00748
 Alpha virt. eigenvalues --    5.08973   5.10554   5.15371   5.17400   5.20937
 Alpha virt. eigenvalues --    5.33697   5.34437   5.37556   5.41333   5.45766
 Alpha virt. eigenvalues --    5.51186   5.56821   5.58918   5.75856   5.98264
 Alpha virt. eigenvalues --    6.01263   6.07436   6.14496   6.42906  11.09541
 Alpha virt. eigenvalues --   13.71995  14.32818
  Beta  occ. eigenvalues --  -10.61840 -10.60804 -10.60186  -0.90381  -0.78992
  Beta  occ. eigenvalues --   -0.64017  -0.54078  -0.49028  -0.47916  -0.43646
  Beta  occ. eigenvalues --   -0.40760  -0.30219
  Beta virt. eigenvalues --    0.07462   0.08821   0.11728   0.12380   0.15669
  Beta virt. eigenvalues --    0.16179   0.18227   0.23911   0.30415   0.30867
  Beta virt. eigenvalues --    0.32427   0.36247   0.38027   0.39215   0.42401
  Beta virt. eigenvalues --    0.48036   0.48860   0.50827   0.52608   0.53328
  Beta virt. eigenvalues --    0.53697   0.55379   0.57873   0.60685   0.62297
  Beta virt. eigenvalues --    0.70075   0.70805   0.73799   0.75051   0.79980
  Beta virt. eigenvalues --    0.81877   0.95093   0.95227   0.98324   0.98481
  Beta virt. eigenvalues --    1.07207   1.07813   1.08879   1.10722   1.12796
  Beta virt. eigenvalues --    1.16956   1.17444   1.21924   1.23557   1.26654
  Beta virt. eigenvalues --    1.29239   1.29719   1.37060   1.38715   1.41245
  Beta virt. eigenvalues --    1.45275   1.46937   1.48962   1.52109   1.58510
  Beta virt. eigenvalues --    1.59006   1.59851   1.64079   1.77078   1.93778
  Beta virt. eigenvalues --    2.16032   2.20114   2.28941   2.34086   2.38934
  Beta virt. eigenvalues --    2.39178   2.44806   2.48613   2.53409   2.59659
  Beta virt. eigenvalues --    2.66645   2.72133   2.72404   2.78584   2.85551
  Beta virt. eigenvalues --    2.87401   2.88171   2.90069   2.94450   2.97719
  Beta virt. eigenvalues --    2.98887   3.01261   3.01544   3.02229   3.05871
  Beta virt. eigenvalues --    3.09776   3.11390   3.14438   3.15609   3.18164
  Beta virt. eigenvalues --    3.23514   3.23610   3.26623   3.31405   3.36998
  Beta virt. eigenvalues --    3.39372   3.40474   3.43817   3.45826   3.52391
  Beta virt. eigenvalues --    3.56126   3.57047   3.58043   3.59380   3.64950
  Beta virt. eigenvalues --    3.72959   3.74342   3.79414   3.82690   3.83523
  Beta virt. eigenvalues --    3.86946   3.86993   3.91585   3.95720   4.01321
  Beta virt. eigenvalues --    4.01730   4.04343   4.05386   4.08408   4.15117
  Beta virt. eigenvalues --    4.16562   4.17930   4.23401   4.24659   4.25373
  Beta virt. eigenvalues --    4.34476   4.35532   4.38630   4.41626   4.51587
  Beta virt. eigenvalues --    4.52979   4.57312   4.60380   4.67293   4.78872
  Beta virt. eigenvalues --    4.84377   4.88285   4.94915   4.97542   5.00748
  Beta virt. eigenvalues --    5.08973   5.10554   5.15371   5.17400   5.20937
  Beta virt. eigenvalues --    5.33697   5.34437   5.37556   5.41333   5.45766
  Beta virt. eigenvalues --    5.51186   5.56821   5.58918   5.75856   5.98264
  Beta virt. eigenvalues --    6.01263   6.07436   6.14496   6.42906  11.09541
  Beta virt. eigenvalues --   13.71995  14.32818
          Condensed to atoms (all electrons):
               1          2          3          4          5          6
     1  C    4.950230   0.639870  -0.058285  -0.003042  -0.045796   0.407961
     2  C    0.639870   4.897291   0.351955  -0.039844   0.413450  -0.048363
     3  C   -0.058285   0.351955   4.782100   0.409158  -0.040114  -0.007166
     4  H   -0.003042  -0.039844   0.409158   0.584203   0.005850   0.004454
     5  H   -0.045796   0.413450  -0.040114   0.005850   0.543119   0.006889
     6  H    0.407961  -0.048363  -0.007166   0.004454   0.006889   0.553918
     7  H    0.000488  -0.040193   0.409923  -0.028175  -0.002607   0.000100
     8  H    0.420140  -0.046471   0.006615  -0.000014  -0.008194  -0.036001
     9  H    0.000437  -0.040226   0.409870  -0.028178  -0.002578   0.000100
               7          8          9
     1  C    0.000488   0.420140   0.000437
     2  C   -0.040193  -0.046471  -0.040226
     3  C    0.409923   0.006615   0.409870
     4  H   -0.028175  -0.000014  -0.028178
     5  H   -0.002607  -0.008194  -0.002578
     6  H    0.000100  -0.036001   0.000100
     7  H    0.600720  -0.000322  -0.037974
     8  H   -0.000322   0.540812  -0.000323
     9  H   -0.037974  -0.000323   0.600813
          Atomic-Atomic Spin Densities.
               1          2          3          4          5          6
     1  C   -0.000000   0.000000  -0.000000   0.000000   0.000000  -0.000000
     2  C    0.000000  -0.000000  -0.000000   0.000000   0.000000   0.000000
     3  C   -0.000000  -0.000000   0.000000   0.000000   0.000000   0.000000
     4  H    0.000000   0.000000   0.000000   0.000000  -0.000000   0.000000
     5  H    0.000000   0.000000   0.000000  -0.000000   0.000000   0.000000
     6  H   -0.000000   0.000000   0.000000   0.000000   0.000000  -0.000000
     7  H   -0.000000  -0.000000  -0.000000  -0.000000  -0.000000  -0.000000
     8  H    0.000000   0.000000   0.000000   0.000000  -0.000000   0.000000
     9  H   -0.000000  -0.000000   0.000000   0.000000   0.000000  -0.000000
               7          8          9
     1  C   -0.000000   0.000000  -0.000000
     2  C   -0.000000   0.000000  -0.000000
     3  C   -0.000000   0.000000   0.000000
     4  H   -0.000000   0.000000   0.000000
     5  H   -0.000000  -0.000000   0.000000
     6  H   -0.000000   0.000000  -0.000000
     7  H   -0.000000  -0.000000  -0.000000
     8  H   -0.000000   0.000000  -0.000000
     9  H   -0.000000  -0.000000  -0.000000
 Mulliken charges and spin densities:
               1          2
     1  C   -0.312003  -0.000000
     2  C   -0.087469  -0.000000
     3  C   -0.264055   0.000000
     4  H    0.095587   0.000000
     5  H    0.129981   0.000000
     6  H    0.118106  -0.000000
     7  H    0.098040  -0.000000
     8  H    0.123757   0.000000
     9  H    0.098057  -0.000000
 Sum of Mulliken charges =  -0.00000   0.00000
 Mulliken charges and spin densities with hydrogens summed into heavy atoms:
               1          2
     1  C   -0.070140  -0.000000
     2  C    0.042511  -0.000000
     3  C    0.027629   0.000000
 Electronic spatial extent (au):  <R**2>=            196.5977
 Charge=             -0.0000 electrons
 Dipole moment (field-independent basis, Debye):
    X=             -0.3382    Y=             -0.1719    Z=              0.1002  Tot=              0.3924
 Quadrupole moment (field-independent basis, Debye-Ang):
   XX=            -19.4896   YY=            -20.2996   ZZ=            -20.5606
   XY=              0.2460   XZ=              0.1981   YZ=             -1.4754
 Traceless Quadrupole moment (field-independent basis, Debye-Ang):
   XX=              0.6270   YY=             -0.1830   ZZ=             -0.4440
   XY=              0.2460   XZ=              0.1981   YZ=             -1.4754
 Octapole moment (field-independent basis, Debye-Ang**2):
  XXX=              1.7304  YYY=              1.0606  ZZZ=             -0.2251  XYY=             -1.0829
  XXY=              1.1344  XXZ=              0.5326  XZZ=             -1.4624  YZZ=              0.8067
  YYZ=             -1.0985  XYZ=             -1.1853
 Hexadecapole moment (field-independent basis, Debye-Ang**3):
 XXXX=           -168.1604 YYYY=            -57.4258 ZZZZ=            -45.4027 XXXY=            -19.1789
 XXXZ=              6.9925 YYYX=            -20.0015 YYYZ=              7.5839 ZZZX=              6.2294
 ZZZY=              7.3756 XXYY=            -38.9280 XXZZ=            -36.6847 YYZZ=            -16.0527
 XXYZ=              2.2439 YYXZ=              2.8463 ZZXY=             -7.4688
 N-N= 7.093321552614D+01 E-N=-4.143010942876D+02  KE= 1.171089423552D+02
                          Isotropic Fermi Contact Couplings
        Atom                 a.u.       MegaHertz       Gauss      10(-4) cm-1
     1  C(13)             -0.00000      -0.00000      -0.00000      -0.00000
     2  C(13)             -0.00000      -0.00000      -0.00000      -0.00000
     3  C(13)              0.00000       0.00000       0.00000       0.00000
     4  H(1)              -0.00000      -0.00000      -0.00000      -0.00000
     5  H(1)               0.00000       0.00000       0.00000       0.00000
     6  H(1)              -0.00000      -0.00000      -0.00000      -0.00000
     7  H(1)              -0.00000      -0.00000      -0.00000      -0.00000
     8  H(1)              -0.00000      -0.00000      -0.00000      -0.00000
     9  H(1)              -0.00000      -0.00000      -0.00000      -0.00000
 --------------------------------------------------------
       Center         ----  Spin Dipole Couplings  ----
                      3XX-RR        3YY-RR        3ZZ-RR
 --------------------------------------------------------
     1   Atom        0.000000      0.000000      0.000000
     2   Atom        0.000000      0.000000      0.000000
     3   Atom        0.000000      0.000000      0.000000
     4   Atom        0.000000      0.000000      0.000000
     5   Atom        0.000000      0.000000      0.000000
     6   Atom        0.000000      0.000000      0.000000
     7   Atom        0.000000      0.000000      0.000000
     8   Atom        0.000000      0.000000      0.000000
     9   Atom        0.000000      0.000000      0.000000
 --------------------------------------------------------
                        XY            XZ            YZ
 --------------------------------------------------------
     1   Atom        0.000000      0.000000      0.000000
     2   Atom        0.000000      0.000000      0.000000
     3   Atom        0.000000      0.000000      0.000000
     4   Atom        0.000000      0.000000      0.000000
     5   Atom        0.000000      0.000000      0.000000
     6   Atom        0.000000      0.000000      0.000000
     7   Atom        0.000000      0.000000      0.000000
     8   Atom        0.000000      0.000000      0.000000
     9   Atom        0.000000      0.000000      0.000000
 --------------------------------------------------------


 ---------------------------------------------------------------------------------
              Anisotropic Spin Dipole Couplings in Principal Axis System
 ---------------------------------------------------------------------------------

       Atom             a.u.   MegaHertz   Gauss  10(-4) cm-1        Axes

              Baa     0.0000     0.000     0.000     0.000  1.0000  0.0000  0.0000
     1 C(13)  Bbb     0.0000     0.000     0.000     0.000 -0.0000  1.0000  0.0000
              Bcc     0.0000     0.000     0.000     0.000  0.0000  0.0000  1.0000
 
              Baa     0.0000     0.000     0.000     0.000  1.0000  0.0000  0.0000
     2 C(13)  Bbb     0.0000     0.000     0.000     0.000 -0.0000  1.0000  0.0000
              Bcc     0.0000     0.000     0.000     0.000  0.0000  0.0000  1.0000
 
              Baa     0.0000     0.000     0.000     0.000  1.0000  0.0000  0.0000
     3 C(13)  Bbb     0.0000     0.000     0.000     0.000 -0.0000  1.0000  0.0000
              Bcc     0.0000     0.000     0.000     0.000  0.0000  0.0000  1.0000
 
              Baa     0.0000     0.000     0.000     0.000  1.0000  0.0000  0.0000
     4 H(1)   Bbb     0.0000     0.000     0.000     0.000 -0.0000  1.0000  0.0000
              Bcc     0.0000     0.000     0.000     0.000  0.0000  0.0000  1.0000
 
              Baa     0.0000     0.000     0.000     0.000  1.0000  0.0000  0.0000
     5 H(1)   Bbb     0.0000     0.000     0.000     0.000 -0.0000  1.0000  0.0000
              Bcc     0.0000     0.000     0.000     0.000  0.0000  0.0000  1.0000
 
              Baa     0.0000     0.000     0.000     0.000  1.0000  0.0000  0.0000
     6 H(1)   Bbb     0.0000     0.000     0.000     0.000 -0.0000  1.0000  0.0000
              Bcc     0.0000     0.000     0.000     0.000  0.0000  0.0000  1.0000
 
              Baa     0.0000     0.000     0.000     0.000  1.0000  0.0000  0.0000
     7 H(1)   Bbb     0.0000     0.000     0.000     0.000 -0.0000  1.0000  0.0000
              Bcc     0.0000     0.000     0.000     0.000  0.0000  0.0000  1.0000
 
              Baa     0.0000     0.000     0.000     0.000  1.0000  0.0000  0.0000
     8 H(1)   Bbb     0.0000     0.000     0.000     0.000 -0.0000  1.0000  0.0000
              Bcc     0.0000     0.000     0.000     0.000  0.0000  0.0000  1.0000
 
              Baa     0.0000     0.000     0.000     0.000  1.0000  0.0000  0.0000
     9 H(1)   Bbb     0.0000     0.000     0.000     0.000 -0.0000  1.0000  0.0000
              Bcc     0.0000     0.000     0.000     0.000  0.0000  0.0000  1.0000
 

 ---------------------------------------------------------------------------------

 1\1\GINC-N69\Scan\UB2PLYPD3-FC\CC-pVTZ\C3H6\ROOT\01-Jun-2019\0\\# opt=
 (maxcyc=500,modredundant) uB2PLYPD3/cc-pvtz scf=maxcyc=500 nosymm\\Tit
 le Card Required\\0,1\C,1.1413255235,0.5076036722,-0.2935200836\C,0.27
 3683516,-0.3022739556,0.3047105638\C,-1.2019939216,-0.3073771308,0.058
 3519637\H,-1.481740083,0.4435304493,-0.6784148268\H,0.6432165396,-1.02
 01638268,1.028616549\H,0.817769828,1.2392204968,-1.0221442336\H,-1.753
 2410201,-0.1070455505,0.9783606911\H,2.1979879642,0.4644198338,-0.0744
 009355\H,-1.5347173467,-1.2818529884,-0.3024056882\\Version=ES64L-G16R
 evB.01\HF=-117.6688215,-117.6686286,-117.6680821,-117.6672903,-117.666
 4413,-117.6657775,-117.6655234,-117.6657816,-117.666437,-117.6672739,-
 117.6680541,-117.6686021,-117.6688186,-117.6686635,-117.6681564,-117.6
 673839,-117.6665153,-117.6658054,-117.6655231,-117.6657954,-117.666499
 2,-117.6673665,-117.668143,-117.6686561,-117.6688192,-117.6686109,-117
 .6680678,-117.6672902,-117.6664508,-117.6657866,-117.6655247,-117.6657
 682,-117.6664255,-117.6672728,-117.6680677,-117.6686213,-117.6688208\M
 P2=-117.8355218,-117.8353366,-117.8348062,-117.834036,-117.8332055,-11
 7.8325529,-117.8323049,-117.8325587,-117.8332112,-117.8340304,-117.834
 7868,-117.8353151,-117.8355213,-117.8353703,-117.8348806,-117.8341318,
 -117.8332838,-117.8325845,-117.8323049,-117.8325741,-117.8332679,-117.
 8341158,-117.8348685,-117.8353639,-117.8355214,-117.8353223,-117.83479
 97,-117.8340465,-117.8332263,-117.8325686,-117.8323049,-117.8325434,-1
 17.8331902,-117.8340197,-117.8347932,-117.8353298,-117.8355225\PUHF=-1
 17.6688215,-117.6686286,-117.6680821,-117.6672903,-117.6664413,-117.66
 57775,-117.6655234,-117.6657816,-117.666437,-117.6672739,-117.6680541,
 -117.6686021,-117.6688186,-117.6686635,-117.6681564,-117.6673839,-117.
 6665153,-117.6658054,-117.6655231,-117.6657954,-117.6664992,-117.66736
 65,-117.668143,-117.6686561,-117.6688192,-117.6686109,-117.6680678,-11
 7.6672902,-117.6664508,-117.6657866,-117.6655247,-117.6657682,-117.666
 4255,-117.6672728,-117.6680677,-117.6686213,-117.6688208\PMP2-0=-117.8
 355218,-117.8353366,-117.8348062,-117.834036,-117.8332055,-117.8325529
 ,-117.8323049,-117.8325587,-117.8332112,-117.8340304,-117.8347868,-117
 .8353151,-117.8355213,-117.8353703,-117.8348806,-117.8341318,-117.8332
 838,-117.8325845,-117.8323049,-117.8325741,-117.8332679,-117.8341158,-
 117.8348685,-117.8353639,-117.8355214,-117.8353223,-117.8347997,-117.8
 340465,-117.8332263,-117.8325686,-117.8323049,-117.8325434,-117.833190
 2,-117.8340197,-117.8347932,-117.8353298,-117.8355225\S2=0.,0.,0.,0.,0
 .,0.,0.,0.,0.,0.,0.,0.,0.,0.,0.,0.,0.,0.,0.,0.,0.,0.,0.,0.,0.,0.,0.,0.
 ,0.,0.,0.,0.,0.,0.,0.,0.,0.\S2-1=0.,0.,0.,0.,0.,0.,0.,0.,0.,0.,0.,0.,0
 .,0.,0.,0.,0.,0.,0.,0.,0.,0.,0.,0.,0.,0.,0.,0.,0.,0.,0.,0.,0.,0.,0.,0.
 ,0.\S2A=0.,0.,0.,0.,0.,0.,0.,0.,0.,0.,0.,0.,0.,0.,0.,0.,0.,0.,0.,0.,0.
 ,0.,0.,0.,0.,0.,0.,0.,0.,0.,0.,0.,0.,0.,0.,0.,0.\RMSD=7.456e-09,8.306e
 -09,5.892e-09,2.286e-09,1.873e-09,9.816e-09,5.964e-09,8.695e-09,7.444e
 -09,2.228e-09,5.862e-09,5.189e-09,6.512e-09,6.930e-09,6.905e-09,2.852e
 -09,2.263e-09,2.223e-09,2.605e-09,2.979e-09,8.648e-09,2.518e-09,9.244e
 -09,5.598e-09,8.094e-09,8.344e-09,8.990e-09,2.990e-09,2.353e-09,6.471e
 -09,9.711e-09,5.897e-09,6.537e-09,2.185e-09,2.496e-09,3.691e-09,7.763e
 -09\PG=C01 [X(C3H6)]\\@


 MEMORIES ARE LIKE AN ENGLISH GRAMMER LESSON -
 PRESENT TENSE, AND PAST PERFECT.
 Job cpu time:       0 days 20 hours 54 minutes 22.3 seconds.
 Elapsed time:       0 days  0 hours 43 minutes  8.4 seconds.
 File lengths (MBytes):  RWF=     32 Int=      0 D2E=      0 Chk=      8 Scr=      1
 Normal termination of Gaussian 16 at Sat Jun  1 01:29:41 2019.
