 Entering Gaussian System, Link 0=g16
 Initial command:
 /ichec/packages/gaussian/16b01/l1.exe "/localscratch/339542/Gau-47482.inp" -scrdir="/localscratch/339542/"
 Entering Link 1 = /ichec/packages/gaussian/16b01/l1.exe PID=     47484.
  
 Copyright (c) 1988-2017, Gaussian, Inc.  All Rights Reserved.
  
 This is part of the Gaussian(R) 16 program.  It is based on
 the Gaussian(R) 09 system (copyright 2009, Gaussian, Inc.),
 the Gaussian(R) 03 system (copyright 2003, Gaussian, Inc.),
 the Gaussian(R) 98 system (copyright 1998, Gaussian, Inc.),
 the Gaussian(R) 94 system (copyright 1995, Gaussian, Inc.),
 the Gaussian 92(TM) system (copyright 1992, Gaussian, Inc.),
 the Gaussian 90(TM) system (copyright 1990, Gaussian, Inc.),
 the Gaussian 88(TM) system (copyright 1988, Gaussian, Inc.),
 the Gaussian 86(TM) system (copyright 1986, Carnegie Mellon
 University), and the Gaussian 82(TM) system (copyright 1983,
 Carnegie Mellon University). Gaussian is a federally registered
 trademark of Gaussian, Inc.
  
 This software contains proprietary and confidential information,
 including trade secrets, belonging to Gaussian, Inc.
  
 This software is provided under written license and may be
 used, copied, transmitted, or stored only in accord with that
 written license.
  
 The following legend is applicable only to US Government
 contracts under FAR:
  
                    RESTRICTED RIGHTS LEGEND
  
 Use, reproduction and disclosure by the US Government is
 subject to restrictions as set forth in subparagraphs (a)
 and (c) of the Commercial Computer Software - Restricted
 Rights clause in FAR 52.227-19.
  
 Gaussian, Inc.
 340 Quinnipiac St., Bldg. 40, Wallingford CT 06492
  
  
 ---------------------------------------------------------------
 Warning -- This program may not be used in any manner that
 competes with the business of Gaussian, Inc. or will provide
 assistance to any competitor of Gaussian, Inc.  The licensee
 of this program is prohibited from giving any competitor of
 Gaussian, Inc. access to this program.  By using this program,
 the user acknowledges that Gaussian, Inc. is engaged in the
 business of creating and licensing software in the field of
 computational chemistry and represents and warrants to the
 licensee that it is not a competitor of Gaussian, Inc. and that
 it will not use this program in any manner prohibited above.
 ---------------------------------------------------------------
  

 Cite this work as:
 Gaussian 16, Revision B.01,
 M. J. Frisch, G. W. Trucks, H. B. Schlegel, G. E. Scuseria, 
 M. A. Robb, J. R. Cheeseman, G. Scalmani, V. Barone, 
 G. A. Petersson, H. Nakatsuji, X. Li, M. Caricato, A. V. Marenich, 
 J. Bloino, B. G. Janesko, R. Gomperts, B. Mennucci, H. P. Hratchian, 
 J. V. Ortiz, A. F. Izmaylov, J. L. Sonnenberg, D. Williams-Young, 
 F. Ding, F. Lipparini, F. Egidi, J. Goings, B. Peng, A. Petrone, 
 T. Henderson, D. Ranasinghe, V. G. Zakrzewski, J. Gao, N. Rega, 
 G. Zheng, W. Liang, M. Hada, M. Ehara, K. Toyota, R. Fukuda, 
 J. Hasegawa, M. Ishida, T. Nakajima, Y. Honda, O. Kitao, H. Nakai, 
 T. Vreven, K. Throssell, J. A. Montgomery, Jr., J. E. Peralta, 
 F. Ogliaro, M. J. Bearpark, J. J. Heyd, E. N. Brothers, K. N. Kudin, 
 V. N. Staroverov, T. A. Keith, R. Kobayashi, J. Normand, 
 K. Raghavachari, A. P. Rendell, J. C. Burant, S. S. Iyengar, 
 J. Tomasi, M. Cossi, J. M. Millam, M. Klene, C. Adamo, R. Cammi, 
 J. W. Ochterski, R. L. Martin, K. Morokuma, O. Farkas, 
 J. B. Foresman, and D. J. Fox, Gaussian, Inc., Wallingford CT, 2016.
 
 ******************************************
 Gaussian 16:  ES64L-G16RevB.01 20-Dec-2017
                31-May-2019 
 ******************************************
 %mem=80GB
 %nproc=40
 Will use up to   40 processors via shared memory.
 -----------------------------------------------
 # opt=maxcyc=500 freq=noraman uB2PLYPD3/cc-pvtz
 -----------------------------------------------
 1/6=500,18=20,19=15,38=1/1,3;
 2/9=110,12=2,17=6,18=5,40=1/2;
 3/5=16,6=1,11=2,25=1,30=1,71=1,74=-60,116=2/1,2,3;
 4//1;
 5/5=2,38=5/2;
 8/6=4,10=1/1;
 9/15=2,16=-3/6;
 10/5=1/2;
 6/7=2,8=2,9=2,10=2/1;
 7/12=2/1,2,3,16;
 1/6=500,18=20,19=15/3(2);
 2/9=110/2;
 99//99;
 2/9=110/2;
 3/5=16,6=1,11=2,25=1,30=1,71=1,74=-60,116=2/1,2,3;
 4/5=5,16=3,69=1/1;
 5/5=2,38=5/2;
 8/6=4,10=1/1;
 9/15=2,16=-3/6;
 10/5=1/2;
 7/12=2/1,2,3,16;
 1/6=500,18=20,19=15/3(-8);
 2/9=110/2;
 6/7=2,8=2,9=2,10=2/1;
 99/9=10/99;
 -------------------
 Title Card Required
 -------------------
 Symbolic Z-matrix:
 Charge =  0 Multiplicity = 2
 C                     1.27481  -0.22233   0.0001 
 C                     0.13448   0.45801   0.00012 
 C                    -1.22975  -0.16289  -0.00005 
 H                    -1.16569  -1.25215  -0.00194 
 H                     0.17055   1.54523  -0.00026 
 H                     1.2832   -1.30795  -0.00012 
 H                    -1.80101   0.15112  -0.878 
 H                    -1.79955   0.1482    0.87986 
 

 GradGradGradGradGradGradGradGradGradGradGradGradGradGradGradGradGradGrad
 Berny optimization.
 Initialization pass.
                           ----------------------------
                           !    Initial Parameters    !
                           ! (Angstroms and Degrees)  !
 --------------------------                            --------------------------
 ! Name  Definition              Value          Derivative Info.                !
 --------------------------------------------------------------------------------
 ! R1    R(1,2)                  1.3279         estimate D2E/DX2                !
 ! R2    R(1,6)                  1.0857         estimate D2E/DX2                !
 ! R3    R(2,3)                  1.4989         estimate D2E/DX2                !
 ! R4    R(2,5)                  1.0878         estimate D2E/DX2                !
 ! R5    R(3,4)                  1.0911         estimate D2E/DX2                !
 ! R6    R(3,7)                  1.0935         estimate D2E/DX2                !
 ! R7    R(3,8)                  1.0935         estimate D2E/DX2                !
 ! A1    A(2,1,6)              121.2633         estimate D2E/DX2                !
 ! A2    A(1,2,3)              124.7078         estimate D2E/DX2                !
 ! A3    A(1,2,5)              118.9207         estimate D2E/DX2                !
 ! A4    A(3,2,5)              116.3715         estimate D2E/DX2                !
 ! A5    A(2,3,4)              111.1057         estimate D2E/DX2                !
 ! A6    A(2,3,7)              110.8937         estimate D2E/DX2                !
 ! A7    A(2,3,8)              110.8757         estimate D2E/DX2                !
 ! A8    A(4,3,7)              108.4178         estimate D2E/DX2                !
 ! A9    A(4,3,8)              108.4199         estimate D2E/DX2                !
 ! A10   A(7,3,8)              106.9868         estimate D2E/DX2                !
 ! D1    D(6,1,2,3)              0.0039         estimate D2E/DX2                !
 ! D2    D(6,1,2,5)           -179.9633         estimate D2E/DX2                !
 ! D3    D(1,2,3,4)             -0.0974         estimate D2E/DX2                !
 ! D4    D(1,2,3,7)           -120.7507         estimate D2E/DX2                !
 ! D5    D(1,2,3,8)            120.5464         estimate D2E/DX2                !
 ! D6    D(5,2,3,4)            179.8706         estimate D2E/DX2                !
 ! D7    D(5,2,3,7)             59.2173         estimate D2E/DX2                !
 ! D8    D(5,2,3,8)            -59.4857         estimate D2E/DX2                !
 --------------------------------------------------------------------------------
 Trust Radius=3.00D-01 FncErr=1.00D-07 GrdErr=1.00D-07 EigMax=2.50D+02 EigMin=1.00D-04
 Number of steps in this run=    100 maximum allowed number of steps=    100.
 GradGradGradGradGradGradGradGradGradGradGradGradGradGradGradGradGradGrad

                          Input orientation:                          
 ---------------------------------------------------------------------
 Center     Atomic      Atomic             Coordinates (Angstroms)
 Number     Number       Type             X           Y           Z
 ---------------------------------------------------------------------
      1          6           0        1.274812   -0.222332    0.000099
      2          6           0        0.134476    0.458005    0.000124
      3          6           0       -1.229746   -0.162885   -0.000054
      4          1           0       -1.165686   -1.252151   -0.001938
      5          1           0        0.170545    1.545233   -0.000261
      6          1           0        1.283197   -1.307952   -0.000121
      7          1           0       -1.801008    0.151116   -0.877998
      8          1           0       -1.799550    0.148195    0.879858
 ---------------------------------------------------------------------
                    Distance matrix (angstroms):
                    1          2          3          4          5
     1  C    0.000000
     2  C    1.327865   0.000000
     3  C    2.505263   1.498868   0.000000
     4  H    2.648879   2.148269   1.091150   0.000000
     5  H    2.084153   1.087826   2.208729   3.100141   0.000000
     6  H    1.085652   2.106695   2.761532   2.449519   3.062460
     7  H    3.220433   2.147412   1.093491   1.772082   2.569242
     8  H    3.219156   2.147177   1.093477   1.772094   2.570525
                    6          7          8
     6  H    0.000000
     7  H    3.523048   0.000000
     8  H    3.521087   1.757859   0.000000
 Stoichiometry    C3H5(2)
 Framework group  C1[X(C3H5)]
 Deg. of freedom    18
 Full point group                 C1      NOp   1
 Largest Abelian subgroup         C1      NOp   1
 Largest concise Abelian subgroup C1      NOp   1
                         Standard orientation:                         
 ---------------------------------------------------------------------
 Center     Atomic      Atomic             Coordinates (Angstroms)
 Number     Number       Type             X           Y           Z
 ---------------------------------------------------------------------
      1          6           0        1.377888   -0.167292    0.000075
      2          6           0        0.216877    0.477128    0.000100
      3          6           0       -1.127305   -0.186032   -0.000078
      4          1           0       -1.029284   -1.272768   -0.001962
      5          1           0        0.219000    1.564952   -0.000285
      6          1           0        1.420148   -1.252121   -0.000145
      7          1           0       -1.708087    0.109989   -0.878022
      8          1           0       -1.706539    0.107115    0.879834
 ---------------------------------------------------------------------
 Rotational constants (GHZ):          47.1153840          10.3149546           8.9278614
 Standard basis: CC-pVTZ (5D, 7F)
 There are   180 symmetry adapted cartesian basis functions of A   symmetry.
 There are   160 symmetry adapted basis functions of A   symmetry.
   160 basis functions,   241 primitive gaussians,   180 cartesian basis functions
    12 alpha electrons       11 beta electrons
       nuclear repulsion energy        64.6149984523 Hartrees.
 NAtoms=    8 NActive=    8 NUniq=    8 SFac= 1.00D+00 NAtFMM=   60 NAOKFM=F Big=F
 Integral buffers will be    131072 words long.
 Raffenetti 2 integral format.
 Two-electron integral symmetry is turned on.
 Nuclear repulsion after empirical dispersion term =       64.6118333852 Hartrees.
 One-electron integrals computed using PRISM.
 NBasis=   160 RedAO= T EigKep=  6.30D-04  NBF=   160
 NBsUse=   160 1.00D-06 EigRej= -1.00D+00 NBFU=   160
 ExpMin= 1.03D-01 ExpMax= 8.24D+03 ExpMxC= 2.81D+02 IAcc=3 IRadAn=         5 AccDes= 0.00D+00
 Harris functional with IExCor=  419 and IRadAn=       5 diagonalized for initial guess.
 HarFok:  IExCor=  419 AccDes= 0.00D+00 IRadAn=         5 IDoV= 1 UseB2=F ITyADJ=14
 ICtDFT=  3500011 ScaDFX=  1.000000  1.000000  1.000000  1.000000
 FoFCou: FMM=F IPFlag=           0 FMFlag=      100000 FMFlg1=           0
         NFxFlg=           0 DoJE=T BraDBF=F KetDBF=T FulRan=T
         wScrn=  0.000000 ICntrl=       500 IOpCl=  0 I1Cent=   200000004 NGrid=           0
         NMat0=    1 NMatS0=      1 NMatT0=    0 NMatD0=    1 NMtDS0=    0 NMtDT0=    0
 Petite list used in FoFCou.
 Initial guess <Sx>= 0.0000 <Sy>= 0.0000 <Sz>= 0.5000 <S**2>= 0.7500 S= 0.5000
 Keep R1 and R2 ints in memory in canonical form, NReq=206286096.
 Requested convergence on RMS density matrix=1.00D-08 within 128 cycles.
 Requested convergence on MAX density matrix=1.00D-06.
 Requested convergence on             energy=1.00D-06.
 No special actions if energy rises.
 Integral accuracy reduced to 1.0D-05 until final iterations.
 Initial convergence to 1.0D-05 achieved.  Increase integral accuracy.
 SCF Done:  E(UB2PLYPD3) =  -116.989890651     A.U. after   19 cycles
            NFock= 19  Conv=0.38D-08     -V/T= 2.0049
 <Sx>= 0.0000 <Sy>= 0.0000 <Sz>= 0.5000 <S**2>= 0.7839 S= 0.5168
 <L.S>=  0.00000000000    
 Annihilation of the first spin contaminant:
 S**2 before annihilation     0.7839,   after     0.7502
 DoSCS=T DFT=T ScalE2(SS,OS)=  0.270000  0.270000
 ExpMin= 1.03D-01 ExpMax= 8.24D+03 ExpMxC= 2.81D+02 IAcc=3 IRadAn=         5 AccDes= 0.00D+00
 HarFok:  IExCor=  205 AccDes= 0.00D+00 IRadAn=         5 IDoV=-2 UseB2=F ITyADJ=14
 ICtDFT= 12500011 ScaDFX=  1.000000  1.000000  1.000000  1.000000
 Range of M.O.s used for correlation:     4   160
 NBasis=   160 NAE=    12 NBE=    11 NFC=     3 NFV=     0
 NROrb=    157 NOA=     9 NOB=     8 NVA=   148 NVB=   149

 **** Warning!!: The largest alpha MO coefficient is  0.13452630D+02


 **** Warning!!: The largest beta MO coefficient is  0.12049420D+02

 DoSCS=T DFT=T ScalE2(SS,OS)=  0.270000  0.270000
 Fully direct method using O(ONN) memory.
 JobTyp=2 Pass  1:  I=   4 to  12 NPSUse= 40 ParTrn=T ParDer=T DoDerP=T.
 JobTyp=3 Pass  1:  I=   4 to  11 NPSUse= 40 ParTrn=T ParDer=T DoDerP=T.
 Spin components of T(2) and E(2):
     alpha-alpha T2 =       0.3118310116D-01 E2=     -0.1931695163D-01
     alpha-beta  T2 =       0.1846172628D+00 E2=     -0.1195430739D+00
     beta-beta   T2 =       0.2663636681D-01 E2=     -0.1590240911D-01
 (S**2,0)=  0.78391D+00           (S**2,1)=  0.76330D+00
 Scaling Projection term by:   0.270000
 E(PUHF)=      -0.11699357219D+03        E(PMP2)=      -0.11714534627D+03
 E2(B2PLYPD3) =    -0.1547624347D+00 E(B2PLYPD3) =    -0.11714465308559D+03
          IDoAtm=11111111
          Differentiating once with respect to electric field.
                with respect to dipole field.
          Differentiating once with respect to nuclear coordinates.
 Keep R1 and R2 ints in memory in canonical form, NReq=206291724.
          There are     1 degrees of freedom in the 1st order CPHF.  IDoFFX=0 NUNeed=     1.
 LinEq1:  Iter=  0 NonCon=     1 RMS=1.05D-03 Max=2.72D-02 NDo=     1
 AX will form     1 AO Fock derivatives at one time.
 LinEq1:  Iter=  1 NonCon=     1 RMS=4.20D-04 Max=1.04D-02 NDo=     1
 LinEq1:  Iter=  2 NonCon=     1 RMS=2.86D-04 Max=8.51D-03 NDo=     1
 LinEq1:  Iter=  3 NonCon=     1 RMS=1.23D-04 Max=4.53D-03 NDo=     1
 LinEq1:  Iter=  4 NonCon=     1 RMS=6.20D-05 Max=1.50D-03 NDo=     1
 LinEq1:  Iter=  5 NonCon=     1 RMS=1.51D-05 Max=2.13D-04 NDo=     1
 LinEq1:  Iter=  6 NonCon=     1 RMS=4.20D-06 Max=4.13D-05 NDo=     1
 LinEq1:  Iter=  7 NonCon=     1 RMS=1.37D-06 Max=1.87D-05 NDo=     1
 LinEq1:  Iter=  8 NonCon=     1 RMS=5.45D-07 Max=6.80D-06 NDo=     1
 LinEq1:  Iter=  9 NonCon=     1 RMS=2.24D-07 Max=2.97D-06 NDo=     1
 LinEq1:  Iter= 10 NonCon=     1 RMS=5.49D-08 Max=7.16D-07 NDo=     1
 LinEq1:  Iter= 11 NonCon=     1 RMS=9.17D-09 Max=1.01D-07 NDo=     1
 LinEq1:  Iter= 12 NonCon=     1 RMS=1.63D-09 Max=1.50D-08 NDo=     1
 LinEq1:  Iter= 13 NonCon=     1 RMS=4.16D-10 Max=3.57D-09 NDo=     1
 LinEq1:  Iter= 14 NonCon=     1 RMS=9.96D-11 Max=1.18D-09 NDo=     1
 LinEq1:  Iter= 15 NonCon=     0 RMS=2.00D-11 Max=2.25D-10 NDo=     1
 Linear equations converged to 1.000D-10 1.000D-09 after    15 iterations.
 End of Minotr F.D. properties file   721 does not exist.
 End of Minotr F.D. properties file   722 does not exist.
 End of Minotr F.D. properties file   788 does not exist.

 **********************************************************************

            Population analysis using the SCF Density.

 **********************************************************************

 Orbital symmetries:
 Alpha Orbitals:
       Occupied  (A) (A) (A) (A) (A) (A) (A) (A) (A) (A) (A) (A)
       Virtual   (A) (A) (A) (A) (A) (A) (A) (A) (A) (A) (A) (A)
                 (A) (A) (A) (A) (A) (A) (A) (A) (A) (A) (A) (A)
                 (A) (A) (A) (A) (A) (A) (A) (A) (A) (A) (A) (A)
                 (A) (A) (A) (A) (A) (A) (A) (A) (A) (A) (A) (A)
                 (A) (A) (A) (A) (A) (A) (A) (A) (A) (A) (A) (A)
                 (A) (A) (A) (A) (A) (A) (A) (A) (A) (A) (A) (A)
                 (A) (A) (A) (A) (A) (A) (A) (A) (A) (A) (A) (A)
                 (A) (A) (A) (A) (A) (A) (A) (A) (A) (A) (A) (A)
                 (A) (A) (A) (A) (A) (A) (A) (A) (A) (A) (A) (A)
                 (A) (A) (A) (A) (A) (A) (A) (A) (A) (A) (A) (A)
                 (A) (A) (A) (A) (A) (A) (A) (A) (A) (A) (A) (A)
                 (A) (A) (A) (A) (A) (A) (A) (A) (A) (A) (A) (A)
                 (A) (A) (A) (A)
 Beta  Orbitals:
       Occupied  (A) (A) (A) (A) (A) (A) (A) (A) (A) (A) (A)
       Virtual   (A) (A) (A) (A) (A) (A) (A) (A) (A) (A) (A) (A)
                 (A) (A) (A) (A) (A) (A) (A) (A) (A) (A) (A) (A)
                 (A) (A) (A) (A) (A) (A) (A) (A) (A) (A) (A) (A)
                 (A) (A) (A) (A) (A) (A) (A) (A) (A) (A) (A) (A)
                 (A) (A) (A) (A) (A) (A) (A) (A) (A) (A) (A) (A)
                 (A) (A) (A) (A) (A) (A) (A) (A) (A) (A) (A) (A)
                 (A) (A) (A) (A) (A) (A) (A) (A) (A) (A) (A) (A)
                 (A) (A) (A) (A) (A) (A) (A) (A) (A) (A) (A) (A)
                 (A) (A) (A) (A) (A) (A) (A) (A) (A) (A) (A) (A)
                 (A) (A) (A) (A) (A) (A) (A) (A) (A) (A) (A) (A)
                 (A) (A) (A) (A) (A) (A) (A) (A) (A) (A) (A) (A)
                 (A) (A) (A) (A) (A) (A) (A) (A) (A) (A) (A) (A)
                 (A) (A) (A) (A) (A)
 The electronic state is 2-A.
 Alpha  occ. eigenvalues --  -10.63924 -10.62338 -10.62013  -0.91299  -0.79466
 Alpha  occ. eigenvalues --   -0.64197  -0.51282  -0.50062  -0.48498  -0.43611
 Alpha  occ. eigenvalues --   -0.32679  -0.31599
 Alpha virt. eigenvalues --    0.07045   0.08765   0.11315   0.13580   0.15210
 Alpha virt. eigenvalues --    0.17075   0.22545   0.29490   0.30275   0.32062
 Alpha virt. eigenvalues --    0.36590   0.37720   0.39823   0.41389   0.45891
 Alpha virt. eigenvalues --    0.47784   0.50157   0.51974   0.52192   0.53206
 Alpha virt. eigenvalues --    0.54724   0.58214   0.60878   0.64383   0.71470
 Alpha virt. eigenvalues --    0.73325   0.73640   0.74557   0.79650   0.91307
 Alpha virt. eigenvalues --    0.94537   1.04398   1.04459   1.06603   1.07478
 Alpha virt. eigenvalues --    1.08527   1.11128   1.15904   1.16641   1.17538
 Alpha virt. eigenvalues --    1.22613   1.23362   1.29453   1.30387   1.36601
 Alpha virt. eigenvalues --    1.38741   1.39817   1.44357   1.45548   1.48875
 Alpha virt. eigenvalues --    1.54464   1.56765   1.62513   1.74759   1.80017
 Alpha virt. eigenvalues --    2.13931   2.22399   2.25514   2.33430   2.37896
 Alpha virt. eigenvalues --    2.38652   2.40639   2.46476   2.54213   2.56559
 Alpha virt. eigenvalues --    2.58462   2.65521   2.65946   2.75672   2.77833
 Alpha virt. eigenvalues --    2.82119   2.90595   2.91605   2.92286   2.94769
 Alpha virt. eigenvalues --    2.96160   2.98871   3.04007   3.04250   3.06340
 Alpha virt. eigenvalues --    3.08167   3.11171   3.14123   3.15222   3.17202
 Alpha virt. eigenvalues --    3.23126   3.24176   3.26753   3.35078   3.36465
 Alpha virt. eigenvalues --    3.38800   3.44400   3.45530   3.51094   3.54407
 Alpha virt. eigenvalues --    3.55789   3.57418   3.58943   3.60957   3.70855
 Alpha virt. eigenvalues --    3.76285   3.77880   3.83052   3.85033   3.89837
 Alpha virt. eigenvalues --    3.93657   3.97196   3.99951   4.02730   4.03704
 Alpha virt. eigenvalues --    4.05253   4.12927   4.20085   4.20298   4.22990
 Alpha virt. eigenvalues --    4.29507   4.30611   4.36330   4.39876   4.43623
 Alpha virt. eigenvalues --    4.48198   4.48691   4.56447   4.65842   4.72565
 Alpha virt. eigenvalues --    4.90927   4.92554   4.95624   4.97543   5.03708
 Alpha virt. eigenvalues --    5.07968   5.12362   5.13423   5.30596   5.32837
 Alpha virt. eigenvalues --    5.35347   5.43456   5.48024   5.50351   5.53972
 Alpha virt. eigenvalues --    5.70013   5.75775   5.94521   5.99260   6.07226
 Alpha virt. eigenvalues --    9.99496  13.26375  13.72508
  Beta  occ. eigenvalues --  -10.62665 -10.61809 -10.61739  -0.90129  -0.77078
  Beta  occ. eigenvalues --   -0.62470  -0.49683  -0.48733  -0.48071  -0.42837
  Beta  occ. eigenvalues --   -0.30235
  Beta virt. eigenvalues --   -0.01657   0.08341   0.09000   0.11634   0.13932
  Beta virt. eigenvalues --    0.15232   0.17320   0.23105   0.29807   0.30654
  Beta virt. eigenvalues --    0.34194   0.37482   0.38085   0.41070   0.42838
  Beta virt. eigenvalues --    0.47221   0.48150   0.50643   0.52110   0.52637
  Beta virt. eigenvalues --    0.53517   0.55988   0.59577   0.61358   0.65755
  Beta virt. eigenvalues --    0.73032   0.74479   0.74687   0.76023   0.80061
  Beta virt. eigenvalues --    0.92252   0.94545   1.05245   1.06349   1.06654
  Beta virt. eigenvalues --    1.07718   1.08868   1.11961   1.16632   1.17675
  Beta virt. eigenvalues --    1.18241   1.23550   1.24845   1.30018   1.30868
  Beta virt. eigenvalues --    1.36950   1.38884   1.41232   1.44878   1.45654
  Beta virt. eigenvalues --    1.49598   1.54691   1.57035   1.63336   1.75104
  Beta virt. eigenvalues --    1.82167   2.15081   2.23366   2.26216   2.33388
  Beta virt. eigenvalues --    2.38942   2.39139   2.42348   2.46862   2.56432
  Beta virt. eigenvalues --    2.58176   2.58712   2.67489   2.67858   2.76285
  Beta virt. eigenvalues --    2.79059   2.82619   2.91171   2.93004   2.93343
  Beta virt. eigenvalues --    2.95202   2.97374   2.99718   3.05315   3.05719
  Beta virt. eigenvalues --    3.07542   3.08955   3.11754   3.14975   3.16116
  Beta virt. eigenvalues --    3.18137   3.24706   3.25777   3.29672   3.36815
  Beta virt. eigenvalues --    3.37836   3.39721   3.44612   3.47018   3.52346
  Beta virt. eigenvalues --    3.55108   3.56116   3.57928   3.59532   3.61280
  Beta virt. eigenvalues --    3.71663   3.77081   3.79289   3.83384   3.85359
  Beta virt. eigenvalues --    3.90316   3.94204   3.97665   4.00205   4.03232
  Beta virt. eigenvalues --    4.04103   4.05636   4.13514   4.20350   4.20415
  Beta virt. eigenvalues --    4.23036   4.29973   4.31311   4.36965   4.40675
  Beta virt. eigenvalues --    4.43681   4.48501   4.49552   4.56926   4.66206
  Beta virt. eigenvalues --    4.73284   4.91432   4.92780   4.95641   4.97824
  Beta virt. eigenvalues --    5.04118   5.08933   5.13399   5.14478   5.30659
  Beta virt. eigenvalues --    5.33165   5.35458   5.43420   5.48293   5.51206
  Beta virt. eigenvalues --    5.54224   5.70311   5.76674   5.95593   5.99310
  Beta virt. eigenvalues --    6.07712  10.00266  13.27060  13.72772
          Condensed to atoms (all electrons):
               1          2          3          4          5          6
     1  C    5.275722   0.643101  -0.067752  -0.002882  -0.039949   0.400009
     2  C    0.643101   4.893579   0.359544  -0.039463   0.398371  -0.070061
     3  C   -0.067752   0.359544   4.779877   0.408047  -0.038865  -0.003636
     4  H   -0.002882  -0.039463   0.408047   0.584494   0.005575   0.004526
     5  H   -0.039949   0.398371  -0.038865   0.005575   0.539155   0.006073
     6  H    0.400009  -0.070061  -0.003636   0.004526   0.006073   0.530019
     7  H    0.000856  -0.040559   0.408459  -0.027678  -0.002660  -0.000096
     8  H    0.000813  -0.040595   0.408431  -0.027669  -0.002631  -0.000097
               7          8
     1  C    0.000856   0.000813
     2  C   -0.040559  -0.040595
     3  C    0.408459   0.408431
     4  H   -0.027678  -0.027669
     5  H   -0.002660  -0.002631
     6  H   -0.000096  -0.000097
     7  H    0.598513  -0.039166
     8  H   -0.039166   0.598546
          Atomic-Atomic Spin Densities.
               1          2          3          4          5          6
     1  C    1.167719  -0.029743  -0.029242   0.001284  -0.005110   0.000791
     2  C   -0.029743  -0.237555   0.027993   0.000272   0.004605  -0.000464
     3  C   -0.029242   0.027993   0.100654  -0.001692  -0.009952  -0.007584
     4  H    0.001284   0.000272  -0.001692  -0.005947   0.000134   0.000526
     5  H   -0.005110   0.004605  -0.009952   0.000134   0.035405   0.001150
     6  H    0.000791  -0.000464  -0.007584   0.000526   0.001150   0.037333
     7  H    0.001983   0.004146  -0.005586   0.000984   0.000876   0.000373
     8  H    0.001979   0.004177  -0.005584   0.000994   0.000871   0.000372
               7          8
     1  C    0.001983   0.001979
     2  C    0.004146   0.004177
     3  C   -0.005586  -0.005584
     4  H    0.000984   0.000994
     5  H    0.000876   0.000871
     6  H    0.000373   0.000372
     7  H   -0.011684   0.004375
     8  H    0.004375  -0.011777
 Mulliken charges and spin densities:
               1          2
     1  C   -0.209920   1.109661
     2  C   -0.103917  -0.226569
     3  C   -0.254105   0.069006
     4  H    0.095050  -0.003445
     5  H    0.134932   0.027978
     6  H    0.133262   0.032497
     7  H    0.102331  -0.004534
     8  H    0.102367  -0.004594
 Sum of Mulliken charges =  -0.00000   1.00000
 Mulliken charges and spin densities with hydrogens summed into heavy atoms:
               1          2
     1  C   -0.076658   1.142158
     2  C    0.031014  -0.198591
     3  C    0.045644   0.056433
 Electronic spatial extent (au):  <R**2>=            177.4198
 Charge=             -0.0000 electrons
 Dipole moment (field-independent basis, Debye):
    X=             -1.1293    Y=             -0.2580    Z=             -0.0004  Tot=              1.1584
 Quadrupole moment (field-independent basis, Debye-Ang):
   XX=            -20.8067   YY=            -18.0084   ZZ=            -21.1437
   XY=             -0.9017   XZ=             -0.0003   YZ=             -0.0001
 Traceless Quadrupole moment (field-independent basis, Debye-Ang):
   XX=             -0.8204   YY=              1.9779   ZZ=             -1.1575
   XY=             -0.9017   XZ=             -0.0003   YZ=             -0.0001
 Octapole moment (field-independent basis, Debye-Ang**2):
  XXX=             -6.2499  YYY=             -0.5324  ZZZ=              0.0025  XYY=              0.3400
  XXY=             -0.9468  XXZ=             -0.0019  XZZ=             -3.2024  YZZ=              0.0604
  YYZ=             -0.0043  XYZ=              0.0012
 Hexadecapole moment (field-independent basis, Debye-Ang**3):
 XXXX=           -178.5085 YYYY=            -49.2628 ZZZZ=            -31.3310 XXXY=             -2.8065
 XXXZ=             -0.0002 YYYX=             -1.3808 YYYZ=              0.0018 ZZZX=             -0.0096
 ZZZY=             -0.0020 XXYY=            -36.8414 XXZZ=            -33.6045 YYZZ=            -15.3136
 XXYZ=             -0.0032 YYXZ=              0.0012 ZZXY=             -0.8285
 N-N= 6.461183338517D+01 E-N=-4.002281357930D+02  KE= 1.164169250384D+02
                          Isotropic Fermi Contact Couplings
        Atom                 a.u.       MegaHertz       Gauss      10(-4) cm-1
     1  C(13)              0.37926     426.35647     152.13459     142.21721
     2  C(13)              0.01059      11.90893       4.24940       3.97239
     3  C(13)              0.05952      66.91736      23.87778      22.32123
     4  H(1)              -0.00053      -2.37072      -0.84593      -0.79079
     5  H(1)               0.01431      63.95564      22.82096      21.33331
     6  H(1)               0.02218      99.14975      35.37910      33.07280
     7  H(1)              -0.00047      -2.10696      -0.75181      -0.70281
     8  H(1)              -0.00049      -2.19151      -0.78198      -0.73101
 --------------------------------------------------------
       Center         ----  Spin Dipole Couplings  ----
                      3XX-RR        3YY-RR        3ZZ-RR
 --------------------------------------------------------
     1   Atom        0.565411     -0.134683     -0.430728
     2   Atom        0.105046      0.004176     -0.109223
     3   Atom        0.085076     -0.036240     -0.048836
     4   Atom        0.006018      0.004531     -0.010549
     5   Atom        0.004882      0.007903     -0.012784
     6   Atom       -0.015572      0.072093     -0.056520
     7   Atom        0.006172     -0.006274      0.000103
     8   Atom        0.006172     -0.006293      0.000122
 --------------------------------------------------------
                        XY            XZ            YZ
 --------------------------------------------------------
     1   Atom        0.650386      0.000039      0.000004
     2   Atom       -0.034715      0.000028     -0.000015
     3   Atom        0.025585     -0.000045      0.000001
     4   Atom        0.008491      0.000016      0.000021
     5   Atom       -0.017739      0.000005     -0.000006
     6   Atom       -0.014749     -0.000009      0.000027
     7   Atom       -0.000848      0.004883     -0.002166
     8   Atom       -0.000832     -0.004892      0.002141
 --------------------------------------------------------


 ---------------------------------------------------------------------------------
              Anisotropic Spin Dipole Couplings in Principal Axis System
 ---------------------------------------------------------------------------------

       Atom             a.u.   MegaHertz   Gauss  10(-4) cm-1        Axes

              Baa    -0.5232   -70.214   -25.054   -23.421 -0.5129  0.8585  0.0002
     1 C(13)  Bbb    -0.4307   -57.800   -20.624   -19.280  0.0001 -0.0002  1.0000
              Bcc     0.9540   128.013    45.678    42.701  0.8585  0.5129  0.0000
 
              Baa    -0.1092   -14.657    -5.230    -4.889 -0.0001  0.0001  1.0000
     2 C(13)  Bbb    -0.0066    -0.888    -0.317    -0.296  0.2969  0.9549 -0.0001
              Bcc     0.1158    15.544     5.547     5.185  0.9549 -0.2969  0.0001
 
              Baa    -0.0488    -6.553    -2.338    -2.186  0.0006 -0.0013  1.0000
     3 C(13)  Bbb    -0.0414    -5.557    -1.983    -1.854 -0.1983  0.9802  0.0014
              Bcc     0.0903    12.111     4.321     4.040  0.9802  0.1983 -0.0003
 
              Baa    -0.0105    -5.628    -2.008    -1.877 -0.0003 -0.0012  1.0000
     4 H(1)   Bbb    -0.0032    -1.734    -0.619    -0.578 -0.6756  0.7373  0.0006
              Bcc     0.0138     7.362     2.627     2.456  0.7373  0.6756  0.0010
 
              Baa    -0.0128    -6.821    -2.434    -2.275  0.0002  0.0004  1.0000
     5 H(1)   Bbb    -0.0114    -6.088    -2.172    -2.031  0.7365  0.6764 -0.0004
              Bcc     0.0242    12.909     4.606     4.306 -0.6764  0.7365 -0.0002
 
              Baa    -0.0565   -30.157   -10.761   -10.059  0.0001 -0.0002  1.0000
     6 H(1)   Bbb    -0.0180    -9.597    -3.424    -3.201  0.9869  0.1616 -0.0001
              Bcc     0.0745    39.754    14.185    13.260 -0.1616  0.9869  0.0002
 
              Baa    -0.0070    -3.724    -1.329    -1.242 -0.0621  0.9417  0.3308
     7 H(1)   Bbb    -0.0021    -1.131    -0.403    -0.377 -0.5053 -0.3154  0.8032
              Bcc     0.0091     4.854     1.732     1.619  0.8607 -0.1173  0.4955
 
              Baa    -0.0070    -3.725    -1.329    -1.242 -0.0620  0.9430 -0.3270
     8 H(1)   Bbb    -0.0021    -1.133    -0.404    -0.378  0.5056  0.3121  0.8043
              Bcc     0.0091     4.857     1.733     1.620  0.8605 -0.1155 -0.4962
 

 ---------------------------------------------------------------------------------

 Calling FoFJK, ICntrl=  10002127 FMM=F ISym2X=0 I1Cent= 0 IOpClX= 1 NMat=1 NMatS=1 NMatT=0.
 ***** Axes restored to original set *****
 -------------------------------------------------------------------
 Center     Atomic                   Forces (Hartrees/Bohr)
 Number     Number              X              Y              Z
 -------------------------------------------------------------------
      1        6          -0.038006896   -0.004430157   -0.000004565
      2        6           0.025266898    0.008665199   -0.000060301
      3        6          -0.004249056   -0.004420647    0.000012160
      4        1          -0.000916655    0.001881254    0.000013306
      5        1          -0.001122262   -0.000734659    0.000031371
      6        1           0.015562655   -0.000023087    0.000008528
      7        1           0.001750749   -0.000468237    0.001130522
      8        1           0.001714567   -0.000469666   -0.001131022
 -------------------------------------------------------------------
 Cartesian Forces:  Max     0.038006896 RMS     0.010150187

 GradGradGradGradGradGradGradGradGradGradGradGradGradGradGradGradGradGrad
 Berny optimization.
 FormGI is forming the generalized inverse of G from B-inverse, IUseBI=4.
 Internal  Forces:  Max     0.031926390 RMS     0.007366321
 Search for a local minimum.
 Step number   1 out of a maximum of  100
 All quantities printed in internal units (Hartrees-Bohrs-Radians)
 Mixed Optimization -- RFO/linear search
 Second derivative matrix not updated -- first step.
 ITU=  0
     Eigenvalues ---    0.00781   0.01366   0.03043   0.07200   0.07305
     Eigenvalues ---    0.16000   0.16000   0.16000   0.16000   0.16000
     Eigenvalues ---    0.22000   0.32496   0.34412   0.34414   0.34680
     Eigenvalues ---    0.35065   0.35320   0.60013
 RFO step:  Lambda=-6.78334428D-03 EMin= 7.80918152D-03
 Linear search not attempted -- first point.
 Iteration  1 RMS(Cart)=  0.05953031 RMS(Int)=  0.00560085
 Iteration  2 RMS(Cart)=  0.00480485 RMS(Int)=  0.00001160
 Iteration  3 RMS(Cart)=  0.00001266 RMS(Int)=  0.00000934
 Iteration  4 RMS(Cart)=  0.00000000 RMS(Int)=  0.00000934
 Variable       Old X    -DE/DX   Delta X   Delta X   Delta X     New X
                                 (Linear)    (Quad)   (Total)
    R1        2.50930  -0.01699   0.00000  -0.02800  -0.02800   2.48130
    R2        2.05159   0.00014   0.00000   0.00040   0.00040   2.05198
    R3        2.83245   0.00299   0.00000   0.00901   0.00901   2.84146
    R4        2.05569  -0.00077   0.00000  -0.00216  -0.00216   2.05353
    R5        2.06197  -0.00193   0.00000  -0.00546  -0.00546   2.05651
    R6        2.06640  -0.00196   0.00000  -0.00558  -0.00558   2.06082
    R7        2.06637  -0.00194   0.00000  -0.00552  -0.00552   2.06085
    A1        2.11644   0.03193   0.00000   0.19142   0.19142   2.30787
    A2        2.17656  -0.00360   0.00000  -0.01587  -0.01587   2.16069
    A3        2.07556   0.00293   0.00000   0.01470   0.01470   2.09025
    A4        2.03107   0.00067   0.00000   0.00118   0.00118   2.03224
    A5        1.93916   0.00149   0.00000   0.00926   0.00927   1.94843
    A6        1.93546  -0.00111   0.00000  -0.00683  -0.00683   1.92863
    A7        1.93515  -0.00106   0.00000  -0.00652  -0.00652   1.92862
    A8        1.89225  -0.00015   0.00000  -0.00062  -0.00060   1.89164
    A9        1.89228  -0.00017   0.00000  -0.00069  -0.00068   1.89161
   A10        1.86727   0.00101   0.00000   0.00545   0.00543   1.87270
    D1        0.00007   0.00000   0.00000   0.00027   0.00027   0.00034
    D2       -3.14095  -0.00001   0.00000  -0.00060  -0.00060  -3.14155
    D3       -0.00170  -0.00001   0.00000  -0.00012  -0.00012  -0.00182
    D4       -2.10750  -0.00007   0.00000  -0.00095  -0.00094  -2.10843
    D5        2.10393   0.00007   0.00000   0.00083   0.00082   2.10475
    D6        3.13933   0.00001   0.00000   0.00074   0.00073   3.14007
    D7        1.03354  -0.00006   0.00000  -0.00010  -0.00008   1.03345
    D8       -1.03822   0.00009   0.00000   0.00169   0.00167  -1.03655
         Item               Value     Threshold  Converged?
 Maximum Force            0.031926     0.000450     NO 
 RMS     Force            0.007366     0.000300     NO 
 Maximum Displacement     0.260233     0.001800     NO 
 RMS     Displacement     0.059469     0.001200     NO 
 Predicted change in Energy=-3.521512D-03
 GradGradGradGradGradGradGradGradGradGradGradGradGradGradGradGradGradGrad

                          Input orientation:                          
 ---------------------------------------------------------------------
 Center     Atomic      Atomic             Coordinates (Angstroms)
 Number     Number       Type             X           Y           Z
 ---------------------------------------------------------------------
      1          6           0        1.233475   -0.248295   -0.000005
      2          6           0        0.123501    0.453170   -0.000107
      3          6           0       -1.251095   -0.156258   -0.000053
      4          1           0       -1.207929   -1.243659   -0.001758
      5          1           0        0.171445    1.538795    0.000045
      6          1           0        1.420906   -1.317860   -0.000144
      7          1           0       -1.812270    0.167035   -0.877460
      8          1           0       -1.810993    0.164301    0.879191
 ---------------------------------------------------------------------
                    Distance matrix (angstroms):
                    1          2          3          4          5
     1  C    0.000000
     2  C    1.313048   0.000000
     3  C    2.486274   1.503634   0.000000
     4  H    2.636513   2.156834   1.088258   0.000000
     5  H    2.078846   1.086684   2.212878   3.105596   0.000000
     6  H    1.085863   2.195406   2.913574   2.629882   3.117953
     7  H    3.196715   2.144488   1.090540   1.766958   2.566489
     8  H    3.195622   2.144498   1.090556   1.766948   2.567527
                    6          7          8
     6  H    0.000000
     7  H    3.664427   0.000000
     8  H    3.662677   1.756653   0.000000
 Stoichiometry    C3H5(2)
 Framework group  C1[X(C3H5)]
 Deg. of freedom    18
 Full point group                 C1      NOp   1
 Largest Abelian subgroup         C1      NOp   1
 Largest concise Abelian subgroup C1      NOp   1
                         Standard orientation:                         
 ---------------------------------------------------------------------
 Center     Atomic      Atomic             Coordinates (Angstroms)
 Number     Number       Type             X           Y           Z
 ---------------------------------------------------------------------
      1          6           0        1.356763   -0.161381    0.000044
      2          6           0        0.212195    0.482094   -0.000059
      3          6           0       -1.129253   -0.197195   -0.000005
      4          1           0       -1.030241   -1.280938   -0.001709
      5          1           0        0.204266    1.568749    0.000093
      6          1           0        1.598932   -1.219896   -0.000096
      7          1           0       -1.706306    0.096822   -0.877411
      8          1           0       -1.704889    0.094157    0.879239
 ---------------------------------------------------------------------
 Rotational constants (GHZ):          46.9987412          10.3388539           8.9408703
 Standard basis: CC-pVTZ (5D, 7F)
 There are   180 symmetry adapted cartesian basis functions of A   symmetry.
 There are   160 symmetry adapted basis functions of A   symmetry.
   160 basis functions,   241 primitive gaussians,   180 cartesian basis functions
    12 alpha electrons       11 beta electrons
       nuclear repulsion energy        64.6916387369 Hartrees.
 NAtoms=    8 NActive=    8 NUniq=    8 SFac= 1.00D+00 NAtFMM=   60 NAOKFM=F Big=F
 Integral buffers will be    131072 words long.
 Raffenetti 2 integral format.
 Two-electron integral symmetry is turned on.
 Nuclear repulsion after empirical dispersion term =       64.6884890660 Hartrees.
 One-electron integrals computed using PRISM.
 NBasis=   160 RedAO= T EigKep=  5.97D-04  NBF=   160
 NBsUse=   160 1.00D-06 EigRej= -1.00D+00 NBFU=   160
 Initial guess from the checkpoint file:  "/localscratch/339542/Gau-47484.chk"
 B after Tr=     0.000000   -0.000000   -0.000000
         Rot=    0.999979    0.000026   -0.000016   -0.006518 Ang=   0.75 deg.
 Initial guess <Sx>= 0.0000 <Sy>= 0.0000 <Sz>= 0.5000 <S**2>= 0.7834 S= 0.5166
 ExpMin= 1.03D-01 ExpMax= 8.24D+03 ExpMxC= 2.81D+02 IAcc=3 IRadAn=         5 AccDes= 0.00D+00
 Harris functional with IExCor=  419 and IRadAn=       5 diagonalized for initial guess.
 HarFok:  IExCor=  419 AccDes= 0.00D+00 IRadAn=         5 IDoV= 1 UseB2=F ITyADJ=14
 ICtDFT=  3500011 ScaDFX=  1.000000  1.000000  1.000000  1.000000
 FoFCou: FMM=F IPFlag=           0 FMFlag=      100000 FMFlg1=           0
         NFxFlg=           0 DoJE=T BraDBF=F KetDBF=T FulRan=T
         wScrn=  0.000000 ICntrl=       500 IOpCl=  0 I1Cent=   200000004 NGrid=           0
         NMat0=    1 NMatS0=      1 NMatT0=    0 NMatD0=    1 NMtDS0=    0 NMtDT0=    0
 Petite list used in FoFCou.
 Keep R1 and R2 ints in memory in canonical form, NReq=206286096.
 Requested convergence on RMS density matrix=1.00D-08 within 128 cycles.
 Requested convergence on MAX density matrix=1.00D-06.
 Requested convergence on             energy=1.00D-06.
 No special actions if energy rises.
 Integral accuracy reduced to 1.0D-05 until final iterations.
 Initial convergence to 1.0D-05 achieved.  Increase integral accuracy.
 SCF Done:  E(UB2PLYPD3) =  -116.994191732     A.U. after   14 cycles
            NFock= 14  Conv=0.42D-08     -V/T= 2.0047
 <Sx>= 0.0000 <Sy>= 0.0000 <Sz>= 0.5000 <S**2>= 0.7783 S= 0.5141
 <L.S>=  0.00000000000    
 Annihilation of the first spin contaminant:
 S**2 before annihilation     0.7783,   after     0.7502
 DoSCS=T DFT=T ScalE2(SS,OS)=  0.270000  0.270000
 ExpMin= 1.03D-01 ExpMax= 8.24D+03 ExpMxC= 2.81D+02 IAcc=3 IRadAn=         5 AccDes= 0.00D+00
 HarFok:  IExCor=  205 AccDes= 0.00D+00 IRadAn=         5 IDoV=-2 UseB2=F ITyADJ=14
 ICtDFT= 12500011 ScaDFX=  1.000000  1.000000  1.000000  1.000000
 Range of M.O.s used for correlation:     4   160
 NBasis=   160 NAE=    12 NBE=    11 NFC=     3 NFV=     0
 NROrb=    157 NOA=     9 NOB=     8 NVA=   148 NVB=   149

 **** Warning!!: The largest alpha MO coefficient is  0.13995384D+02


 **** Warning!!: The largest beta MO coefficient is  0.13061742D+02

 DoSCS=T DFT=T ScalE2(SS,OS)=  0.270000  0.270000
 Fully direct method using O(ONN) memory.
 JobTyp=2 Pass  1:  I=   4 to  12 NPSUse= 40 ParTrn=T ParDer=T DoDerP=T.
 JobTyp=3 Pass  1:  I=   4 to  11 NPSUse= 40 ParTrn=T ParDer=T DoDerP=T.
 Spin components of T(2) and E(2):
     alpha-alpha T2 =       0.3116707362D-01 E2=     -0.1935661641D-01
     alpha-beta  T2 =       0.1833740740D+00 E2=     -0.1194346572D+00
     beta-beta   T2 =       0.2628330896D-01 E2=     -0.1578506841D-01
 (S**2,0)=  0.77830D+00           (S**2,1)=  0.75993D+00
 Scaling Projection term by:   0.270000
 E(PUHF)=      -0.11699763921D+03        E(PMP2)=      -0.11714939817D+03
 E2(B2PLYPD3) =    -0.1545763420D+00 E(B2PLYPD3) =    -0.11714876807360D+03
          IDoAtm=11111111
          Differentiating once with respect to electric field.
                with respect to dipole field.
          Differentiating once with respect to nuclear coordinates.
 Keep R1 and R2 ints in memory in canonical form, NReq=206291724.
          There are     1 degrees of freedom in the 1st order CPHF.  IDoFFX=0 NUNeed=     1.
 LinEq1:  Iter=  0 NonCon=     1 RMS=1.00D-03 Max=2.65D-02 NDo=     1
 AX will form     1 AO Fock derivatives at one time.
 LinEq1:  Iter=  1 NonCon=     1 RMS=3.98D-04 Max=9.56D-03 NDo=     1
 LinEq1:  Iter=  2 NonCon=     1 RMS=2.71D-04 Max=8.50D-03 NDo=     1
 LinEq1:  Iter=  3 NonCon=     1 RMS=1.16D-04 Max=4.28D-03 NDo=     1
 LinEq1:  Iter=  4 NonCon=     1 RMS=5.93D-05 Max=1.45D-03 NDo=     1
 LinEq1:  Iter=  5 NonCon=     1 RMS=1.45D-05 Max=1.97D-04 NDo=     1
 LinEq1:  Iter=  6 NonCon=     1 RMS=4.00D-06 Max=3.81D-05 NDo=     1
 LinEq1:  Iter=  7 NonCon=     1 RMS=1.30D-06 Max=1.79D-05 NDo=     1
 LinEq1:  Iter=  8 NonCon=     1 RMS=5.25D-07 Max=6.30D-06 NDo=     1
 LinEq1:  Iter=  9 NonCon=     1 RMS=2.11D-07 Max=2.65D-06 NDo=     1
 LinEq1:  Iter= 10 NonCon=     1 RMS=5.13D-08 Max=6.00D-07 NDo=     1
 LinEq1:  Iter= 11 NonCon=     1 RMS=8.56D-09 Max=1.02D-07 NDo=     1
 LinEq1:  Iter= 12 NonCon=     1 RMS=1.59D-09 Max=1.45D-08 NDo=     1
 LinEq1:  Iter= 13 NonCon=     1 RMS=4.23D-10 Max=4.03D-09 NDo=     1
 LinEq1:  Iter= 14 NonCon=     1 RMS=9.58D-11 Max=1.09D-09 NDo=     1
 LinEq1:  Iter= 15 NonCon=     0 RMS=1.80D-11 Max=1.93D-10 NDo=     1
 Linear equations converged to 1.000D-10 1.000D-09 after    15 iterations.
 End of Minotr F.D. properties file   721 does not exist.
 End of Minotr F.D. properties file   722 does not exist.
 End of Minotr F.D. properties file   788 does not exist.
 Calling FoFJK, ICntrl=  10002127 FMM=F ISym2X=0 I1Cent= 0 IOpClX= 1 NMat=1 NMatS=1 NMatT=0.
 ***** Axes restored to original set *****
 -------------------------------------------------------------------
 Center     Atomic                   Forces (Hartrees/Bohr)
 Number     Number              X              Y              Z
 -------------------------------------------------------------------
      1        6          -0.008704171   -0.003531354   -0.000013018
      2        6           0.008745467   -0.000303258    0.000016997
      3        6          -0.003667137   -0.000805255   -0.000002697
      4        1           0.000315184    0.000574682    0.000004305
      5        1           0.000172446   -0.000646215    0.000000754
      6        1           0.003148850    0.004685795    0.000001472
      7        1          -0.000006660    0.000009724   -0.000037740
      8        1          -0.000003979    0.000015880    0.000029927
 -------------------------------------------------------------------
 Cartesian Forces:  Max     0.008745467 RMS     0.002969684

 GradGradGradGradGradGradGradGradGradGradGradGradGradGradGradGradGradGrad
 Berny optimization.
 Using GEDIIS/GDIIS optimizer.
 FormGI is forming the generalized inverse of G from B-inverse, IUseBI=4.
 Internal  Forces:  Max     0.008023805 RMS     0.002243404
 Search for a local minimum.
 Step number   2 out of a maximum of  100
 All quantities printed in internal units (Hartrees-Bohrs-Radians)
 Mixed Optimization -- RFO/linear search
 Update second derivatives using D2CorX and points    1    2
 DE= -4.11D-03 DEPred=-3.52D-03 R= 1.17D+00
 TightC=F SS=  1.41D+00  RLast= 1.96D-01 DXNew= 5.0454D-01 5.8699D-01
 Trust test= 1.17D+00 RLast= 1.96D-01 DXMaxT set to 5.05D-01
 ITU=  1  0
 Use linear search instead of GDIIS.
     Eigenvalues ---    0.00781   0.01373   0.03043   0.07169   0.07366
     Eigenvalues ---    0.12226   0.16000   0.16000   0.16000   0.16110
     Eigenvalues ---    0.22693   0.32450   0.34413   0.34422   0.34660
     Eigenvalues ---    0.35061   0.35891   0.58535
 RFO step:  Lambda=-2.57963867D-04 EMin= 7.80917417D-03
 Quartic linear search produced a step of  0.38978.
 Iteration  1 RMS(Cart)=  0.03405229 RMS(Int)=  0.00135864
 Iteration  2 RMS(Cart)=  0.00121765 RMS(Int)=  0.00000355
 Iteration  3 RMS(Cart)=  0.00000074 RMS(Int)=  0.00000352
 Variable       Old X    -DE/DX   Delta X   Delta X   Delta X     New X
                                 (Linear)    (Quad)   (Total)
    R1        2.48130  -0.00531  -0.01091  -0.00269  -0.01360   2.46770
    R2        2.05198  -0.00407   0.00016  -0.01614  -0.01599   2.03600
    R3        2.84146   0.00316   0.00351   0.01048   0.01399   2.85545
    R4        2.05353  -0.00064  -0.00084  -0.00180  -0.00264   2.05089
    R5        2.05651  -0.00056  -0.00213  -0.00042  -0.00255   2.05396
    R6        2.06082   0.00004  -0.00217   0.00202  -0.00015   2.06067
    R7        2.06085   0.00003  -0.00215   0.00198  -0.00018   2.06068
    A1        2.30787   0.00802   0.07461   0.00934   0.08395   2.39182
    A2        2.16069   0.00192  -0.00619   0.01725   0.01107   2.17176
    A3        2.09025  -0.00116   0.00573  -0.01254  -0.00681   2.08344
    A4        2.03224  -0.00075   0.00046  -0.00471  -0.00425   2.02799
    A5        1.94843  -0.00051   0.00361  -0.00773  -0.00411   1.94432
    A6        1.92863   0.00008  -0.00266   0.00306   0.00039   1.92902
    A7        1.92862   0.00008  -0.00254   0.00291   0.00037   1.92899
    A8        1.89164   0.00017  -0.00024   0.00133   0.00110   1.89274
    A9        1.89161   0.00018  -0.00026   0.00136   0.00110   1.89271
   A10        1.87270   0.00002   0.00211  -0.00072   0.00139   1.87408
    D1        0.00034  -0.00000   0.00011  -0.00019  -0.00008   0.00026
    D2       -3.14155   0.00000  -0.00023   0.00023  -0.00001  -3.14156
    D3       -0.00182   0.00001  -0.00005   0.00101   0.00097  -0.00085
    D4       -2.10843   0.00007  -0.00036   0.00242   0.00206  -2.10637
    D5        2.10475  -0.00006   0.00032  -0.00045  -0.00014   2.10461
    D6        3.14007   0.00000   0.00029   0.00061   0.00089   3.14096
    D7        1.03345   0.00007  -0.00003   0.00201   0.00199   1.03544
    D8       -1.03655  -0.00006   0.00065  -0.00086  -0.00021  -1.03676
         Item               Value     Threshold  Converged?
 Maximum Force            0.008024     0.000450     NO 
 RMS     Force            0.002243     0.000300     NO 
 Maximum Displacement     0.138626     0.001800     NO 
 RMS     Displacement     0.033785     0.001200     NO 
 Predicted change in Energy=-3.756375D-04
 GradGradGradGradGradGradGradGradGradGradGradGradGradGradGradGradGradGrad

                          Input orientation:                          
 ---------------------------------------------------------------------
 Center     Atomic      Atomic             Coordinates (Angstroms)
 Number     Number       Type             X           Y           Z
 ---------------------------------------------------------------------
      1          6           0        1.223318   -0.261410   -0.000179
      2          6           0        0.121682    0.439761    0.000063
      3          6           0       -1.268289   -0.152872   -0.000022
      4          1           0       -1.236230   -1.239309   -0.001174
      5          1           0        0.180442    1.523454    0.000563
      6          1           0        1.494264   -1.304188   -0.000661
      7          1           0       -1.824434    0.176832   -0.878144
      8          1           0       -1.823714    0.174961    0.879261
 ---------------------------------------------------------------------
                    Distance matrix (angstroms):
                    1          2          3          4          5
     1  C    0.000000
     2  C    1.305849   0.000000
     3  C    2.493971   1.511037   0.000000
     4  H    2.646821   2.159445   1.086911   0.000000
     5  H    2.067203   1.085285   2.215602   3.104806   0.000000
     6  H    1.077403   2.219310   2.992863   2.731265   3.117962
     7  H    3.201823   2.151220   1.090458   1.766499   2.570028
     8  H    3.201287   2.151203   1.090463   1.766483   2.570445
                    6          7          8
     6  H    0.000000
     7  H    3.738603   0.000000
     8  H    3.737796   1.757407   0.000000
 Stoichiometry    C3H5(2)
 Framework group  C1[X(C3H5)]
 Deg. of freedom    18
 Full point group                 C1      NOp   1
 Largest Abelian subgroup         C1      NOp   1
 Largest concise Abelian subgroup C1      NOp   1
                         Standard orientation:                         
 ---------------------------------------------------------------------
 Center     Atomic      Atomic             Coordinates (Angstroms)
 Number     Number       Type             X           Y           Z
 ---------------------------------------------------------------------
      1          6           0        1.354642   -0.159163    0.000029
      2          6           0        0.213465    0.475626   -0.000048
      3          6           0       -1.139023   -0.198176    0.000001
      4          1           0       -1.042764   -1.280816   -0.000754
      5          1           0        0.208030    1.560897    0.000062
      6          1           0        1.686787   -1.184091   -0.000058
      7          1           0       -1.713623    0.097743   -0.878273
      8          1           0       -1.712934    0.096549    0.879133
 ---------------------------------------------------------------------
 Rotational constants (GHZ):          47.8347166          10.2165320           8.8788769
 Standard basis: CC-pVTZ (5D, 7F)
 There are   180 symmetry adapted cartesian basis functions of A   symmetry.
 There are   160 symmetry adapted basis functions of A   symmetry.
   160 basis functions,   241 primitive gaussians,   180 cartesian basis functions
    12 alpha electrons       11 beta electrons
       nuclear repulsion energy        64.6463615951 Hartrees.
 NAtoms=    8 NActive=    8 NUniq=    8 SFac= 1.00D+00 NAtFMM=   60 NAOKFM=F Big=F
 Integral buffers will be    131072 words long.
 Raffenetti 2 integral format.
 Two-electron integral symmetry is turned on.
 Nuclear repulsion after empirical dispersion term =       64.6432241267 Hartrees.
 One-electron integrals computed using PRISM.
 NBasis=   160 RedAO= T EigKep=  5.74D-04  NBF=   160
 NBsUse=   160 1.00D-06 EigRej= -1.00D+00 NBFU=   160
 Initial guess from the checkpoint file:  "/localscratch/339542/Gau-47484.chk"
 B after Tr=     0.000000    0.000000   -0.000000
         Rot=    0.999998    0.000150    0.000020   -0.001886 Ang=   0.22 deg.
 Initial guess <Sx>= 0.0000 <Sy>= 0.0000 <Sz>= 0.5000 <S**2>= 0.7781 S= 0.5139
 ExpMin= 1.03D-01 ExpMax= 8.24D+03 ExpMxC= 2.81D+02 IAcc=3 IRadAn=         5 AccDes= 0.00D+00
 Harris functional with IExCor=  419 and IRadAn=       5 diagonalized for initial guess.
 HarFok:  IExCor=  419 AccDes= 0.00D+00 IRadAn=         5 IDoV= 1 UseB2=F ITyADJ=14
 ICtDFT=  3500011 ScaDFX=  1.000000  1.000000  1.000000  1.000000
 FoFCou: FMM=F IPFlag=           0 FMFlag=      100000 FMFlg1=           0
         NFxFlg=           0 DoJE=T BraDBF=F KetDBF=T FulRan=T
         wScrn=  0.000000 ICntrl=       500 IOpCl=  0 I1Cent=   200000004 NGrid=           0
         NMat0=    1 NMatS0=      1 NMatT0=    0 NMatD0=    1 NMtDS0=    0 NMtDT0=    0
 Petite list used in FoFCou.
 Keep R1 and R2 ints in memory in canonical form, NReq=206286096.
 Requested convergence on RMS density matrix=1.00D-08 within 128 cycles.
 Requested convergence on MAX density matrix=1.00D-06.
 Requested convergence on             energy=1.00D-06.
 No special actions if energy rises.
 Integral accuracy reduced to 1.0D-05 until final iterations.
 Initial convergence to 1.0D-05 achieved.  Increase integral accuracy.
 SCF Done:  E(UB2PLYPD3) =  -116.994719048     A.U. after   14 cycles
            NFock= 14  Conv=0.41D-08     -V/T= 2.0045
 <Sx>= 0.0000 <Sy>= 0.0000 <Sz>= 0.5000 <S**2>= 0.7764 S= 0.5131
 <L.S>=  0.00000000000    
 Annihilation of the first spin contaminant:
 S**2 before annihilation     0.7764,   after     0.7502
 DoSCS=T DFT=T ScalE2(SS,OS)=  0.270000  0.270000
 ExpMin= 1.03D-01 ExpMax= 8.24D+03 ExpMxC= 2.81D+02 IAcc=3 IRadAn=         5 AccDes= 0.00D+00
 HarFok:  IExCor=  205 AccDes= 0.00D+00 IRadAn=         5 IDoV=-2 UseB2=F ITyADJ=14
 ICtDFT= 12500011 ScaDFX=  1.000000  1.000000  1.000000  1.000000
 Range of M.O.s used for correlation:     4   160
 NBasis=   160 NAE=    12 NBE=    11 NFC=     3 NFV=     0
 NROrb=    157 NOA=     9 NOB=     8 NVA=   148 NVB=   149

 **** Warning!!: The largest alpha MO coefficient is  0.14144760D+02


 **** Warning!!: The largest beta MO coefficient is  0.13078005D+02

 DoSCS=T DFT=T ScalE2(SS,OS)=  0.270000  0.270000
 Fully direct method using O(ONN) memory.
 JobTyp=2 Pass  1:  I=   4 to  12 NPSUse= 40 ParTrn=T ParDer=T DoDerP=T.
 JobTyp=3 Pass  1:  I=   4 to  11 NPSUse= 40 ParTrn=T ParDer=T DoDerP=T.
 Spin components of T(2) and E(2):
     alpha-alpha T2 =       0.3118329267D-01 E2=     -0.1938149552D-01
     alpha-beta  T2 =       0.1828614562D+00 E2=     -0.1194024169D+00
     beta-beta   T2 =       0.2615601306D-01 E2=     -0.1573686995D-01
 (S**2,0)=  0.77636D+00           (S**2,1)=  0.75865D+00
 Scaling Projection term by:   0.270000
 E(PUHF)=      -0.11699812348D+03        E(PMP2)=      -0.11714985180D+03
 E2(B2PLYPD3) =    -0.1545207823D+00 E(B2PLYPD3) =    -0.11714923983053D+03
          IDoAtm=11111111
          Differentiating once with respect to electric field.
                with respect to dipole field.
          Differentiating once with respect to nuclear coordinates.
 Keep R1 and R2 ints in memory in canonical form, NReq=206291724.
          There are     1 degrees of freedom in the 1st order CPHF.  IDoFFX=0 NUNeed=     1.
 LinEq1:  Iter=  0 NonCon=     1 RMS=9.89D-04 Max=2.56D-02 NDo=     1
 AX will form     1 AO Fock derivatives at one time.
 LinEq1:  Iter=  1 NonCon=     1 RMS=3.88D-04 Max=9.23D-03 NDo=     1
 LinEq1:  Iter=  2 NonCon=     1 RMS=2.64D-04 Max=8.50D-03 NDo=     1
 LinEq1:  Iter=  3 NonCon=     1 RMS=1.14D-04 Max=4.24D-03 NDo=     1
 LinEq1:  Iter=  4 NonCon=     1 RMS=5.85D-05 Max=1.38D-03 NDo=     1
 LinEq1:  Iter=  5 NonCon=     1 RMS=1.42D-05 Max=1.84D-04 NDo=     1
 LinEq1:  Iter=  6 NonCon=     1 RMS=3.91D-06 Max=3.74D-05 NDo=     1
 LinEq1:  Iter=  7 NonCon=     1 RMS=1.27D-06 Max=1.75D-05 NDo=     1
 LinEq1:  Iter=  8 NonCon=     1 RMS=5.22D-07 Max=6.12D-06 NDo=     1
 LinEq1:  Iter=  9 NonCon=     1 RMS=2.08D-07 Max=2.49D-06 NDo=     1
 LinEq1:  Iter= 10 NonCon=     1 RMS=5.02D-08 Max=5.21D-07 NDo=     1
 LinEq1:  Iter= 11 NonCon=     1 RMS=8.46D-09 Max=1.02D-07 NDo=     1
 LinEq1:  Iter= 12 NonCon=     1 RMS=1.64D-09 Max=1.57D-08 NDo=     1
 LinEq1:  Iter= 13 NonCon=     1 RMS=4.43D-10 Max=4.31D-09 NDo=     1
 LinEq1:  Iter= 14 NonCon=     1 RMS=9.49D-11 Max=1.10D-09 NDo=     1
 LinEq1:  Iter= 15 NonCon=     0 RMS=1.74D-11 Max=1.88D-10 NDo=     1
 Linear equations converged to 1.000D-10 1.000D-09 after    15 iterations.
 End of Minotr F.D. properties file   721 does not exist.
 End of Minotr F.D. properties file   722 does not exist.
 End of Minotr F.D. properties file   788 does not exist.
 Calling FoFJK, ICntrl=  10002127 FMM=F ISym2X=0 I1Cent= 0 IOpClX= 1 NMat=1 NMatS=1 NMatT=0.
 ***** Axes restored to original set *****
 -------------------------------------------------------------------
 Center     Atomic                   Forces (Hartrees/Bohr)
 Number     Number              X              Y              Z
 -------------------------------------------------------------------
      1        6           0.000710183   -0.000070793   -0.000008170
      2        6          -0.000962634   -0.001355835    0.000012094
      3        6          -0.000704393    0.000690400   -0.000001497
      4        1           0.000205135   -0.000214651    0.000000334
      5        1           0.000033306    0.000637527   -0.000001213
      6        1           0.000348257    0.000068085    0.000001095
      7        1           0.000185284    0.000120990   -0.000007262
      8        1           0.000184861    0.000124278    0.000004618
 -------------------------------------------------------------------
 Cartesian Forces:  Max     0.001355835 RMS     0.000454956

 GradGradGradGradGradGradGradGradGradGradGradGradGradGradGradGradGradGrad
 Berny optimization.
 Using GEDIIS/GDIIS optimizer.
 FormGI is forming the generalized inverse of G from B-inverse, IUseBI=4.
 Internal  Forces:  Max     0.001412090 RMS     0.000450186
 Search for a local minimum.
 Step number   3 out of a maximum of  100
 All quantities printed in internal units (Hartrees-Bohrs-Radians)
 Mixed Optimization -- En-DIIS/RFO-DIIS
 Update second derivatives using D2CorX and points    1    2    3
 DE= -4.72D-04 DEPred=-3.76D-04 R= 1.26D+00
 TightC=F SS=  1.41D+00  RLast= 8.90D-02 DXNew= 8.4853D-01 2.6692D-01
 Trust test= 1.26D+00 RLast= 8.90D-02 DXMaxT set to 5.05D-01
 ITU=  1  1  0
 Use linear search instead of GDIIS.
     Eigenvalues ---    0.00781   0.01372   0.03043   0.07198   0.07366
     Eigenvalues ---    0.09154   0.16000   0.16000   0.16057   0.16103
     Eigenvalues ---    0.23052   0.32647   0.34413   0.34420   0.34696
     Eigenvalues ---    0.35146   0.36316   0.60215
 RFO step:  Lambda=-2.08399014D-05 EMin= 7.80879983D-03
 Quartic linear search produced a step of  0.08882.
 Iteration  1 RMS(Cart)=  0.00737917 RMS(Int)=  0.00003849
 Iteration  2 RMS(Cart)=  0.00003681 RMS(Int)=  0.00000059
 Iteration  3 RMS(Cart)=  0.00000000 RMS(Int)=  0.00000059
 Variable       Old X    -DE/DX   Delta X   Delta X   Delta X     New X
                                 (Linear)    (Quad)   (Total)
    R1        2.46770   0.00089  -0.00121   0.00209   0.00088   2.46858
    R2        2.03600   0.00002  -0.00142   0.00088  -0.00054   2.03545
    R3        2.85545  -0.00016   0.00124  -0.00117   0.00007   2.85552
    R4        2.05089   0.00064  -0.00023   0.00209   0.00185   2.05274
    R5        2.05396   0.00022  -0.00023   0.00077   0.00054   2.05451
    R6        2.06067  -0.00005  -0.00001  -0.00020  -0.00022   2.06045
    R7        2.06068  -0.00005  -0.00002  -0.00021  -0.00022   2.06046
    A1        2.39182   0.00072   0.00746   0.00277   0.01023   2.40204
    A2        2.17176   0.00141   0.00098   0.00626   0.00724   2.17900
    A3        2.08344  -0.00070  -0.00061  -0.00299  -0.00360   2.07984
    A4        2.02799  -0.00071  -0.00038  -0.00327  -0.00365   2.02434
    A5        1.94432  -0.00017  -0.00037  -0.00077  -0.00113   1.94319
    A6        1.92902  -0.00022   0.00003  -0.00164  -0.00160   1.92742
    A7        1.92899  -0.00022   0.00003  -0.00163  -0.00160   1.92739
    A8        1.89274   0.00022   0.00010   0.00155   0.00165   1.89439
    A9        1.89271   0.00023   0.00010   0.00156   0.00166   1.89437
   A10        1.87408   0.00019   0.00012   0.00110   0.00122   1.87530
    D1        0.00026  -0.00000  -0.00001  -0.00017  -0.00018   0.00008
    D2       -3.14156   0.00000  -0.00000   0.00012   0.00012  -3.14144
    D3       -0.00085   0.00000   0.00009   0.00040   0.00049  -0.00037
    D4       -2.10637  -0.00002   0.00018   0.00006   0.00024  -2.10613
    D5        2.10461   0.00002  -0.00001   0.00076   0.00075   2.10536
    D6        3.14096  -0.00000   0.00008   0.00011   0.00019   3.14116
    D7        1.03544  -0.00002   0.00018  -0.00023  -0.00005   1.03539
    D8       -1.03676   0.00002  -0.00002   0.00048   0.00046  -1.03630
         Item               Value     Threshold  Converged?
 Maximum Force            0.001412     0.000450     NO 
 RMS     Force            0.000450     0.000300     NO 
 Maximum Displacement     0.028639     0.001800     NO 
 RMS     Displacement     0.007370     0.001200     NO 
 Predicted change in Energy=-1.303466D-05
 GradGradGradGradGradGradGradGradGradGradGradGradGradGradGradGradGradGrad

                          Input orientation:                          
 ---------------------------------------------------------------------
 Center     Atomic      Atomic             Coordinates (Angstroms)
 Number     Number       Type             X           Y           Z
 ---------------------------------------------------------------------
      1          6           0        1.224447   -0.262965   -0.000254
      2          6           0        0.120094    0.434790    0.000208
      3          6           0       -1.272225   -0.152402    0.000007
      4          1           0       -1.243189   -1.239213   -0.000947
      5          1           0        0.179207    1.519446    0.000715
      6          1           0        1.509419   -1.301698   -0.000890
      7          1           0       -1.825571    0.180409   -0.878567
      8          1           0       -1.825143    0.178862    0.879439
 ---------------------------------------------------------------------
                    Distance matrix (angstroms):
                    1          2          3          4          5
     1  C    0.000000
     2  C    1.306314   0.000000
     3  C    2.499119   1.511075   0.000000
     4  H    2.653730   2.158895   1.087199   0.000000
     5  H    2.066281   1.086265   2.213985   3.103773   0.000000
     6  H    1.077115   2.223874   3.009722   2.753317   3.119025
     7  H    3.204781   2.150016   1.090343   1.767686   2.566182
     8  H    3.204539   2.149999   1.090346   1.767678   2.566464
                    6          7          8
     6  H    0.000000
     7  H    3.753547   0.000000
     8  H    3.753178   1.758007   0.000000
 Stoichiometry    C3H5(2)
 Framework group  C1[X(C3H5)]
 Deg. of freedom    18
 Full point group                 C1      NOp   1
 Largest Abelian subgroup         C1      NOp   1
 Largest concise Abelian subgroup C1      NOp   1
                         Standard orientation:                         
 ---------------------------------------------------------------------
 Center     Atomic      Atomic             Coordinates (Angstroms)
 Number     Number       Type             X           Y           Z
 ---------------------------------------------------------------------
      1          6           0        1.357014   -0.156902    0.000010
      2          6           0        0.212223    0.472313    0.000008
      3          6           0       -1.141758   -0.198569   -0.000004
      4          1           0       -1.046598   -1.281596   -0.000382
      5          1           0        0.205180    1.558556   -0.000052
      6          1           0        1.704707   -1.176355   -0.000053
      7          1           0       -1.714238    0.099472   -0.878802
      8          1           0       -1.713925    0.098870    0.879205
 ---------------------------------------------------------------------
 Rotational constants (GHZ):          48.1371866          10.1708869           8.8549991
 Standard basis: CC-pVTZ (5D, 7F)
 There are   180 symmetry adapted cartesian basis functions of A   symmetry.
 There are   160 symmetry adapted basis functions of A   symmetry.
   160 basis functions,   241 primitive gaussians,   180 cartesian basis functions
    12 alpha electrons       11 beta electrons
       nuclear repulsion energy        64.6103760941 Hartrees.
 NAtoms=    8 NActive=    8 NUniq=    8 SFac= 1.00D+00 NAtFMM=   60 NAOKFM=F Big=F
 Integral buffers will be    131072 words long.
 Raffenetti 2 integral format.
 Two-electron integral symmetry is turned on.
 Nuclear repulsion after empirical dispersion term =       64.6072416296 Hartrees.
 One-electron integrals computed using PRISM.
 NBasis=   160 RedAO= T EigKep=  5.71D-04  NBF=   160
 NBsUse=   160 1.00D-06 EigRej= -1.00D+00 NBFU=   160
 Initial guess from the checkpoint file:  "/localscratch/339542/Gau-47484.chk"
 B after Tr=    -0.000000   -0.000000    0.000000
         Rot=    1.000000    0.000060    0.000011   -0.000645 Ang=   0.07 deg.
 Initial guess <Sx>= 0.0000 <Sy>= 0.0000 <Sz>= 0.5000 <S**2>= 0.7764 S= 0.5131
 ExpMin= 1.03D-01 ExpMax= 8.24D+03 ExpMxC= 2.81D+02 IAcc=3 IRadAn=         5 AccDes= 0.00D+00
 Harris functional with IExCor=  419 and IRadAn=       5 diagonalized for initial guess.
 HarFok:  IExCor=  419 AccDes= 0.00D+00 IRadAn=         5 IDoV= 1 UseB2=F ITyADJ=14
 ICtDFT=  3500011 ScaDFX=  1.000000  1.000000  1.000000  1.000000
 FoFCou: FMM=F IPFlag=           0 FMFlag=      100000 FMFlg1=           0
         NFxFlg=           0 DoJE=T BraDBF=F KetDBF=T FulRan=T
         wScrn=  0.000000 ICntrl=       500 IOpCl=  0 I1Cent=   200000004 NGrid=           0
         NMat0=    1 NMatS0=      1 NMatT0=    0 NMatD0=    1 NMtDS0=    0 NMtDT0=    0
 Petite list used in FoFCou.
 Keep R1 and R2 ints in memory in canonical form, NReq=206286096.
 Requested convergence on RMS density matrix=1.00D-08 within 128 cycles.
 Requested convergence on MAX density matrix=1.00D-06.
 Requested convergence on             energy=1.00D-06.
 No special actions if energy rises.
 Integral accuracy reduced to 1.0D-05 until final iterations.
 Initial convergence to 1.0D-05 achieved.  Increase integral accuracy.
 SCF Done:  E(UB2PLYPD3) =  -116.994718400     A.U. after   13 cycles
            NFock= 13  Conv=0.16D-08     -V/T= 2.0045
 <Sx>= 0.0000 <Sy>= 0.0000 <Sz>= 0.5000 <S**2>= 0.7765 S= 0.5131
 <L.S>=  0.00000000000    
 Annihilation of the first spin contaminant:
 S**2 before annihilation     0.7765,   after     0.7502
 DoSCS=T DFT=T ScalE2(SS,OS)=  0.270000  0.270000
 ExpMin= 1.03D-01 ExpMax= 8.24D+03 ExpMxC= 2.81D+02 IAcc=3 IRadAn=         5 AccDes= 0.00D+00
 HarFok:  IExCor=  205 AccDes= 0.00D+00 IRadAn=         5 IDoV=-2 UseB2=F ITyADJ=14
 ICtDFT= 12500011 ScaDFX=  1.000000  1.000000  1.000000  1.000000
 Range of M.O.s used for correlation:     4   160
 NBasis=   160 NAE=    12 NBE=    11 NFC=     3 NFV=     0
 NROrb=    157 NOA=     9 NOB=     8 NVA=   148 NVB=   149

 **** Warning!!: The largest alpha MO coefficient is  0.14091073D+02


 **** Warning!!: The largest beta MO coefficient is  0.13108174D+02

 DoSCS=T DFT=T ScalE2(SS,OS)=  0.270000  0.270000
 Fully direct method using O(ONN) memory.
 JobTyp=2 Pass  1:  I=   4 to  12 NPSUse= 40 ParTrn=T ParDer=T DoDerP=T.
 JobTyp=3 Pass  1:  I=   4 to  11 NPSUse= 40 ParTrn=T ParDer=T DoDerP=T.
 Spin components of T(2) and E(2):
     alpha-alpha T2 =       0.3120914683D-01 E2=     -0.1938780170D-01
     alpha-beta  T2 =       0.1829437908D+00 E2=     -0.1194164810D+00
     beta-beta   T2 =       0.2615607200D-01 E2=     -0.1573378585D-01
 (S**2,0)=  0.77646D+00           (S**2,1)=  0.75869D+00
 Scaling Projection term by:   0.270000
 E(PUHF)=      -0.11699813723D+03        E(PMP2)=      -0.11714987106D+03
 E2(B2PLYPD3) =    -0.1545380685D+00 E(B2PLYPD3) =    -0.11714925646874D+03
          IDoAtm=11111111
          Differentiating once with respect to electric field.
                with respect to dipole field.
          Differentiating once with respect to nuclear coordinates.
 Keep R1 and R2 ints in memory in canonical form, NReq=206291724.
          There are     1 degrees of freedom in the 1st order CPHF.  IDoFFX=0 NUNeed=     1.
 LinEq1:  Iter=  0 NonCon=     1 RMS=9.91D-04 Max=2.54D-02 NDo=     1
 AX will form     1 AO Fock derivatives at one time.
 LinEq1:  Iter=  1 NonCon=     1 RMS=3.89D-04 Max=9.29D-03 NDo=     1
 LinEq1:  Iter=  2 NonCon=     1 RMS=2.65D-04 Max=8.54D-03 NDo=     1
 LinEq1:  Iter=  3 NonCon=     1 RMS=1.14D-04 Max=4.27D-03 NDo=     1
 LinEq1:  Iter=  4 NonCon=     1 RMS=5.87D-05 Max=1.37D-03 NDo=     1
 LinEq1:  Iter=  5 NonCon=     1 RMS=1.42D-05 Max=1.82D-04 NDo=     1
 LinEq1:  Iter=  6 NonCon=     1 RMS=3.89D-06 Max=3.69D-05 NDo=     1
 LinEq1:  Iter=  7 NonCon=     1 RMS=1.25D-06 Max=1.71D-05 NDo=     1
 LinEq1:  Iter=  8 NonCon=     1 RMS=5.08D-07 Max=6.07D-06 NDo=     1
 LinEq1:  Iter=  9 NonCon=     1 RMS=2.05D-07 Max=2.46D-06 NDo=     1
 LinEq1:  Iter= 10 NonCon=     1 RMS=5.03D-08 Max=5.23D-07 NDo=     1
 LinEq1:  Iter= 11 NonCon=     1 RMS=8.48D-09 Max=1.02D-07 NDo=     1
 LinEq1:  Iter= 12 NonCon=     1 RMS=1.67D-09 Max=1.60D-08 NDo=     1
 LinEq1:  Iter= 13 NonCon=     1 RMS=4.50D-10 Max=4.32D-09 NDo=     1
 LinEq1:  Iter= 14 NonCon=     1 RMS=9.54D-11 Max=1.12D-09 NDo=     1
 LinEq1:  Iter= 15 NonCon=     0 RMS=1.74D-11 Max=1.91D-10 NDo=     1
 Linear equations converged to 1.000D-10 1.000D-09 after    15 iterations.
 End of Minotr F.D. properties file   721 does not exist.
 End of Minotr F.D. properties file   722 does not exist.
 End of Minotr F.D. properties file   788 does not exist.
 Calling FoFJK, ICntrl=  10002127 FMM=F ISym2X=0 I1Cent= 0 IOpClX= 1 NMat=1 NMatS=1 NMatT=0.
 ***** Axes restored to original set *****
 -------------------------------------------------------------------
 Center     Atomic                   Forces (Hartrees/Bohr)
 Number     Number              X              Y              Z
 -------------------------------------------------------------------
      1        6           0.000144419    0.000483071   -0.000002405
      2        6          -0.000316012   -0.000859994   -0.000007580
      3        6          -0.000006794    0.000241901    0.000003802
      4        1          -0.000024222   -0.000018921    0.000000586
      5        1           0.000095427    0.000149940    0.000005119
      6        1          -0.000013260   -0.000054772    0.000002296
      7        1           0.000061226    0.000029041    0.000006892
      8        1           0.000059215    0.000029733   -0.000008710
 -------------------------------------------------------------------
 Cartesian Forces:  Max     0.000859994 RMS     0.000223341

 GradGradGradGradGradGradGradGradGradGradGradGradGradGradGradGradGradGrad
 Berny optimization.
 Using GEDIIS/GDIIS optimizer.
 FormGI is forming the generalized inverse of G from B-inverse, IUseBI=4.
 Internal  Forces:  Max     0.000613856 RMS     0.000166068
 Search for a local minimum.
 Step number   4 out of a maximum of  100
 All quantities printed in internal units (Hartrees-Bohrs-Radians)
 Mixed Optimization -- En-DIIS/RFO-DIIS
 Swapping is turned off.
 Update second derivatives using D2CorX and points    1    2    3    4
 DE= -1.66D-05 DEPred=-1.30D-05 R= 1.28D+00
 TightC=F SS=  1.41D+00  RLast= 1.42D-02 DXNew= 8.4853D-01 4.2710D-02
 Trust test= 1.28D+00 RLast= 1.42D-02 DXMaxT set to 5.05D-01
 ITU=  1  1  1  0
     Eigenvalues ---    0.00781   0.01372   0.03043   0.07212   0.07286
     Eigenvalues ---    0.08377   0.15629   0.16000   0.16105   0.16391
     Eigenvalues ---    0.18716   0.32728   0.34407   0.34413   0.34718
     Eigenvalues ---    0.34981   0.36638   0.62032
 En-DIIS/RFO-DIIS/Sim-DIIS IScMMF=       -3 using points:     4    3
 RFO step:  Lambda=-4.55584449D-06.
 DidBck=F Rises=F RFO-DIIS coefs:    1.34164   -0.34164
 Iteration  1 RMS(Cart)=  0.00310279 RMS(Int)=  0.00000465
 Iteration  2 RMS(Cart)=  0.00000564 RMS(Int)=  0.00000037
 Iteration  3 RMS(Cart)=  0.00000000 RMS(Int)=  0.00000037
 Variable       Old X    -DE/DX   Delta X   Delta X   Delta X     New X
                                 (Linear)    (Quad)   (Total)
    R1        2.46858  -0.00012   0.00030  -0.00063  -0.00033   2.46824
    R2        2.03545   0.00005  -0.00019   0.00024   0.00006   2.03551
    R3        2.85552  -0.00019   0.00002  -0.00069  -0.00067   2.85485
    R4        2.05274   0.00015   0.00063   0.00009   0.00072   2.05346
    R5        2.05451   0.00002   0.00019  -0.00010   0.00009   2.05459
    R6        2.06045  -0.00003  -0.00007  -0.00007  -0.00014   2.06031
    R7        2.06046  -0.00003  -0.00008  -0.00007  -0.00015   2.06031
    A1        2.40204  -0.00006   0.00349  -0.00185   0.00164   2.40368
    A2        2.17900   0.00061   0.00247   0.00181   0.00429   2.18329
    A3        2.07984  -0.00040  -0.00123  -0.00163  -0.00286   2.07699
    A4        2.02434  -0.00022  -0.00125  -0.00019  -0.00143   2.02291
    A5        1.94319   0.00007  -0.00039   0.00104   0.00065   1.94384
    A6        1.92742  -0.00009  -0.00055  -0.00040  -0.00095   1.92647
    A7        1.92739  -0.00008  -0.00055  -0.00036  -0.00091   1.92648
    A8        1.89439   0.00002   0.00056  -0.00011   0.00045   1.89484
    A9        1.89437   0.00002   0.00057  -0.00011   0.00046   1.89483
   A10        1.87530   0.00005   0.00042  -0.00008   0.00034   1.87564
    D1        0.00008  -0.00000  -0.00006   0.00010   0.00004   0.00012
    D2       -3.14144  -0.00000   0.00004  -0.00023  -0.00019   3.14156
    D3       -0.00037  -0.00000   0.00017  -0.00008   0.00009  -0.00028
    D4       -2.10613  -0.00002   0.00008  -0.00035  -0.00027  -2.10640
    D5        2.10536   0.00002   0.00026   0.00023   0.00048   2.10584
    D6        3.14116   0.00000   0.00007   0.00025   0.00031   3.14147
    D7        1.03539  -0.00002  -0.00002  -0.00003  -0.00005   1.03534
    D8       -1.03630   0.00002   0.00016   0.00055   0.00070  -1.03560
         Item               Value     Threshold  Converged?
 Maximum Force            0.000614     0.000450     NO 
 RMS     Force            0.000166     0.000300     YES
 Maximum Displacement     0.010236     0.001800     NO 
 RMS     Displacement     0.003101     0.001200     NO 
 Predicted change in Energy=-2.277931D-06
 GradGradGradGradGradGradGradGradGradGradGradGradGradGradGradGradGradGrad

                          Input orientation:                          
 ---------------------------------------------------------------------
 Center     Atomic      Atomic             Coordinates (Angstroms)
 Number     Number       Type             X           Y           Z
 ---------------------------------------------------------------------
      1          6           0        1.225437   -0.262575   -0.000302
      2          6           0        0.119412    0.432195    0.000167
      3          6           0       -1.273562   -0.152531    0.000006
      4          1           0       -1.247047   -1.239452   -0.000837
      5          1           0        0.178805    1.517217    0.000870
      6          1           0        1.514836   -1.300115   -0.000954
      7          1           0       -1.825601    0.181927   -0.878670
      8          1           0       -1.825241    0.180563    0.879429
 ---------------------------------------------------------------------
                    Distance matrix (angstroms):
                    1          2          3          4          5
     1  C    0.000000
     2  C    1.306138   0.000000
     3  C    2.501421   1.510722   0.000000
     4  H    2.658471   2.159078   1.087244   0.000000
     5  H    2.064727   1.086646   2.213014   3.103592   0.000000
     6  H    1.077145   2.224434   3.015313   2.762549   3.118066
     7  H    3.205924   2.148969   1.090267   1.767947   2.564027
     8  H    3.205766   2.148976   1.090270   1.767942   2.564120
                    6          7          8
     6  H    0.000000
     7  H    3.758371   0.000000
     8  H    3.758137   1.758100   0.000000
 Stoichiometry    C3H5(2)
 Framework group  C1[X(C3H5)]
 Deg. of freedom    18
 Full point group                 C1      NOp   1
 Largest Abelian subgroup         C1      NOp   1
 Largest concise Abelian subgroup C1      NOp   1
                         Standard orientation:                         
 ---------------------------------------------------------------------
 Center     Atomic      Atomic             Coordinates (Angstroms)
 Number     Number       Type             X           Y           Z
 ---------------------------------------------------------------------
      1          6           0        1.358192   -0.155745    0.000013
      2          6           0        0.211828    0.470231   -0.000030
      3          6           0       -1.142865   -0.198417    0.000003
      4          1           0       -1.050067   -1.281694   -0.000213
      5          1           0        0.204893    1.556855    0.000055
      6          1           0        1.710371   -1.173690   -0.000013
      7          1           0       -1.714166    0.101230   -0.878922
      8          1           0       -1.713964    0.100888    0.879178
 ---------------------------------------------------------------------
 Rotational constants (GHZ):          48.3169937          10.1517100           8.8465569
 Standard basis: CC-pVTZ (5D, 7F)
 There are   180 symmetry adapted cartesian basis functions of A   symmetry.
 There are   160 symmetry adapted basis functions of A   symmetry.
   160 basis functions,   241 primitive gaussians,   180 cartesian basis functions
    12 alpha electrons       11 beta electrons
       nuclear repulsion energy        64.6046630883 Hartrees.
[...]
 IR Inten    --      1.7340                22.9402                 0.3359
  Atom  AN      X      Y      Z        X      Y      Z        X      Y      Z
     1   6    -0.00  -0.00  -0.00    -0.00  -0.00  -0.00     0.04  -0.08  -0.00
     2   6     0.00  -0.08  -0.00     0.00  -0.03  -0.00    -0.01   0.01  -0.00
     3   6    -0.01   0.03  -0.00     0.03  -0.08  -0.00    -0.00   0.00   0.00
     4   1     0.03  -0.34  -0.00    -0.07   0.82   0.00     0.00   0.00   0.00
     5   1    -0.01   0.92   0.00    -0.00   0.38   0.00     0.00  -0.02  -0.00
     6   1    -0.01   0.02   0.00    -0.01   0.01  -0.00    -0.35   0.93   0.00
     7   1     0.05  -0.02   0.09    -0.15   0.07  -0.24     0.00  -0.00   0.00
     8   1     0.05  -0.02  -0.09    -0.15   0.07   0.24     0.00  -0.00  -0.00

 -------------------
 - Thermochemistry -
 -------------------
 Temperature   298.150 Kelvin.  Pressure   1.00000 Atm.
 Atom     1 has atomic number  6 and mass  12.00000
 Atom     2 has atomic number  6 and mass  12.00000
 Atom     3 has atomic number  6 and mass  12.00000
 Atom     4 has atomic number  1 and mass   1.00783
 Atom     5 has atomic number  1 and mass   1.00783
 Atom     6 has atomic number  1 and mass   1.00783
 Atom     7 has atomic number  1 and mass   1.00783
 Atom     8 has atomic number  1 and mass   1.00783
 Molecular mass:    41.03913 amu.
 Principal axes and moments of inertia in atomic units:
                           1         2         3
     Eigenvalues --    37.35210 177.77706 204.00493
           X            0.99987  -0.01630  -0.00000
           Y            0.01630   0.99987   0.00001
           Z            0.00000  -0.00001   1.00000
 This molecule is an asymmetric top.
 Rotational symmetry number  1.
 Rotational temperatures (Kelvin)      2.31885     0.48721     0.42457
 Rotational constants (GHZ):          48.31699    10.15171     8.84656
 Zero-point vibrational energy     174089.2 (Joules/Mol)
                                   41.60832 (Kcal/Mol)
 Warning -- explicit consideration of   2 degrees of freedom as
           vibrations may cause significant error
 Vibrational temperatures:    285.55   553.80   938.87  1222.76  1236.65
          (Kelvin)           1339.99  1531.62  1587.25  1851.52  2025.05
                             2152.32  2156.81  2441.00  4385.30  4470.77
                             4490.93  4522.05  4684.01
 
 Zero-point correction=                           0.066307 (Hartree/Particle)
 Thermal correction to Energy=                    0.070421
 Thermal correction to Enthalpy=                  0.071365
 Thermal correction to Gibbs Free Energy=         0.040732
 Sum of electronic and zero-point Energies=           -117.082952
 Sum of electronic and thermal Energies=              -117.078838
 Sum of electronic and thermal Enthalpies=            -117.077894
 Sum of electronic and thermal Free Energies=         -117.108527
 
                     E (Thermal)             CV                S
                      KCal/Mol        Cal/Mol-Kelvin    Cal/Mol-Kelvin
 Total                   44.190             12.853             64.473
 Electronic               0.000              0.000              1.377
 Translational            0.889              2.981             37.063
 Rotational               0.889              2.981             21.832
 Vibrational             42.412              6.891              4.201
 Vibration     1          0.637              1.842              2.147
 Vibration     2          0.754              1.502              1.020
                       Q            Log10(Q)             Ln(Q)
 Total Bot       0.183974D-18        -18.735243        -43.139492
 Total V=0       0.580588D+12         11.763868         27.087307
 Vib (Bot)       0.675638D-30        -30.170286        -69.469650
 Vib (Bot)    1  0.100527D+01          0.002283          0.005256
 Vib (Bot)    2  0.468111D+00         -0.329651         -0.759050
 Vib (V=0)       0.213219D+01          0.328826          0.757149
 Vib (V=0)    1  0.162275D+01          0.210252          0.484122
 Vib (V=0)    2  0.118493D+01          0.073692          0.169683
 Electronic      0.200000D+01          0.301030          0.693147
 Translational   0.103336D+08          7.014251         16.150910
 Rotational      0.131753D+05          4.119761          9.486101
 ***** Axes restored to original set *****
 -------------------------------------------------------------------
 Center     Atomic                   Forces (Hartrees/Bohr)
 Number     Number              X              Y              Z
 -------------------------------------------------------------------
      1        6           0.000128210    0.000122866   -0.000003626
      2        6          -0.000163152   -0.000174998    0.000010740
      3        6           0.000119550    0.000065142   -0.000002745
      4        1          -0.000030269    0.000013714    0.000000048
      5        1           0.000019690    0.000011872   -0.000003087
      6        1          -0.000045080   -0.000030711   -0.000000157
      7        1          -0.000015388   -0.000004675   -0.000003930
      8        1          -0.000013561   -0.000003213    0.000002759
 -------------------------------------------------------------------
 Cartesian Forces:  Max     0.000174998 RMS     0.000068478
 FormGI is forming the generalized inverse of G from B-inverse, IUseBI=4.

 GradGradGradGradGradGradGradGradGradGradGradGradGradGradGradGradGradGrad
 Berny optimization.
 Internal  Forces:  Max     0.000117373 RMS     0.000041751
 Search for a local minimum.
 Step number   1 out of a maximum of    2
 All quantities printed in internal units (Hartrees-Bohrs-Radians)
 Second derivative matrix not updated -- analytic derivatives used.
 ITU=  0
     Eigenvalues ---    0.00214   0.01415   0.02482   0.05656   0.05835
     Eigenvalues ---    0.07901   0.10650   0.12156   0.12456   0.14188
     Eigenvalues ---    0.16603   0.29868   0.33569   0.34118   0.34684
     Eigenvalues ---    0.34924   0.37190   0.66928
 Angle between quadratic step and forces=  21.15 degrees.
 Linear search not attempted -- first point.
 Iteration  1 RMS(Cart)=  0.00039645 RMS(Int)=  0.00000016
 Iteration  2 RMS(Cart)=  0.00000019 RMS(Int)=  0.00000001
 Variable       Old X    -DE/DX   Delta X   Delta X   Delta X     New X
                                 (Linear)    (Quad)   (Total)
    R1        2.46824   0.00002   0.00000   0.00008   0.00008   2.46832
    R2        2.03551   0.00002   0.00000   0.00012   0.00012   2.03563
    R3        2.85485  -0.00008   0.00000  -0.00050  -0.00050   2.85436
    R4        2.05346   0.00001   0.00000   0.00010   0.00010   2.05356
    R5        2.05459  -0.00001   0.00000  -0.00002  -0.00002   2.05457
    R6        2.06031   0.00001   0.00000   0.00004   0.00004   2.06035
    R7        2.06031   0.00001   0.00000   0.00004   0.00004   2.06035
    A1        2.40368  -0.00011   0.00000  -0.00106  -0.00106   2.40262
    A2        2.18329   0.00012   0.00000   0.00086   0.00086   2.18415
    A3        2.07699  -0.00008   0.00000  -0.00064  -0.00064   2.07635
    A4        2.02291  -0.00004   0.00000  -0.00022  -0.00022   2.02269
    A5        1.94384   0.00004   0.00000   0.00042   0.00042   1.94426
    A6        1.92647   0.00001   0.00000   0.00005   0.00005   1.92652
    A7        1.92648   0.00001   0.00000   0.00005   0.00005   1.92652
    A8        1.89484  -0.00002   0.00000  -0.00019  -0.00019   1.89465
    A9        1.89483  -0.00002   0.00000  -0.00018  -0.00018   1.89465
   A10        1.87564  -0.00001   0.00000  -0.00019  -0.00019   1.87545
    D1        0.00012  -0.00000   0.00000  -0.00012  -0.00012   0.00000
    D2        3.14156   0.00000   0.00000   0.00004   0.00004   3.14159
    D3       -0.00028   0.00000   0.00000   0.00028   0.00028   0.00000
    D4       -2.10640  -0.00000   0.00000   0.00019   0.00019  -2.10621
    D5        2.10584   0.00001   0.00000   0.00037   0.00037   2.10621
    D6        3.14147  -0.00000   0.00000   0.00012   0.00012  -3.14159
    D7        1.03534  -0.00000   0.00000   0.00004   0.00004   1.03539
    D8       -1.03560   0.00000   0.00000   0.00021   0.00021  -1.03538
         Item               Value     Threshold  Converged?
 Maximum Force            0.000117     0.000450     YES
 RMS     Force            0.000042     0.000300     YES
 Maximum Displacement     0.001076     0.001800     YES
 RMS     Displacement     0.000396     0.001200     YES
 Predicted change in Energy=-1.747145D-07
 Optimization completed.
    -- Stationary point found.
                           ----------------------------
                           !   Optimized Parameters   !
                           ! (Angstroms and Degrees)  !
 --------------------------                            --------------------------
 ! Name  Definition              Value          Derivative Info.                !
 --------------------------------------------------------------------------------
 ! R1    R(1,2)                  1.3061         -DE/DX =    0.0                 !
 ! R2    R(1,6)                  1.0771         -DE/DX =    0.0                 !
 ! R3    R(2,3)                  1.5107         -DE/DX =   -0.0001              !
 ! R4    R(2,5)                  1.0866         -DE/DX =    0.0                 !
 ! R5    R(3,4)                  1.0872         -DE/DX =    0.0                 !
 ! R6    R(3,7)                  1.0903         -DE/DX =    0.0                 !
 ! R7    R(3,8)                  1.0903         -DE/DX =    0.0                 !
 ! A1    A(2,1,6)              137.721          -DE/DX =   -0.0001              !
 ! A2    A(1,2,3)              125.0931         -DE/DX =    0.0001              !
 ! A3    A(1,2,5)              119.0025         -DE/DX =   -0.0001              !
 ! A4    A(3,2,5)              115.9043         -DE/DX =    0.0                 !
 ! A5    A(2,3,4)              111.3737         -DE/DX =    0.0                 !
 ! A6    A(2,3,7)              110.3785         -DE/DX =    0.0                 !
 ! A7    A(2,3,8)              110.379          -DE/DX =    0.0                 !
 ! A8    A(4,3,7)              108.5662         -DE/DX =    0.0                 !
 ! A9    A(4,3,8)              108.5656         -DE/DX =    0.0                 !
 ! A10   A(7,3,8)              107.4661         -DE/DX =    0.0                 !
 ! D1    D(6,1,2,3)              0.0069         -DE/DX =    0.0                 !
 ! D2    D(6,1,2,5)            179.9979         -DE/DX =    0.0                 !
 ! D3    D(1,2,3,4)             -0.0158         -DE/DX =    0.0                 !
 ! D4    D(1,2,3,7)           -120.688          -DE/DX =    0.0                 !
 ! D5    D(1,2,3,8)            120.6559         -DE/DX =    0.0                 !
 ! D6    D(5,2,3,4)           -180.0071         -DE/DX =    0.0                 !
 ! D7    D(5,2,3,7)             59.3208         -DE/DX =    0.0                 !
 ! D8    D(5,2,3,8)            -59.3354         -DE/DX =    0.0                 !
 --------------------------------------------------------------------------------
 GradGradGradGradGradGradGradGradGradGradGradGradGradGradGradGradGradGrad


 ----------------------------------------------------------------------

 Electric dipole moment (input orientation):
 (Debye = 10**-18 statcoulomb cm , SI units = C m)
                  (au)            (Debye)         (10**-30 SI)
   Tot        0.401743D+00      0.102113D+01      0.340612D+01
   x         -0.383467D+00     -0.974676D+00     -0.325117D+01
   y         -0.119792D+00     -0.304481D+00     -0.101564D+01
   z          0.000000D+00      0.000000D+00      0.000000D+00

 Dipole polarizability, Alpha (input orientation).
 (esu units = cm**3 , SI units = C**2 m**2 J**-1)
 Alpha(0;0):
               (au)            (10**-24 esu)      (10**-40 SI)
   iso        0.351981D+02      0.521582D+01      0.580338D+01
   aniso      0.192985D+02      0.285974D+01      0.318189D+01
   xx         0.451636D+02      0.669255D+01      0.744647D+01
   yx        -0.538934D+01     -0.798618D+00     -0.888583D+00
   yy         0.347557D+02      0.515026D+01      0.573043D+01
   zx        -0.475303D-02     -0.704326D-03     -0.783668D-03
   zy         0.575193D-02      0.852348D-03      0.948365D-03
   zz         0.256750D+02      0.380464D+01      0.423323D+01

 ----------------------------------------------------------------------

 Dipole orientation:
     6          0.34655273         -1.11135187         -2.06244104
     6         -0.21209443          0.67998042         -0.45892439
     6         -0.13190592          0.42237840          2.38314991
     1          0.45563121         -1.46371490          2.94778187
     1         -0.78443086          2.51651968         -1.17744315
     1          0.95203933         -3.05371157         -1.99981416
     1         -1.98945972          0.80001773          3.19045589
     1          1.18252729          1.78812856          3.19053598

 Electric dipole moment (dipole orientation):
 (Debye = 10**-18 statcoulomb cm , SI units = C m)
                  (au)            (Debye)         (10**-30 SI)
   Tot        0.401743D+00      0.102113D+01      0.340612D+01
   x          0.000000D+00      0.000000D+00      0.000000D+00
   y          0.000000D+00      0.000000D+00      0.000000D+00
   z          0.401743D+00      0.102113D+01      0.340612D+01

 Dipole polarizability, Alpha (dipole orientation).
 (esu units = cm**3 , SI units = C**2 m**2 J**-1)
 Alpha(0;0):
               (au)            (10**-24 esu)      (10**-40 SI)
   iso        0.351981D+02      0.521582D+01      0.580338D+01
   aniso      0.192985D+02      0.285974D+01      0.318189D+01
   xx         0.268334D+02      0.397630D+01      0.442423D+01
   yx        -0.371529D+01     -0.550549D+00     -0.612568D+00
   yy         0.375904D+02      0.557032D+01      0.619782D+01
   zx        -0.220166D+01     -0.326252D+00     -0.363004D+00
   zy         0.705783D+01      0.104586D+01      0.116368D+01
   zz         0.411704D+02      0.610083D+01      0.678808D+01

 ----------------------------------------------------------------------
 1\1\GINC-N68\Freq\UB2PLYPD3-FC\CC-pVTZ\C3H5(2)\ROOT\31-May-2019\0\\#N 
 Geom=AllCheck Guess=TCheck SCRF=Check GenChk UB2PLYPD3(FC)/CC-pVTZ Fre
 q\\Title Card Required\\0,2\C,1.2254373056,-0.2625746158,-0.0003022896
 \C,0.1194122671,0.4321949632,0.0001674101\C,-1.2735617164,-0.152531471
 ,0.0000059502\H,-1.2470471415,-1.2394521872,-0.0008373413\H,0.17880527
 76,1.5172167758,0.000870463\H,1.5148359235,-1.3001147089,-0.0009543579
 \H,-1.8256009248,0.1819274015,-0.8786703169\H,-1.8252409911,0.18056284
 24,0.8794294825\\Version=ES64L-G16RevB.01\State=2-A\HF=-116.9947236\MP
 2=-117.1492591\PUHF=-116.9981415\PMP2-0=-117.1498732\S2=0.776414\S2-1=
 0.758657\S2A=0.750217\RMSD=9.793e-10\RMSF=6.848e-05\ZeroPoint=0.066307
 1\Thermal=0.0704207\Dipole=-0.3834673,-0.1197919,-0.0000048\DipoleDeri
 v=-0.3106227,-0.0085864,0.0000033,-0.1184772,-0.0144786,0.0001703,-0.0
 000717,0.0001558,-0.2751221,0.1666638,0.0190629,-0.0000309,0.0766514,0
 .0625657,0.0001463,-0.000052,0.0001936,-0.1922526,0.0486307,-0.0214246
 ,0.0000023,0.0408756,0.0670875,-0.0000407,0.0000985,-0.0000502,0.12875
 99,0.0216965,0.0389221,0.0000339,-0.0419449,-0.118146,-0.0001372,-0.00
 00304,-0.0001449,0.067403,0.0262573,-0.0131601,0.0000053,-0.0147985,-0
 .0886785,-0.0001504,0.0000179,-0.0001688,0.1570658,0.1578671,-0.045534
 1,-0.0000241,0.0721344,-0.0182792,-0.0001435,0.0000574,-0.000138,0.207
 4947,-0.0552706,0.0154133,-0.0611851,-0.0071288,0.0548795,0.056395,-0.
 096911,0.0492961,-0.0465667,-0.0552222,0.0153071,0.0611954,-0.0073121,
 0.0550495,-0.0562398,0.0968913,-0.0491436,-0.0467821\Polar=45.1635925,
 -5.3893444,34.755659,-0.004753,0.0057519,25.674952\PG=C01 [X(C3H5)]\NI
 mag=0\\0.54408423,-0.35412979,0.57998050,-0.00024418,0.00034443,0.0472
 5335,-0.44292924,0.26393545,0.00018022,0.69732052,0.22528632,-0.234049
 03,-0.00013071,-0.17649914,0.65559419,0.00015860,-0.00013345,-0.037400
 08,-0.00014825,0.00033228,0.13643370,-0.04117396,-0.00251530,0.0000050
 7,-0.16687859,-0.05091023,-0.00001897,0.46866799,0.01594920,0.00758058
 ,-0.00000698,-0.04319786,-0.10159936,-0.00001567,-0.03697116,0.5715528
 3,0.00001331,-0.00000414,0.01540624,-0.00001279,-0.00001747,-0.0670857
 2,-0.00000713,0.00003263,0.53143762,0.00271217,-0.00112276,-0.00000077
 ,-0.00055125,-0.03235766,-0.00002488,-0.04752142,0.01246508,0.00000834
 ,0.05296990,0.00155281,0.00135140,0.00000165,-0.00063011,-0.01132764,-
 0.00000761,0.01028407,-0.31864317,-0.00021094,-0.00929177,0.34509614,0
 .00000029,0.00000144,-0.00049814,0.00000054,-0.00000046,-0.00096976,0.
 00000648,-0.00021188,-0.04810646,-0.00000867,0.00023266,0.04606723,-0.
 00224977,0.02725215,0.00001720,-0.04645355,-0.01307901,-0.00000676,-0.
 00174484,-0.03041386,-0.00001895,-0.00541275,-0.00197758,0.00000008,0.
 05611574,0.00729005,-0.01694774,-0.00001071,-0.01935112,-0.31764178,-0
 .00017853,0.00029547,-0.01005231,-0.00001293,-0.00205664,0.00047337,-0
 .00000015,0.01386625,0.34484966,0.00000483,-0.00001119,-0.00112100,-0.
 00001114,-0.00018204,-0.03861945,0.00000152,-0.00000824,0.00979116,-0.
 00000034,-0.00000044,0.00147999,0.00000545,0.00020809,0.01987870,-0.05
 551627,0.07208067,0.00004585,0.00258512,0.02839780,0.00001743,0.003417
 19,-0.00093182,-0.00000051,-0.00033276,-0.00065271,-0.00000043,-0.0027
 7546,0.00020903,0.00000054,0.05161476,0.10613207,-0.33825303,-0.000198
 07,-0.01105164,-0.00074662,-0.00000170,0.00020274,0.00026767,0.0000020
 2,0.00044972,0.00014197,-0.00000006,0.00273394,-0.00104185,-0.00000590
 ,-0.09886329,0.33973825,0.00006824,-0.00019770,-0.02415842,-0.00000864
 ,-0.00000207,0.00171897,-0.00000005,0.00000183,-0.00236078,0.00000039,
 -0.00000023,0.00009906,0.00000220,-0.00000596,0.00866877,-0.00006242,0
 .00020370,0.01641705,-0.00246493,-0.00275153,0.00183531,-0.02155022,0.
 00959917,-0.02382963,-0.10742882,0.04164927,-0.11021821,-0.00093167,0.
 00035734,0.00001541,0.00126079,-0.00012772,0.00196964,0.00050389,0.000
 19851,-0.00032735,0.12148552,-0.00104113,0.00016922,0.00025209,-0.0066
 0654,0.00489403,-0.01158731,0.03990438,-0.07465740,0.06613633,0.015961
 48,-0.00856615,0.02705219,0.00080965,0.00018050,0.00047930,-0.00011989
 ,-0.00005345,0.00054174,-0.04333129,0.07528984,0.00038221,-0.00086308,
 0.00025814,0.00147372,-0.00031024,0.00295625,-0.10654717,0.06723861,-0
 .21939459,0.00165435,-0.00071388,0.00098427,-0.00060286,-0.00033233,-0
 .00003910,0.00004703,-0.00005419,-0.00019183,0.11708462,-0.07393989,0.
 23739601,-0.00246223,-0.00274888,-0.00183870,-0.02154280,0.00956276,0.
 02385246,-0.10733753,0.04145115,0.11023594,-0.00093221,0.00035795,-0.0
 0001370,0.00125983,-0.00012532,-0.00197051,0.00050352,0.00019797,0.000
 32764,0.00912544,-0.00557665,-0.01349188,0.12138598,-0.00103954,0.0001
 6811,-0.00025170,-0.00659902,0.00487621,0.01159200,0.03971003,-0.07444
 883,-0.06592549,0.01595256,-0.00852591,-0.02707375,0.00080847,0.000180
 14,-0.00047959,-0.00011979,-0.00005295,-0.00054131,-0.00559374,0.00274
 341,0.00897501,-0.04311898,0.07505982,-0.00038329,0.00086369,0.0002599
 2,-0.00147366,0.00031071,0.00296609,0.10656026,-0.06703031,-0.21968746
 ,-0.00162842,0.00069879,0.00094381,0.00060364,0.00033252,-0.00003908,-
 0.00004750,0.00005420,-0.00019282,0.01347021,-0.00893444,-0.02196915,-
 0.11710124,0.07370483,0.23771869\\-0.00012821,-0.00012287,0.00000363,0
 .00016315,0.00017500,-0.00001074,-0.00011955,-0.00006514,0.00000275,0.
 00003027,-0.00001371,-0.00000005,-0.00001969,-0.00001187,0.00000309,0.
 00004508,0.00003071,0.00000016,0.00001539,0.00000467,0.00000393,0.0000
 1356,0.00000321,-0.00000276\\\@


 EXPERIENCE IS THE FRUIT OF THE TREE OF ERRORS.
 Job cpu time:       0 days  2 hours 25 minutes 46.1 seconds.
 Elapsed time:       0 days  0 hours  3 minutes 47.5 seconds.
 File lengths (MBytes):  RWF=   4493 Int=      0 D2E=      0 Chk=      6 Scr=      1
 Normal termination of Gaussian 16 at Fri May 31 22:34:02 2019.
