 Entering Gaussian System, Link 0=g16
 Initial command:
 /ichec/packages/gaussian/16b01/l1.exe "/localscratch/339542/Gau-4336.inp" -scrdir="/localscratch/339542/"
 Entering Link 1 = /ichec/packages/gaussian/16b01/l1.exe PID=      4348.
  
 Copyright (c) 1988-2017, Gaussian, Inc.  All Rights Reserved.
  
 This is part of the Gaussian(R) 16 program.  It is based on
 the Gaussian(R) 09 system (copyright 2009, Gaussian, Inc.),
 the Gaussian(R) 03 system (copyright 2003, Gaussian, Inc.),
 the Gaussian(R) 98 system (copyright 1998, Gaussian, Inc.),
 the Gaussian(R) 94 system (copyright 1995, Gaussian, Inc.),
 the Gaussian 92(TM) system (copyright 1992, Gaussian, Inc.),
 the Gaussian 90(TM) system (copyright 1990, Gaussian, Inc.),
 the Gaussian 88(TM) system (copyright 1988, Gaussian, Inc.),
 the Gaussian 86(TM) system (copyright 1986, Carnegie Mellon
 University), and the Gaussian 82(TM) system (copyright 1983,
 Carnegie Mellon University). Gaussian is a federally registered
 trademark of Gaussian, Inc.
  
 This software contains proprietary and confidential information,
 including trade secrets, belonging to Gaussian, Inc.
  
 This software is provided under written license and may be
 used, copied, transmitted, or stored only in accord with that
 written license.
  
 The following legend is applicable only to US Government
 contracts under FAR:
  
                    RESTRICTED RIGHTS LEGEND
  
 Use, reproduction and disclosure by the US Government is
 subject to restrictions as set forth in subparagraphs (a)
 and (c) of the Commercial Computer Software - Restricted
 Rights clause in FAR 52.227-19.
  
 Gaussian, Inc.
 340 Quinnipiac St., Bldg. 40, Wallingford CT 06492
  
  
 ---------------------------------------------------------------
 Warning -- This program may not be used in any manner that
 competes with the business of Gaussian, Inc. or will provide
 assistance to any competitor of Gaussian, Inc.  The licensee
 of this program is prohibited from giving any competitor of
 Gaussian, Inc. access to this program.  By using this program,
 the user acknowledges that Gaussian, Inc. is engaged in the
 business of creating and licensing software in the field of
 computational chemistry and represents and warrants to the
 licensee that it is not a competitor of Gaussian, Inc. and that
 it will not use this program in any manner prohibited above.
 ---------------------------------------------------------------
  

 Cite this work as:
 Gaussian 16, Revision B.01,
 M. J. Frisch, G. W. Trucks, H. B. Schlegel, G. E. Scuseria, 
 M. A. Robb, J. R. Cheeseman, G. Scalmani, V. Barone, 
 G. A. Petersson, H. Nakatsuji, X. Li, M. Caricato, A. V. Marenich, 
 J. Bloino, B. G. Janesko, R. Gomperts, B. Mennucci, H. P. Hratchian, 
 J. V. Ortiz, A. F. Izmaylov, J. L. Sonnenberg, D. Williams-Young, 
 F. Ding, F. Lipparini, F. Egidi, J. Goings, B. Peng, A. Petrone, 
 T. Henderson, D. Ranasinghe, V. G. Zakrzewski, J. Gao, N. Rega, 
 G. Zheng, W. Liang, M. Hada, M. Ehara, K. Toyota, R. Fukuda, 
 J. Hasegawa, M. Ishida, T. Nakajima, Y. Honda, O. Kitao, H. Nakai, 
 T. Vreven, K. Throssell, J. A. Montgomery, Jr., J. E. Peralta, 
 F. Ogliaro, M. J. Bearpark, J. J. Heyd, E. N. Brothers, K. N. Kudin, 
 V. N. Staroverov, T. A. Keith, R. Kobayashi, J. Normand, 
 K. Raghavachari, A. P. Rendell, J. C. Burant, S. S. Iyengar, 
 J. Tomasi, M. Cossi, J. M. Millam, M. Klene, C. Adamo, R. Cammi, 
 J. W. Ochterski, R. L. Martin, K. Morokuma, O. Farkas, 
 J. B. Foresman, and D. J. Fox, Gaussian, Inc., Wallingford CT, 2016.
 
 ******************************************
 Gaussian 16:  ES64L-G16RevB.01 20-Dec-2017
                31-May-2019 
 ******************************************
 %mem=80GB
 %nproc=40
 Will use up to   40 processors via shared memory.
 -----------------------------------------------
 # opt=maxcyc=500 freq=noraman uB2PLYPD3/cc-pvtz
 -----------------------------------------------
 1/6=500,18=20,19=15,38=1/1,3;
 2/9=110,12=2,17=6,18=5,40=1/2;
 3/5=16,6=1,11=2,25=1,30=1,71=1,74=-60,116=2/1,2,3;
 4//1;
 5/5=2,38=5/2;
 8/6=4,10=1/1;
 9/15=2,16=-3/6;
 10/5=1/2;
 6/7=2,8=2,9=2,10=2/1;
 7/12=2/1,2,3,16;
 1/6=500,18=20,19=15/3(2);
 2/9=110/2;
 99//99;
 2/9=110/2;
 3/5=16,6=1,11=2,25=1,30=1,71=1,74=-60,116=2/1,2,3;
 4/5=5,16=3,69=1/1;
 5/5=2,38=5/2;
 8/6=4,10=1/1;
 9/15=2,16=-3/6;
 10/5=1/2;
 7/12=2/1,2,3,16;
 1/6=500,18=20,19=15/3(-8);
 2/9=110/2;
 6/7=2,8=2,9=2,10=2/1;
 99/9=10/99;
 -------------------
 Title Card Required
 -------------------
 Symbolic Z-matrix:
 Charge =  0 Multiplicity = 1
 C                     1.27481  -0.22233   0.0001 
 C                     0.13448   0.45801   0.00012 
 C                    -1.22975  -0.16289  -0.00005 
 H                    -1.16569  -1.25215  -0.00194 
 H                     0.17055   1.54523  -0.00026 
 H                     1.2832   -1.30795  -0.00012 
 H                    -1.80101   0.15112  -0.878 
 H                     2.23525   0.27883  -0.00056 
 H                    -1.79955   0.1482    0.87986 
 

 GradGradGradGradGradGradGradGradGradGradGradGradGradGradGradGradGradGrad
 Berny optimization.
 Initialization pass.
                           ----------------------------
                           !    Initial Parameters    !
                           ! (Angstroms and Degrees)  !
 --------------------------                            --------------------------
 ! Name  Definition              Value          Derivative Info.                !
 --------------------------------------------------------------------------------
 ! R1    R(1,2)                  1.3279         estimate D2E/DX2                !
 ! R2    R(1,6)                  1.0857         estimate D2E/DX2                !
 ! R3    R(1,8)                  1.0833         estimate D2E/DX2                !
 ! R4    R(2,3)                  1.4989         estimate D2E/DX2                !
 ! R5    R(2,5)                  1.0878         estimate D2E/DX2                !
 ! R6    R(3,4)                  1.0911         estimate D2E/DX2                !
 ! R7    R(3,7)                  1.0935         estimate D2E/DX2                !
 ! R8    R(3,9)                  1.0935         estimate D2E/DX2                !
 ! A1    A(2,1,6)              121.2633         estimate D2E/DX2                !
 ! A2    A(2,1,8)              121.6233         estimate D2E/DX2                !
 ! A3    A(6,1,8)              117.1133         estimate D2E/DX2                !
 ! A4    A(1,2,3)              124.7078         estimate D2E/DX2                !
 ! A5    A(1,2,5)              118.9207         estimate D2E/DX2                !
 ! A6    A(3,2,5)              116.3715         estimate D2E/DX2                !
 ! A7    A(2,3,4)              111.1057         estimate D2E/DX2                !
 ! A8    A(2,3,7)              110.8937         estimate D2E/DX2                !
 ! A9    A(2,3,9)              110.8757         estimate D2E/DX2                !
 ! A10   A(4,3,7)              108.4178         estimate D2E/DX2                !
 ! A11   A(4,3,9)              108.4199         estimate D2E/DX2                !
 ! A12   A(7,3,9)              106.9868         estimate D2E/DX2                !
 ! D1    D(6,1,2,3)              0.0039         estimate D2E/DX2                !
 ! D2    D(6,1,2,5)           -179.9633         estimate D2E/DX2                !
 ! D3    D(8,1,2,3)            179.951          estimate D2E/DX2                !
 ! D4    D(8,1,2,5)             -0.0162         estimate D2E/DX2                !
 ! D5    D(1,2,3,4)             -0.0974         estimate D2E/DX2                !
 ! D6    D(1,2,3,7)           -120.7507         estimate D2E/DX2                !
 ! D7    D(1,2,3,9)            120.5464         estimate D2E/DX2                !
 ! D8    D(5,2,3,4)            179.8706         estimate D2E/DX2                !
 ! D9    D(5,2,3,7)             59.2173         estimate D2E/DX2                !
 ! D10   D(5,2,3,9)            -59.4857         estimate D2E/DX2                !
 --------------------------------------------------------------------------------
 Trust Radius=3.00D-01 FncErr=1.00D-07 GrdErr=1.00D-07 EigMax=2.50D+02 EigMin=1.00D-04
 Number of steps in this run=    100 maximum allowed number of steps=    100.
 GradGradGradGradGradGradGradGradGradGradGradGradGradGradGradGradGradGrad

                          Input orientation:                          
 ---------------------------------------------------------------------
 Center     Atomic      Atomic             Coordinates (Angstroms)
 Number     Number       Type             X           Y           Z
 ---------------------------------------------------------------------
      1          6           0        1.274812   -0.222332    0.000099
      2          6           0        0.134476    0.458005    0.000124
      3          6           0       -1.229746   -0.162885   -0.000054
      4          1           0       -1.165686   -1.252151   -0.001938
      5          1           0        0.170545    1.545233   -0.000261
      6          1           0        1.283197   -1.307952   -0.000121
      7          1           0       -1.801008    0.151116   -0.877998
      8          1           0        2.235251    0.278832   -0.000555
      9          1           0       -1.799550    0.148195    0.879858
 ---------------------------------------------------------------------
                    Distance matrix (angstroms):
                    1          2          3          4          5
     1  C    0.000000
     2  C    1.327865   0.000000
     3  C    2.505263   1.498868   0.000000
     4  H    2.648879   2.148269   1.091150   0.000000
     5  H    2.084153   1.087826   2.208729   3.100141   0.000000
     6  H    1.085652   2.106695   2.761532   2.449519   3.062460
     7  H    3.220433   2.147412   1.093491   1.772082   2.569242
     8  H    1.083332   2.108402   3.493039   3.729649   2.422144
     9  H    3.219156   2.147177   1.093477   1.772094   2.570525
                    6          7          8          9
     6  H    0.000000
     7  H    3.523048   0.000000
     8  H    1.850484   4.132506   0.000000
     9  H    3.521087   1.757859   4.131805   0.000000
 Stoichiometry    C3H6
 Framework group  C1[X(C3H6)]
 Deg. of freedom    21
 Full point group                 C1      NOp   1
 Largest Abelian subgroup         C1      NOp   1
 Largest concise Abelian subgroup C1      NOp   1
                         Standard orientation:                         
 ---------------------------------------------------------------------
 Center     Atomic      Atomic             Coordinates (Angstroms)
 Number     Number       Type             X           Y           Z
 ---------------------------------------------------------------------
      1          6           0        1.274812   -0.222332    0.000099
      2          6           0        0.134476    0.458005    0.000124
      3          6           0       -1.229746   -0.162885   -0.000054
      4          1           0       -1.165686   -1.252151   -0.001938
      5          1           0        0.170545    1.545233   -0.000261
      6          1           0        1.283197   -1.307952   -0.000121
      7          1           0       -1.801008    0.151116   -0.877998
      8          1           0        2.235251    0.278832   -0.000555
      9          1           0       -1.799550    0.148195    0.879858
 ---------------------------------------------------------------------
 Rotational constants (GHZ):          46.7285884           9.3549060           8.1877449
 Standard basis: CC-pVTZ (5D, 7F)
 There are   195 symmetry adapted cartesian basis functions of A   symmetry.
 There are   174 symmetry adapted basis functions of A   symmetry.
   174 basis functions,   258 primitive gaussians,   195 cartesian basis functions
    12 alpha electrons       12 beta electrons
       nuclear repulsion energy        70.8631595966 Hartrees.
 NAtoms=    9 NActive=    9 NUniq=    9 SFac= 1.00D+00 NAtFMM=   60 NAOKFM=F Big=F
 Integral buffers will be    131072 words long.
 Raffenetti 2 integral format.
 Two-electron integral symmetry is turned on.
 Nuclear repulsion after empirical dispersion term =       70.8596184315 Hartrees.
 One-electron integrals computed using PRISM.
 NBasis=   174 RedAO= T EigKep=  5.07D-04  NBF=   174
 NBsUse=   174 1.00D-06 EigRej= -1.00D+00 NBFU=   174
 ExpMin= 1.03D-01 ExpMax= 8.24D+03 ExpMxC= 2.81D+02 IAcc=3 IRadAn=         5 AccDes= 0.00D+00
 Harris functional with IExCor=  419 and IRadAn=       5 diagonalized for initial guess.
 HarFok:  IExCor=  419 AccDes= 0.00D+00 IRadAn=         5 IDoV= 1 UseB2=F ITyADJ=14
 ICtDFT=  3500011 ScaDFX=  1.000000  1.000000  1.000000  1.000000
 FoFCou: FMM=F IPFlag=           0 FMFlag=      100000 FMFlg1=           0
         NFxFlg=           0 DoJE=T BraDBF=F KetDBF=T FulRan=T
         wScrn=  0.000000 ICntrl=       500 IOpCl=  0 I1Cent=   200000004 NGrid=           0
         NMat0=    1 NMatS0=      1 NMatT0=    0 NMatD0=    1 NMtDS0=    0 NMtDT0=    0
 Petite list used in FoFCou.
 Initial guess <Sx>= 0.0000 <Sy>= 0.0000 <Sz>= 0.0000 <S**2>=-0.0000 S=-0.0000
 Keep R1 and R2 ints in memory in canonical form, NReq=272700713.
 Requested convergence on RMS density matrix=1.00D-08 within 128 cycles.
 Requested convergence on MAX density matrix=1.00D-06.
 Requested convergence on             energy=1.00D-06.
 No special actions if energy rises.
 Integral accuracy reduced to 1.0D-05 until final iterations.
 Initial convergence to 1.0D-05 achieved.  Increase integral accuracy.
 SCF Done:  E(UB2PLYPD3) =  -117.668710544     A.U. after   11 cycles
            NFock= 11  Conv=0.60D-08     -V/T= 2.0050
 <Sx>= 0.0000 <Sy>= 0.0000 <Sz>= 0.0000 <S**2>=-0.0000 S=-0.0000
 <L.S>=  0.00000000000    
 Annihilation of the first spin contaminant:
 S**2 before annihilation    -0.0000,   after    -0.0000
 DoSCS=T DFT=T ScalE2(SS,OS)=  0.270000  0.270000
 ExpMin= 1.03D-01 ExpMax= 8.24D+03 ExpMxC= 2.81D+02 IAcc=3 IRadAn=         5 AccDes= 0.00D+00
 HarFok:  IExCor=  205 AccDes= 0.00D+00 IRadAn=         5 IDoV=-2 UseB2=F ITyADJ=14
 ICtDFT= 12500011 ScaDFX=  1.000000  1.000000  1.000000  1.000000
 Range of M.O.s used for correlation:     4   174
 NBasis=   174 NAE=    12 NBE=    12 NFC=     3 NFV=     0
 NROrb=    171 NOA=     9 NOB=     9 NVA=   162 NVB=   162

 **** Warning!!: The largest alpha MO coefficient is  0.12380463D+02


 **** Warning!!: The largest beta MO coefficient is  0.12380463D+02

 DoSCS=T DFT=T ScalE2(SS,OS)=  0.270000  0.270000
 Fully direct method using O(ONN) memory.
 JobTyp=2 Pass  1:  I=   4 to  12 NPSUse= 40 ParTrn=T ParDer=T DoDerP=T.
 JobTyp=3 Pass  1:  I=   4 to  12 NPSUse= 40 ParTrn=T ParDer=T DoDerP=T.
 Spin components of T(2) and E(2):
     alpha-alpha T2 =       0.2959933262D-01 E2=     -0.1839004973D-01
     alpha-beta  T2 =       0.1973818856D+00 E2=     -0.1299878109D+00
     beta-beta   T2 =       0.2959933262D-01 E2=     -0.1839004973D-01
 (S**2,0)=  0.00000D+00           (S**2,1)=  0.00000D+00
 E(PUHF)=      -0.11766871054D+03        E(PMP2)=      -0.11783547845D+03
 E2(B2PLYPD3) =    -0.1667679103D+00 E(B2PLYPD3) =    -0.11783547845395D+03
          IDoAtm=111111111
          Differentiating once with respect to electric field.
                with respect to dipole field.
          Differentiating once with respect to nuclear coordinates.
 Keep R1 and R2 ints in memory in canonical form, NReq=272707123.
          There are     1 degrees of freedom in the 1st order CPHF.  IDoFFX=0 NUNeed=     1.
 LinEq1:  Iter=  0 NonCon=     1 RMS=6.48D-04 Max=1.12D-02 NDo=     1
 AX will form     1 AO Fock derivatives at one time.
 LinEq1:  Iter=  1 NonCon=     1 RMS=2.67D-04 Max=2.86D-03 NDo=     1
 LinEq1:  Iter=  2 NonCon=     1 RMS=6.42D-05 Max=1.55D-03 NDo=     1
 LinEq1:  Iter=  3 NonCon=     1 RMS=3.42D-05 Max=6.80D-04 NDo=     1
 LinEq1:  Iter=  4 NonCon=     1 RMS=1.01D-05 Max=1.46D-04 NDo=     1
 LinEq1:  Iter=  5 NonCon=     1 RMS=2.56D-06 Max=2.57D-05 NDo=     1
 LinEq1:  Iter=  6 NonCon=     1 RMS=6.89D-07 Max=8.89D-06 NDo=     1
 LinEq1:  Iter=  7 NonCon=     1 RMS=2.61D-07 Max=3.58D-06 NDo=     1
 LinEq1:  Iter=  8 NonCon=     1 RMS=9.05D-08 Max=9.13D-07 NDo=     1
 LinEq1:  Iter=  9 NonCon=     1 RMS=1.11D-08 Max=1.40D-07 NDo=     1
 LinEq1:  Iter= 10 NonCon=     1 RMS=2.07D-09 Max=1.72D-08 NDo=     1
 LinEq1:  Iter= 11 NonCon=     1 RMS=3.27D-10 Max=4.31D-09 NDo=     1
 LinEq1:  Iter= 12 NonCon=     0 RMS=4.09D-11 Max=3.39D-10 NDo=     1
 Linear equations converged to 1.000D-10 1.000D-09 after    12 iterations.
 End of Minotr F.D. properties file   721 does not exist.
 End of Minotr F.D. properties file   722 does not exist.
 End of Minotr F.D. properties file   788 does not exist.

 **********************************************************************

            Population analysis using the SCF Density.

 **********************************************************************

 Orbital symmetries:
 Alpha Orbitals:
       Occupied  (A) (A) (A) (A) (A) (A) (A) (A) (A) (A) (A) (A)
       Virtual   (A) (A) (A) (A) (A) (A) (A) (A) (A) (A) (A) (A)
                 (A) (A) (A) (A) (A) (A) (A) (A) (A) (A) (A) (A)
                 (A) (A) (A) (A) (A) (A) (A) (A) (A) (A) (A) (A)
                 (A) (A) (A) (A) (A) (A) (A) (A) (A) (A) (A) (A)
                 (A) (A) (A) (A) (A) (A) (A) (A) (A) (A) (A) (A)
                 (A) (A) (A) (A) (A) (A) (A) (A) (A) (A) (A) (A)
                 (A) (A) (A) (A) (A) (A) (A) (A) (A) (A) (A) (A)
                 (A) (A) (A) (A) (A) (A) (A) (A) (A) (A) (A) (A)
                 (A) (A) (A) (A) (A) (A) (A) (A) (A) (A) (A) (A)
                 (A) (A) (A) (A) (A) (A) (A) (A) (A) (A) (A) (A)
                 (A) (A) (A) (A) (A) (A) (A) (A) (A) (A) (A) (A)
                 (A) (A) (A) (A) (A) (A) (A) (A) (A) (A) (A) (A)
                 (A) (A) (A) (A) (A) (A) (A) (A) (A) (A) (A) (A)
                 (A) (A) (A) (A) (A) (A)
 Beta  Orbitals:
       Occupied  (A) (A) (A) (A) (A) (A) (A) (A) (A) (A) (A) (A)
       Virtual   (A) (A) (A) (A) (A) (A) (A) (A) (A) (A) (A) (A)
                 (A) (A) (A) (A) (A) (A) (A) (A) (A) (A) (A) (A)
                 (A) (A) (A) (A) (A) (A) (A) (A) (A) (A) (A) (A)
                 (A) (A) (A) (A) (A) (A) (A) (A) (A) (A) (A) (A)
                 (A) (A) (A) (A) (A) (A) (A) (A) (A) (A) (A) (A)
                 (A) (A) (A) (A) (A) (A) (A) (A) (A) (A) (A) (A)
                 (A) (A) (A) (A) (A) (A) (A) (A) (A) (A) (A) (A)
                 (A) (A) (A) (A) (A) (A) (A) (A) (A) (A) (A) (A)
                 (A) (A) (A) (A) (A) (A) (A) (A) (A) (A) (A) (A)
                 (A) (A) (A) (A) (A) (A) (A) (A) (A) (A) (A) (A)
                 (A) (A) (A) (A) (A) (A) (A) (A) (A) (A) (A) (A)
                 (A) (A) (A) (A) (A) (A) (A) (A) (A) (A) (A) (A)
                 (A) (A) (A) (A) (A) (A) (A) (A) (A) (A) (A) (A)
                 (A) (A) (A) (A) (A) (A)
 The electronic state is 1-A.
 Alpha  occ. eigenvalues --  -10.61883 -10.60909 -10.60253  -0.90343  -0.78913
 Alpha  occ. eigenvalues --   -0.63910  -0.54016  -0.48951  -0.47885  -0.43613
 Alpha  occ. eigenvalues --   -0.40677  -0.30258
 Alpha virt. eigenvalues --    0.07482   0.08811   0.11687   0.12350   0.15638
 Alpha virt. eigenvalues --    0.16144   0.18203   0.23871   0.30392   0.30864
 Alpha virt. eigenvalues --    0.32390   0.36186   0.38002   0.39149   0.42377
 Alpha virt. eigenvalues --    0.48038   0.48800   0.50725   0.52529   0.53240
 Alpha virt. eigenvalues --    0.53608   0.55256   0.57857   0.60634   0.62191
 Alpha virt. eigenvalues --    0.70047   0.70853   0.73736   0.75003   0.79826
 Alpha virt. eigenvalues --    0.81803   0.95048   0.95066   0.98171   0.98425
 Alpha virt. eigenvalues --    1.07082   1.07731   1.08727   1.10756   1.12734
 Alpha virt. eigenvalues --    1.16891   1.17409   1.21999   1.23538   1.26460
 Alpha virt. eigenvalues --    1.29188   1.29686   1.36926   1.38530   1.41091
 Alpha virt. eigenvalues --    1.45087   1.46727   1.48801   1.51959   1.58318
 Alpha virt. eigenvalues --    1.58771   1.59797   1.63837   1.76728   1.93546
 Alpha virt. eigenvalues --    2.15983   2.20460   2.29078   2.34123   2.38914
 Alpha virt. eigenvalues --    2.39258   2.44799   2.48678   2.53360   2.59525
 Alpha virt. eigenvalues --    2.66609   2.72079   2.72391   2.78414   2.85424
 Alpha virt. eigenvalues --    2.87338   2.87975   2.90024   2.94278   2.97793
 Alpha virt. eigenvalues --    2.98657   3.01215   3.01493   3.02157   3.05870
 Alpha virt. eigenvalues --    3.09815   3.11383   3.14294   3.15677   3.17977
 Alpha virt. eigenvalues --    3.23348   3.23515   3.26499   3.31283   3.36960
 Alpha virt. eigenvalues --    3.39156   3.40407   3.43481   3.45538   3.51962
 Alpha virt. eigenvalues --    3.55825   3.56686   3.57693   3.58908   3.64832
 Alpha virt. eigenvalues --    3.72622   3.74098   3.78968   3.82381   3.83129
 Alpha virt. eigenvalues --    3.86565   3.87029   3.91382   3.95487   4.01220
 Alpha virt. eigenvalues --    4.01471   4.04124   4.05070   4.08121   4.14655
 Alpha virt. eigenvalues --    4.16029   4.17330   4.22687   4.24262   4.24792
 Alpha virt. eigenvalues --    4.33819   4.35106   4.38251   4.41135   4.51030
 Alpha virt. eigenvalues --    4.52434   4.56791   4.59894   4.67060   4.78229
 Alpha virt. eigenvalues --    4.83599   4.87323   4.94335   4.96652   4.99752
 Alpha virt. eigenvalues --    5.08265   5.09435   5.14460   5.16520   5.20186
 Alpha virt. eigenvalues --    5.32839   5.34016   5.36811   5.40741   5.44604
 Alpha virt. eigenvalues --    5.49955   5.55897   5.58067   5.75050   5.97807
 Alpha virt. eigenvalues --    6.00689   6.07035   6.13822   6.41569  11.04027
 Alpha virt. eigenvalues --   13.67277  14.30648
  Beta  occ. eigenvalues --  -10.61883 -10.60909 -10.60253  -0.90343  -0.78913
  Beta  occ. eigenvalues --   -0.63910  -0.54016  -0.48951  -0.47885  -0.43613
  Beta  occ. eigenvalues --   -0.40677  -0.30258
  Beta virt. eigenvalues --    0.07482   0.08811   0.11687   0.12350   0.15638
  Beta virt. eigenvalues --    0.16144   0.18203   0.23871   0.30392   0.30864
  Beta virt. eigenvalues --    0.32390   0.36186   0.38002   0.39149   0.42377
  Beta virt. eigenvalues --    0.48038   0.48800   0.50725   0.52529   0.53240
  Beta virt. eigenvalues --    0.53608   0.55256   0.57857   0.60634   0.62191
  Beta virt. eigenvalues --    0.70047   0.70853   0.73736   0.75003   0.79826
  Beta virt. eigenvalues --    0.81803   0.95048   0.95066   0.98171   0.98425
  Beta virt. eigenvalues --    1.07082   1.07731   1.08727   1.10756   1.12734
  Beta virt. eigenvalues --    1.16891   1.17409   1.21999   1.23538   1.26460
  Beta virt. eigenvalues --    1.29188   1.29686   1.36926   1.38530   1.41091
  Beta virt. eigenvalues --    1.45087   1.46727   1.48801   1.51959   1.58318
  Beta virt. eigenvalues --    1.58771   1.59797   1.63837   1.76728   1.93546
  Beta virt. eigenvalues --    2.15983   2.20460   2.29078   2.34123   2.38914
  Beta virt. eigenvalues --    2.39258   2.44799   2.48678   2.53360   2.59525
  Beta virt. eigenvalues --    2.66609   2.72079   2.72391   2.78414   2.85424
  Beta virt. eigenvalues --    2.87338   2.87975   2.90024   2.94278   2.97793
  Beta virt. eigenvalues --    2.98657   3.01215   3.01493   3.02157   3.05870
  Beta virt. eigenvalues --    3.09815   3.11383   3.14294   3.15677   3.17977
  Beta virt. eigenvalues --    3.23348   3.23515   3.26499   3.31283   3.36960
  Beta virt. eigenvalues --    3.39156   3.40407   3.43481   3.45538   3.51962
  Beta virt. eigenvalues --    3.55825   3.56686   3.57693   3.58908   3.64832
  Beta virt. eigenvalues --    3.72622   3.74098   3.78968   3.82381   3.83129
  Beta virt. eigenvalues --    3.86565   3.87029   3.91382   3.95487   4.01220
  Beta virt. eigenvalues --    4.01471   4.04124   4.05070   4.08121   4.14655
  Beta virt. eigenvalues --    4.16029   4.17330   4.22687   4.24262   4.24792
  Beta virt. eigenvalues --    4.33819   4.35106   4.38251   4.41135   4.51030
  Beta virt. eigenvalues --    4.52434   4.56791   4.59894   4.67060   4.78229
  Beta virt. eigenvalues --    4.83599   4.87323   4.94335   4.96652   4.99752
  Beta virt. eigenvalues --    5.08265   5.09435   5.14460   5.16520   5.20186
  Beta virt. eigenvalues --    5.32839   5.34016   5.36811   5.40741   5.44604
  Beta virt. eigenvalues --    5.49955   5.55897   5.58067   5.75050   5.97807
  Beta virt. eigenvalues --    6.00689   6.07035   6.13822   6.41569  11.04027
  Beta virt. eigenvalues --   13.67277  14.30648
          Condensed to atoms (all electrons):
               1          2          3          4          5          6
     1  C    4.948408   0.640371  -0.058419  -0.003054  -0.045606   0.407669
     2  C    0.640371   4.895798   0.352233  -0.039879   0.412899  -0.048376
     3  C   -0.058419   0.352233   4.781290   0.408859  -0.040023  -0.007378
     4  H   -0.003054  -0.039879   0.408859   0.584893   0.005813   0.004493
     5  H   -0.045606   0.412899  -0.040023   0.005813   0.544666   0.006902
     6  H    0.407669  -0.048376  -0.007378   0.004493   0.006902   0.555527
     7  H    0.000494  -0.040128   0.409559  -0.028049  -0.002534   0.000114
     8  H    0.419522  -0.046344   0.006649  -0.000015  -0.008241  -0.035961
     9  H    0.000460  -0.040158   0.409510  -0.028033  -0.002499   0.000116
               7          8          9
     1  C    0.000494   0.419522   0.000460
     2  C   -0.040128  -0.046344  -0.040158
     3  C    0.409559   0.006649   0.409510
     4  H   -0.028049  -0.000015  -0.028033
     5  H   -0.002534  -0.008241  -0.002499
     6  H    0.000114  -0.035961   0.000116
     7  H    0.600902  -0.000326  -0.037592
     8  H   -0.000326   0.542145  -0.000326
     9  H   -0.037592  -0.000326   0.600932
          Atomic-Atomic Spin Densities.
               1          2          3          4          5          6
     1  C   -0.000000   0.000000   0.000000   0.000000  -0.000000  -0.000000
     2  C    0.000000   0.000000  -0.000000   0.000000   0.000000   0.000000
     3  C    0.000000  -0.000000   0.000000  -0.000000   0.000000  -0.000000
     4  H    0.000000   0.000000  -0.000000  -0.000000   0.000000   0.000000
     5  H   -0.000000   0.000000   0.000000   0.000000  -0.000000  -0.000000
     6  H   -0.000000   0.000000  -0.000000   0.000000  -0.000000  -0.000000
     7  H   -0.000000  -0.000000   0.000000   0.000000  -0.000000  -0.000000
     8  H   -0.000000  -0.000000   0.000000   0.000000   0.000000  -0.000000
     9  H   -0.000000  -0.000000  -0.000000   0.000000  -0.000000  -0.000000
               7          8          9
     1  C   -0.000000  -0.000000  -0.000000
     2  C   -0.000000  -0.000000  -0.000000
     3  C    0.000000   0.000000  -0.000000
     4  H    0.000000   0.000000   0.000000
     5  H   -0.000000   0.000000  -0.000000
     6  H   -0.000000  -0.000000  -0.000000
     7  H    0.000000  -0.000000  -0.000000
     8  H   -0.000000   0.000000  -0.000000
     9  H   -0.000000  -0.000000   0.000000
 Mulliken charges and spin densities:
               1          2
     1  C   -0.309844  -0.000000
     2  C   -0.086416   0.000000
     3  C   -0.262280   0.000000
     4  H    0.094973   0.000000
     5  H    0.128623   0.000000
     6  H    0.116895  -0.000000
     7  H    0.097560   0.000000
     8  H    0.122898  -0.000000
     9  H    0.097591  -0.000000
 Sum of Mulliken charges =  -0.00000  -0.00000
 Mulliken charges and spin densities with hydrogens summed into heavy atoms:
               1          2
     1  C   -0.070052  -0.000000
     2  C    0.042207   0.000000
     3  C    0.027844   0.000000
 Electronic spatial extent (au):  <R**2>=            196.6610
 Charge=             -0.0000 electrons
 Dipole moment (field-independent basis, Debye):
    X=             -0.3789    Y=              0.0788    Z=             -0.0008  Tot=              0.3870
 Quadrupole moment (field-independent basis, Debye-Ang):
   XX=            -19.4088   YY=            -19.0390   ZZ=            -21.9596
   XY=             -0.1738   XZ=             -0.0014   YZ=             -0.0003
 Traceless Quadrupole moment (field-independent basis, Debye-Ang):
   XX=              0.7270   YY=              1.0968   ZZ=             -1.8238
   XY=             -0.1738   XZ=             -0.0014   YZ=             -0.0003
 Octapole moment (field-independent basis, Debye-Ang**2):
  XXX=              1.8824  YYY=             -0.1873  ZZZ=              0.0017  XYY=              0.5002
  XXY=              0.7481  XXZ=             -0.0051  XZZ=             -2.6929  YZZ=              0.2407
  YYZ=             -0.0043  XYZ=              0.0006
 Hexadecapole moment (field-independent basis, Debye-Ang**3):
 XXXX=           -183.5138 YYYY=            -51.7394 ZZZZ=            -32.2038 XXXY=              1.0458
 XXXZ=             -0.0043 YYYX=             -0.2554 YYYZ=              0.0022 ZZZX=             -0.0075
 ZZZY=             -0.0014 XXYY=            -40.7901 XXZZ=            -37.3082 YYZZ=            -15.7074
 XXYZ=             -0.0043 YYXZ=              0.0024 ZZXY=             -0.6924
 N-N= 7.085961843154D+01 E-N=-4.141352362570D+02  KE= 1.170830710374D+02
                          Isotropic Fermi Contact Couplings
        Atom                 a.u.       MegaHertz       Gauss      10(-4) cm-1
     1  C(13)             -0.00000      -0.00000      -0.00000      -0.00000
     2  C(13)              0.00000       0.00000       0.00000       0.00000
     3  C(13)              0.00000       0.00000       0.00000       0.00000
     4  H(1)               0.00000       0.00000       0.00000       0.00000
     5  H(1)              -0.00000      -0.00000      -0.00000      -0.00000
     6  H(1)               0.00000       0.00000       0.00000       0.00000
     7  H(1)              -0.00000      -0.00000      -0.00000      -0.00000
     8  H(1)              -0.00000      -0.00000      -0.00000      -0.00000
     9  H(1)              -0.00000      -0.00000      -0.00000      -0.00000
 --------------------------------------------------------
       Center         ----  Spin Dipole Couplings  ----
                      3XX-RR        3YY-RR        3ZZ-RR
 --------------------------------------------------------
     1   Atom        0.000000      0.000000      0.000000
     2   Atom        0.000000      0.000000      0.000000
     3   Atom        0.000000      0.000000      0.000000
     4   Atom        0.000000      0.000000      0.000000
     5   Atom        0.000000      0.000000      0.000000
     6   Atom        0.000000      0.000000      0.000000
     7   Atom        0.000000      0.000000      0.000000
     8   Atom        0.000000      0.000000      0.000000
     9   Atom        0.000000      0.000000      0.000000
 --------------------------------------------------------
                        XY            XZ            YZ
 --------------------------------------------------------
     1   Atom        0.000000      0.000000      0.000000
     2   Atom        0.000000      0.000000      0.000000
     3   Atom        0.000000      0.000000      0.000000
     4   Atom        0.000000      0.000000      0.000000
     5   Atom        0.000000      0.000000      0.000000
     6   Atom        0.000000      0.000000      0.000000
     7   Atom        0.000000      0.000000      0.000000
     8   Atom        0.000000      0.000000      0.000000
     9   Atom        0.000000      0.000000      0.000000
 --------------------------------------------------------


 ---------------------------------------------------------------------------------
              Anisotropic Spin Dipole Couplings in Principal Axis System
 ---------------------------------------------------------------------------------

       Atom             a.u.   MegaHertz   Gauss  10(-4) cm-1        Axes

              Baa     0.0000     0.000     0.000     0.000  1.0000  0.0000  0.0000
     1 C(13)  Bbb     0.0000     0.000     0.000     0.000 -0.0000  1.0000  0.0000
              Bcc     0.0000     0.000     0.000     0.000  0.0000  0.0000  1.0000
 
              Baa     0.0000     0.000     0.000     0.000  1.0000  0.0000  0.0000
     2 C(13)  Bbb     0.0000     0.000     0.000     0.000 -0.0000  1.0000  0.0000
              Bcc     0.0000     0.000     0.000     0.000  0.0000  0.0000  1.0000
 
              Baa     0.0000     0.000     0.000     0.000  1.0000  0.0000  0.0000
     3 C(13)  Bbb     0.0000     0.000     0.000     0.000 -0.0000  1.0000  0.0000
              Bcc     0.0000     0.000     0.000     0.000  0.0000  0.0000  1.0000
 
              Baa     0.0000     0.000     0.000     0.000  1.0000  0.0000  0.0000
     4 H(1)   Bbb     0.0000     0.000     0.000     0.000 -0.0000  1.0000  0.0000
              Bcc     0.0000     0.000     0.000     0.000  0.0000  0.0000  1.0000
 
              Baa     0.0000     0.000     0.000     0.000  1.0000  0.0000  0.0000
     5 H(1)   Bbb     0.0000     0.000     0.000     0.000 -0.0000  1.0000  0.0000
              Bcc     0.0000     0.000     0.000     0.000  0.0000  0.0000  1.0000
 
              Baa     0.0000     0.000     0.000     0.000  1.0000  0.0000  0.0000
     6 H(1)   Bbb     0.0000     0.000     0.000     0.000 -0.0000  1.0000  0.0000
              Bcc     0.0000     0.000     0.000     0.000  0.0000  0.0000  1.0000
 
              Baa     0.0000     0.000     0.000     0.000  1.0000  0.0000  0.0000
     7 H(1)   Bbb     0.0000     0.000     0.000     0.000 -0.0000  1.0000  0.0000
              Bcc     0.0000     0.000     0.000     0.000  0.0000  0.0000  1.0000
 
              Baa     0.0000     0.000     0.000     0.000  1.0000  0.0000  0.0000
     8 H(1)   Bbb     0.0000     0.000     0.000     0.000 -0.0000  1.0000  0.0000
              Bcc     0.0000     0.000     0.000     0.000  0.0000  0.0000  1.0000
 
              Baa     0.0000     0.000     0.000     0.000  1.0000  0.0000  0.0000
     9 H(1)   Bbb     0.0000     0.000     0.000     0.000 -0.0000  1.0000  0.0000
              Bcc     0.0000     0.000     0.000     0.000  0.0000  0.0000  1.0000
 

 ---------------------------------------------------------------------------------

 Calling FoFJK, ICntrl=  10002127 FMM=F ISym2X=0 I1Cent= 0 IOpClX= 1 NMat=1 NMatS=1 NMatT=0.
 ***** Axes restored to original set *****
 -------------------------------------------------------------------
 Center     Atomic                   Forces (Hartrees/Bohr)
 Number     Number              X              Y              Z
 -------------------------------------------------------------------
      1        6           0.003180592   -0.001818138   -0.000052549
      2        6          -0.002392940    0.001846922   -0.000060070
      3        6           0.000356971    0.000258286    0.000025444
      4        1          -0.000324076    0.001730395    0.000013262
      5        1          -0.000085951   -0.002281671    0.000023528
      6        1           0.000077662    0.002412110    0.000013857
      7        1           0.000608907   -0.000548819    0.001450960
      8        1          -0.001989194   -0.001049216    0.000033380
      9        1           0.000568029   -0.000549870   -0.001447811
 -------------------------------------------------------------------
 Cartesian Forces:  Max     0.003180592 RMS     0.001325749

 GradGradGradGradGradGradGradGradGradGradGradGradGradGradGradGradGradGrad
 Berny optimization.
 FormGI is forming the generalized inverse of G from B-inverse, IUseBI=4.
 Internal  Forces:  Max     0.002411269 RMS     0.000988456
 Search for a local minimum.
 Step number   1 out of a maximum of  100
 All quantities printed in internal units (Hartrees-Bohrs-Radians)
 Mixed Optimization -- En-DIIS/RFO-DIIS
 Second derivative matrix not updated -- first step.
 ITU=  0
     Eigenvalues ---    0.00781   0.01711   0.03043   0.03043   0.07200
     Eigenvalues ---    0.07305   0.16000   0.16000   0.16000   0.16000
     Eigenvalues ---    0.16000   0.16000   0.22000   0.32496   0.34412
     Eigenvalues ---    0.34414   0.34680   0.35065   0.35320   0.35595
     Eigenvalues ---    0.60013
 RFO step:  Lambda=-8.46789028D-05 EMin= 7.80918152D-03
 Linear search not attempted -- first point.
 Iteration  1 RMS(Cart)=  0.00341098 RMS(Int)=  0.00000413
 Iteration  2 RMS(Cart)=  0.00000604 RMS(Int)=  0.00000064
 Iteration  3 RMS(Cart)=  0.00000000 RMS(Int)=  0.00000064
 Variable       Old X    -DE/DX   Delta X   Delta X   Delta X     New X
                                 (Linear)    (Quad)   (Total)
    R1        2.50930   0.00132   0.00000   0.00220   0.00220   2.51151
    R2        2.05159  -0.00241   0.00000  -0.00683  -0.00683   2.04476
    R3        2.04720  -0.00225   0.00000  -0.00632  -0.00632   2.04088
    R4        2.83245  -0.00147   0.00000  -0.00452  -0.00452   2.82793
    R5        2.05569  -0.00228   0.00000  -0.00651  -0.00651   2.04918
    R6        2.06197  -0.00175   0.00000  -0.00504  -0.00504   2.05694
    R7        2.06640  -0.00164   0.00000  -0.00477  -0.00477   2.06163
    R8        2.06637  -0.00162   0.00000  -0.00470  -0.00470   2.06167
    A1        2.11644   0.00012   0.00000   0.00078   0.00078   2.11722
    A2        2.12273  -0.00005   0.00000  -0.00032  -0.00032   2.12240
    A3        2.04401  -0.00007   0.00000  -0.00045  -0.00045   2.04356
    A4        2.17656   0.00056   0.00000   0.00253   0.00253   2.17909
    A5        2.07556  -0.00027   0.00000  -0.00120  -0.00120   2.07436
    A6        2.03107  -0.00029   0.00000  -0.00133  -0.00133   2.02974
    A7        1.93916   0.00021   0.00000   0.00151   0.00151   1.94067
    A8        1.93546   0.00026   0.00000   0.00153   0.00153   1.93699
    A9        1.93515   0.00032   0.00000   0.00189   0.00189   1.93704
   A10        1.89225  -0.00022   0.00000  -0.00123  -0.00123   1.89102
   A11        1.89228  -0.00024   0.00000  -0.00131  -0.00131   1.89098
   A12        1.86727  -0.00037   0.00000  -0.00267  -0.00268   1.86460
    D1        0.00007  -0.00000   0.00000   0.00012   0.00012   0.00018
    D2       -3.14095  -0.00002   0.00000  -0.00089  -0.00089   3.14135
    D3        3.14074   0.00004   0.00000   0.00142   0.00142  -3.14103
    D4       -0.00028   0.00002   0.00000   0.00041   0.00041   0.00013
    D5       -0.00170  -0.00001   0.00000   0.00012   0.00012  -0.00158
    D6       -2.10750  -0.00004   0.00000  -0.00038  -0.00038  -2.10787
    D7        2.10393   0.00004   0.00000   0.00076   0.00076   2.10469
    D8        3.13933   0.00001   0.00000   0.00110   0.00110   3.14043
    D9        1.03354  -0.00003   0.00000   0.00060   0.00060   1.03414
   D10       -1.03822   0.00006   0.00000   0.00174   0.00174  -1.03648
         Item               Value     Threshold  Converged?
 Maximum Force            0.002411     0.000450     NO 
 RMS     Force            0.000988     0.000300     NO 
 Maximum Displacement     0.009553     0.001800     NO 
 RMS     Displacement     0.003410     0.001200     NO 
 Predicted change in Energy=-4.235070D-05
 GradGradGradGradGradGradGradGradGradGradGradGradGradGradGradGradGradGrad

                          Input orientation:                          
 ---------------------------------------------------------------------
 Center     Atomic      Atomic             Coordinates (Angstroms)
 Number     Number       Type             X           Y           Z
 ---------------------------------------------------------------------
      1          6           0        1.276000   -0.222924   -0.000361
      2          6           0        0.133694    0.456385   -0.000259
      3          6           0       -1.229036   -0.162005   -0.000015
      4          1           0       -1.167979   -1.248775   -0.001532
      5          1           0        0.169407    1.540178    0.000050
      6          1           0        1.286739   -1.304912   -0.000439
      7          1           0       -1.800241    0.151078   -0.875181
      8          1           0        2.232601    0.278365   -0.000021
      9          1           0       -1.798896    0.148672    0.876912
 ---------------------------------------------------------------------
                    Distance matrix (angstroms):
                    1          2          3          4          5
     1  C    0.000000
     2  C    1.329031   0.000000
     3  C    2.505776   1.496475   0.000000
     4  H    2.650548   2.145210   1.088485   0.000000
     5  H    2.081604   1.084381   2.202968   3.093035   0.000000
     6  H    1.082041   2.105155   2.763215   2.455360   3.056626
     7  H    3.220007   2.144482   1.090969   1.767090   2.564204
     8  H    1.079989   2.106443   3.489535   3.727748   2.418458
     9  H    3.219111   2.144533   1.090991   1.767082   2.565033
                    6          7          8          9
     6  H    0.000000
     7  H    3.523425   0.000000
     8  H    1.844294   4.128671   0.000000
     9  H    3.521902   1.752095   4.127809   0.000000
 Stoichiometry    C3H6
 Framework group  C1[X(C3H6)]
 Deg. of freedom    21
 Full point group                 C1      NOp   1
 Largest Abelian subgroup         C1      NOp   1
 Largest concise Abelian subgroup C1      NOp   1
                         Standard orientation:                         
 ---------------------------------------------------------------------
 Center     Atomic      Atomic             Coordinates (Angstroms)
 Number     Number       Type             X           Y           Z
 ---------------------------------------------------------------------
      1          6           0        1.275968   -0.221492   -0.000193
      2          6           0        0.133048    0.456783   -0.000092
      3          6           0       -1.229121   -0.162840    0.000153
      4          1           0       -1.167081   -1.249555   -0.001364
      5          1           0        0.167781    1.540608    0.000218
      6          1           0        1.287686   -1.303469   -0.000272
      7          1           0       -1.800609    0.149726   -0.875014
      8          1           0        2.232116    0.280663    0.000146
      9          1           0       -1.799263    0.147321    0.877079
 ---------------------------------------------------------------------
 Rotational constants (GHZ):          46.9918959           9.3550014           8.1931554
 Standard basis: CC-pVTZ (5D, 7F)
 There are   195 symmetry adapted cartesian basis functions of A   symmetry.
 There are   174 symmetry adapted basis functions of A   symmetry.
   174 basis functions,   258 primitive gaussians,   195 cartesian basis functions
    12 alpha electrons       12 beta electrons
       nuclear repulsion energy        70.9368651857 Hartrees.
 NAtoms=    9 NActive=    9 NUniq=    9 SFac= 1.00D+00 NAtFMM=   60 NAOKFM=F Big=F
 Integral buffers will be    131072 words long.
 Raffenetti 2 integral format.
 Two-electron integral symmetry is turned on.
 Nuclear repulsion after empirical dispersion term =       70.9333230935 Hartrees.
 One-electron integrals computed using PRISM.
 NBasis=   174 RedAO= T EigKep=  5.08D-04  NBF=   174
 NBsUse=   174 1.00D-06 EigRej= -1.00D+00 NBFU=   174
 Initial guess from the checkpoint file:  "/localscratch/339542/Gau-4348.chk"
 B after Tr=    -0.000000    0.000000    0.000000
         Rot=    1.000000    0.000022   -0.000049   -0.000372 Ang=   0.04 deg.
 Initial guess <Sx>= 0.0000 <Sy>= 0.0000 <Sz>= 0.0000 <S**2>= 0.0000 S= 0.0000
 Keep R1 and R2 ints in memory in canonical form, NReq=272700713.
 Requested convergence on RMS density matrix=1.00D-08 within 128 cycles.
 Requested convergence on MAX density matrix=1.00D-06.
 Requested convergence on             energy=1.00D-06.
 No special actions if energy rises.
 SCF Done:  E(UB2PLYPD3) =  -117.668821935     A.U. after    7 cycles
            NFock=  7  Conv=0.99D-08     -V/T= 2.0048
 <Sx>= 0.0000 <Sy>= 0.0000 <Sz>= 0.0000 <S**2>=-0.0000 S=-0.0000
 <L.S>=  0.00000000000    
 Annihilation of the first spin contaminant:
 S**2 before annihilation    -0.0000,   after     0.0000
 DoSCS=T DFT=T ScalE2(SS,OS)=  0.270000  0.270000
 ExpMin= 1.03D-01 ExpMax= 8.24D+03 ExpMxC= 2.81D+02 IAcc=3 IRadAn=         5 AccDes= 0.00D+00
 HarFok:  IExCor=  205 AccDes= 0.00D+00 IRadAn=         5 IDoV=-2 UseB2=F ITyADJ=14
 ICtDFT= 12500011 ScaDFX=  1.000000  1.000000  1.000000  1.000000
 Range of M.O.s used for correlation:     4   174
 NBasis=   174 NAE=    12 NBE=    12 NFC=     3 NFV=     0
 NROrb=    171 NOA=     9 NOB=     9 NVA=   162 NVB=   162

 **** Warning!!: The largest alpha MO coefficient is  0.12363376D+02


 **** Warning!!: The largest beta MO coefficient is  0.12363376D+02

 DoSCS=T DFT=T ScalE2(SS,OS)=  0.270000  0.270000
 Fully direct method using O(ONN) memory.
 JobTyp=2 Pass  1:  I=   4 to  12 NPSUse= 40 ParTrn=T ParDer=T DoDerP=T.
 JobTyp=3 Pass  1:  I=   4 to  12 NPSUse= 40 ParTrn=T ParDer=T DoDerP=T.
 Spin components of T(2) and E(2):
     alpha-alpha T2 =       0.2955489809D-01 E2=     -0.1838835610D-01
     alpha-beta  T2 =       0.1969577359D+00 E2=     -0.1299226780D+00
     beta-beta   T2 =       0.2955489809D-01 E2=     -0.1838835610D-01
 (S**2,0)=  0.00000D+00           (S**2,1)=  0.00000D+00
 E(PUHF)=      -0.11766882193D+03        E(PMP2)=      -0.11783552132D+03
 E2(B2PLYPD3) =    -0.1666993903D+00 E(B2PLYPD3) =    -0.11783552132490D+03
          IDoAtm=111111111
          Differentiating once with respect to electric field.
                with respect to dipole field.
          Differentiating once with respect to nuclear coordinates.
 Keep R1 and R2 ints in memory in canonical form, NReq=272707123.
          There are     1 degrees of freedom in the 1st order CPHF.  IDoFFX=0 NUNeed=     1.
 LinEq1:  Iter=  0 NonCon=     1 RMS=6.48D-04 Max=1.13D-02 NDo=     1
 AX will form     1 AO Fock derivatives at one time.
 LinEq1:  Iter=  1 NonCon=     1 RMS=2.66D-04 Max=2.84D-03 NDo=     1
 LinEq1:  Iter=  2 NonCon=     1 RMS=6.42D-05 Max=1.56D-03 NDo=     1
 LinEq1:  Iter=  3 NonCon=     1 RMS=3.43D-05 Max=6.79D-04 NDo=     1
 LinEq1:  Iter=  4 NonCon=     1 RMS=1.01D-05 Max=1.45D-04 NDo=     1
 LinEq1:  Iter=  5 NonCon=     1 RMS=2.56D-06 Max=2.56D-05 NDo=     1
 LinEq1:  Iter=  6 NonCon=     1 RMS=6.89D-07 Max=8.86D-06 NDo=     1
 LinEq1:  Iter=  7 NonCon=     1 RMS=2.62D-07 Max=3.58D-06 NDo=     1
 LinEq1:  Iter=  8 NonCon=     1 RMS=9.01D-08 Max=9.14D-07 NDo=     1
 LinEq1:  Iter=  9 NonCon=     1 RMS=1.11D-08 Max=1.38D-07 NDo=     1
 LinEq1:  Iter= 10 NonCon=     1 RMS=2.06D-09 Max=1.71D-08 NDo=     1
 LinEq1:  Iter= 11 NonCon=     1 RMS=3.25D-10 Max=4.29D-09 NDo=     1
 LinEq1:  Iter= 12 NonCon=     0 RMS=4.04D-11 Max=3.25D-10 NDo=     1
 Linear equations converged to 1.000D-10 1.000D-09 after    12 iterations.
 End of Minotr F.D. properties file   721 does not exist.
 End of Minotr F.D. properties file   722 does not exist.
 End of Minotr F.D. properties file   788 does not exist.
 Calling FoFJK, ICntrl=  10002127 FMM=F ISym2X=0 I1Cent= 0 IOpClX= 1 NMat=1 NMatS=1 NMatT=0.
 ***** Axes restored to original set *****
 -------------------------------------------------------------------
 Center     Atomic                   Forces (Hartrees/Bohr)
 Number     Number              X              Y              Z
 -------------------------------------------------------------------
      1        6           0.000147978   -0.000102272    0.000014027
      2        6          -0.000380218   -0.000058211    0.000030489
      3        6           0.000468463    0.000074788   -0.000015689
      4        1          -0.000112168   -0.000052527    0.000003376
      5        1           0.000093977    0.000033980   -0.000003543
      6        1          -0.000041752   -0.000022044   -0.000006701
      7        1          -0.000077820    0.000003525   -0.000019843
      8        1          -0.000033175    0.000111026   -0.000014066
      9        1          -0.000065286    0.000011735    0.000011951
 -------------------------------------------------------------------
 Cartesian Forces:  Max     0.000468463 RMS     0.000130383

 GradGradGradGradGradGradGradGradGradGradGradGradGradGradGradGradGradGrad
 Berny optimization.
 Using GEDIIS/GDIIS optimizer.
 FormGI is forming the generalized inverse of G from B-inverse, IUseBI=4.
 Internal  Forces:  Max     0.000209814 RMS     0.000072494
 Search for a local minimum.
 Step number   2 out of a maximum of  100
 All quantities printed in internal units (Hartrees-Bohrs-Radians)
 Mixed Optimization -- En-DIIS/RFO-DIIS
 Swapping is turned off.
 Update second derivatives using D2CorX and points    1    2
 DE= -4.29D-05 DEPred=-4.24D-05 R= 1.01D+00
 TightC=F SS=  1.41D+00  RLast= 1.62D-02 DXNew= 5.0454D-01 4.8538D-02
 Trust test= 1.01D+00 RLast= 1.62D-02 DXMaxT set to 3.00D-01
 ITU=  1  0
     Eigenvalues ---    0.00781   0.01712   0.03043   0.03045   0.07180
     Eigenvalues ---    0.07268   0.15587   0.16000   0.16000   0.16000
     Eigenvalues ---    0.16000   0.16102   0.21856   0.31676   0.34413
     Eigenvalues ---    0.34534   0.34803   0.35184   0.35486   0.36759
     Eigenvalues ---    0.59832
 En-DIIS/RFO-DIIS/Sim-DIIS IScMMF=       -3 using points:     2    1
 RFO step:  Lambda=-8.54057299D-07.
 DidBck=F Rises=F RFO-DIIS coefs:    1.03147   -0.03147
 Iteration  1 RMS(Cart)=  0.00069963 RMS(Int)=  0.00000045
 Iteration  2 RMS(Cart)=  0.00000040 RMS(Int)=  0.00000011
 Variable       Old X    -DE/DX   Delta X   Delta X   Delta X     New X
                                 (Linear)    (Quad)   (Total)
    R1        2.51151   0.00007   0.00007   0.00007   0.00014   2.51164
    R2        2.04476   0.00002  -0.00021   0.00021  -0.00001   2.04475
    R3        2.04088   0.00002  -0.00020   0.00020  -0.00000   2.04088
    R4        2.82793  -0.00021  -0.00014  -0.00055  -0.00070   2.82723
    R5        2.04918   0.00004  -0.00020   0.00025   0.00004   2.04923
    R6        2.05694   0.00005  -0.00016   0.00024   0.00008   2.05702
    R7        2.06163   0.00006  -0.00015   0.00027   0.00012   2.06175
    R8        2.06167   0.00005  -0.00015   0.00024   0.00009   2.06177
    A1        2.11722   0.00002   0.00002   0.00011   0.00013   2.11735
    A2        2.12240  -0.00013  -0.00001  -0.00079  -0.00080   2.12161
    A3        2.04356   0.00011  -0.00001   0.00068   0.00066   2.04422
    A4        2.17909   0.00008   0.00008   0.00029   0.00037   2.17947
    A5        2.07436  -0.00013  -0.00004  -0.00075  -0.00079   2.07357
    A6        2.02974   0.00006  -0.00004   0.00046   0.00041   2.03015
    A7        1.94067   0.00016   0.00005   0.00109   0.00114   1.94181
    A8        1.93699   0.00003   0.00005   0.00012   0.00017   1.93715
    A9        1.93704   0.00001   0.00006  -0.00004   0.00002   1.93705
   A10        1.89102  -0.00008  -0.00004  -0.00032  -0.00036   1.89065
   A11        1.89098  -0.00007  -0.00004  -0.00032  -0.00036   1.89061
   A12        1.86460  -0.00006  -0.00008  -0.00060  -0.00068   1.86391
    D1        0.00018   0.00000   0.00000  -0.00007  -0.00007   0.00012
    D2        3.14135   0.00001  -0.00003   0.00047   0.00045  -3.14139
    D3       -3.14103  -0.00002   0.00004  -0.00070  -0.00065   3.14150
    D4        0.00013  -0.00001   0.00001  -0.00015  -0.00014  -0.00001
    D5       -0.00158   0.00001   0.00000   0.00068   0.00068  -0.00090
    D6       -2.10787  -0.00002  -0.00001   0.00028   0.00026  -2.10761
    D7        2.10469   0.00003   0.00002   0.00098   0.00100   2.10570
    D8        3.14043   0.00000   0.00003   0.00015   0.00018   3.14061
    D9        1.03414  -0.00003   0.00002  -0.00026  -0.00024   1.03390
   D10       -1.03648   0.00002   0.00005   0.00044   0.00050  -1.03598
         Item               Value     Threshold  Converged?
 Maximum Force            0.000210     0.000450     YES
 RMS     Force            0.000072     0.000300     YES
 Maximum Displacement     0.002137     0.001800     NO 
 RMS     Displacement     0.000700     0.001200     YES
 Predicted change in Energy=-4.270518D-07
 GradGradGradGradGradGradGradGradGradGradGradGradGradGradGradGradGradGrad

                          Input orientation:                          
 ---------------------------------------------------------------------
 Center     Atomic      Atomic             Coordinates (Angstroms)
 Number     Number       Type             X           Y           Z
 ---------------------------------------------------------------------
      1          6           0        1.276188   -0.223046   -0.000267
      2          6           0        0.133635    0.455993    0.000051
      3          6           0       -1.228823   -0.162103   -0.000005
      4          1           0       -1.169110   -1.248993   -0.001251
      5          1           0        0.169911    1.539789    0.000297
      6          1           0        1.287362   -1.305026   -0.000705
      7          1           0       -1.800035    0.151090   -0.875208
      8          1           0        2.232254    0.279263   -0.000291
      9          1           0       -1.799091    0.149094    0.876532
 ---------------------------------------------------------------------
                    Distance matrix (angstroms):
                    1          2          3          4          5
     1  C    0.000000
     2  C    1.329105   0.000000
     3  C    2.505752   1.496106   0.000000
     4  H    2.651801   2.145722   1.088530   0.000000
     5  H    2.081211   1.084403   2.202928   3.093587   0.000000
     6  H    1.082038   2.105296   2.763595   2.457111   3.056415
     7  H    3.220039   2.144324   1.091033   1.766947   2.564309
     8  H    1.079989   2.106047   3.489105   3.728920   2.417062
     9  H    3.219410   2.144257   1.091039   1.766925   2.564915
                    6          7          8          9
     6  H    0.000000
     7  H    3.523784   0.000000
     8  H    1.844666   4.128107   0.000000
     9  H    3.522811   1.751741   4.127651   0.000000
 Stoichiometry    C3H6
 Framework group  C1[X(C3H6)]
 Deg. of freedom    21
 Full point group                 C1      NOp   1
 Largest Abelian subgroup         C1      NOp   1
 Largest concise Abelian subgroup C1      NOp   1
                         Standard orientation:                         
 ---------------------------------------------------------------------
 Center     Atomic      Atomic             Coordinates (Angstroms)
 Number     Number       Type             X           Y           Z
 ---------------------------------------------------------------------
      1          6           0        1.276073   -0.221555    0.000025
      2          6           0        0.132943    0.456511    0.000008
      3          6           0       -1.228988   -0.162744   -0.000011
      4          1           0       -1.168351   -1.249583   -0.000919
      5          1           0        0.168296    1.540338   -0.000072
      6          1           0        1.288168   -1.303525   -0.000083
      7          1           0       -1.800370    0.149697   -0.875373
      8          1           0        2.231711    0.281567   -0.000046
      9          1           0       -1.799619    0.148235    0.876367
 ---------------------------------------------------------------------
 Rotational constants (GHZ):          47.0070774           9.3547745           8.1932764
 Standard basis: CC-pVTZ (5D, 7F)
 There are   195 symmetry adapted cartesian basis functions of A   symmetry.
 There are   174 symmetry adapted basis functions of A   symmetry.
   174 basis functions,   258 primitive gaussians,   195 cartesian basis functions
    12 alpha electrons       12 beta electrons
       nuclear repulsion energy        70.9384774364 Hartrees.
 NAtoms=    9 NActive=    9 NUniq=    9 SFac= 1.00D+00 NAtFMM=   60 NAOKFM=F Big=F
 Integral buffers will be    131072 words long.
 Raffenetti 2 integral format.
 Two-electron integral symmetry is turned on.
 Nuclear repulsion after empirical dispersion term =       70.9349354710 Hartrees.
 One-electron integrals computed using PRISM.
 NBasis=   174 RedAO= T EigKep=  5.08D-04  NBF=   174
 NBsUse=   174 1.00D-06 EigRej= -1.00D+00 NBFU=   174
 Initial guess from the checkpoint file:  "/localscratch/339542/Gau-4348.chk"
 B after Tr=    -0.000000    0.000000    0.000000
         Rot=    1.000000    0.000119    0.000067    0.000026 Ang=   0.02 deg.
 Initial guess <Sx>= 0.0000 <Sy>= 0.0000 <Sz>= 0.0000 <S**2>=-0.0000 S=-0.0000
 Keep R1 and R2 ints in memory in canonical form, NReq=272700713.
 Requested convergence on RMS density matrix=1.00D-08 within 128 cycles.
 Requested convergence on MAX density matrix=1.00D-06.
 Requested convergence on             energy=1.00D-06.
 No special actions if energy rises.
 SCF Done:  E(UB2PLYPD3) =  -117.668821420     A.U. after    6 cycles
            NFock=  6  Conv=0.34D-08     -V/T= 2.0048
 <Sx>= 0.0000 <Sy>= 0.0000 <Sz>= 0.0000 <S**2>=-0.0000 S=-0.0000
 <L.S>=  0.00000000000    
 Annihilation of the first spin contaminant:
 S**2 before annihilation    -0.0000,   after     0.0000
 DoSCS=T DFT=T ScalE2(SS,OS)=  0.270000  0.270000
 ExpMin= 1.03D-01 ExpMax= 8.24D+03 ExpMxC= 2.81D+02 IAcc=3 IRadAn=         5 AccDes= 0.00D+00
 HarFok:  IExCor=  205 AccDes= 0.00D+00 IRadAn=         5 IDoV=-2 UseB2=F ITyADJ=14
 ICtDFT= 12500011 ScaDFX=  1.000000  1.000000  1.000000  1.000000
 Range of M.O.s used for correlation:     4   174
 NBasis=   174 NAE=    12 NBE=    12 NFC=     3 NFV=     0
 NROrb=    171 NOA=     9 NOB=     9 NVA=   162 NVB=   162

 **** Warning!!: The largest alpha MO coefficient is  0.12368769D+02


 **** Warning!!: The largest beta MO coefficient is  0.12368769D+02

 DoSCS=T DFT=T ScalE2(SS,OS)=  0.270000  0.270000
 Fully direct method using O(ONN) memory.
 JobTyp=2 Pass  1:  I=   4 to  12 NPSUse= 40 ParTrn=T ParDer=T DoDerP=T.
 JobTyp=3 Pass  1:  I=   4 to  12 NPSUse= 40 ParTrn=T ParDer=T DoDerP=T.
 Spin components of T(2) and E(2):
     alpha-alpha T2 =       0.2955524055D-01 E2=     -0.1838879452D-01
     alpha-beta  T2 =       0.1969585069D+00 E2=     -0.1299228526D+00
     beta-beta   T2 =       0.2955524055D-01 E2=     -0.1838879452D-01
 (S**2,0)=  0.00000D+00           (S**2,1)=  0.00000D+00
 E(PUHF)=      -0.11766882142D+03        E(PMP2)=      -0.11783552186D+03
 E2(B2PLYPD3) =    -0.1667004416D+00 E(B2PLYPD3) =    -0.11783552186141D+03
          IDoAtm=111111111
          Differentiating once with respect to electric field.
                with respect to dipole field.
          Differentiating once with respect to nuclear coordinates.
 Keep R1 and R2 ints in memory in canonical form, NReq=272707123.
          There are     1 degrees of freedom in the 1st order CPHF.  IDoFFX=0 NUNeed=     1.
 LinEq1:  Iter=  0 NonCon=     1 RMS=6.48D-04 Max=1.13D-02 NDo=     1
 AX will form     1 AO Fock derivatives at one time.
 LinEq1:  Iter=  1 NonCon=     1 RMS=2.66D-04 Max=2.85D-03 NDo=     1
 LinEq1:  Iter=  2 NonCon=     1 RMS=6.43D-05 Max=1.57D-03 NDo=     1
 LinEq1:  Iter=  3 NonCon=     1 RMS=3.43D-05 Max=6.80D-04 NDo=     1
 LinEq1:  Iter=  4 NonCon=     1 RMS=1.01D-05 Max=1.45D-04 NDo=     1
 LinEq1:  Iter=  5 NonCon=     1 RMS=2.55D-06 Max=2.56D-05 NDo=     1
 LinEq1:  Iter=  6 NonCon=     1 RMS=6.88D-07 Max=8.85D-06 NDo=     1
 LinEq1:  Iter=  7 NonCon=     1 RMS=2.61D-07 Max=3.57D-06 NDo=     1
 LinEq1:  Iter=  8 NonCon=     1 RMS=9.00D-08 Max=9.13D-07 NDo=     1
 LinEq1:  Iter=  9 NonCon=     1 RMS=1.11D-08 Max=1.38D-07 NDo=     1
 LinEq1:  Iter= 10 NonCon=     1 RMS=2.06D-09 Max=1.71D-08 NDo=     1
 LinEq1:  Iter= 11 NonCon=     1 RMS=3.25D-10 Max=4.29D-09 NDo=     1
 LinEq1:  Iter= 12 NonCon=     0 RMS=4.04D-11 Max=3.25D-10 NDo=     1
 Linear equations converged to 1.000D-10 1.000D-09 after    12 iterations.
 End of Minotr F.D. properties file   721 does not exist.
 End of Minotr F.D. properties file   722 does not exist.
 End of Minotr F.D. properties file   788 does not exist.
 Calling FoFJK, ICntrl=  10002127 FMM=F ISym2X=0 I1Cent= 0 IOpClX= 1 NMat=1 NMatS=1 NMatT=0.
 ***** Axes restored to original set *****
 -------------------------------------------------------------------
 Center     Atomic                   Forces (Hartrees/Bohr)
 Number     Number              X              Y              Z
 -------------------------------------------------------------------
      1        6           0.000053487   -0.000032347   -0.000013168
      2        6          -0.000117187   -0.000062216   -0.000012336
      3        6           0.000148623    0.000049947    0.000008029
      4        1          -0.000017587   -0.000016982    0.000001823
      5        1           0.000021787    0.000023950    0.000008302
      6        1          -0.000014791   -0.000012593    0.000004704
      7        1          -0.000032828    0.000003192   -0.000021846
      8        1          -0.000000790    0.000042291    0.000005160
      9        1          -0.000040714    0.000004758    0.000019331
 -------------------------------------------------------------------
 Cartesian Forces:  Max     0.000148623 RMS     0.000044737

 GradGradGradGradGradGradGradGradGradGradGradGradGradGradGradGradGradGrad
 Berny optimization.
 Using GEDIIS/GDIIS optimizer.
 FormGI is forming the generalized inverse of G from B-inverse, IUseBI=4.
 Internal  Forces:  Max     0.000069429 RMS     0.000025443
 Search for a local minimum.
 Step number   3 out of a maximum of  100
 All quantities printed in internal units (Hartrees-Bohrs-Radians)
 Mixed Optimization -- En-DIIS/RFO-DIIS
 Swapping is turned off.
 Update second derivatives using D2CorX and points    1    2    3
 DE= -5.37D-07 DEPred=-4.27D-07 R= 1.26D+00
 Trust test= 1.26D+00 RLast= 2.67D-03 DXMaxT set to 3.00D-01
 ITU=  0  1  0
     Eigenvalues ---    0.00769   0.01740   0.03042   0.03105   0.07144
     Eigenvalues ---    0.07263   0.11973   0.16000   0.16000   0.16000
     Eigenvalues ---    0.16011   0.16601   0.21473   0.30331   0.34415
     Eigenvalues ---    0.34555   0.34759   0.35157   0.35467   0.36240
     Eigenvalues ---    0.59539
 En-DIIS/RFO-DIIS/Sim-DIIS IScMMF=       -3 using points:     3    2    1
 RFO step:  Lambda=-1.36827687D-07.
 DidBck=F Rises=F RFO-DIIS coefs:    1.33669   -0.31709   -0.01961
 Iteration  1 RMS(Cart)=  0.00034577 RMS(Int)=  0.00000011
 Iteration  2 RMS(Cart)=  0.00000009 RMS(Int)=  0.00000006
 Variable       Old X    -DE/DX   Delta X   Delta X   Delta X     New X
                                 (Linear)    (Quad)   (Total)
    R1        2.51164   0.00003   0.00009   0.00000   0.00009   2.51174
    R2        2.04475   0.00001  -0.00014   0.00015   0.00002   2.04477
    R3        2.04088   0.00002  -0.00012   0.00017   0.00004   2.04093
    R4        2.82723  -0.00007  -0.00032  -0.00003  -0.00035   2.82688
    R5        2.04923   0.00002  -0.00011   0.00018   0.00007   2.04929
    R6        2.05702   0.00002  -0.00007   0.00012   0.00005   2.05707
    R7        2.06175   0.00004  -0.00005   0.00018   0.00013   2.06188
    R8        2.06177   0.00004  -0.00006   0.00019   0.00013   2.06190
    A1        2.11735   0.00001   0.00006  -0.00001   0.00005   2.11741
    A2        2.12161  -0.00004  -0.00027  -0.00012  -0.00040   2.12121
    A3        2.04422   0.00004   0.00021   0.00013   0.00034   2.04456
    A4        2.17947   0.00004   0.00018   0.00012   0.00030   2.17977
    A5        2.07357  -0.00004  -0.00029  -0.00008  -0.00037   2.07320
    A6        2.03015  -0.00000   0.00011  -0.00004   0.00007   2.03022
    A7        1.94181   0.00002   0.00041  -0.00014   0.00027   1.94208
    A8        1.93715   0.00001   0.00009   0.00002   0.00011   1.93726
    A9        1.93705   0.00002   0.00004   0.00016   0.00021   1.93726
   A10        1.89065  -0.00002  -0.00015  -0.00002  -0.00017   1.89049
   A11        1.89061  -0.00002  -0.00015  -0.00001  -0.00016   1.89046
   A12        1.86391  -0.00002  -0.00028  -0.00001  -0.00030   1.86361
    D1        0.00012  -0.00000  -0.00002  -0.00003  -0.00005   0.00007
    D2       -3.14139  -0.00001   0.00013  -0.00041  -0.00028   3.14151
    D3        3.14150   0.00001  -0.00019   0.00047   0.00028  -3.14140
    D4       -0.00001   0.00000  -0.00004   0.00009   0.00005   0.00004
    D5       -0.00090  -0.00000   0.00023   0.00005   0.00028  -0.00061
    D6       -2.10761  -0.00000   0.00008   0.00015   0.00024  -2.10737
    D7        2.10570   0.00000   0.00035   0.00005   0.00040   2.10610
    D8        3.14061   0.00000   0.00008   0.00043   0.00051   3.14112
    D9        1.03390   0.00000  -0.00007   0.00053   0.00046   1.03436
   D10       -1.03598   0.00001   0.00020   0.00043   0.00063  -1.03535
         Item               Value     Threshold  Converged?
 Maximum Force            0.000069     0.000450     YES
 RMS     Force            0.000025     0.000300     YES
 Maximum Displacement     0.000830     0.001800     YES
 RMS     Displacement     0.000346     0.001200     YES
 Predicted change in Energy=-6.838263D-08
 Optimization completed.
    -- Stationary point found.
                           ----------------------------
                           !   Optimized Parameters   !
                           ! (Angstroms and Degrees)  !
 --------------------------                            --------------------------
 ! Name  Definition              Value          Derivative Info.                !
 --------------------------------------------------------------------------------
 ! R1    R(1,2)                  1.3291         -DE/DX =    0.0                 !
 ! R2    R(1,6)                  1.082          -DE/DX =    0.0                 !
 ! R3    R(1,8)                  1.08           -DE/DX =    0.0                 !
 ! R4    R(2,3)                  1.4961         -DE/DX =   -0.0001              !
 ! R5    R(2,5)                  1.0844         -DE/DX =    0.0                 !
 ! R6    R(3,4)                  1.0885         -DE/DX =    0.0                 !
 ! R7    R(3,7)                  1.091          -DE/DX =    0.0                 !
 ! R8    R(3,9)                  1.091          -DE/DX =    0.0                 !
 ! A1    A(2,1,6)              121.3155         -DE/DX =    0.0                 !
 ! A2    A(2,1,8)              121.5592         -DE/DX =    0.0                 !
 ! A3    A(6,1,8)              117.1253         -DE/DX =    0.0                 !
 ! A4    A(1,2,3)              124.8742         -DE/DX =    0.0                 !
 ! A5    A(1,2,5)              118.8067         -DE/DX =    0.0                 !
 ! A6    A(3,2,5)              116.319          -DE/DX =    0.0                 !
 ! A7    A(2,3,4)              111.2574         -DE/DX =    0.0                 !
 ! A8    A(2,3,7)              110.9907         -DE/DX =    0.0                 !
 ! A9    A(2,3,9)              110.985          -DE/DX =    0.0                 !
 ! A10   A(4,3,7)              108.3265         -DE/DX =    0.0                 !
 ! A11   A(4,3,9)              108.3241         -DE/DX =    0.0                 !
 ! A12   A(7,3,9)              106.7943         -DE/DX =    0.0                 !
 ! D1    D(6,1,2,3)              0.0067         -DE/DX =    0.0                 !
 ! D2    D(6,1,2,5)            180.0115         -DE/DX =    0.0                 !
 ! D3    D(8,1,2,3)           -180.0052         -DE/DX =    0.0                 !
 ! D4    D(8,1,2,5)             -0.0004         -DE/DX =    0.0                 !
 ! D5    D(1,2,3,4)             -0.0514         -DE/DX =    0.0                 !
 ! D6    D(1,2,3,7)           -120.7571         -DE/DX =    0.0                 !
 ! D7    D(1,2,3,9)            120.6475         -DE/DX =    0.0                 !
 ! D8    D(5,2,3,4)            179.9439         -DE/DX =    0.0                 !
 ! D9    D(5,2,3,7)             59.2382         -DE/DX =    0.0                 !
 ! D10   D(5,2,3,9)            -59.3572         -DE/DX =    0.0                 !
 --------------------------------------------------------------------------------
 GradGradGradGradGradGradGradGradGradGradGradGradGradGradGradGradGradGrad

                          Input orientation:                          
 ---------------------------------------------------------------------
 Center     Atomic      Atomic             Coordinates (Angstroms)
 Number     Number       Type             X           Y           Z
 ---------------------------------------------------------------------
      1          6           0        1.276188   -0.223046   -0.000267
      2          6           0        0.133635    0.455993    0.000051
      3          6           0       -1.228823   -0.162103   -0.000005
      4          1           0       -1.169110   -1.248993   -0.001251
      5          1           0        0.169911    1.539789    0.000297
      6          1           0        1.287362   -1.305026   -0.000705
      7          1           0       -1.800035    0.151090   -0.875208
      8          1           0        2.232254    0.279263   -0.000291
      9          1           0       -1.799091    0.149094    0.876532
 ---------------------------------------------------------------------
                    Distance matrix (angstroms):
                    1          2          3          4          5
     1  C    0.000000
     2  C    1.329105   0.000000
     3  C    2.505752   1.496106   0.000000
     4  H    2.651801   2.145722   1.088530   0.000000
     5  H    2.081211   1.084403   2.202928   3.093587   0.000000
     6  H    1.082038   2.105296   2.763595   2.457111   3.056415
     7  H    3.220039   2.144324   1.091033   1.766947   2.564309
     8  H    1.079989   2.106047   3.489105   3.728920   2.417062
     9  H    3.219410   2.144257   1.091039   1.766925   2.564915
                    6          7          8          9
     6  H    0.000000
     7  H    3.523784   0.000000
     8  H    1.844666   4.128107   0.000000
     9  H    3.522811   1.751741   4.127651   0.000000
 Stoichiometry    C3H6
 Framework group  C1[X(C3H6)]
 Deg. of freedom    21
 Full point group                 C1      NOp   1
 Largest Abelian subgroup         C1      NOp   1
 Largest concise Abelian subgroup C1      NOp   1
                         Standard orientation:                         
 ---------------------------------------------------------------------
 Center     Atomic      Atomic             Coordinates (Angstroms)
 Number     Number       Type             X           Y           Z
 ---------------------------------------------------------------------
      1          6           0        1.276073   -0.221555    0.000025
      2          6           0        0.132943    0.456511    0.000008
      3          6           0       -1.228988   -0.162744   -0.000011
      4          1           0       -1.168351   -1.249583   -0.000919
      5          1           0        0.168296    1.540338   -0.000072
      6          1           0        1.288168   -1.303525   -0.000083
      7          1           0       -1.800370    0.149697   -0.875373
      8          1           0        2.231711    0.281567   -0.000046
      9          1           0       -1.799619    0.148235    0.876367
 ---------------------------------------------------------------------
 Rotational constants (GHZ):          47.0070774           9.3547745           8.1932764

 **********************************************************************

            Population analysis using the SCF Density.

 **********************************************************************

 Orbital symmetries:
 Alpha Orbitals:
       Occupied  (A) (A) (A) (A) (A) (A) (A) (A) (A) (A) (A) (A)
       Virtual   (A) (A) (A) (A) (A) (A) (A) (A) (A) (A) (A) (A)
                 (A) (A) (A) (A) (A) (A) (A) (A) (A) (A) (A) (A)
                 (A) (A) (A) (A) (A) (A) (A) (A) (A) (A) (A) (A)
                 (A) (A) (A) (A) (A) (A) (A) (A) (A) (A) (A) (A)
                 (A) (A) (A) (A) (A) (A) (A) (A) (A) (A) (A) (A)
                 (A) (A) (A) (A) (A) (A) (A) (A) (A) (A) (A) (A)
                 (A) (A) (A) (A) (A) (A) (A) (A) (A) (A) (A) (A)
                 (A) (A) (A) (A) (A) (A) (A) (A) (A) (A) (A) (A)
                 (A) (A) (A) (A) (A) (A) (A) (A) (A) (A) (A) (A)
                 (A) (A) (A) (A) (A) (A) (A) (A) (A) (A) (A) (A)
                 (A) (A) (A) (A) (A) (A) (A) (A) (A) (A) (A) (A)
                 (A) (A) (A) (A) (A) (A) (A) (A) (A) (A) (A) (A)
                 (A) (A) (A) (A) (A) (A) (A) (A) (A) (A) (A) (A)
                 (A) (A) (A) (A) (A) (A)
 Beta  Orbitals:
       Occupied  (A) (A) (A) (A) (A) (A) (A) (A) (A) (A) (A) (A)
       Virtual   (A) (A) (A) (A) (A) (A) (A) (A) (A) (A) (A) (A)
                 (A) (A) (A) (A) (A) (A) (A) (A) (A) (A) (A) (A)
                 (A) (A) (A) (A) (A) (A) (A) (A) (A) (A) (A) (A)
                 (A) (A) (A) (A) (A) (A) (A) (A) (A) (A) (A) (A)
                 (A) (A) (A) (A) (A) (A) (A) (A) (A) (A) (A) (A)
                 (A) (A) (A) (A) (A) (A) (A) (A) (A) (A) (A) (A)
                 (A) (A) (A) (A) (A) (A) (A) (A) (A) (A) (A) (A)
                 (A) (A) (A) (A) (A) (A) (A) (A) (A) (A) (A) (A)
                 (A) (A) (A) (A) (A) (A) (A) (A) (A) (A) (A) (A)
                 (A) (A) (A) (A) (A) (A) (A) (A) (A) (A) (A) (A)
                 (A) (A) (A) (A) (A) (A) (A) (A) (A) (A) (A) (A)
                 (A) (A) (A) (A) (A) (A) (A) (A) (A) (A) (A) (A)
                 (A) (A) (A) (A) (A) (A) (A) (A) (A) (A) (A) (A)
                 (A) (A) (A) (A) (A) (A)
 The electronic state is 1-A.
 Alpha  occ. eigenvalues --  -10.61839 -10.60803 -10.60185  -0.90382  -0.78992
 Alpha  occ. eigenvalues --   -0.64017  -0.54079  -0.49027  -0.47919  -0.43649
 Alpha  occ. eigenvalues --   -0.40758  -0.30218
 Alpha virt. eigenvalues --    0.07463   0.08821   0.11730   0.12380   0.15668
 Alpha virt. eigenvalues --    0.16179   0.18227   0.23909   0.30415   0.30863
 Alpha virt. eigenvalues --    0.32427   0.36245   0.38026   0.39218   0.42404
 Alpha virt. eigenvalues --    0.48037   0.48858   0.50826   0.52611   0.53329
 Alpha virt. eigenvalues --    0.53698   0.55382   0.57871   0.60688   0.62297
 Alpha virt. eigenvalues --    0.70079   0.70809   0.73797   0.75049   0.79977
 Alpha virt. eigenvalues --    0.81877   0.95099   0.95220   0.98337   0.98482
 Alpha virt. eigenvalues --    1.07210   1.07807   1.08877   1.10723   1.12799
 Alpha virt. eigenvalues --    1.16952   1.17448   1.21924   1.23559   1.26654
 Alpha virt. eigenvalues --    1.29248   1.29730   1.37056   1.38721   1.41243
 Alpha virt. eigenvalues --    1.45276   1.46939   1.48957   1.52112   1.58492
 Alpha virt. eigenvalues --    1.59014   1.59845   1.64081   1.77071   1.93776
 Alpha virt. eigenvalues --    2.16024   2.20129   2.28933   2.34103   2.38932
 Alpha virt. eigenvalues --    2.39175   2.44796   2.48617   2.53411   2.59656
 Alpha virt. eigenvalues --    2.66647   2.72140   2.72415   2.78580   2.85556
 Alpha virt. eigenvalues --    2.87394   2.88175   2.90080   2.94453   2.97724
 Alpha virt. eigenvalues --    2.98881   3.01257   3.01539   3.02226   3.05875
 Alpha virt. eigenvalues --    3.09771   3.11398   3.14444   3.15624   3.18161
 Alpha virt. eigenvalues --    3.23526   3.23613   3.26620   3.31407   3.36983
 Alpha virt. eigenvalues --    3.39366   3.40476   3.43811   3.45813   3.52388
 Alpha virt. eigenvalues --    3.56142   3.57044   3.58049   3.59392   3.64952
 Alpha virt. eigenvalues --    3.72972   3.74351   3.79411   3.82684   3.83506
 Alpha virt. eigenvalues --    3.86962   3.87022   3.91623   3.95739   4.01332
 Alpha virt. eigenvalues --    4.01736   4.04343   4.05373   4.08403   4.15110
 Alpha virt. eigenvalues --    4.16569   4.17939   4.23377   4.24671   4.25378
 Alpha virt. eigenvalues --    4.34477   4.35541   4.38627   4.41637   4.51597
 Alpha virt. eigenvalues --    4.52996   4.57327   4.60410   4.67293   4.78871
 Alpha virt. eigenvalues --    4.84383   4.88289   4.94922   4.97546   5.00757
 Alpha virt. eigenvalues --    5.08987   5.10551   5.15393   5.17408   5.20933
 Alpha virt. eigenvalues --    5.33728   5.34512   5.37575   5.41340   5.45737
 Alpha virt. eigenvalues --    5.51160   5.56836   5.58912   5.75882   5.98252
 Alpha virt. eigenvalues --    6.01250   6.07460   6.14500   6.42914  11.09567
 Alpha virt. eigenvalues --   13.72157  14.32873
  Beta  occ. eigenvalues --  -10.61839 -10.60803 -10.60185  -0.90382  -0.78992
  Beta  occ. eigenvalues --   -0.64017  -0.54079  -0.49027  -0.47919  -0.43649
  Beta  occ. eigenvalues --   -0.40758  -0.30218
  Beta virt. eigenvalues --    0.07463   0.08821   0.11730   0.12380   0.15668
  Beta virt. eigenvalues --    0.16179   0.18227   0.23909   0.30415   0.30863
  Beta virt. eigenvalues --    0.32427   0.36245   0.38026   0.39218   0.42404
  Beta virt. eigenvalues --    0.48037   0.48858   0.50826   0.52611   0.53329
  Beta virt. eigenvalues --    0.53698   0.55382   0.57871   0.60688   0.62297
  Beta virt. eigenvalues --    0.70079   0.70809   0.73797   0.75049   0.79977
  Beta virt. eigenvalues --    0.81877   0.95099   0.95220   0.98337   0.98482
  Beta virt. eigenvalues --    1.07210   1.07807   1.08877   1.10723   1.12799
  Beta virt. eigenvalues --    1.16952   1.17448   1.21924   1.23559   1.26654
  Beta virt. eigenvalues --    1.29248   1.29730   1.37056   1.38721   1.41243
  Beta virt. eigenvalues --    1.45276   1.46939   1.48957   1.52112   1.58492
  Beta virt. eigenvalues --    1.59014   1.59845   1.64081   1.77071   1.93776
  Beta virt. eigenvalues --    2.16024   2.20129   2.28933   2.34103   2.38932
  Beta virt. eigenvalues --    2.39175   2.44796   2.48617   2.53411   2.59656
  Beta virt. eigenvalues --    2.66647   2.72140   2.72415   2.78580   2.85556
  Beta virt. eigenvalues --    2.87394   2.88175   2.90080   2.94453   2.97724
  Beta virt. eigenvalues --    2.98881   3.01257   3.01539   3.02226   3.05875
  Beta virt. eigenvalues --    3.09771   3.11398   3.14444   3.15624   3.18161
  Beta virt. eigenvalues --    3.23526   3.23613   3.26620   3.31407   3.36983
  Beta virt. eigenvalues --    3.39366   3.40476   3.43811   3.45813   3.52388
  Beta virt. eigenvalues --    3.56142   3.57044   3.58049   3.59392   3.64952
  Beta virt. eigenvalues --    3.72972   3.74351   3.79411   3.82684   3.83506
  Beta virt. eigenvalues --    3.86962   3.87022   3.91623   3.95739   4.01332
  Beta virt. eigenvalues --    4.01736   4.04343   4.05373   4.08403   4.15110
  Beta virt. eigenvalues --    4.16569   4.17939   4.23377   4.24671   4.25378
  Beta virt. eigenvalues --    4.34477   4.35541   4.38627   4.41637   4.51597
  Beta virt. eigenvalues --    4.52996   4.57327   4.60410   4.67293   4.78871
  Beta virt. eigenvalues --    4.84383   4.88289   4.94922   4.97546   5.00757
  Beta virt. eigenvalues --    5.08987   5.10551   5.15393   5.17408   5.20933
  Beta virt. eigenvalues --    5.33728   5.34512   5.37575   5.41340   5.45737
  Beta virt. eigenvalues --    5.51160   5.56836   5.58912   5.75882   5.98252
  Beta virt. eigenvalues --    6.01250   6.07460   6.14500   6.42914  11.09567
  Beta virt. eigenvalues --   13.72157  14.32873
          Condensed to atoms (all electrons):
               1          2          3          4          5          6
     1  C    4.950204   0.639905  -0.058297  -0.003040  -0.045759   0.407979
     2  C    0.639905   4.897333   0.351917  -0.039842   0.413442  -0.048380
     3  C   -0.058297   0.351917   4.782107   0.409165  -0.040140  -0.007174
     4  H   -0.003040  -0.039842   0.409165   0.584157   0.005852   0.004456
     5  H   -0.045759   0.413442  -0.040140   0.005852   0.543119   0.006888
     6  H    0.407979  -0.048380  -0.007174   0.004456   0.006888   0.553961
     7  H    0.000474  -0.040234   0.409924  -0.028160  -0.002602   0.000100
     8  H    0.420122  -0.046441   0.006614  -0.000015  -0.008185  -0.036020
     9  H    0.000452  -0.040238   0.409900  -0.028158  -0.002586   0.000101
               7          8          9
     1  C    0.000474   0.420122   0.000452
     2  C   -0.040234  -0.046441  -0.040238
     3  C    0.409924   0.006614   0.409900
     4  H   -0.028160  -0.000015  -0.028158
[...]
                             4665.60
 
 Zero-point correction=                           0.080017 (Hartree/Particle)
 Thermal correction to Energy=                    0.084095
 Thermal correction to Enthalpy=                  0.085039
 Thermal correction to Gibbs Free Energy=         0.055018
 Sum of electronic and zero-point Energies=           -117.755505
 Sum of electronic and thermal Energies=              -117.751427
 Sum of electronic and thermal Enthalpies=            -117.750482
 Sum of electronic and thermal Free Energies=         -117.780503
 
                     E (Thermal)             CV                S
                      KCal/Mol        Cal/Mol-Kelvin    Cal/Mol-Kelvin
 Total                   52.771             12.920             63.184
 Electronic               0.000              0.000              0.000
 Translational            0.889              2.981             37.135
 Rotational               0.889              2.981             22.016
 Vibrational             50.993              6.958              4.032
 Vibration     1          0.640              1.831              2.079
 Vibration     2          0.788              1.413              0.871
 Vibration     3          0.951              1.045              0.461
                       Q            Log10(Q)             Ln(Q)
 Total Bot       0.493489D-25        -25.306722        -58.270882
 Total V=0       0.315026D+12         11.498346         26.475921
 Vib (Bot)       0.318479D-36        -36.496919        -84.037262
 Vib (Bot)    1  0.965607D+00         -0.015200         -0.034998
 Vib (Bot)    2  0.409777D+00         -0.387452         -0.892142
 Vib (Bot)    3  0.253122D+00         -0.596669         -1.373882
 Vib (V=0)       0.203306D+01          0.308150          0.709541
 Vib (V=0)    1  0.158738D+01          0.200681          0.462085
 Vib (V=0)    2  0.114647D+01          0.059361          0.136683
 Vib (V=0)    3  0.106042D+01          0.025478          0.058665
 Electronic      0.100000D+01          0.000000          0.000000
 Translational   0.107166D+08          7.030056         16.187301
 Rotational      0.144591D+05          4.160141          9.579078
 ***** Axes restored to original set *****
 -------------------------------------------------------------------
 Center     Atomic                   Forces (Hartrees/Bohr)
 Number     Number              X              Y              Z
 -------------------------------------------------------------------
      1        6           0.000053509   -0.000032375   -0.000013184
      2        6          -0.000117224   -0.000062218   -0.000012322
      3        6           0.000148568    0.000049920    0.000008038
      4        1          -0.000017583   -0.000016952    0.000001823
      5        1           0.000021802    0.000023968    0.000008307
      6        1          -0.000014796   -0.000012590    0.000004702
      7        1          -0.000032806    0.000003189   -0.000021828
      8        1          -0.000000773    0.000042304    0.000005152
      9        1          -0.000040698    0.000004754    0.000019312
 -------------------------------------------------------------------
 Cartesian Forces:  Max     0.000148568 RMS     0.000044733
 FormGI is forming the generalized inverse of G from B-inverse, IUseBI=4.

 GradGradGradGradGradGradGradGradGradGradGradGradGradGradGradGradGradGrad
 Berny optimization.
 Internal  Forces:  Max     0.000069416 RMS     0.000025442
 Search for a local minimum.
 Step number   1 out of a maximum of    2
 All quantities printed in internal units (Hartrees-Bohrs-Radians)
 Second derivative matrix not updated -- analytic derivatives used.
 ITU=  0
     Eigenvalues ---    0.00234   0.01934   0.03219   0.03958   0.05726
     Eigenvalues ---    0.05811   0.10552   0.11099   0.12036   0.12316
     Eigenvalues ---    0.14441   0.14597   0.18468   0.32131   0.33389
     Eigenvalues ---    0.34044   0.34820   0.35392   0.35995   0.36463
     Eigenvalues ---    0.62422
 Angle between quadratic step and forces=  67.54 degrees.
 Linear search not attempted -- first point.
 Iteration  1 RMS(Cart)=  0.00053521 RMS(Int)=  0.00000017
 Iteration  2 RMS(Cart)=  0.00000019 RMS(Int)=  0.00000001
 Variable       Old X    -DE/DX   Delta X   Delta X   Delta X     New X
                                 (Linear)    (Quad)   (Total)
    R1        2.51164   0.00003   0.00000   0.00008   0.00008   2.51173
    R2        2.04475   0.00001   0.00000   0.00002   0.00002   2.04478
    R3        2.04088   0.00002   0.00000   0.00004   0.00004   2.04093
    R4        2.82723  -0.00007   0.00000  -0.00034  -0.00034   2.82689
    R5        2.04923   0.00002   0.00000   0.00008   0.00008   2.04931
    R6        2.05702   0.00002   0.00000   0.00006   0.00006   2.05708
    R7        2.06175   0.00004   0.00000   0.00013   0.00013   2.06189
    R8        2.06177   0.00004   0.00000   0.00012   0.00012   2.06189
    A1        2.11735   0.00001   0.00000   0.00005   0.00005   2.11741
    A2        2.12161  -0.00004   0.00000  -0.00040  -0.00040   2.12121
    A3        2.04422   0.00004   0.00000   0.00035   0.00035   2.04457
    A4        2.17947   0.00004   0.00000   0.00031   0.00031   2.17977
    A5        2.07357  -0.00004   0.00000  -0.00037  -0.00037   2.07320
    A6        2.03015  -0.00000   0.00000   0.00006   0.00006   2.03021
    A7        1.94181   0.00002   0.00000   0.00023   0.00023   1.94204
    A8        1.93715   0.00001   0.00000   0.00011   0.00011   1.93726
    A9        1.93705   0.00002   0.00000   0.00021   0.00021   1.93726
   A10        1.89065  -0.00002   0.00000  -0.00018  -0.00018   1.89048
   A11        1.89061  -0.00002   0.00000  -0.00014  -0.00014   1.89048
   A12        1.86391  -0.00002   0.00000  -0.00027  -0.00027   1.86364
    D1        0.00012  -0.00000   0.00000  -0.00012  -0.00012   0.00000
    D2       -3.14139  -0.00001   0.00000  -0.00020  -0.00020  -3.14159
    D3        3.14150   0.00001   0.00000   0.00009   0.00009  -3.14159
    D4       -0.00001   0.00000   0.00000   0.00001   0.00001   0.00000
    D5       -0.00090  -0.00000   0.00000   0.00090   0.00090  -0.00000
    D6       -2.10761  -0.00000   0.00000   0.00089   0.00089  -2.10672
    D7        2.10570   0.00000   0.00000   0.00102   0.00102   2.10672
    D8        3.14061   0.00000   0.00000   0.00098   0.00098   3.14159
    D9        1.03390   0.00000   0.00000   0.00097   0.00097   1.03487
   D10       -1.03598   0.00001   0.00000   0.00110   0.00110  -1.03487
         Item               Value     Threshold  Converged?
 Maximum Force            0.000069     0.000450     YES
 RMS     Force            0.000025     0.000300     YES
 Maximum Displacement     0.001108     0.001800     YES
 RMS     Displacement     0.000535     0.001200     YES
 Predicted change in Energy=-6.909687D-08
 Optimization completed.
    -- Stationary point found.
                           ----------------------------
                           !   Optimized Parameters   !
                           ! (Angstroms and Degrees)  !
 --------------------------                            --------------------------
 ! Name  Definition              Value          Derivative Info.                !
 --------------------------------------------------------------------------------
 ! R1    R(1,2)                  1.3291         -DE/DX =    0.0                 !
 ! R2    R(1,6)                  1.082          -DE/DX =    0.0                 !
 ! R3    R(1,8)                  1.08           -DE/DX =    0.0                 !
 ! R4    R(2,3)                  1.4961         -DE/DX =   -0.0001              !
 ! R5    R(2,5)                  1.0844         -DE/DX =    0.0                 !
 ! R6    R(3,4)                  1.0885         -DE/DX =    0.0                 !
 ! R7    R(3,7)                  1.091          -DE/DX =    0.0                 !
 ! R8    R(3,9)                  1.091          -DE/DX =    0.0                 !
 ! A1    A(2,1,6)              121.3155         -DE/DX =    0.0                 !
 ! A2    A(2,1,8)              121.5592         -DE/DX =    0.0                 !
 ! A3    A(6,1,8)              117.1253         -DE/DX =    0.0                 !
 ! A4    A(1,2,3)              124.8742         -DE/DX =    0.0                 !
 ! A5    A(1,2,5)              118.8067         -DE/DX =    0.0                 !
 ! A6    A(3,2,5)              116.319          -DE/DX =    0.0                 !
 ! A7    A(2,3,4)              111.2574         -DE/DX =    0.0                 !
 ! A8    A(2,3,7)              110.9907         -DE/DX =    0.0                 !
 ! A9    A(2,3,9)              110.985          -DE/DX =    0.0                 !
 ! A10   A(4,3,7)              108.3265         -DE/DX =    0.0                 !
 ! A11   A(4,3,9)              108.3241         -DE/DX =    0.0                 !
 ! A12   A(7,3,9)              106.7943         -DE/DX =    0.0                 !
 ! D1    D(6,1,2,3)              0.0067         -DE/DX =    0.0                 !
 ! D2    D(6,1,2,5)           -179.9885         -DE/DX =    0.0                 !
 ! D3    D(8,1,2,3)           -180.0052         -DE/DX =    0.0                 !
 ! D4    D(8,1,2,5)             -0.0004         -DE/DX =    0.0                 !
 ! D5    D(1,2,3,4)             -0.0514         -DE/DX =    0.0                 !
 ! D6    D(1,2,3,7)           -120.7571         -DE/DX =    0.0                 !
 ! D7    D(1,2,3,9)            120.6475         -DE/DX =    0.0                 !
 ! D8    D(5,2,3,4)            179.9439         -DE/DX =    0.0                 !
 ! D9    D(5,2,3,7)             59.2382         -DE/DX =    0.0                 !
 ! D10   D(5,2,3,9)            -59.3572         -DE/DX =    0.0                 !
 --------------------------------------------------------------------------------
 GradGradGradGradGradGradGradGradGradGradGradGradGradGradGradGradGradGrad


 ----------------------------------------------------------------------

 Electric dipole moment (input orientation):
 (Debye = 10**-18 statcoulomb cm , SI units = C m)
                  (au)            (Debye)         (10**-30 SI)
   Tot        0.148148D+00      0.376555D+00      0.125605D+01
   x         -0.145278D+00     -0.369259D+00     -0.123172D+01
   y          0.290205D-01      0.737626D-01      0.246046D+00
   z         -0.126670D-04     -0.321963D-04     -0.107395D-03

 Dipole polarizability, Alpha (input orientation).
 (esu units = cm**3 , SI units = C**2 m**2 J**-1)
 Alpha(0;0):
               (au)            (10**-24 esu)      (10**-40 SI)
   iso        0.364925D+02      0.540763D+01      0.601680D+01
   aniso      0.199898D+02      0.296218D+01      0.329587D+01
   xx         0.477710D+02      0.707893D+01      0.787637D+01
   yx        -0.383938D+01     -0.568937D+00     -0.633028D+00
   yy         0.356546D+02      0.528347D+01      0.587865D+01
   zx        -0.400570D-02     -0.593584D-03     -0.660451D-03
   zy         0.339495D-02      0.503080D-03      0.559752D-03
   zz         0.260519D+02      0.386049D+01      0.429538D+01

 ----------------------------------------------------------------------

 Dipole orientation:
     6          0.01087434          0.05807794         -2.44748892
     6          0.17530477          0.87712856         -0.07884420
     6         -0.14777290         -0.74067801          2.21714311
     1         -0.54033967         -2.69364263          1.70414894
     1          0.57184168          2.85968884          0.25512757
     1         -0.38192545         -1.90388431         -2.86871774
     1         -1.69725531         -0.05493221          3.39174374
     1          0.26236388          1.31797108         -4.03324718
     1          1.54826249         -0.70666786          3.38897169

 Electric dipole moment (dipole orientation):
 (Debye = 10**-18 statcoulomb cm , SI units = C m)
                  (au)            (Debye)         (10**-30 SI)
   Tot        0.148148D+00      0.376555D+00      0.125605D+01
   x          0.000000D+00      0.000000D+00      0.000000D+00
   y          0.000000D+00      0.000000D+00      0.000000D+00
   z          0.148148D+00      0.376555D+00      0.125605D+01

 Dipole polarizability, Alpha (dipole orientation).
 (esu units = cm**3 , SI units = C**2 m**2 J**-1)
 Alpha(0;0):
               (au)            (10**-24 esu)      (10**-40 SI)
   iso        0.364925D+02      0.540763D+01      0.601680D+01
   aniso      0.199898D+02      0.296218D+01      0.329587D+01
   xx         0.263826D+02      0.390950D+01      0.434991D+01
   yx         0.165303D+01      0.244954D+00      0.272548D+00
   yy         0.343138D+02      0.508478D+01      0.565758D+01
   zx         0.244857D+00      0.362840D-01      0.403714D-01
   zy         0.119240D+01      0.176695D+00      0.196600D+00
   zz         0.487811D+02      0.722861D+01      0.804291D+01

 ----------------------------------------------------------------------
 1\1\GINC-N68\Freq\UB2PLYPD3-FC\CC-pVTZ\C3H6\ROOT\31-May-2019\0\\#N Geo
 m=AllCheck Guess=TCheck SCRF=Check GenChk UB2PLYPD3(FC)/CC-pVTZ Freq\\
 Title Card Required\\0,1\C,1.2761878576,-0.223046078,-0.0002666279\C,0
 .133635172,0.4559927448,0.0000508271\C,-1.2288226261,-0.1621031272,-0.
 0000050036\H,-1.1691097362,-1.2489929064,-0.0012510313\H,0.1699106267,
 1.5397890835,0.0002972871\H,1.2873619916,-1.3050258159,-0.0007050358\H
 ,-1.8000352995,0.151090423,-0.8752075144\H,2.2322540036,0.279262857,-0
 .0002906532\H,-1.7990909897,0.1490938192,0.8765317519\\Version=ES64L-G
 16RevB.01\State=1-A\HF=-117.6688214\MP2=-117.8355219\PUHF=-117.6688214
 \PMP2-0=-117.8355219\S2=0.\S2-1=0.\S2A=0.\RMSD=1.426e-09\RMSF=4.473e-0
 5\ZeroPoint=0.0800166\Thermal=0.0840952\Dipole=-0.1452778,0.0290205,-0
 .0000127\DipoleDeriv=-0.1427471,0.0599788,0.0000024,0.0824967,0.072209
 2,0.0001274,-0.0001035,0.0001667,-0.3120715,0.3050056,-0.000754,-0.000
 0843,0.0688794,0.1110958,0.0000691,-0.0001064,0.0001046,-0.2228735,-0.
 058146,-0.0286194,0.0000608,-0.0065632,0.0583818,-0.000029,0.0002776,-
 0.0000794,0.1589868,0.022398,0.0478982,0.0000573,-0.0370908,-0.1319532
 ,-0.0001982,-0.0000683,-0.0002155,0.0642829,0.0015886,-0.0248938,-0.00
 00101,-0.0188328,-0.1291429,-0.0000855,-0.000009,-0.0000452,0.1330112,
 0.0425743,-0.0428486,-0.0000041,0.0132639,-0.1046663,-0.0000883,0.0000
 368,-0.0001201,0.1381872,-0.0468513,0.0155959,-0.0610026,-0.0118125,0.
 0550541,0.0592823,-0.1103636,0.0472898,-0.054083,-0.0770512,-0.0417959
 ,0.0000145,-0.0782044,0.0137004,-0.000035,0.0000601,-0.0000465,0.14903
 31,-0.046771,0.0154387,0.0609662,-0.0121362,0.0553211,-0.0590429,0.110
 2763,-0.0470543,-0.0544733\Polar=47.7709821,-3.839378,35.6546333,-0.00
 40057,0.003395,26.051889\PG=C01 [X(C3H6)]\NImag=0\\0.80033732,-0.08371
 487,0.69479320,-0.00012138,0.00021095,0.10572058,-0.43300494,0.1947828
 1,0.00010129,0.74582631,0.19472869,-0.23159459,-0.00007898,-0.13071395
 ,0.68975385,0.00009582,-0.00007584,-0.04991278,-0.00010628,0.00015570,
 0.15043444,-0.03219499,-0.01186407,0.00000414,-0.19914168,-0.05229753,
 -0.00000449,0.50351364,0.01474332,0.01145313,-0.00000276,-0.05967301,-
 0.11903615,0.00000013,-0.02927748,0.57343726,0.00001215,0.00000123,0.0
 0744968,-0.00002098,-0.00001573,-0.07296358,0.00002715,0.00002753,0.53
 672691,0.00209454,-0.00101748,0.00000048,0.00185384,-0.03361144,-0.000
 03513,-0.04937847,0.02018303,0.00001639,0.05374009,0.00171990,0.001771
 35,0.00000241,0.00064214,-0.01551789,-0.00001208,0.01736900,-0.3134886
 2,-0.00030640,-0.01753811,0.34159364,-0.00000108,0.00000160,-0.0005437
 8,0.00000609,0.00000619,-0.00081430,0.00001222,-0.00031125,-0.04812617
 ,-0.00002359,0.00034031,0.04592737,0.00252557,0.03103463,0.00000996,-0
 .05751060,-0.01288346,-0.00000222,0.00093380,-0.02930549,-0.00001381,-
 0.00535432,-0.00236692,0.00000216,0.06037995,-0.00267037,-0.01545072,-
 0.00000577,-0.00807345,-0.32867001,-0.00006724,0.00125996,-0.00986147,
 -0.00000517,-0.00222392,0.00054911,0.00000136,0.00937561,0.35153569,0.
 00000069,-0.00000906,0.00638696,0.00000196,-0.00006038,-0.04168845,-0.
 00000437,0.00000030,0.00271560,-0.00000050,-0.00000266,0.00179849,0.00
 000127,0.00007768,0.02632306,-0.05812220,-0.00418476,0.00000300,0.0027
 9364,0.02899237,0.00001048,0.00192753,0.00182688,0.00000075,-0.0000297
 1,-0.00088437,-0.00000107,-0.00398472,0.00280605,0.00000279,0.05404790
 ,0.00081753,-0.33621486,-0.00011939,-0.00252014,-0.01587646,-0.0000077
 6,-0.00155210,0.00151801,0.00000400,0.00112474,0.00064331,0.00000005,0
 .00285707,0.00011735,-0.00000536,-0.00313555,0.35862199,0.00000575,-0.
 00012507,-0.03527951,-0.00000555,-0.00001026,0.00579344,0.00000050,0.0
 0000605,-0.00838059,0.00000029,-0.00000211,0.00019089,0.00000199,-0.00
 000246,0.01200647,-0.00000589,0.00013230,0.02369694,-0.00223841,-0.003
 60903,0.00010487,-0.02012138,0.01106759,-0.02453410,-0.11238182,0.0391
 1820,-0.11039461,-0.00164997,0.00047069,-0.00088687,0.00091654,-0.0003
 6898,0.00070167,0.00007684,-0.00009607,-0.00139866,0.12709921,-0.00112
 593,-0.00052990,0.00026933,-0.00635145,0.00533802,-0.01287974,0.037470
 50,-0.07143065,0.06153786,0.01640541,-0.00801976,0.02686647,0.00077904
 ,0.00018508,0.00022316,-0.00014914,0.00018633,0.00016393,-0.04151713,0
 .07167568,0.00065245,-0.00062661,0.00001582,0.00102232,-0.00102363,0.0
 0306207,-0.10911858,0.06252975,-0.21539656,0.00167841,-0.00049171,0.00
 091421,-0.00055091,-0.00029892,0.00018335,0.00005147,-0.00004046,0.000
 04120,0.12001428,-0.06851200,0.23422366,-0.27716475,-0.11782226,0.0000
 0717,-0.02058605,-0.01629060,-0.00000107,-0.00114423,0.00358143,0.0000
 0199,0.00037457,0.00011789,-0.00000008,0.00118094,0.00026423,-0.000001
 66,0.00321408,0.00260096,0.00000092,-0.00082960,-0.00013860,0.00011049
 ,0.29578381,-0.12337758,-0.12369941,-0.00000769,0.01824129,0.01029358,
 -0.00000029,0.00174353,-0.00145362,-0.00000568,0.00029682,0.00043065,0
 .00000074,-0.00026781,0.00141328,0.00000277,-0.02512330,-0.00918160,0.
 00000080,0.00033069,0.00032731,0.00007440,0.12782482,0.12154278,0.0000
 1074,-0.00000541,-0.03385424,0.00000815,0.00000583,0.00301685,0.000001
 65,-0.00000967,0.01387879,0.00000067,0.00000218,-0.00020066,-0.0000007
 7,0.00000182,-0.00790711,-0.00000959,-0.00000444,0.00189152,0.00258008
 ,0.00065671,-0.00028219,-0.00000835,0.00000849,0.02373904,-0.00223214,
 -0.00360496,-0.00010952,-0.02010914,0.01100832,0.02457699,-0.11213378,
 0.03880312,0.11037096,-0.00165058,0.00046978,0.00089223,0.00091285,-0.
 00036912,-0.00070185,0.00007663,-0.00009643,0.00140066,0.00912859,-0.0
 0537271,-0.01385993,-0.00082876,0.00033154,-0.00258258,0.12683633,-0.0
 0112069,-0.00052820,-0.00026810,-0.00633425,0.00530966,0.01288713,0.03
 714820,-0.07113788,-0.06123764,0.01638094,-0.00796179,-0.02690547,0.00
 077733,0.00018169,-0.00022645,-0.00014818,0.00018591,-0.00016319,-0.00
 539596,0.00226789,0.00838919,-0.00013786,0.00032703,-0.00065551,-0.041
 16953,0.07135569,-0.00065514,0.00062821,0.00001727,-0.00100700,0.00102
 127,0.00307231,0.10908179,-0.06224007,-0.21590409,-0.00163702,0.000470
 06,0.00085394,0.00055232,0.00029871,0.00018161,-0.00005194,0.00004105,
 0.00003964,0.01381334,-0.00832572,-0.02276156,-0.00010940,-0.00007354,
 -0.00028201,-0.11998695,0.06818003,0.23478289\\-0.00005351,0.00003237,
 0.00001318,0.00011722,0.00006222,0.00001232,-0.00014857,-0.00004992,-0
 .00000804,0.00001758,0.00001695,-0.00000182,-0.00002180,-0.00002397,-0
 .00000831,0.00001480,0.00001259,-0.00000470,0.00003281,-0.00000319,0.0
 0002183,0.00000077,-0.00004230,-0.00000515,0.00004070,-0.00000475,-0.0
 0001931\\\@


 ACHIEVEMENT--  THE MAN WHO ROWS THE BOAT GENERALLY 
                DOESN'T HAVE TIME TO ROCK IT.

                   -- FROM THE BACK OF A SUGAR PACKET
 Job cpu time:       0 days  3 hours  5 minutes 14.1 seconds.
 Elapsed time:       0 days  0 hours  4 minutes 46.4 seconds.
 File lengths (MBytes):  RWF=   5817 Int=      0 D2E=      0 Chk=      6 Scr=      1
 Normal termination of Gaussian 16 at Fri May 31 22:22:13 2019.
