 Entering Gaussian System, Link 0=g16
 Initial command:
 /ichec/packages/gaussian/16b01/l1.exe "/localscratch/339543/Gau-14626.inp" -scrdir="/localscratch/339543/"
 Entering Link 1 = /ichec/packages/gaussian/16b01/l1.exe PID=     14630.
  
 Copyright (c) 1988-2017, Gaussian, Inc.  All Rights Reserved.
  
 This is part of the Gaussian(R) 16 program.  It is based on
 the Gaussian(R) 09 system (copyright 2009, Gaussian, Inc.),
 the Gaussian(R) 03 system (copyright 2003, Gaussian, Inc.),
 the Gaussian(R) 98 system (copyright 1998, Gaussian, Inc.),
 the Gaussian(R) 94 system (copyright 1995, Gaussian, Inc.),
 the Gaussian 92(TM) system (copyright 1992, Gaussian, Inc.),
 the Gaussian 90(TM) system (copyright 1990, Gaussian, Inc.),
 the Gaussian 88(TM) system (copyright 1988, Gaussian, Inc.),
 the Gaussian 86(TM) system (copyright 1986, Carnegie Mellon
 University), and the Gaussian 82(TM) system (copyright 1983,
 Carnegie Mellon University). Gaussian is a federally registered
 trademark of Gaussian, Inc.
  
 This software contains proprietary and confidential information,
 including trade secrets, belonging to Gaussian, Inc.
  
 This software is provided under written license and may be
 used, copied, transmitted, or stored only in accord with that
 written license.
  
 The following legend is applicable only to US Government
 contracts under FAR:
  
                    RESTRICTED RIGHTS LEGEND
  
 Use, reproduction and disclosure by the US Government is
 subject to restrictions as set forth in subparagraphs (a)
 and (c) of the Commercial Computer Software - Restricted
 Rights clause in FAR 52.227-19.
  
 Gaussian, Inc.
 340 Quinnipiac St., Bldg. 40, Wallingford CT 06492
  
  
 ---------------------------------------------------------------
 Warning -- This program may not be used in any manner that
 competes with the business of Gaussian, Inc. or will provide
 assistance to any competitor of Gaussian, Inc.  The licensee
 of this program is prohibited from giving any competitor of
 Gaussian, Inc. access to this program.  By using this program,
 the user acknowledges that Gaussian, Inc. is engaged in the
 business of creating and licensing software in the field of
 computational chemistry and represents and warrants to the
 licensee that it is not a competitor of Gaussian, Inc. and that
 it will not use this program in any manner prohibited above.
 ---------------------------------------------------------------
  

 Cite this work as:
 Gaussian 16, Revision B.01,
 M. J. Frisch, G. W. Trucks, H. B. Schlegel, G. E. Scuseria, 
 M. A. Robb, J. R. Cheeseman, G. Scalmani, V. Barone, 
 G. A. Petersson, H. Nakatsuji, X. Li, M. Caricato, A. V. Marenich, 
 J. Bloino, B. G. Janesko, R. Gomperts, B. Mennucci, H. P. Hratchian, 
 J. V. Ortiz, A. F. Izmaylov, J. L. Sonnenberg, D. Williams-Young, 
 F. Ding, F. Lipparini, F. Egidi, J. Goings, B. Peng, A. Petrone, 
 T. Henderson, D. Ranasinghe, V. G. Zakrzewski, J. Gao, N. Rega, 
 G. Zheng, W. Liang, M. Hada, M. Ehara, K. Toyota, R. Fukuda, 
 J. Hasegawa, M. Ishida, T. Nakajima, Y. Honda, O. Kitao, H. Nakai, 
 T. Vreven, K. Throssell, J. A. Montgomery, Jr., J. E. Peralta, 
 F. Ogliaro, M. J. Bearpark, J. J. Heyd, E. N. Brothers, K. N. Kudin, 
 V. N. Staroverov, T. A. Keith, R. Kobayashi, J. Normand, 
 K. Raghavachari, A. P. Rendell, J. C. Burant, S. S. Iyengar, 
 J. Tomasi, M. Cossi, J. M. Millam, M. Klene, C. Adamo, R. Cammi, 
 J. W. Ochterski, R. L. Martin, K. Morokuma, O. Farkas, 
 J. B. Foresman, and D. J. Fox, Gaussian, Inc., Wallingford CT, 2016.
 
 ******************************************
 Gaussian 16:  ES64L-G16RevB.01 20-Dec-2017
                 1-Jun-2019 
 ******************************************
 %mem=80GB
 %nproc=40
 Will use up to   40 processors via shared memory.
 ----------------------------------------------------------------------
 # opt=(maxcyc=500,modredundant) uB2PLYPD3/cc-pvtz scf=maxcyc=500 nosym
 m
 ----------------------------------------------------------------------
 1/6=500,18=120,19=15,38=1/1,3;
 2/9=110,12=2,15=1,17=6,18=5,40=1/2;
 3/5=16,6=1,11=2,25=1,30=1,71=1,74=-60,116=2/1,2,3;
 4//1;
 5/5=2,7=500,38=5/2;
 8/6=4,10=1/1;
 9/15=2,16=-3/6;
 10/5=1,31=1/2;
 6/7=2,8=2,9=2,10=2/1;
 7/12=2,30=1/1,2,3,16;
 1/6=500,18=20,19=15/3(2);
 2/9=110,15=1/2;
 99//99;
 2/9=110,15=1/2;
 3/5=16,6=1,11=2,25=1,30=1,71=1,74=-60,116=2/1,2,3;
 4/5=5,16=3,69=1/1;
 5/5=2,7=500,38=5/2;
 8/6=4,10=1/1;
 9/15=2,16=-3/6;
 10/5=1,31=1/2;
 7/12=2,30=1/1,2,3,16;
 1/6=500,18=20,19=15/3(-8);
 2/9=110,15=1/2;
 6/7=2,8=2,9=2,10=2/1;
 99/9=10/99;
 -------------------
 Title Card Required
 -------------------
 Symbolic Z-matrix:
 Charge =  0 Multiplicity = 1
 C                    -0.95602   0.65966   0. 
 C                     0.55113   0.65966   0. 
 H                    -1.34584   1.70602   0. 
 H                    -1.34955   0.13646  -0.90491 
 H                    -1.34965   0.13635   0.90479 
 C                     1.11087  -0.73967  -0.00007 
 H                     0.92519   1.21237  -0.90237 
 H                     0.92527   1.21232   0.90236 
 H                     2.22715  -0.71308  -0.00013 
 H                     0.7712   -1.29941   0.90481 
 H                     0.77112  -1.29935  -0.90496 
 
 The following ModRedundant input section has been read:
 D    *          1       2    *    R                                           
 D       3       1       2       8 S  36 10.000                                
 

 GradGradGradGradGradGradGradGradGradGradGradGradGradGradGradGradGradGrad
 Berny optimization.
 Initialization pass.
                           ----------------------------
                           !    Initial Parameters    !
                           ! (Angstroms and Degrees)  !
 --------------------------                            --------------------------
 ! Name  Definition              Value          Derivative Info.                !
 --------------------------------------------------------------------------------
 ! R1    R(1,2)                  1.5072         estimate D2E/DX2                !
 ! R2    R(1,3)                  1.1166         estimate D2E/DX2                !
 ! R3    R(1,4)                  1.1169         estimate D2E/DX2                !
 ! R4    R(1,5)                  1.1169         estimate D2E/DX2                !
 ! R5    R(2,6)                  1.5071         estimate D2E/DX2                !
 ! R6    R(2,7)                  1.1224         estimate D2E/DX2                !
 ! R7    R(2,8)                  1.1224         estimate D2E/DX2                !
 ! R8    R(6,9)                  1.1166         estimate D2E/DX2                !
 ! R9    R(6,10)                 1.1169         estimate D2E/DX2                !
 ! R10   R(6,11)                 1.1169         estimate D2E/DX2                !
 ! A1    A(2,1,3)              110.4325         estimate D2E/DX2                !
 ! A2    A(2,1,4)              110.6308         estimate D2E/DX2                !
 ! A3    A(2,1,5)              110.6361         estimate D2E/DX2                !
 ! A4    A(3,1,4)              108.4186         estimate D2E/DX2                !
 ! A5    A(3,1,5)              108.4228         estimate D2E/DX2                !
 ! A6    A(4,1,5)              108.2212         estimate D2E/DX2                !
 ! A7    A(1,2,6)              111.802          estimate D2E/DX2                !
 ! A8    A(1,2,7)              109.4684         estimate D2E/DX2                !
 ! A9    A(1,2,8)              109.4724         estimate D2E/DX2                !
 ! A10   A(6,2,7)              109.4761         estimate D2E/DX2                !
 ! A11   A(6,2,8)              109.4767         estimate D2E/DX2                !
 ! A12   A(7,2,8)              107.0263         estimate D2E/DX2                !
 ! A13   A(2,6,9)              110.4371         estimate D2E/DX2                !
 ! A14   A(2,6,10)             110.6289         estimate D2E/DX2                !
 ! A15   A(2,6,11)             110.629          estimate D2E/DX2                !
 ! A16   A(9,6,10)             108.422          estimate D2E/DX2                !
 ! A17   A(9,6,11)             108.421          estimate D2E/DX2                !
 ! A18   A(10,6,11)            108.224          estimate D2E/DX2                !
 ! D1    D(3,1,2,8)             58.5143         Scan                            !
 ! D2    D(1,2,6,9)            179.9967         estimate D2E/DX2                !
 ! D3    D(1,2,6,10)           -59.9619         estimate D2E/DX2                !
 ! D4    D(1,2,6,11)            59.9566         estimate D2E/DX2                !
 ! D5    D(7,2,6,9)             58.516          estimate D2E/DX2                !
 ! D6    D(7,2,6,10)           178.5573         estimate D2E/DX2                !
 ! D7    D(7,2,6,11)           -61.5241         estimate D2E/DX2                !
 ! D8    D(8,2,6,9)            -58.5171         estimate D2E/DX2                !
 ! D9    D(8,2,6,10)            61.5243         estimate D2E/DX2                !
 ! D10   D(8,2,6,11)          -178.5572         estimate D2E/DX2                !
 --------------------------------------------------------------------------------
 Trust Radius=3.00D-01 FncErr=1.00D-07 GrdErr=1.00D-07 EigMax=2.50D+02 EigMin=1.00D-04
 Number of optimizations in scan=  37
 Number of steps in this run=    100 maximum allowed number of steps=    100.
 GradGradGradGradGradGradGradGradGradGradGradGradGradGradGradGradGradGrad

                          Input orientation:                          
 ---------------------------------------------------------------------
 Center     Atomic      Atomic             Coordinates (Angstroms)
 Number     Number       Type             X           Y           Z
 ---------------------------------------------------------------------
      1          6           0       -0.956023    0.659656    0.000000
      2          6           0        0.551127    0.659656    0.000000
      3          1           0       -1.345836    1.706016    0.000000
      4          1           0       -1.349555    0.136465   -0.904910
      5          1           0       -1.349648    0.136351    0.904788
      6          6           0        1.110874   -0.739672   -0.000072
      7          1           0        0.925194    1.212371   -0.902368
      8          1           0        0.925266    1.212316    0.902364
      9          1           0        2.227146   -0.713076   -0.000130
     10          1           0        0.771196   -1.299413    0.904809
     11          1           0        0.771119   -1.299353   -0.904963
 ---------------------------------------------------------------------
                    Distance matrix (angstroms):
                    1          2          3          4          5
     1  C    0.000000
     2  C    1.507150   0.000000
     3  H    1.116612   2.166411   0.000000
     4  H    1.116897   2.169143   1.811730   0.000000
     5  H    1.116884   2.169201   1.811768   1.809698   0.000000
     6  C    2.496033   1.507128   3.466528   2.764066   2.764119
     7  H    2.158411   1.122358   2.493097   2.516359   3.098151
     8  H    2.158458   1.122352   2.493172   3.098145   2.516533
     9  H    3.466548   2.166433   4.314882   3.785913   3.786008
    10  H    2.764040   2.169115   3.785909   3.135987   2.561132
    11  H    2.764000   2.169118   3.785855   2.561022   3.135936
                    6          7          8          9         10
     6  C    0.000000
     7  H    2.158492   0.000000
     8  H    2.158494   1.804732   0.000000
     9  H    1.116589   2.493283   2.493295   0.000000
    10  H    1.116916   3.098171   2.516451   1.811766   0.000000
    11  H    1.116917   2.516447   3.098173   1.811756   1.809772
                   11
    11  H    0.000000
 Symmetry turned off by external request.
 Stoichiometry    C3H8
 Framework group  C1[X(C3H8)]
 Deg. of freedom    27
 Full point group                 C1      NOp   1
 Rotational constants (GHZ):          28.8814848           8.6662865           7.6654095
 Standard basis: CC-pVTZ (5D, 7F)
   202 basis functions,   292 primitive gaussians,   225 cartesian basis functions
    13 alpha electrons       13 beta electrons
       nuclear repulsion energy        82.5771239130 Hartrees.
 NAtoms=   11 NActive=   11 NUniq=   11 SFac= 1.00D+00 NAtFMM=   60 NAOKFM=F Big=F
 Integral buffers will be    131072 words long.
 Raffenetti 2 integral format.
 Two-electron integral symmetry is turned off.
 Nuclear repulsion after empirical dispersion term =       82.5727874232 Hartrees.
 One-electron integrals computed using PRISM.
 NBasis=   202 RedAO= T EigKep=  8.99D-04  NBF=   202
 NBsUse=   202 1.00D-06 EigRej= -1.00D+00 NBFU=   202
 ExpMin= 1.03D-01 ExpMax= 8.24D+03 ExpMxC= 2.81D+02 IAcc=3 IRadAn=         5 AccDes= 0.00D+00
 Harris functional with IExCor=  419 and IRadAn=       5 diagonalized for initial guess.
 HarFok:  IExCor=  419 AccDes= 0.00D+00 IRadAn=         5 IDoV= 1 UseB2=F ITyADJ=14
 ICtDFT=  3500011 ScaDFX=  1.000000  1.000000  1.000000  1.000000
 FoFCou: FMM=F IPFlag=           0 FMFlag=      100000 FMFlg1=           0
         NFxFlg=           0 DoJE=T BraDBF=F KetDBF=T FulRan=T
         wScrn=  0.000000 ICntrl=       500 IOpCl=  0 I1Cent=   200000004 NGrid=           0
         NMat0=    1 NMatS0=      1 NMatT0=    0 NMatD0=    1 NMtDS0=    0 NMtDT0=    0
 Symmetry not used in FoFCou.
 Initial guess <Sx>= 0.0000 <Sy>= 0.0000 <Sz>= 0.0000 <S**2>=-0.0000 S=-0.0000
 Keep R1 and R2 ints in memory in canonical form, NReq=462601976.
 Requested convergence on RMS density matrix=1.00D-08 within 500 cycles.
 Requested convergence on MAX density matrix=1.00D-06.
 Requested convergence on             energy=1.00D-06.
 No special actions if energy rises.
 Integral accuracy reduced to 1.0D-05 until final iterations.
 Initial convergence to 1.0D-05 achieved.  Increase integral accuracy.
 SCF Done:  E(UB2PLYPD3) =  -118.882448187     A.U. after   10 cycles
            NFock= 10  Conv=0.67D-08     -V/T= 2.0067
 <Sx>= 0.0000 <Sy>= 0.0000 <Sz>= 0.0000 <S**2>=-0.0000 S=-0.0000
 <L.S>=  0.00000000000    
 Annihilation of the first spin contaminant:
 S**2 before annihilation    -0.0000,   after     0.0000
 DoSCS=T DFT=T ScalE2(SS,OS)=  0.270000  0.270000
 ExpMin= 1.03D-01 ExpMax= 8.24D+03 ExpMxC= 2.81D+02 IAcc=3 IRadAn=         5 AccDes= 0.00D+00
 HarFok:  IExCor=  205 AccDes= 0.00D+00 IRadAn=         5 IDoV=-2 UseB2=F ITyADJ=14
 ICtDFT= 12500011 ScaDFX=  1.000000  1.000000  1.000000  1.000000
 Range of M.O.s used for correlation:     4   202
 NBasis=   202 NAE=    13 NBE=    13 NFC=     3 NFV=     0
 NROrb=    199 NOA=    10 NOB=    10 NVA=   189 NVB=   189

 **** Warning!!: The largest alpha MO coefficient is  0.14422340D+02


 **** Warning!!: The largest beta MO coefficient is  0.14422340D+02

 DoSCS=T DFT=T ScalE2(SS,OS)=  0.270000  0.270000
 Fully direct method using O(ONN) memory.
 JobTyp=2 Pass  1:  I=   4 to  13 NPSUse= 40 ParTrn=T ParDer=T DoDerP=T.
 JobTyp=3 Pass  1:  I=   4 to  13 NPSUse= 40 ParTrn=T ParDer=T DoDerP=T.
 Spin components of T(2) and E(2):
     alpha-alpha T2 =       0.2942945009D-01 E2=     -0.1886950397D-01
     alpha-beta  T2 =       0.1980555229D+00 E2=     -0.1396693765D+00
     beta-beta   T2 =       0.2942945009D-01 E2=     -0.1886950397D-01
 (S**2,0)=  0.00000D+00           (S**2,1)=  0.00000D+00
 E(PUHF)=      -0.11888244819D+03        E(PMP2)=      -0.11905985657D+03
 E2(B2PLYPD3) =    -0.1774083844D+00 E(B2PLYPD3) =    -0.11905985657117D+03
          IDoAtm=11111111111
          Differentiating once with respect to electric field.
                with respect to dipole field.
          Differentiating once with respect to nuclear coordinates.
 Keep R1 and R2 ints in memory in canonical form, NReq=462610058.
          There are     1 degrees of freedom in the 1st order CPHF.  IDoFFX=0 NUNeed=     1.
 LinEq1:  Iter=  0 NonCon=     1 RMS=4.96D-04 Max=7.35D-03 NDo=     1
 AX will form     1 AO Fock derivatives at one time.
 LinEq1:  Iter=  1 NonCon=     1 RMS=2.37D-04 Max=4.09D-03 NDo=     1
 LinEq1:  Iter=  2 NonCon=     1 RMS=4.34D-05 Max=6.24D-04 NDo=     1
 LinEq1:  Iter=  3 NonCon=     1 RMS=1.15D-05 Max=1.44D-04 NDo=     1
 LinEq1:  Iter=  4 NonCon=     1 RMS=3.41D-06 Max=4.20D-05 NDo=     1
 LinEq1:  Iter=  5 NonCon=     1 RMS=1.04D-06 Max=1.09D-05 NDo=     1
 LinEq1:  Iter=  6 NonCon=     1 RMS=1.88D-07 Max=2.16D-06 NDo=     1
 LinEq1:  Iter=  7 NonCon=     1 RMS=3.10D-08 Max=4.30D-07 NDo=     1
 LinEq1:  Iter=  8 NonCon=     1 RMS=3.23D-09 Max=6.43D-08 NDo=     1
 LinEq1:  Iter=  9 NonCon=     1 RMS=2.98D-10 Max=6.33D-09 NDo=     1
 LinEq1:  Iter= 10 NonCon=     0 RMS=3.13D-11 Max=2.98D-10 NDo=     1
 Linear equations converged to 1.000D-10 1.000D-09 after    10 iterations.
 End of Minotr F.D. properties file   721 does not exist.
 End of Minotr F.D. properties file   722 does not exist.
 End of Minotr F.D. properties file   788 does not exist.

 **********************************************************************

            Population analysis using the SCF Density.

 **********************************************************************

 Alpha  occ. eigenvalues --  -10.61068 -10.60503 -10.60501  -0.89821  -0.77712
 Alpha  occ. eigenvalues --   -0.66357  -0.52768  -0.50413  -0.46128  -0.43907
 Alpha  occ. eigenvalues --   -0.39381  -0.39288  -0.38122
 Alpha virt. eigenvalues --    0.07750   0.11663   0.12010   0.12362   0.15191
 Alpha virt. eigenvalues --    0.16815   0.17775   0.19324   0.21926   0.28653
 Alpha virt. eigenvalues --    0.30023   0.30202   0.31875   0.35300   0.35474
 Alpha virt. eigenvalues --    0.39780   0.43301   0.48209   0.48493   0.51016
 Alpha virt. eigenvalues --    0.51847   0.53371   0.54131   0.55716   0.55974
 Alpha virt. eigenvalues --    0.56322   0.57756   0.62745   0.66302   0.70232
 Alpha virt. eigenvalues --    0.78696   0.79028   0.79690   0.85685   0.86849
 Alpha virt. eigenvalues --    0.95035   0.95059   1.00615   1.01588   1.05025
 Alpha virt. eigenvalues --    1.07479   1.09800   1.11622   1.15522   1.18207
 Alpha virt. eigenvalues --    1.18528   1.20522   1.21476   1.23957   1.26529
 Alpha virt. eigenvalues --    1.27174   1.27638   1.31077   1.33271   1.33956
 Alpha virt. eigenvalues --    1.37154   1.39109   1.41324   1.45248   1.45935
 Alpha virt. eigenvalues --    1.46927   1.51182   1.55839   1.56113   1.58487
 Alpha virt. eigenvalues --    1.62278   1.63074   1.71029   1.72428   2.32426
 Alpha virt. eigenvalues --    2.37863   2.38058   2.42893   2.45102   2.50051
 Alpha virt. eigenvalues --    2.56511   2.59495   2.61199   2.64275   2.66469
 Alpha virt. eigenvalues --    2.67078   2.73632   2.74832   2.78472   2.80078
 Alpha virt. eigenvalues --    2.86863   2.89299   2.91261   2.92548   2.92693
 Alpha virt. eigenvalues --    2.95431   3.01580   3.03441   3.04168   3.12864
 Alpha virt. eigenvalues --    3.14254   3.16654   3.17689   3.18668   3.20043
 Alpha virt. eigenvalues --    3.21393   3.22807   3.25835   3.26521   3.29641
 Alpha virt. eigenvalues --    3.30762   3.35167   3.39568   3.43071   3.46657
 Alpha virt. eigenvalues --    3.49181   3.50279   3.51989   3.52111   3.56737
 Alpha virt. eigenvalues --    3.58517   3.62048   3.64757   3.68133   3.72043
 Alpha virt. eigenvalues --    3.75488   3.83772   3.85672   3.87271   3.91106
 Alpha virt. eigenvalues --    3.91226   3.92787   3.93616   3.93997   3.94980
 Alpha virt. eigenvalues --    3.98973   4.04355   4.05871   4.07475   4.10009
 Alpha virt. eigenvalues --    4.11800   4.12987   4.15477   4.17772   4.21269
 Alpha virt. eigenvalues --    4.21956   4.24036   4.25081   4.27982   4.37219
 Alpha virt. eigenvalues --    4.37838   4.37880   4.39432   4.42343   4.43653
 Alpha virt. eigenvalues --    4.49987   4.55277   4.61386   4.64249   4.66919
 Alpha virt. eigenvalues --    4.85121   4.85609   4.89068   4.89983   4.91802
 Alpha virt. eigenvalues --    4.94256   4.96572   4.99076   5.01820   5.09701
 Alpha virt. eigenvalues --    5.11643   5.25411   5.26104   5.34013   5.36464
 Alpha virt. eigenvalues --    5.39926   5.40024   5.40998   5.43793   5.45464
 Alpha virt. eigenvalues --    5.47138   5.53310   5.60260   5.63684   5.64013
 Alpha virt. eigenvalues --    5.74810   6.00350   6.01090   6.02689   6.06448
 Alpha virt. eigenvalues --    6.09891  12.30600  13.36840  13.37479
  Beta  occ. eigenvalues --  -10.61068 -10.60503 -10.60501  -0.89821  -0.77712
  Beta  occ. eigenvalues --   -0.66357  -0.52768  -0.50413  -0.46128  -0.43907
  Beta  occ. eigenvalues --   -0.39381  -0.39288  -0.38122
  Beta virt. eigenvalues --    0.07750   0.11663   0.12010   0.12362   0.15191
  Beta virt. eigenvalues --    0.16815   0.17775   0.19324   0.21926   0.28653
  Beta virt. eigenvalues --    0.30023   0.30202   0.31875   0.35300   0.35474
  Beta virt. eigenvalues --    0.39780   0.43301   0.48209   0.48493   0.51016
  Beta virt. eigenvalues --    0.51847   0.53371   0.54131   0.55716   0.55974
  Beta virt. eigenvalues --    0.56322   0.57756   0.62745   0.66302   0.70232
  Beta virt. eigenvalues --    0.78696   0.79028   0.79690   0.85685   0.86849
  Beta virt. eigenvalues --    0.95035   0.95059   1.00615   1.01588   1.05025
  Beta virt. eigenvalues --    1.07479   1.09800   1.11622   1.15522   1.18207
  Beta virt. eigenvalues --    1.18528   1.20522   1.21476   1.23957   1.26529
  Beta virt. eigenvalues --    1.27174   1.27638   1.31077   1.33271   1.33956
  Beta virt. eigenvalues --    1.37154   1.39109   1.41324   1.45248   1.45935
  Beta virt. eigenvalues --    1.46927   1.51182   1.55839   1.56113   1.58487
  Beta virt. eigenvalues --    1.62278   1.63074   1.71029   1.72428   2.32426
  Beta virt. eigenvalues --    2.37863   2.38058   2.42893   2.45102   2.50051
  Beta virt. eigenvalues --    2.56511   2.59495   2.61199   2.64275   2.66469
  Beta virt. eigenvalues --    2.67078   2.73632   2.74832   2.78472   2.80078
  Beta virt. eigenvalues --    2.86863   2.89299   2.91261   2.92548   2.92693
  Beta virt. eigenvalues --    2.95431   3.01580   3.03441   3.04168   3.12864
  Beta virt. eigenvalues --    3.14254   3.16654   3.17689   3.18668   3.20043
  Beta virt. eigenvalues --    3.21393   3.22807   3.25835   3.26521   3.29641
  Beta virt. eigenvalues --    3.30762   3.35167   3.39568   3.43071   3.46657
  Beta virt. eigenvalues --    3.49181   3.50279   3.51989   3.52111   3.56737
  Beta virt. eigenvalues --    3.58517   3.62048   3.64757   3.68133   3.72043
  Beta virt. eigenvalues --    3.75488   3.83772   3.85672   3.87271   3.91106
  Beta virt. eigenvalues --    3.91226   3.92787   3.93616   3.93997   3.94980
  Beta virt. eigenvalues --    3.98973   4.04355   4.05871   4.07475   4.10009
  Beta virt. eigenvalues --    4.11800   4.12987   4.15477   4.17772   4.21269
  Beta virt. eigenvalues --    4.21956   4.24036   4.25081   4.27982   4.37219
  Beta virt. eigenvalues --    4.37838   4.37880   4.39432   4.42343   4.43653
  Beta virt. eigenvalues --    4.49987   4.55277   4.61386   4.64249   4.66919
  Beta virt. eigenvalues --    4.85121   4.85609   4.89068   4.89983   4.91802
  Beta virt. eigenvalues --    4.94256   4.96572   4.99076   5.01820   5.09701
  Beta virt. eigenvalues --    5.11643   5.25411   5.26104   5.34013   5.36464
  Beta virt. eigenvalues --    5.39926   5.40024   5.40998   5.43793   5.45464
  Beta virt. eigenvalues --    5.47138   5.53310   5.60260   5.63684   5.64013
  Beta virt. eigenvalues --    5.74810   6.00350   6.01090   6.02689   6.06448
  Beta virt. eigenvalues --    6.09891  12.30600  13.36840  13.37479
          Condensed to atoms (all electrons):
               1          2          3          4          5          6
     1  C    4.839370   0.346757   0.409219   0.406086   0.406088  -0.056888
     2  C    0.346757   4.838183  -0.038394  -0.038370  -0.038365   0.346756
     3  H    0.409219  -0.038394   0.600071  -0.029695  -0.029691   0.008282
     4  H    0.406086  -0.038370  -0.029695   0.611002  -0.032639  -0.004887
     5  H    0.406088  -0.038365  -0.029691  -0.032639   0.610980  -0.004885
     6  C   -0.056888   0.346756   0.008282  -0.004887  -0.004885   4.839338
     7  H   -0.038432   0.412925  -0.005160  -0.006387   0.008193  -0.038426
     8  H   -0.038429   0.412925  -0.005160   0.008194  -0.006384  -0.038426
     9  H    0.008282  -0.038390  -0.000504  -0.000082  -0.000082   0.409228
    10  H   -0.004888  -0.038374  -0.000082  -0.000455   0.004420   0.406084
    11  H   -0.004888  -0.038373  -0.000082   0.004421  -0.000455   0.406085
               7          8          9         10         11
     1  C   -0.038432  -0.038429   0.008282  -0.004888  -0.004888
     2  C    0.412925   0.412925  -0.038390  -0.038374  -0.038373
     3  H   -0.005160  -0.005160  -0.000504  -0.000082  -0.000082
     4  H   -0.006387   0.008194  -0.000082  -0.000455   0.004421
     5  H    0.008193  -0.006384  -0.000082   0.004420  -0.000455
     6  C   -0.038426  -0.038426   0.409228   0.406084   0.406085
     7  H    0.628277  -0.036717  -0.005160   0.008194  -0.006385
     8  H   -0.036717   0.628265  -0.005159  -0.006385   0.008194
     9  H   -0.005160  -0.005159   0.600040  -0.029693  -0.029694
    10  H    0.008194  -0.006385  -0.029693   0.611003  -0.032633
    11  H   -0.006385   0.008194  -0.029694  -0.032633   0.611005
          Atomic-Atomic Spin Densities.
               1          2          3          4          5          6
     1  C    0.000000  -0.000000   0.000000  -0.000000  -0.000000  -0.000000
     2  C   -0.000000   0.000000  -0.000000   0.000000   0.000000  -0.000000
     3  H    0.000000  -0.000000  -0.000000   0.000000   0.000000  -0.000000
     4  H   -0.000000   0.000000   0.000000  -0.000000  -0.000000  -0.000000
     5  H   -0.000000   0.000000   0.000000  -0.000000  -0.000000  -0.000000
     6  C   -0.000000  -0.000000  -0.000000  -0.000000  -0.000000  -0.000000
     7  H   -0.000000   0.000000  -0.000000   0.000000  -0.000000   0.000000
     8  H   -0.000000   0.000000  -0.000000  -0.000000   0.000000  -0.000000
     9  H    0.000000  -0.000000  -0.000000   0.000000   0.000000   0.000000
    10  H   -0.000000  -0.000000   0.000000  -0.000000   0.000000   0.000000
    11  H   -0.000000   0.000000   0.000000  -0.000000  -0.000000  -0.000000
               7          8          9         10         11
     1  C   -0.000000  -0.000000   0.000000  -0.000000  -0.000000
     2  C    0.000000   0.000000  -0.000000  -0.000000   0.000000
     3  H   -0.000000  -0.000000  -0.000000   0.000000   0.000000
     4  H    0.000000  -0.000000   0.000000  -0.000000  -0.000000
     5  H   -0.000000   0.000000   0.000000   0.000000  -0.000000
     6  C    0.000000  -0.000000   0.000000   0.000000  -0.000000
     7  H   -0.000000   0.000000   0.000000  -0.000000   0.000000
     8  H    0.000000  -0.000000   0.000000   0.000000   0.000000
     9  H    0.000000   0.000000   0.000000  -0.000000  -0.000000
    10  H   -0.000000   0.000000  -0.000000  -0.000000   0.000000
    11  H    0.000000   0.000000  -0.000000   0.000000   0.000000
 Mulliken charges and spin densities:
               1          2
     1  C   -0.272277   0.000000
     2  C   -0.127279   0.000000
     3  H    0.091197  -0.000000
     4  H    0.082812  -0.000000
     5  H    0.082820  -0.000000
     6  C   -0.272260  -0.000000
     7  H    0.079078  -0.000000
     8  H    0.079083  -0.000000
     9  H    0.091214   0.000000
    10  H    0.082807   0.000000
    11  H    0.082806   0.000000
 Sum of Mulliken charges =  -0.00000   0.00000
 Mulliken charges and spin densities with hydrogens summed into heavy atoms:
               1          2
     1  C   -0.015448   0.000000
     2  C    0.030881  -0.000000
     6  C   -0.015433   0.000000
 Electronic spatial extent (au):  <R**2>=            232.4441
 Charge=             -0.0000 electrons
 Dipole moment (field-independent basis, Debye):
    X=              0.0507    Y=              0.0749    Z=             -0.0000  Tot=              0.0905
 Quadrupole moment (field-independent basis, Debye-Ang):
   XX=            -22.6416   YY=            -22.4208   ZZ=            -21.6253
   XY=              0.2972   XZ=             -0.0000   YZ=             -0.0001
 Traceless Quadrupole moment (field-independent basis, Debye-Ang):
   XX=             -0.4124   YY=             -0.1916   ZZ=              0.6040
   XY=              0.2972   XZ=             -0.0000   YZ=             -0.0001
 Octapole moment (field-independent basis, Debye-Ang**2):
  XXX=            -13.0734  YYY=            -10.2625  ZZZ=              0.0020  XYY=             -5.8589
  XXY=             -3.6925  XXZ=              0.0008  XZZ=             -5.1113  YZZ=             -4.2115
  YYZ=              0.0007  XYZ=              0.0001
 Hexadecapole moment (field-independent basis, Debye-Ang**3):
 XXXX=           -167.3069 YYYY=           -117.4927 ZZZZ=            -46.4698 XXXY=             28.2750
 XXXZ=              0.0011 YYYX=             26.7774 YYYZ=             -0.0014 ZZZX=              0.0020
 ZZZY=             -0.0011 XXYY=            -48.8985 XXZZ=            -36.0883 YYZZ=            -26.5450
 XXYZ=             -0.0004 YYXZ=              0.0008 ZZXY=             10.4485
 N-N= 8.257278742321D+01 E-N=-4.398562165808D+02  KE= 1.180882161995D+02
                          Isotropic Fermi Contact Couplings
        Atom                 a.u.       MegaHertz       Gauss      10(-4) cm-1
     1  C(13)              0.00000       0.00000       0.00000       0.00000
     2  C(13)              0.00000       0.00000       0.00000       0.00000
     3  H(1)               0.00000       0.00000       0.00000       0.00000
     4  H(1)              -0.00000      -0.00000      -0.00000      -0.00000
     5  H(1)               0.00000       0.00000       0.00000       0.00000
     6  C(13)              0.00000       0.00000       0.00000       0.00000
     7  H(1)              -0.00000      -0.00000      -0.00000      -0.00000
     8  H(1)               0.00000       0.00000       0.00000       0.00000
     9  H(1)               0.00000       0.00000       0.00000       0.00000
    10  H(1)               0.00000       0.00000       0.00000       0.00000
    11  H(1)               0.00000       0.00000       0.00000       0.00000
 --------------------------------------------------------
       Center         ----  Spin Dipole Couplings  ----
                      3XX-RR        3YY-RR        3ZZ-RR
 --------------------------------------------------------
     1   Atom        0.000000      0.000000      0.000000
     2   Atom        0.000000      0.000000      0.000000
     3   Atom        0.000000      0.000000      0.000000
     4   Atom        0.000000      0.000000      0.000000
     5   Atom        0.000000      0.000000      0.000000
     6   Atom        0.000000      0.000000      0.000000
     7   Atom        0.000000      0.000000      0.000000
     8   Atom        0.000000      0.000000      0.000000
     9   Atom        0.000000      0.000000      0.000000
    10   Atom        0.000000      0.000000      0.000000
    11   Atom        0.000000      0.000000      0.000000
 --------------------------------------------------------
                        XY            XZ            YZ
 --------------------------------------------------------
     1   Atom        0.000000      0.000000      0.000000
     2   Atom        0.000000      0.000000      0.000000
     3   Atom        0.000000      0.000000      0.000000
     4   Atom        0.000000      0.000000      0.000000
     5   Atom        0.000000      0.000000      0.000000
     6   Atom        0.000000      0.000000      0.000000
     7   Atom        0.000000      0.000000      0.000000
     8   Atom        0.000000      0.000000      0.000000
     9   Atom        0.000000      0.000000      0.000000
    10   Atom        0.000000      0.000000      0.000000
    11   Atom        0.000000      0.000000      0.000000
 --------------------------------------------------------


 ---------------------------------------------------------------------------------
              Anisotropic Spin Dipole Couplings in Principal Axis System
 ---------------------------------------------------------------------------------

       Atom             a.u.   MegaHertz   Gauss  10(-4) cm-1        Axes

              Baa     0.0000     0.000     0.000     0.000  1.0000  0.0000  0.0000
     1 C(13)  Bbb     0.0000     0.000     0.000     0.000 -0.0000  1.0000  0.0000
              Bcc     0.0000     0.000     0.000     0.000  0.0000  0.0000  1.0000
 
              Baa     0.0000     0.000     0.000     0.000  1.0000  0.0000  0.0000
     2 C(13)  Bbb     0.0000     0.000     0.000     0.000 -0.0000  1.0000  0.0000
              Bcc     0.0000     0.000     0.000     0.000  0.0000  0.0000  1.0000
 
              Baa     0.0000     0.000     0.000     0.000  1.0000  0.0000  0.0000
     3 H(1)   Bbb     0.0000     0.000     0.000     0.000 -0.0000  1.0000  0.0000
              Bcc     0.0000     0.000     0.000     0.000  0.0000  0.0000  1.0000
 
              Baa     0.0000     0.000     0.000     0.000  1.0000  0.0000  0.0000
     4 H(1)   Bbb     0.0000     0.000     0.000     0.000 -0.0000  1.0000  0.0000
              Bcc     0.0000     0.000     0.000     0.000  0.0000  0.0000  1.0000
 
              Baa     0.0000     0.000     0.000     0.000  1.0000  0.0000  0.0000
     5 H(1)   Bbb     0.0000     0.000     0.000     0.000 -0.0000  1.0000  0.0000
              Bcc     0.0000     0.000     0.000     0.000  0.0000  0.0000  1.0000
 
              Baa     0.0000     0.000     0.000     0.000  1.0000  0.0000  0.0000
     6 C(13)  Bbb     0.0000     0.000     0.000     0.000 -0.0000  1.0000  0.0000
              Bcc     0.0000     0.000     0.000     0.000  0.0000  0.0000  1.0000
 
              Baa     0.0000     0.000     0.000     0.000  1.0000  0.0000  0.0000
     7 H(1)   Bbb     0.0000     0.000     0.000     0.000 -0.0000  1.0000  0.0000
              Bcc     0.0000     0.000     0.000     0.000  0.0000  0.0000  1.0000
 
              Baa     0.0000     0.000     0.000     0.000  1.0000  0.0000  0.0000
     8 H(1)   Bbb     0.0000     0.000     0.000     0.000 -0.0000  1.0000  0.0000
              Bcc     0.0000     0.000     0.000     0.000  0.0000  0.0000  1.0000
 
              Baa     0.0000     0.000     0.000     0.000  1.0000  0.0000  0.0000
     9 H(1)   Bbb     0.0000     0.000     0.000     0.000 -0.0000  1.0000  0.0000
              Bcc     0.0000     0.000     0.000     0.000  0.0000  0.0000  1.0000
 
              Baa     0.0000     0.000     0.000     0.000  1.0000  0.0000  0.0000
    10 H(1)   Bbb     0.0000     0.000     0.000     0.000 -0.0000  1.0000  0.0000
              Bcc     0.0000     0.000     0.000     0.000  0.0000  0.0000  1.0000
 
              Baa     0.0000     0.000     0.000     0.000  1.0000  0.0000  0.0000
    11 H(1)   Bbb     0.0000     0.000     0.000     0.000 -0.0000  1.0000  0.0000
              Bcc     0.0000     0.000     0.000     0.000  0.0000  0.0000  1.0000
 

 ---------------------------------------------------------------------------------

 Calling FoFJK, ICntrl=  10002127 FMM=F ISym2X=0 I1Cent= 0 IOpClX= 1 NMat=1 NMatS=1 NMatT=0.
 -------------------------------------------------------------------
 Center     Atomic                   Forces (Hartrees/Bohr)
 Number     Number              X              Y              Z
 -------------------------------------------------------------------
      1        6          -0.020856391    0.004668481   -0.000012981
      2        6           0.013450951    0.019890578   -0.000003457
      3        1           0.002464353   -0.016539973    0.000003760
      4        1           0.003963401    0.007685208    0.013580832
      5        1           0.003966356    0.007687684   -0.013572435
      6        6           0.012052895   -0.017642676   -0.000001916
      7        1          -0.005059146   -0.007487203    0.015423370
      8        1          -0.005062729   -0.007485464   -0.015419631
      9        1          -0.016261277   -0.003849657    0.000001852
     10        1           0.005670678    0.006536569   -0.013592292
     11        1           0.005670909    0.006536452    0.013592899
 -------------------------------------------------------------------
 Cartesian Forces:  Max     0.020856391 RMS     0.010624837

 GradGradGradGradGradGradGradGradGradGradGradGradGradGradGradGradGradGrad
 Berny optimization.
 FormGI is forming the generalized inverse of G from B-inverse, IUseBI=4.
 Internal  Forces:  Max     0.017773563 RMS     0.008165475
 Search for a local minimum.
 Step number   1 out of a maximum of  100 on scan point     1 out of    37
 All quantities printed in internal units (Hartrees-Bohrs-Radians)
 Mixed Optimization -- RFO/linear search
 Second derivative matrix not updated -- first step.
 ITU=  0
     Eigenvalues ---    0.00672   0.05672   0.05800   0.05812   0.06290
     Eigenvalues ---    0.16000   0.16000   0.16000   0.16000   0.16000
     Eigenvalues ---    0.16000   0.16000   0.16000   0.16000   0.16000
     Eigenvalues ---    0.22351   0.31326   0.31326   0.31639   0.31641
     Eigenvalues ---    0.31878   0.31879   0.31881   0.31882   0.31910
     Eigenvalues ---    0.319121000.000001000.000001000.000001000.00000
     Eigenvalues --- 1000.000001000.000001000.000001000.000001000.00000
     Eigenvalues --- 1000.000001000.000001000.00000
 RFO step:  Lambda=-8.16801891D-03 EMin= 6.71654449D-03
 Linear search not attempted -- first point.
 Iteration  1 RMS(Cart)=  0.03583464 RMS(Int)=  0.00032496
 Iteration  2 RMS(Cart)=  0.00045108 RMS(Int)=  0.00007859
 Iteration  3 RMS(Cart)=  0.00000011 RMS(Int)=  0.00007859
 Iteration  1 RMS(Cart)=  0.00000000 RMS(Int)=  0.00000000
 Variable       Old X    -DE/DX   Delta X   Delta X   Delta X     New X
                                 (Linear)    (Quad)   (Total)
    R1        2.84810   0.01046   0.00000   0.03224   0.03224   2.88034
    R2        2.11009  -0.01636   0.00000  -0.04999  -0.04999   2.06010
    R3        2.11063  -0.01600   0.00000  -0.04893  -0.04893   2.06170
    R4        2.11061  -0.01599   0.00000  -0.04892  -0.04892   2.06169
    R5        2.84806   0.01047   0.00000   0.03224   0.03224   2.88030
    R6        2.12095  -0.01777   0.00000  -0.05530  -0.05530   2.06565
    R7        2.12094  -0.01777   0.00000  -0.05529  -0.05529   2.06565
    R8        2.11005  -0.01635   0.00000  -0.04995  -0.04995   2.06010
    R9        2.11066  -0.01601   0.00000  -0.04897  -0.04897   2.06169
   R10        2.11067  -0.01601   0.00000  -0.04898  -0.04898   2.06169
    A1        1.92741   0.00486   0.00000   0.02890   0.02878   1.95619
    A2        1.93087   0.00115   0.00000   0.00681   0.00669   1.93757
    A3        1.93096   0.00113   0.00000   0.00673   0.00662   1.93758
    A4        1.89226  -0.00235   0.00000  -0.01398  -0.01409   1.87817
    A5        1.89233  -0.00236   0.00000  -0.01404  -0.01415   1.87819
    A6        1.88882  -0.00271   0.00000  -0.01612  -0.01623   1.87259
    A7        1.95131   0.00454   0.00000   0.02299   0.02287   1.97418
    A8        1.91058  -0.00163   0.00000  -0.00177  -0.00188   1.90870
    A9        1.91065  -0.00164   0.00000  -0.00182  -0.00193   1.90873
   A10        1.91072   0.00015   0.00000   0.00013   0.00005   1.91077
   A11        1.91073   0.00015   0.00000   0.00012   0.00004   1.91077
   A12        1.86796  -0.00186   0.00000  -0.02161  -0.02164   1.84632
   A13        1.92749   0.00443   0.00000   0.02828   0.02811   1.95560
   A14        1.93084   0.00136   0.00000   0.00711   0.00703   1.93787
   A15        1.93084   0.00136   0.00000   0.00711   0.00703   1.93787
   A16        1.89232  -0.00276   0.00000  -0.01456  -0.01472   1.87760
   A17        1.89230  -0.00276   0.00000  -0.01454  -0.01470   1.87760
   A18        1.88887  -0.00192   0.00000  -0.01510  -0.01509   1.87378
    D1        1.02127   0.00000   0.00000   0.00000   0.00000   1.02127
    D2        3.14154   0.00000   0.00000   0.00003   0.00003   3.14157
    D3       -1.04653   0.00032   0.00000   0.00484   0.00489  -1.04165
    D4        1.04644  -0.00032   0.00000  -0.00479  -0.00484   1.04160
    D5        1.02130  -0.00104   0.00000  -0.01298  -0.01300   1.00829
    D6        3.11641  -0.00072   0.00000  -0.00817  -0.00815   3.10826
    D7       -1.07380  -0.00135   0.00000  -0.01781  -0.01787  -1.09167
    D8       -1.02132   0.00104   0.00000   0.01298   0.01300  -1.00832
    D9        1.07380   0.00135   0.00000   0.01779   0.01785   1.09165
   D10       -3.11641   0.00072   0.00000   0.00816   0.00813  -3.10828
         Item               Value     Threshold  Converged?
 Maximum Force            0.017774     0.000450     NO 
 RMS     Force            0.008275     0.000300     NO 
 Maximum Displacement     0.076365     0.001800     NO 
 RMS     Displacement     0.035629     0.001200     NO 
 Predicted change in Energy=-4.199257D-03
 GradGradGradGradGradGradGradGradGradGradGradGradGradGradGradGradGradGrad

                          Input orientation:                          
 ---------------------------------------------------------------------
 Center     Atomic      Atomic             Coordinates (Angstroms)
 Number     Number       Type             X           Y           Z
 ---------------------------------------------------------------------
      1          6           0       -0.972649    0.677502    0.000540
      2          6           0        0.551455    0.659641    0.001888
      3          1           0       -1.370595    1.692371   -0.010817
      4          1           0       -1.369232    0.157640   -0.872817
      5          1           0       -1.370579    0.176761    0.884390
      6          6           0        1.133284   -0.749124   -0.002114
      7          1           0        0.921063    1.209137   -0.867770
      8          1           0        0.919479    1.203525    0.875733
      9          1           0        2.223414   -0.741643   -0.001111
     10          1           0        0.806818   -1.310074    0.874832
     11          1           0        0.808403   -1.304421   -0.883237
 ---------------------------------------------------------------------
                    Distance matrix (angstroms):
                    1          2          3          4          5
     1  C    0.000000
     2  C    1.524209   0.000000
     3  H    1.090159   2.181964   0.000000
     4  H    1.091003   2.169366   1.760240   0.000000
     5  H    1.090999   2.169377   1.760246   1.757311   0.000000
     6  C    2.543664   1.524192   3.497196   2.800523   2.812914
     7  H    2.150056   1.093097   2.493908   2.520143   3.063900
     8  H    2.150073   1.093096   2.503873   3.064229   2.509718
     9  H    3.496970   2.181526   4.340670   3.804693   3.813708
    10  H    2.807374   2.169566   3.813158   3.153356   2.636632
    11  H    2.807353   2.169564   3.806561   2.622942   3.172754
                    6          7          8          9         10
     6  C    0.000000
     7  H    2.151554   0.000000
     8  H    2.151550   1.743513   0.000000
     9  H    1.090156   2.500552   2.500557   0.000000
    10  H    1.091000   3.065312   2.516123   1.759867   0.000000
    11  H    1.091000   2.516129   3.065308   1.759865   1.758080
                   11
    11  H    0.000000
 Symmetry turned off by external request.
 Stoichiometry    C3H8
 Framework group  C1[X(C3H8)]
 Deg. of freedom    27
 Full point group                 C1      NOp   1
 Rotational constants (GHZ):          29.8000272           8.4326830           7.4761276
 Standard basis: CC-pVTZ (5D, 7F)
   202 basis functions,   292 primitive gaussians,   225 cartesian basis functions
    13 alpha electrons       13 beta electrons
       nuclear repulsion energy        82.6733462064 Hartrees.
 NAtoms=   11 NActive=   11 NUniq=   11 SFac= 1.00D+00 NAtFMM=   60 NAOKFM=F Big=F
 Integral buffers will be    131072 words long.
 Raffenetti 2 integral format.
 Two-electron integral symmetry is turned off.
 Nuclear repulsion after empirical dispersion term =       82.6690275096 Hartrees.
 One-electron integrals computed using PRISM.
 NBasis=   202 RedAO= T EigKep=  9.24D-04  NBF=   202
 NBsUse=   202 1.00D-06 EigRej= -1.00D+00 NBFU=   202
 Initial guess from the checkpoint file:  "/localscratch/339543/Gau-14630.chk"
 B after Tr=     0.002182    0.003095   -0.000061
         Rot=    1.000000   -0.000330   -0.000021    0.000058 Ang=  -0.04 deg.
 Initial guess <Sx>= 0.0000 <Sy>= 0.0000 <Sz>= 0.0000 <S**2>= 0.0000 S= 0.0000
 ExpMin= 1.03D-01 ExpMax= 8.24D+03 ExpMxC= 2.81D+02 IAcc=3 IRadAn=         5 AccDes= 0.00D+00
 Harris functional with IExCor=  419 and IRadAn=       5 diagonalized for initial guess.
 HarFok:  IExCor=  419 AccDes= 0.00D+00 IRadAn=         5 IDoV= 1 UseB2=F ITyADJ=14
 ICtDFT=  3500011 ScaDFX=  1.000000  1.000000  1.000000  1.000000
 FoFCou: FMM=F IPFlag=           0 FMFlag=      100000 FMFlg1=           0
         NFxFlg=           0 DoJE=T BraDBF=F KetDBF=T FulRan=T
         wScrn=  0.000000 ICntrl=       500 IOpCl=  0 I1Cent=   200000004 NGrid=           0
         NMat0=    1 NMatS0=      1 NMatT0=    0 NMatD0=    1 NMtDS0=    0 NMtDT0=    0
 Symmetry not used in FoFCou.
 Keep R1 and R2 ints in memory in canonical form, NReq=462601976.
 Requested convergence on RMS density matrix=1.00D-08 within 500 cycles.
 Requested convergence on MAX density matrix=1.00D-06.
 Requested convergence on             energy=1.00D-06.
 No special actions if energy rises.
 Integral accuracy reduced to 1.0D-05 until final iterations.
 Initial convergence to 1.0D-05 achieved.  Increase integral accuracy.
 SCF Done:  E(UB2PLYPD3) =  -118.887510290     A.U. after    9 cycles
            NFock=  9  Conv=0.43D-08     -V/T= 2.0049
 <Sx>= 0.0000 <Sy>= 0.0000 <Sz>= 0.0000 <S**2>=-0.0000 S=-0.0000
 <L.S>=  0.00000000000    
 Annihilation of the first spin contaminant:
 S**2 before annihilation    -0.0000,   after     0.0000
 DoSCS=T DFT=T ScalE2(SS,OS)=  0.270000  0.270000
 ExpMin= 1.03D-01 ExpMax= 8.24D+03 ExpMxC= 2.81D+02 IAcc=3 IRadAn=         5 AccDes= 0.00D+00
 HarFok:  IExCor=  205 AccDes= 0.00D+00 IRadAn=         5 IDoV=-2 UseB2=F ITyADJ=14
 ICtDFT= 12500011 ScaDFX=  1.000000  1.000000  1.000000  1.000000
 Range of M.O.s used for correlation:     4   202
 NBasis=   202 NAE=    13 NBE=    13 NFC=     3 NFV=     0
 NROrb=    199 NOA=    10 NOB=    10 NVA=   189 NVB=   189

 **** Warning!!: The largest alpha MO coefficient is  0.13960163D+02


 **** Warning!!: The largest beta MO coefficient is  0.13960163D+02

 DoSCS=T DFT=T ScalE2(SS,OS)=  0.270000  0.270000
 Fully direct method using O(ONN) memory.
 JobTyp=2 Pass  1:  I=   4 to  13 NPSUse= 40 ParTrn=T ParDer=T DoDerP=T.
 JobTyp=3 Pass  1:  I=   4 to  13 NPSUse= 40 ParTrn=T ParDer=T DoDerP=T.
 Spin components of T(2) and E(2):
     alpha-alpha T2 =       0.2895619592D-01 E2=     -0.1879651632D-01
     alpha-beta  T2 =       0.1933079378D+00 E2=     -0.1388978828D+00
     beta-beta   T2 =       0.2895619592D-01 E2=     -0.1879651632D-01
 (S**2,0)=  0.00000D+00           (S**2,1)=  0.00000D+00
 E(PUHF)=      -0.11888751029D+03        E(PMP2)=      -0.11906400121D+03
 E2(B2PLYPD3) =    -0.1764909155D+00 E(B2PLYPD3) =    -0.11906400120545D+03
          IDoAtm=11111111111
          Differentiating once with respect to electric field.
                with respect to dipole field.
          Differentiating once with respect to nuclear coordinates.
 Keep R1 and R2 ints in memory in canonical form, NReq=462610058.
          There are     1 degrees of freedom in the 1st order CPHF.  IDoFFX=0 NUNeed=     1.
 LinEq1:  Iter=  0 NonCon=     1 RMS=4.79D-04 Max=7.29D-03 NDo=     1
 AX will form     1 AO Fock derivatives at one time.
 LinEq1:  Iter=  1 NonCon=     1 RMS=2.17D-04 Max=3.85D-03 NDo=     1
 LinEq1:  Iter=  2 NonCon=     1 RMS=4.07D-05 Max=5.65D-04 NDo=     1
 LinEq1:  Iter=  3 NonCon=     1 RMS=1.07D-05 Max=1.34D-04 NDo=     1
 LinEq1:  Iter=  4 NonCon=     1 RMS=3.18D-06 Max=3.91D-05 NDo=     1
 LinEq1:  Iter=  5 NonCon=     1 RMS=9.52D-07 Max=9.99D-06 NDo=     1
 LinEq1:  Iter=  6 NonCon=     1 RMS=1.62D-07 Max=1.70D-06 NDo=     1
 LinEq1:  Iter=  7 NonCon=     1 RMS=2.70D-08 Max=4.09D-07 NDo=     1
 LinEq1:  Iter=  8 NonCon=     1 RMS=2.77D-09 Max=4.45D-08 NDo=     1
 LinEq1:  Iter=  9 NonCon=     1 RMS=3.46D-10 Max=5.25D-09 NDo=     1
 LinEq1:  Iter= 10 NonCon=     1 RMS=1.70D-10 Max=2.31D-09 NDo=     1
 LinEq1:  Iter= 11 NonCon=     0 RMS=1.51D-11 Max=1.68D-10 NDo=     1
 Linear equations converged to 1.000D-10 1.000D-09 after    11 iterations.
 End of Minotr F.D. properties file   721 does not exist.
 End of Minotr F.D. properties file   722 does not exist.
 End of Minotr F.D. properties file   788 does not exist.
 Calling FoFJK, ICntrl=  10002127 FMM=F ISym2X=0 I1Cent= 0 IOpClX= 1 NMat=1 NMatS=1 NMatT=0.
 -------------------------------------------------------------------
 Center     Atomic                   Forces (Hartrees/Bohr)
 Number     Number              X              Y              Z
 -------------------------------------------------------------------
      1        6          -0.001607153   -0.001424707    0.000056250
      2        6           0.001960844    0.003349928   -0.000057328
      3        1           0.001089329   -0.000269062    0.000058550
      4        1           0.000319886    0.000106970    0.000000740
      5        1           0.000302263    0.000021114   -0.000073707
      6        6          -0.000477461   -0.001792242    0.000045894
      7        1          -0.000339254   -0.000795306    0.000389112
      8        1          -0.000346414   -0.000715298   -0.000440192
      9        1          -0.000621661    0.000897991    0.000014250
     10        1          -0.000138542    0.000297295   -0.000098165
     11        1          -0.000141838    0.000323318    0.000104595
 -------------------------------------------------------------------
 Cartesian Forces:  Max     0.003349928 RMS     0.000917376

 GradGradGradGradGradGradGradGradGradGradGradGradGradGradGradGradGradGrad
 Berny optimization.
 Using GEDIIS/GDIIS optimizer.
 FormGI is forming the generalized inverse of G from B-inverse, IUseBI=4.
 Internal  Forces:  Max     0.002218729 RMS     0.000630397
 Search for a local minimum.
 Step number   2 out of a maximum of  100 on scan point     1 out of    37
 All quantities printed in internal units (Hartrees-Bohrs-Radians)
 Mixed Optimization -- En-DIIS/RFO-DIIS
 Update second derivatives using D2CorX and points    1    2
 DE= -4.14D-03 DEPred=-4.20D-03 R= 9.87D-01
 TightC=F SS=  1.41D+00  RLast= 1.67D-01 DXNew= 5.0454D-01 5.0248D-01
 Trust test= 9.87D-01 RLast= 1.67D-01 DXMaxT set to 5.02D-01
 ITU=  1  0
 Use linear search instead of GDIIS.
     Eigenvalues ---    0.00672   0.05486   0.05599   0.05729   0.06353
     Eigenvalues ---    0.15985   0.16000   0.16000   0.16000   0.16000
     Eigenvalues ---    0.16000   0.16000   0.16000   0.16000   0.16507
     Eigenvalues ---    0.22434   0.30668   0.31326   0.31637   0.31668
     Eigenvalues ---    0.31809   0.31879   0.31880   0.31881   0.31911
     Eigenvalues ---    0.322161000.000001000.000001000.000001000.00000
     Eigenvalues --- 1000.000001000.000001000.000001000.000001000.00000
     Eigenvalues --- 1000.000001000.000001000.00000
 RFO step:  Lambda=-7.96465323D-05 EMin= 6.71654398D-03
 Quartic linear search produced a step of -0.00388.
 Iteration  1 RMS(Cart)=  0.00706802 RMS(Int)=  0.00001963
 Iteration  2 RMS(Cart)=  0.00003084 RMS(Int)=  0.00000678
 Iteration  3 RMS(Cart)=  0.00000000 RMS(Int)=  0.00000678
 Iteration  1 RMS(Cart)=  0.00000000 RMS(Int)=  0.00000000
 Variable       Old X    -DE/DX   Delta X   Delta X   Delta X     New X
                                 (Linear)    (Quad)   (Total)
    R1        2.88034  -0.00012  -0.00012   0.00009  -0.00003   2.88031
    R2        2.06010  -0.00065   0.00019  -0.00277  -0.00257   2.05753
    R3        2.06170  -0.00017   0.00019  -0.00125  -0.00106   2.06064
    R4        2.06169  -0.00018   0.00019  -0.00129  -0.00110   2.06059
    R5        2.88030  -0.00027  -0.00012  -0.00038  -0.00051   2.87979
    R6        2.06565  -0.00082   0.00021  -0.00344  -0.00323   2.06243
    R7        2.06565  -0.00082   0.00021  -0.00344  -0.00323   2.06242
    R8        2.06010  -0.00062   0.00019  -0.00266  -0.00247   2.05763
    R9        2.06169  -0.00019   0.00019  -0.00132  -0.00113   2.06056
   R10        2.06169  -0.00021   0.00019  -0.00137  -0.00118   2.06051
    A1        1.95619  -0.00138  -0.00011  -0.00818  -0.00829   1.94790
    A2        1.93757  -0.00010  -0.00003  -0.00052  -0.00055   1.93702
    A3        1.93758   0.00009  -0.00003   0.00069   0.00066   1.93824
    A4        1.87817   0.00033   0.00005   0.00186   0.00191   1.88008
    A5        1.87819   0.00060   0.00005   0.00354   0.00359   1.88178
    A6        1.87259   0.00056   0.00006   0.00321   0.00327   1.87586
    A7        1.97418  -0.00222  -0.00009  -0.01061  -0.01072   1.96346
    A8        1.90870   0.00095   0.00001   0.00314   0.00313   1.91184
    A9        1.90873   0.00093   0.00001   0.00232   0.00230   1.91103
   A10        1.91077   0.00006  -0.00000   0.00049   0.00049   1.91126
   A11        1.91077  -0.00006  -0.00000  -0.00067  -0.00069   1.91008
   A12        1.84632   0.00053   0.00008   0.00650   0.00658   1.85290
   A13        1.95560  -0.00117  -0.00011  -0.00736  -0.00748   1.94812
   A14        1.93787  -0.00011  -0.00003  -0.00031  -0.00034   1.93753
   A15        1.93787  -0.00014  -0.00003  -0.00053  -0.00056   1.93731
   A16        1.87760   0.00063   0.00006   0.00327   0.00332   1.88092
   A17        1.87760   0.00065   0.00006   0.00337   0.00342   1.88102
   A18        1.87378   0.00023   0.00006   0.00215   0.00221   1.87599
    D1        1.02127  -0.00032   0.00000   0.00000   0.00000   1.02127
    D2        3.14157   0.00004  -0.00000   0.00112   0.00112  -3.14050
    D3       -1.04165  -0.00003  -0.00002   0.00006   0.00003  -1.04161
    D4        1.04160   0.00011   0.00002   0.00221   0.00223   1.04383
    D5        1.00829   0.00030   0.00005   0.00402   0.00407   1.01236
    D6        3.10826   0.00024   0.00003   0.00295   0.00298   3.11125
    D7       -1.09167   0.00037   0.00007   0.00511   0.00517  -1.08650
    D8       -1.00832  -0.00033  -0.00005  -0.00368  -0.00372  -1.01204
    D9        1.09165  -0.00040  -0.00007  -0.00474  -0.00481   1.08685
   D10       -3.10828  -0.00026  -0.00003  -0.00259  -0.00262  -3.11090
         Item               Value     Threshold  Converged?
 Maximum Force            0.002219     0.000450     NO 
 RMS     Force            0.000637     0.000300     NO 
 Maximum Displacement     0.018325     0.001800     NO 
 RMS     Displacement     0.007089     0.001200     NO 
 Predicted change in Energy=-3.990929D-05
 GradGradGradGradGradGradGradGradGradGradGradGradGradGradGradGradGradGrad

                          Input orientation:                          
 ---------------------------------------------------------------------
 Center     Atomic      Atomic             Coordinates (Angstroms)
 Number     Number       Type             X           Y           Z
 ---------------------------------------------------------------------
      1          6           0       -0.970265    0.673013    0.000761
      2          6           0        0.553900    0.663816    0.000530
      3          1           0       -1.365078    1.687685   -0.005737
      4          1           0       -1.363989    0.158041   -0.876079
      5          1           0       -1.364903    0.167064    0.882401
      6          6           0        1.128528   -0.747615   -0.001132
      7          1           0        0.922093    1.208227   -0.870780
      8          1           0        0.921504    1.204623    0.874328
      9          1           0        2.217330   -0.737483   -0.000171
     10          1           0        0.800153   -1.304483    0.876957
     11          1           0        0.801586   -1.301573   -0.881560
 ---------------------------------------------------------------------
                    Distance matrix (angstroms):
                    1          2          3          4          5
     1  C    0.000000
     2  C    1.524193   0.000000
     3  H    1.088797   2.175046   0.000000
     4  H    1.090442   2.168537   1.759917   0.000000
     5  H    1.090418   2.169393   1.760987   1.758503   0.000000
     6  C    2.534387   1.523922   3.485509   2.792558   2.799012
     7  H    2.151059   1.091389   2.491853   2.515768   3.063987
     8  H    2.150469   1.091387   2.497263   3.063125   2.510827
     9  H    3.485722   2.175003   4.326097   3.794077   3.798623
    10  H    2.795101   2.168633   3.797426   3.145730   2.617814
    11  H    2.795878   2.168453   3.794359   2.611555   3.156284
                    6          7          8          9         10
     6  C    0.000000
     7  H    2.150400   0.000000
     8  H    2.149540   1.745112   0.000000
     9  H    1.088850   2.494270   2.493129   0.000000
    10  H    1.090400   3.063195   2.512041   1.760464   0.000000
    11  H    1.090373   2.512715   3.062441   1.760504   1.758520
                   11
    11  H    0.000000
 Symmetry turned off by external request.
 Stoichiometry    C3H8
 Framework group  C1[X(C3H8)]
 Deg. of freedom    27
 Full point group                 C1      NOp   1
 Rotational constants (GHZ):          29.6171583           8.4922383           7.5124690
 Standard basis: CC-pVTZ (5D, 7F)
   202 basis functions,   292 primitive gaussians,   225 cartesian basis functions
    13 alpha electrons       13 beta electrons
       nuclear repulsion energy        82.7704753192 Hartrees.
 NAtoms=   11 NActive=   11 NUniq=   11 SFac= 1.00D+00 NAtFMM=   60 NAOKFM=F Big=F
 Integral buffers will be    131072 words long.
 Raffenetti 2 integral format.
 Two-electron integral symmetry is turned off.
 Nuclear repulsion after empirical dispersion term =       82.7661493328 Hartrees.
 One-electron integrals computed using PRISM.
 NBasis=   202 RedAO= T EigKep=  9.18D-04  NBF=   202
 NBsUse=   202 1.00D-06 EigRej= -1.00D+00 NBFU=   202
 Initial guess from the checkpoint file:  "/localscratch/339543/Gau-14630.chk"
 B after Tr=     0.000076    0.000371    0.000128
         Rot=    1.000000    0.000197   -0.000062   -0.000074 Ang=   0.03 deg.
 Initial guess <Sx>= 0.0000 <Sy>= 0.0000 <Sz>= 0.0000 <S**2>= 0.0000 S= 0.0000
 Keep R1 and R2 ints in memory in canonical form, NReq=462601976.
 Requested convergence on RMS density matrix=1.00D-08 within 500 cycles.
 Requested convergence on MAX density matrix=1.00D-06.
 Requested convergence on             energy=1.00D-06.
 No special actions if energy rises.
 SCF Done:  E(UB2PLYPD3) =  -118.887573240     A.U. after    7 cycles
            NFock=  7  Conv=0.33D-08     -V/T= 2.0048
 <Sx>= 0.0000 <Sy>= 0.0000 <Sz>= 0.0000 <S**2>=-0.0000 S=-0.0000
 <L.S>=  0.00000000000    
 Annihilation of the first spin contaminant:
 S**2 before annihilation    -0.0000,   after     0.0000
 DoSCS=T DFT=T ScalE2(SS,OS)=  0.270000  0.270000
 ExpMin= 1.03D-01 ExpMax= 8.24D+03 ExpMxC= 2.81D+02 IAcc=3 IRadAn=         5 AccDes= 0.00D+00
 HarFok:  IExCor=  205 AccDes= 0.00D+00 IRadAn=         5 IDoV=-2 UseB2=F ITyADJ=14
 ICtDFT= 12500011 ScaDFX=  1.000000  1.000000  1.000000  1.000000
 Range of M.O.s used for correlation:     4   202
 NBasis=   202 NAE=    13 NBE=    13 NFC=     3 NFV=     0
 NROrb=    199 NOA=    10 NOB=    10 NVA=   189 NVB=   189

 **** Warning!!: The largest alpha MO coefficient is  0.14028618D+02


 **** Warning!!: The largest beta MO coefficient is  0.14028618D+02

 DoSCS=T DFT=T ScalE2(SS,OS)=  0.270000  0.270000
 Fully direct method using O(ONN) memory.
 JobTyp=2 Pass  1:  I=   4 to  13 NPSUse= 40 ParTrn=T ParDer=T DoDerP=T.
 JobTyp=3 Pass  1:  I=   4 to  13 NPSUse= 40 ParTrn=T ParDer=T DoDerP=T.
 Spin components of T(2) and E(2):
     alpha-alpha T2 =       0.2893453960D-01 E2=     -0.1879784111D-01
     alpha-beta  T2 =       0.1930700022D+00 E2=     -0.1388704148D+00
     beta-beta   T2 =       0.2893453960D-01 E2=     -0.1879784111D-01
 (S**2,0)=  0.00000D+00           (S**2,1)=  0.00000D+00
 E(PUHF)=      -0.11888757324D+03        E(PMP2)=      -0.11906403934D+03
 E2(B2PLYPD3) =    -0.1764660970D+00 E(B2PLYPD3) =    -0.11906403933683D+03
          IDoAtm=11111111111
          Differentiating once with respect to electric field.
                with respect to dipole field.
          Differentiating once with respect to nuclear coordinates.
 Keep R1 and R2 ints in memory in canonical form, NReq=462610058.
          There are     1 degrees of freedom in the 1st order CPHF.  IDoFFX=0 NUNeed=     1.
 LinEq1:  Iter=  0 NonCon=     1 RMS=4.78D-04 Max=7.26D-03 NDo=     1
 AX will form     1 AO Fock derivatives at one time.
 LinEq1:  Iter=  1 NonCon=     1 RMS=2.16D-04 Max=3.87D-03 NDo=     1
 LinEq1:  Iter=  2 NonCon=     1 RMS=4.05D-05 Max=5.64D-04 NDo=     1
 LinEq1:  Iter=  3 NonCon=     1 RMS=1.05D-05 Max=1.34D-04 NDo=     1
 LinEq1:  Iter=  4 NonCon=     1 RMS=3.14D-06 Max=3.83D-05 NDo=     1
 LinEq1:  Iter=  5 NonCon=     1 RMS=9.49D-07 Max=1.01D-05 NDo=     1
 LinEq1:  Iter=  6 NonCon=     1 RMS=1.62D-07 Max=1.67D-06 NDo=     1
 LinEq1:  Iter=  7 NonCon=     1 RMS=2.68D-08 Max=4.12D-07 NDo=     1
 LinEq1:  Iter=  8 NonCon=     1 RMS=2.74D-09 Max=4.58D-08 NDo=     1
 LinEq1:  Iter=  9 NonCon=     1 RMS=2.59D-10 Max=5.12D-09 NDo=     1
 LinEq1:  Iter= 10 NonCon=     0 RMS=7.59D-11 Max=8.62D-10 NDo=     1
 Linear equations converged to 1.000D-10 1.000D-09 after    10 iterations.
 End of Minotr F.D. properties file   721 does not exist.
 End of Minotr F.D. properties file   722 does not exist.
 End of Minotr F.D. properties file   788 does not exist.
 Calling FoFJK, ICntrl=  10002127 FMM=F ISym2X=0 I1Cent= 0 IOpClX= 1 NMat=1 NMatS=1 NMatT=0.
 -------------------------------------------------------------------
 Center     Atomic                   Forces (Hartrees/Bohr)
 Number     Number              X              Y              Z
 -------------------------------------------------------------------
      1        6          -0.000580056    0.000033276   -0.000220971
      2        6           0.000189305    0.000277555    0.000206728
      3        1          -0.000164088    0.000313338    0.000120894
      4        1           0.000121398   -0.000083603   -0.000104615
      5        1           0.000173517   -0.000030686    0.000096205
      6        6           0.000267786   -0.000665391   -0.000043620
      7        1          -0.000079234   -0.000041108   -0.000156241
      8        1          -0.000037522    0.000083379    0.000111650
      9        1           0.000315310   -0.000023880   -0.000001873
     10        1          -0.000108751    0.000084845    0.000109848
     11        1          -0.000097665    0.000052276   -0.000118006
 -------------------------------------------------------------------
 Cartesian Forces:  Max     0.000665391 RMS     0.000211886

 GradGradGradGradGradGradGradGradGradGradGradGradGradGradGradGradGradGrad
 Berny optimization.
 Using GEDIIS/GDIIS optimizer.
 FormGI is forming the generalized inverse of G from B-inverse, IUseBI=4.
 Internal  Forces:  Max     0.000652920 RMS     0.000184816
 Search for a local minimum.
 Step number   3 out of a maximum of  100 on scan point     1 out of    37
 All quantities printed in internal units (Hartrees-Bohrs-Radians)
 Mixed Optimization -- En-DIIS/RFO-DIIS
 Swapping is turned off.
 Update second derivatives using D2CorX and points    1    2    3
 DE= -3.81D-05 DEPred=-3.99D-05 R= 9.55D-01
 TightC=F SS=  1.41D+00  RLast= 2.23D-02 DXNew= 8.4507D-01 6.6793D-02
 Trust test= 9.55D-01 RLast= 2.23D-02 DXMaxT set to 5.02D-01
 ITU=  1  1  0
     Eigenvalues ---    0.00672   0.05574   0.05648   0.05762   0.06080
     Eigenvalues ---    0.14621   0.16000   0.16000   0.16000   0.16000
     Eigenvalues ---    0.16000   0.16000   0.16000   0.16003   0.17299
     Eigenvalues ---    0.22559   0.30647   0.31327   0.31639   0.31792
     Eigenvalues ---    0.31879   0.31880   0.31881   0.31911   0.32065
     Eigenvalues ---    0.361091000.000001000.000001000.000001000.00000
     Eigenvalues --- 1000.000001000.000001000.000001000.000001000.00000
     Eigenvalues --- 1000.000001000.000001000.00000
 En-DIIS/RFO-DIIS/Sim-DIIS IScMMF=       -3 using points:     3    2
 RFO step:  Lambda=-4.97568460D-06.
 DidBck=F Rises=F RFO-DIIS coefs:    1.05249   -0.05249
 Iteration  1 RMS(Cart)=  0.00105992 RMS(Int)=  0.00000122
 Iteration  2 RMS(Cart)=  0.00000109 RMS(Int)=  0.00000056
 Iteration  3 RMS(Cart)=  0.00000000 RMS(Int)=  0.00000056
 Iteration  1 RMS(Cart)=  0.00000000 RMS(Int)=  0.00000000
 Variable       Old X    -DE/DX   Delta X   Delta X   Delta X     New X
                                 (Linear)    (Quad)   (Total)
    R1        2.88031   0.00045  -0.00000   0.00137   0.00136   2.88167
    R2        2.05753   0.00035  -0.00014   0.00102   0.00088   2.05841
    R3        2.06064   0.00008  -0.00006   0.00022   0.00016   2.06080
    R4        2.06059   0.00003  -0.00006   0.00007   0.00001   2.06060
    R5        2.87979   0.00065  -0.00003   0.00197   0.00194   2.88174
    R6        2.06243   0.00008  -0.00017   0.00020   0.00004   2.06246
    R7        2.06242   0.00012  -0.00017   0.00033   0.00016   2.06258
    R8        2.05763   0.00032  -0.00013   0.00091   0.00078   2.05841
    R9        2.06056   0.00008  -0.00006   0.00021   0.00015   2.06071
   R10        2.06051   0.00010  -0.00006   0.00027   0.00021   2.06072
    A1        1.94790   0.00020  -0.00044   0.00115   0.00071   1.94861
    A2        1.93702  -0.00019  -0.00003  -0.00113  -0.00116   1.93586
    A3        1.93824  -0.00032   0.00003  -0.00188  -0.00185   1.93639
    A4        1.88008   0.00016   0.00010   0.00094   0.00104   1.88112
    A5        1.88178   0.00006   0.00019   0.00036   0.00054   1.88233
    A6        1.87586   0.00011   0.00017   0.00067   0.00084   1.87669
    A7        1.96346   0.00009  -0.00056   0.00016  -0.00040   1.96306
    A8        1.91184  -0.00007   0.00016  -0.00092  -0.00076   1.91107
    A9        1.91103  -0.00005   0.00012  -0.00024  -0.00012   1.91091
   A10        1.91126  -0.00007   0.00003  -0.00041  -0.00038   1.91088
   A11        1.91008  -0.00000  -0.00004   0.00027   0.00024   1.91032
   A12        1.85290   0.00010   0.00035   0.00119   0.00154   1.85443
   A13        1.94812   0.00012  -0.00039   0.00086   0.00046   1.94858
   A14        1.93753  -0.00021  -0.00002  -0.00136  -0.00138   1.93616
   A15        1.93731  -0.00016  -0.00003  -0.00102  -0.00105   1.93626
   A16        1.88092   0.00007   0.00017   0.00055   0.00072   1.88165
   A17        1.88102   0.00005   0.00018   0.00051   0.00069   1.88171
   A18        1.87599   0.00015   0.00012   0.00055   0.00066   1.87666
    D1        1.02127  -0.00016   0.00000   0.00000   0.00000   1.02127
    D2       -3.14050  -0.00002   0.00006  -0.00039  -0.00033  -3.14083
    D3       -1.04161  -0.00000   0.00000  -0.00004  -0.00004  -1.04165
    D4        1.04383  -0.00005   0.00012  -0.00092  -0.00080   1.04303
    D5        1.01236   0.00006   0.00021   0.00097   0.00118   1.01354
    D6        3.11125   0.00008   0.00016   0.00132   0.00147   3.11272
    D7       -1.08650   0.00003   0.00027   0.00044   0.00071  -1.08578
    D8       -1.01204  -0.00002  -0.00020  -0.00039  -0.00059  -1.01262
    D9        1.08685  -0.00000  -0.00025  -0.00004  -0.00030   1.08655
   D10       -3.11090  -0.00006  -0.00014  -0.00092  -0.00106  -3.11195
         Item               Value     Threshold  Converged?
 Maximum Force            0.000653     0.000450     NO 
 RMS     Force            0.000186     0.000300     YES
 Maximum Displacement     0.002786     0.001800     NO 
 RMS     Displacement     0.001060     0.001200     YES
 Predicted change in Energy=-2.487675D-06
 GradGradGradGradGradGradGradGradGradGradGradGradGradGradGradGradGradGrad

                          Input orientation:                          
 ---------------------------------------------------------------------
 Center     Atomic      Atomic             Coordinates (Angstroms)
 Number     Number       Type             X           Y           Z
 ---------------------------------------------------------------------
      1          6           0       -0.970673    0.673350    0.000587
      2          6           0        0.554215    0.664411    0.000779
      3          1           0       -1.366552    1.688110   -0.005651
      4          1           0       -1.362924    0.157469   -0.876486
      5          1           0       -1.363595    0.166715    0.882607
      6          6           0        1.128906   -0.748105   -0.001166
      7          1           0        0.921776    1.208187   -0.871217
      8          1           0        0.921387    1.205026    0.874982
      9          1           0        2.218130   -0.738723   -0.000234
     10          1           0        0.799387   -1.304005    0.877208
     11          1           0        0.800803   -1.301121   -0.881891
 ---------------------------------------------------------------------
                    Distance matrix (angstroms):
                    1          2          3          4          5
     1  C    0.000000
     2  C    1.524915   0.000000
     3  H    1.089265   2.176545   0.000000
     4  H    1.090528   2.168411   1.761030   0.000000
     5  H    1.090424   2.168713   1.761719   1.759117   0.000000
     6  C    2.535502   1.524950   3.487474   2.792036   2.798305
     7  H    2.151153   1.091408   2.493186   2.514735   3.063247
     8  H    2.151078   1.091471   2.498710   3.063184   2.509839
     9  H    3.487466   2.176557   4.328914   3.794065   3.798419
    10  H    2.794908   2.168617   3.797827   3.144351   2.615634
    11  H    2.795609   2.168692   3.794829   2.609450   3.154777
                    6          7          8          9         10
     6  C    0.000000
     7  H    2.151039   0.000000
     8  H    2.150679   1.746202   0.000000
     9  H    1.089265   2.495918   2.495136   0.000000
    10  H    1.090481   3.063181   2.511997   1.761329   0.000000
    11  H    1.090484   2.512245   3.062991   1.761371   1.759102
                   11
    11  H    0.000000
 Symmetry turned off by external request.
 Stoichiometry    C3H8
 Framework group  C1[X(C3H8)]
 Deg. of freedom    27
 Full point group                 C1      NOp   1
 Rotational constants (GHZ):          29.5949889           8.4866838           7.5075963
 Standard basis: CC-pVTZ (5D, 7F)
   202 basis functions,   292 primitive gaussians,   225 cartesian basis functions
    13 alpha electrons       13 beta electrons
       nuclear repulsion energy        82.7448420707 Hartrees.
 NAtoms=   11 NActive=   11 NUniq=   11 SFac= 1.00D+00 NAtFMM=   60 NAOKFM=F Big=F
 Integral buffers will be    131072 words long.
 Raffenetti 2 integral format.
 Two-electron integral symmetry is turned off.
 Nuclear repulsion after empirical dispersion term =       82.7405162709 Hartrees.
 One-electron integrals computed using PRISM.
 NBasis=   202 RedAO= T EigKep=  9.20D-04  NBF=   202
 NBsUse=   202 1.00D-06 EigRej= -1.00D+00 NBFU=   202
 Initial guess from the checkpoint file:  "/localscratch/339543/Gau-14630.chk"
 B after Tr=     0.000094    0.000172   -0.000025
         Rot=    1.000000   -0.000023    0.000029    0.000014 Ang=  -0.00 deg.
 Initial guess <Sx>= 0.0000 <Sy>= 0.0000 <Sz>= 0.0000 <S**2>=-0.0000 S=-0.0000
 Keep R1 and R2 ints in memory in canonical form, NReq=462601976.
 Requested convergence on RMS density matrix=1.00D-08 within 500 cycles.
 Requested convergence on MAX density matrix=1.00D-06.
 Requested convergence on             energy=1.00D-06.
 No special actions if energy rises.
 SCF Done:  E(UB2PLYPD3) =  -118.887564713     A.U. after    6 cycles
            NFock=  6  Conv=0.45D-08     -V/T= 2.0048
 <Sx>= 0.0000 <Sy>= 0.0000 <Sz>= 0.0000 <S**2>=-0.0000 S=-0.0000
 <L.S>=  0.00000000000    
 Annihilation of the first spin contaminant:
 S**2 before annihilation    -0.0000,   after    -0.0000
 DoSCS=T DFT=T ScalE2(SS,OS)=  0.270000  0.270000
 ExpMin= 1.03D-01 ExpMax= 8.24D+03 ExpMxC= 2.81D+02 IAcc=3 IRadAn=         5 AccDes= 0.00D+00
 HarFok:  IExCor=  205 AccDes= 0.00D+00 IRadAn=         5 IDoV=-2 UseB2=F ITyADJ=14
 ICtDFT= 12500011 ScaDFX=  1.000000  1.000000  1.000000  1.000000
 Range of M.O.s used for correlation:     4   202
 NBasis=   202 NAE=    13 NBE=    13 NFC=     3 NFV=     0
 NROrb=    199 NOA=    10 NOB=    10 NVA=   189 NVB=   189

 **** Warning!!: The largest alpha MO coefficient is  0.14006065D+02


 **** Warning!!: The largest beta MO coefficient is  0.14006065D+02

 DoSCS=T DFT=T ScalE2(SS,OS)=  0.270000  0.270000
 Fully direct method using O(ONN) memory.
 JobTyp=2 Pass  1:  I=   4 to  13 NPSUse= 40 ParTrn=T ParDer=T DoDerP=T.
 JobTyp=3 Pass  1:  I=   4 to  13 NPSUse= 40 ParTrn=T ParDer=T DoDerP=T.
 Spin components of T(2) and E(2):
     alpha-alpha T2 =       0.2894422565D-01 E2=     -0.1879733593D-01
     alpha-beta  T2 =       0.1931578802D+00 E2=     -0.1388828922D+00
     beta-beta   T2 =       0.2894422565D-01 E2=     -0.1879733593D-01
 (S**2,0)=  0.00000D+00           (S**2,1)=  0.00000D+00
 E(PUHF)=      -0.11888756471D+03        E(PMP2)=      -0.11906404228D+03
 E2(B2PLYPD3) =    -0.1764775640D+00 E(B2PLYPD3) =    -0.11906404227672D+03
          IDoAtm=11111111111
          Differentiating once with respect to electric field.
                with respect to dipole field.
          Differentiating once with respect to nuclear coordinates.
 Keep R1 and R2 ints in memory in canonical form, NReq=462610058.
          There are     1 degrees of freedom in the 1st order CPHF.  IDoFFX=0 NUNeed=     1.
 LinEq1:  Iter=  0 NonCon=     1 RMS=4.78D-04 Max=7.26D-03 NDo=     1
 AX will form     1 AO Fock derivatives at one time.
 LinEq1:  Iter=  1 NonCon=     1 RMS=2.17D-04 Max=3.88D-03 NDo=     1
 LinEq1:  Iter=  2 NonCon=     1 RMS=4.05D-05 Max=5.63D-04 NDo=     1
 LinEq1:  Iter=  3 NonCon=     1 RMS=1.05D-05 Max=1.35D-04 NDo=     1
 LinEq1:  Iter=  4 NonCon=     1 RMS=3.15D-06 Max=3.84D-05 NDo=     1
 LinEq1:  Iter=  5 NonCon=     1 RMS=9.51D-07 Max=1.01D-05 NDo=     1
 LinEq1:  Iter=  6 NonCon=     1 RMS=1.62D-07 Max=1.67D-06 NDo=     1
 LinEq1:  Iter=  7 NonCon=     1 RMS=2.68D-08 Max=4.14D-07 NDo=     1
 LinEq1:  Iter=  8 NonCon=     1 RMS=2.74D-09 Max=4.52D-08 NDo=     1
 LinEq1:  Iter=  9 NonCon=     1 RMS=2.51D-10 Max=5.05D-09 NDo=     1
 LinEq1:  Iter= 10 NonCon=     0 RMS=5.18D-11 Max=5.90D-10 NDo=     1
 Linear equations converged to 1.000D-10 1.000D-09 after    10 iterations.
 End of Minotr F.D. properties file   721 does not exist.
 End of Minotr F.D. properties file   722 does not exist.
 End of Minotr F.D. properties file   788 does not exist.
 Calling FoFJK, ICntrl=  10002127 FMM=F ISym2X=0 I1Cent= 0 IOpClX= 1 NMat=1 NMatS=1 NMatT=0.
 -------------------------------------------------------------------
 Center     Atomic                   Forces (Hartrees/Bohr)
 Number     Number              X              Y              Z
 -------------------------------------------------------------------
      1        6          -0.000180357    0.000039710   -0.000141750
      2        6           0.000074924    0.000001960    0.000077826
      3        1          -0.000010587    0.000002385    0.000093954
      4        1           0.000033870   -0.000002076   -0.000009168
      5        1           0.000014868   -0.000003009    0.000032632
      6        6           0.000090861   -0.000176200    0.000001966
      7        1           0.000007573    0.000015844   -0.000046619
      8        1          -0.000006107    0.000071539   -0.000013754
      9        1           0.000005993   -0.000004878    0.000000257
     10        1          -0.000015746    0.000021877    0.000022670
     11        1          -0.000015293    0.000032848   -0.000018014
 -------------------------------------------------------------------
 Cartesian Forces:  Max     0.000180357 RMS     0.000062138

 GradGradGradGradGradGradGradGradGradGradGradGradGradGradGradGradGradGrad
 Berny optimization.
 Using GEDIIS/GDIIS optimizer.
 FormGI is forming the generalized inverse of G from B-inverse, IUseBI=4.
 Internal  Forces:  Max     0.000159219 RMS     0.000046667
 Search for a local minimum.
 Step number   4 out of a maximum of  100 on scan point     1 out of    37
 All quantities printed in internal units (Hartrees-Bohrs-Radians)
 Mixed Optimization -- En-DIIS/RFO-DIIS
 Swapping is turned off.
 Update second derivatives using D2CorX and points    1    2    3    4
 DE= -2.94D-06 DEPred=-2.49D-06 R= 1.18D+00
 TightC=F SS=  1.41D+00  RLast= 5.37D-03 DXNew= 8.4507D-01 1.6106D-02
 Trust test= 1.18D+00 RLast= 5.37D-03 DXMaxT set to 5.02D-01
 ITU=  1  1  1  0
     Eigenvalues ---    0.00672   0.05609   0.05650   0.05755   0.05930
     Eigenvalues ---    0.13284   0.15997   0.16000   0.16000   0.16000
     Eigenvalues ---    0.16000   0.16000   0.16000   0.16094   0.17091
     Eigenvalues ---    0.22427   0.30245   0.31166   0.31355   0.31662
     Eigenvalues ---    0.31877   0.31879   0.31880   0.31911   0.32135
     Eigenvalues ---    0.344881000.000001000.000001000.000001000.00000
     Eigenvalues --- 1000.000001000.000001000.000001000.000001000.00000
     Eigenvalues --- 1000.000001000.000001000.00000
 En-DIIS/RFO-DIIS/Sim-DIIS IScMMF=       -3 using points:     4    3    2
 RFO step:  Lambda=-3.01311480D-07.
 DidBck=F Rises=F RFO-DIIS coefs:    1.22449   -0.21191   -0.01258
 Iteration  1 RMS(Cart)=  0.00033727 RMS(Int)=  0.00000019
 Iteration  2 RMS(Cart)=  0.00000010 RMS(Int)=  0.00000016
 Iteration  1 RMS(Cart)=  0.00000000 RMS(Int)=  0.00000000
 Variable       Old X    -DE/DX   Delta X   Delta X   Delta X     New X
                                 (Linear)    (Quad)   (Total)
    R1        2.88167   0.00014   0.00031   0.00028   0.00059   2.88226
    R2        2.05841   0.00001   0.00017  -0.00018  -0.00001   2.05840
    R3        2.06080  -0.00000   0.00002  -0.00006  -0.00004   2.06076
    R4        2.06060   0.00002  -0.00001   0.00007   0.00006   2.06067
    R5        2.88174   0.00014   0.00043   0.00016   0.00059   2.88232
    R6        2.06246   0.00005  -0.00003   0.00016   0.00013   2.06259
    R7        2.06258   0.00002  -0.00000   0.00004   0.00003   2.06262
    R8        2.05841   0.00001   0.00015  -0.00015  -0.00001   2.05841
    R9        2.06071   0.00001   0.00002   0.00000   0.00002   2.06073
   R10        2.06072   0.00000   0.00003  -0.00005  -0.00001   2.06070
    A1        1.94861   0.00003   0.00006   0.00008   0.00014   1.94875
    A2        1.93586  -0.00004  -0.00027  -0.00010  -0.00036   1.93550
    A3        1.93639  -0.00004  -0.00041   0.00010  -0.00031   1.93609
    A4        1.88112   0.00002   0.00026  -0.00003   0.00023   1.88135
    A5        1.88233  -0.00000   0.00017  -0.00012   0.00004   1.88237
    A6        1.87669   0.00003   0.00023   0.00006   0.00029   1.87699
    A7        1.96306  -0.00002  -0.00022  -0.00008  -0.00030   1.96276
    A8        1.91107   0.00001  -0.00013   0.00017   0.00004   1.91112
    A9        1.91091  -0.00000   0.00000  -0.00009  -0.00009   1.91082
   A10        1.91088   0.00000  -0.00008   0.00013   0.00005   1.91093
   A11        1.91032  -0.00000   0.00004  -0.00006  -0.00001   1.91030
   A12        1.85443   0.00001   0.00043  -0.00007   0.00036   1.85479
   A13        1.94858   0.00002   0.00001   0.00010   0.00011   1.94870
   A14        1.93616  -0.00004  -0.00031  -0.00002  -0.00033   1.93582
   A15        1.93626  -0.00005  -0.00024  -0.00020  -0.00044   1.93581
   A16        1.88165   0.00001   0.00020  -0.00001   0.00019   1.88184
   A17        1.88171   0.00002   0.00020  -0.00000   0.00019   1.88190
[...]
 Alpha virt. eigenvalues --    3.22103   3.23293   3.27325   3.28026   3.30268
 Alpha virt. eigenvalues --    3.32746   3.37818   3.40309   3.45595   3.48675
 Alpha virt. eigenvalues --    3.49778   3.50647   3.54919   3.55284   3.59958
 Alpha virt. eigenvalues --    3.61573   3.67092   3.67200   3.72184   3.72317
 Alpha virt. eigenvalues --    3.76079   3.84283   3.86027   3.87365   3.92252
 Alpha virt. eigenvalues --    3.92459   3.93081   3.95368   3.95845   3.98799
 Alpha virt. eigenvalues --    4.00148   4.06721   4.07816   4.08755   4.11720
 Alpha virt. eigenvalues --    4.15890   4.16426   4.17419   4.23186   4.26539
 Alpha virt. eigenvalues --    4.27585   4.28747   4.29378   4.33293   4.39869
 Alpha virt. eigenvalues --    4.42033   4.43239   4.45696   4.46127   4.46550
 Alpha virt. eigenvalues --    4.53426   4.57826   4.67664   4.68553   4.71195
 Alpha virt. eigenvalues --    4.89421   4.92770   4.93594   4.96654   4.99047
 Alpha virt. eigenvalues --    5.00966   5.04096   5.06502   5.09009   5.13321
 Alpha virt. eigenvalues --    5.19371   5.28626   5.28942   5.37768   5.44767
 Alpha virt. eigenvalues --    5.47795   5.50866   5.51083   5.51531   5.54215
 Alpha virt. eigenvalues --    5.54348   5.62343   5.65698   5.66319   5.68028
 Alpha virt. eigenvalues --    5.75908   6.05433   6.05899   6.07289   6.09253
 Alpha virt. eigenvalues --    6.12832  12.73026  13.61450  13.70452
  Beta  occ. eigenvalues --  -10.60527 -10.59654 -10.59653  -0.89526  -0.78331
  Beta  occ. eigenvalues --   -0.67528  -0.52828  -0.50518  -0.46234  -0.44405
  Beta  occ. eigenvalues --   -0.39603  -0.39554  -0.38697
  Beta virt. eigenvalues --    0.07977   0.11742   0.12383   0.12974   0.15455
  Beta virt. eigenvalues --    0.16996   0.18049   0.19706   0.22100   0.28580
  Beta virt. eigenvalues --    0.30081   0.30481   0.32111   0.35215   0.35592
  Beta virt. eigenvalues --    0.39809   0.43690   0.49115   0.49458   0.51659
  Beta virt. eigenvalues --    0.52416   0.54371   0.55398   0.55769   0.57000
  Beta virt. eigenvalues --    0.57535   0.57643   0.62677   0.66166   0.70913
  Beta virt. eigenvalues --    0.78666   0.79172   0.80728   0.85086   0.87098
  Beta virt. eigenvalues --    0.94892   0.96599   1.01610   1.03355   1.06032
  Beta virt. eigenvalues --    1.07910   1.09893   1.12276   1.14998   1.17150
  Beta virt. eigenvalues --    1.18634   1.20480   1.21052   1.25440   1.26461
  Beta virt. eigenvalues --    1.27342   1.28417   1.32312   1.33252   1.35549
  Beta virt. eigenvalues --    1.38792   1.39399   1.42321   1.46008   1.48097
  Beta virt. eigenvalues --    1.48717   1.52047   1.56555   1.60335   1.60957
  Beta virt. eigenvalues --    1.65396   1.67107   1.72304   1.76631   2.30416
  Beta virt. eigenvalues --    2.35126   2.36038   2.41989   2.43900   2.48584
  Beta virt. eigenvalues --    2.55046   2.57445   2.59117   2.63139   2.63215
  Beta virt. eigenvalues --    2.66253   2.73901   2.74681   2.77757   2.81962
  Beta virt. eigenvalues --    2.88741   2.91102   2.93035   2.94545   2.94776
  Beta virt. eigenvalues --    2.96736   3.02365   3.04484   3.04958   3.14064
  Beta virt. eigenvalues --    3.14556   3.17199   3.18294   3.18331   3.20425
  Beta virt. eigenvalues --    3.22103   3.23293   3.27325   3.28026   3.30268
  Beta virt. eigenvalues --    3.32746   3.37818   3.40309   3.45595   3.48675
  Beta virt. eigenvalues --    3.49778   3.50647   3.54919   3.55284   3.59958
  Beta virt. eigenvalues --    3.61573   3.67092   3.67200   3.72184   3.72317
  Beta virt. eigenvalues --    3.76079   3.84283   3.86027   3.87365   3.92252
  Beta virt. eigenvalues --    3.92459   3.93081   3.95368   3.95845   3.98799
  Beta virt. eigenvalues --    4.00148   4.06721   4.07816   4.08755   4.11720
  Beta virt. eigenvalues --    4.15890   4.16426   4.17419   4.23186   4.26539
  Beta virt. eigenvalues --    4.27585   4.28747   4.29378   4.33293   4.39869
  Beta virt. eigenvalues --    4.42033   4.43239   4.45696   4.46127   4.46550
  Beta virt. eigenvalues --    4.53426   4.57826   4.67664   4.68553   4.71195
  Beta virt. eigenvalues --    4.89421   4.92770   4.93594   4.96654   4.99047
  Beta virt. eigenvalues --    5.00966   5.04096   5.06502   5.09009   5.13321
  Beta virt. eigenvalues --    5.19371   5.28626   5.28942   5.37768   5.44767
  Beta virt. eigenvalues --    5.47795   5.50866   5.51083   5.51531   5.54215
  Beta virt. eigenvalues --    5.54348   5.62343   5.65698   5.66319   5.68028
  Beta virt. eigenvalues --    5.75908   6.05433   6.05899   6.07289   6.09253
  Beta virt. eigenvalues --    6.12832  12.73026  13.61450  13.70452
          Condensed to atoms (all electrons):
               1          2          3          4          5          6
     1  C    4.848123   0.344520   0.412837   0.408397   0.408501  -0.052088
     2  C    0.344520   4.844832  -0.035349  -0.036333  -0.036237   0.344505
     3  H    0.412837  -0.035349   0.587962  -0.031363  -0.031256   0.007475
     4  H    0.408397  -0.036333  -0.031363   0.602043  -0.034113  -0.004465
     5  H    0.408501  -0.036237  -0.031256  -0.034113   0.601630  -0.004346
     6  C   -0.052088   0.344505   0.007475  -0.004465  -0.004346   4.848192
     7  H   -0.037022   0.417009  -0.004790  -0.005942   0.007849  -0.037051
     8  H   -0.037068   0.416956  -0.004640   0.007866  -0.006105  -0.037059
     9  H    0.007472  -0.035334  -0.000408  -0.000083  -0.000093   0.412836
    10  H   -0.004356  -0.036289  -0.000089  -0.000397   0.003828   0.408402
    11  H   -0.004448  -0.036276  -0.000088   0.003864  -0.000387   0.408487
               7          8          9         10         11
     1  C   -0.037022  -0.037068   0.007472  -0.004356  -0.004448
     2  C    0.417009   0.416956  -0.035334  -0.036289  -0.036276
     3  H   -0.004790  -0.004640  -0.000408  -0.000089  -0.000088
     4  H   -0.005942   0.007866  -0.000083  -0.000397   0.003864
     5  H    0.007849  -0.006105  -0.000093   0.003828  -0.000387
     6  C   -0.037051  -0.037059   0.412836   0.408402   0.408487
     7  H    0.612449  -0.039568  -0.004711   0.007860  -0.006021
     8  H   -0.039568   0.612599  -0.004716  -0.006028   0.007858
     9  H   -0.004711  -0.004716   0.587948  -0.031306  -0.031312
    10  H    0.007860  -0.006028  -0.031306   0.601874  -0.034114
    11  H   -0.006021   0.007858  -0.031312  -0.034114   0.601809
          Atomic-Atomic Spin Densities.
               1          2          3          4          5          6
     1  C    0.000000  -0.000000  -0.000000  -0.000000   0.000000  -0.000000
     2  C   -0.000000   0.000000  -0.000000   0.000000   0.000000  -0.000000
     3  H   -0.000000  -0.000000  -0.000000   0.000000   0.000000   0.000000
     4  H   -0.000000   0.000000   0.000000  -0.000000   0.000000  -0.000000
     5  H    0.000000   0.000000   0.000000   0.000000  -0.000000  -0.000000
     6  C   -0.000000  -0.000000   0.000000  -0.000000  -0.000000   0.000000
     7  H   -0.000000   0.000000   0.000000  -0.000000  -0.000000  -0.000000
     8  H   -0.000000   0.000000   0.000000  -0.000000  -0.000000  -0.000000
     9  H    0.000000   0.000000   0.000000   0.000000  -0.000000  -0.000000
    10  H    0.000000   0.000000   0.000000  -0.000000  -0.000000   0.000000
    11  H   -0.000000   0.000000   0.000000   0.000000  -0.000000   0.000000
               7          8          9         10         11
     1  C   -0.000000  -0.000000   0.000000   0.000000  -0.000000
     2  C    0.000000   0.000000   0.000000   0.000000   0.000000
     3  H    0.000000   0.000000   0.000000   0.000000   0.000000
     4  H   -0.000000  -0.000000   0.000000  -0.000000   0.000000
     5  H   -0.000000  -0.000000  -0.000000  -0.000000  -0.000000
     6  C   -0.000000  -0.000000  -0.000000   0.000000   0.000000
     7  H    0.000000   0.000000  -0.000000   0.000000   0.000000
     8  H    0.000000  -0.000000   0.000000  -0.000000  -0.000000
     9  H   -0.000000   0.000000  -0.000000   0.000000   0.000000
    10  H    0.000000  -0.000000   0.000000  -0.000000   0.000000
    11  H    0.000000  -0.000000   0.000000   0.000000  -0.000000
 Mulliken charges and spin densities:
               1          2
     1  C   -0.294869   0.000000
     2  C   -0.152004   0.000000
     3  H    0.099710  -0.000000
     4  H    0.090523  -0.000000
     5  H    0.090730  -0.000000
     6  C   -0.294887   0.000000
     7  H    0.089938   0.000000
     8  H    0.089906  -0.000000
     9  H    0.099707  -0.000000
    10  H    0.090616  -0.000000
    11  H    0.090629  -0.000000
 Sum of Mulliken charges =  -0.00000  -0.00000
 Mulliken charges and spin densities with hydrogens summed into heavy atoms:
               1          2
     1  C   -0.013906  -0.000000
     2  C    0.027840  -0.000000
     6  C   -0.013934  -0.000000
 Electronic spatial extent (au):  <R**2>=            232.8234
 Charge=             -0.0000 electrons
 Dipole moment (field-independent basis, Debye):
    X=              0.0276    Y=              0.0016    Z=              0.0784  Tot=              0.0831
 Quadrupole moment (field-independent basis, Debye-Ang):
   XX=            -22.3092   YY=            -21.6199   ZZ=            -22.0669
   XY=              0.2359   XZ=              0.1134   YZ=             -0.0770
 Traceless Quadrupole moment (field-independent basis, Debye-Ang):
   XX=             -0.3105   YY=              0.3787   ZZ=             -0.0682
   XY=              0.2359   XZ=              0.1134   YZ=             -0.0770
 Octapole moment (field-independent basis, Debye-Ang**2):
  XXX=            -13.3591  YYY=             -9.9173  ZZZ=             -1.2637  XYY=             -4.7478
  XXY=             -3.6205  XXZ=              0.2835  XZZ=             -5.4296  YZZ=             -3.0010
  YYZ=             -0.8953  XYZ=             -0.4276
 Hexadecapole moment (field-independent basis, Debye-Ang**3):
 XXXX=           -183.6492 YYYY=            -61.8828 ZZZZ=            -84.8624 XXXY=             18.5283
 XXXZ=             19.0023 YYYX=             19.7164 YYYZ=             -8.1465 ZZZX=             17.4236
 ZZZY=             -8.2319 XXYY=            -41.3601 XXZZ=            -45.0361 YYZZ=            -22.7216
 XXYZ=             -2.2353 YYXZ=              6.4967 ZZXY=              6.4303
 N-N= 8.273359117668D+01 E-N=-4.403728190050D+02  KE= 1.183163848341D+02
                          Isotropic Fermi Contact Couplings
        Atom                 a.u.       MegaHertz       Gauss      10(-4) cm-1
     1  C(13)             -0.00000      -0.00000      -0.00000      -0.00000
     2  C(13)             -0.00000      -0.00000      -0.00000      -0.00000
     3  H(1)               0.00000       0.00000       0.00000       0.00000
     4  H(1)              -0.00000      -0.00000      -0.00000      -0.00000
     5  H(1)              -0.00000      -0.00000      -0.00000      -0.00000
     6  C(13)             -0.00000      -0.00000      -0.00000      -0.00000
     7  H(1)              -0.00000      -0.00000      -0.00000      -0.00000
     8  H(1)              -0.00000      -0.00000      -0.00000      -0.00000
     9  H(1)              -0.00000      -0.00000      -0.00000      -0.00000
    10  H(1)              -0.00000      -0.00000      -0.00000      -0.00000
    11  H(1)               0.00000       0.00000       0.00000       0.00000
 --------------------------------------------------------
       Center         ----  Spin Dipole Couplings  ----
                      3XX-RR        3YY-RR        3ZZ-RR
 --------------------------------------------------------
     1   Atom        0.000000      0.000000      0.000000
     2   Atom        0.000000      0.000000      0.000000
     3   Atom        0.000000      0.000000      0.000000
     4   Atom        0.000000      0.000000      0.000000
     5   Atom        0.000000      0.000000      0.000000
     6   Atom        0.000000      0.000000      0.000000
     7   Atom        0.000000      0.000000      0.000000
     8   Atom        0.000000      0.000000      0.000000
     9   Atom        0.000000      0.000000      0.000000
    10   Atom        0.000000      0.000000      0.000000
    11   Atom        0.000000      0.000000      0.000000
 --------------------------------------------------------
                        XY            XZ            YZ
 --------------------------------------------------------
     1   Atom        0.000000      0.000000      0.000000
     2   Atom        0.000000      0.000000      0.000000
     3   Atom        0.000000      0.000000      0.000000
     4   Atom        0.000000      0.000000      0.000000
     5   Atom        0.000000      0.000000      0.000000
     6   Atom        0.000000      0.000000      0.000000
     7   Atom        0.000000      0.000000      0.000000
     8   Atom        0.000000      0.000000      0.000000
     9   Atom        0.000000      0.000000      0.000000
    10   Atom        0.000000      0.000000      0.000000
    11   Atom        0.000000      0.000000      0.000000
 --------------------------------------------------------


 ---------------------------------------------------------------------------------
              Anisotropic Spin Dipole Couplings in Principal Axis System
 ---------------------------------------------------------------------------------

       Atom             a.u.   MegaHertz   Gauss  10(-4) cm-1        Axes

              Baa     0.0000     0.000     0.000     0.000  1.0000  0.0000  0.0000
     1 C(13)  Bbb     0.0000     0.000     0.000     0.000 -0.0000  1.0000  0.0000
              Bcc     0.0000     0.000     0.000     0.000  0.0000  0.0000  1.0000
 
              Baa     0.0000     0.000     0.000     0.000  1.0000  0.0000  0.0000
     2 C(13)  Bbb     0.0000     0.000     0.000     0.000 -0.0000  1.0000  0.0000
              Bcc     0.0000     0.000     0.000     0.000  0.0000  0.0000  1.0000
 
              Baa     0.0000     0.000     0.000     0.000  1.0000  0.0000  0.0000
     3 H(1)   Bbb     0.0000     0.000     0.000     0.000 -0.0000  1.0000  0.0000
              Bcc     0.0000     0.000     0.000     0.000  0.0000  0.0000  1.0000
 
              Baa     0.0000     0.000     0.000     0.000  1.0000  0.0000  0.0000
     4 H(1)   Bbb     0.0000     0.000     0.000     0.000 -0.0000  1.0000  0.0000
              Bcc     0.0000     0.000     0.000     0.000  0.0000  0.0000  1.0000
 
              Baa     0.0000     0.000     0.000     0.000  1.0000  0.0000  0.0000
     5 H(1)   Bbb     0.0000     0.000     0.000     0.000 -0.0000  1.0000  0.0000
              Bcc     0.0000     0.000     0.000     0.000  0.0000  0.0000  1.0000
 
              Baa     0.0000     0.000     0.000     0.000  1.0000  0.0000  0.0000
     6 C(13)  Bbb     0.0000     0.000     0.000     0.000 -0.0000  1.0000  0.0000
              Bcc     0.0000     0.000     0.000     0.000  0.0000  0.0000  1.0000
 
              Baa     0.0000     0.000     0.000     0.000  1.0000  0.0000  0.0000
     7 H(1)   Bbb     0.0000     0.000     0.000     0.000 -0.0000  1.0000  0.0000
              Bcc     0.0000     0.000     0.000     0.000  0.0000  0.0000  1.0000
 
              Baa     0.0000     0.000     0.000     0.000  1.0000  0.0000  0.0000
     8 H(1)   Bbb     0.0000     0.000     0.000     0.000 -0.0000  1.0000  0.0000
              Bcc     0.0000     0.000     0.000     0.000  0.0000  0.0000  1.0000
 
              Baa     0.0000     0.000     0.000     0.000  1.0000  0.0000  0.0000
     9 H(1)   Bbb     0.0000     0.000     0.000     0.000 -0.0000  1.0000  0.0000
              Bcc     0.0000     0.000     0.000     0.000  0.0000  0.0000  1.0000
 
              Baa     0.0000     0.000     0.000     0.000  1.0000  0.0000  0.0000
    10 H(1)   Bbb     0.0000     0.000     0.000     0.000 -0.0000  1.0000  0.0000
              Bcc     0.0000     0.000     0.000     0.000  0.0000  0.0000  1.0000
 
              Baa     0.0000     0.000     0.000     0.000  1.0000  0.0000  0.0000
    11 H(1)   Bbb     0.0000     0.000     0.000     0.000 -0.0000  1.0000  0.0000
              Bcc     0.0000     0.000     0.000     0.000  0.0000  0.0000  1.0000
 

 ---------------------------------------------------------------------------------

 1\1\GINC-N69\Scan\UB2PLYPD3-FC\CC-pVTZ\C3H8\ROOT\01-Jun-2019\0\\# opt=
 (maxcyc=500,modredundant) uB2PLYPD3/cc-pvtz scf=maxcyc=500 nosymm\\Tit
 le Card Required\\0,1\C,-1.0139906426,0.5201402871,0.1805502861\C,0.41
 32216462,0.1642310084,0.5836509474\H,-1.6163926468,0.8031267093,1.0428
 268358\H,-1.0234379251,1.3549707035,-0.521014522\H,-1.5031700225,-0.32
 40323704,-0.3064452641\C,1.2765014732,-0.2253746886,-0.6119411174\H,0.
 8678745455,1.0113370219,1.1003739579\H,0.3943543046,-0.6576477325,1.30
 16475951\H,2.2920031322,-0.4776098354,-0.3092518957\H,0.8580019958,-1.
 0894101867,-1.12908787\H,1.3358949094,0.5915841034,-1.3317909531\\Vers
 ion=ES64L-G16RevB.01\HF=-118.8875647,-118.8872299,-118.8863645,-118.88
 51486,-118.8838758,-118.8829086,-118.8825627,-118.8829645,-118.8839709
 ,-118.8852553,-118.8864559,-118.8872837,-118.8875634,-118.8872414,-118
 .8863795,-118.8851584,-118.8838747,-118.8829012,-118.8825631,-118.8829
 827,-118.8840071,-118.8852989,-118.886493,-118.8873044,-118.8875625,-1
 18.8872166,-118.8863366,-118.8851121,-118.883841,-118.8828863,-118.882
 5645,-118.8829919,-118.884013,-118.8852945,-118.8864821,-118.8872964,-
 118.8875629\MP2=-119.0640423,-119.0637268,-119.0628918,-119.061708,-11
 9.0604549,-119.059488,-119.0591324,-119.0595217,-119.0605119,-119.0617
 735,-119.06295,-119.0637622,-119.064043,-119.0637406,-119.0629093,-119
 .0617169,-119.0604497,-119.059477,-119.0591326,-119.0595452,-119.06055
 93,-119.0618323,-119.0630021,-119.0637917,-119.0640417,-119.0637064,-1
 19.0628513,-119.0616552,-119.0604047,-119.059457,-119.0591343,-119.059
 5591,-119.06057,-119.0618293,-119.0629888,-119.0637799,-119.0640429\PU
 HF=-118.8875647,-118.8872299,-118.8863645,-118.8851486,-118.8838758,-1
 18.8829086,-118.8825627,-118.8829645,-118.8839709,-118.8852553,-118.88
 64559,-118.8872837,-118.8875634,-118.8872414,-118.8863795,-118.8851584
 ,-118.8838747,-118.8829012,-118.8825631,-118.8829827,-118.8840071,-118
 .8852989,-118.886493,-118.8873044,-118.8875625,-118.8872166,-118.88633
 66,-118.8851121,-118.883841,-118.8828863,-118.8825645,-118.8829919,-11
 8.884013,-118.8852945,-118.8864821,-118.8872964,-118.8875629\PMP2-0=-1
 19.0640423,-119.0637268,-119.0628918,-119.061708,-119.0604549,-119.059
 488,-119.0591324,-119.0595217,-119.0605119,-119.0617735,-119.06295,-11
 9.0637622,-119.064043,-119.0637406,-119.0629093,-119.0617169,-119.0604
 497,-119.059477,-119.0591326,-119.0595452,-119.0605593,-119.0618323,-1
 19.0630021,-119.0637917,-119.0640417,-119.0637064,-119.0628513,-119.06
 16552,-119.0604047,-119.059457,-119.0591343,-119.0595591,-119.06057,-1
 19.0618293,-119.0629888,-119.0637799,-119.0640429\S2=0.,0.,0.,0.,0.,0.
 ,0.,0.,0.,0.,0.,0.,0.,0.,0.,0.,0.,0.,0.,0.,0.,0.,0.,0.,0.,0.,0.,0.,0.,
 0.,0.,0.,0.,0.,0.,0.,0.\S2-1=0.,0.,0.,0.,0.,0.,0.,0.,0.,0.,0.,0.,0.,0.
 ,0.,0.,0.,0.,0.,0.,0.,0.,0.,0.,0.,0.,0.,0.,0.,0.,0.,0.,0.,0.,0.,0.,0.\
 S2A=0.,0.,0.,0.,0.,0.,0.,0.,0.,0.,0.,0.,0.,0.,0.,0.,0.,0.,0.,0.,0.,0.,
 0.,0.,0.,0.,0.,0.,0.,0.,0.,0.,0.,0.,0.,0.,0.\RMSD=4.534e-09,7.870e-09,
 4.446e-09,3.247e-09,3.380e-09,2.221e-09,2.494e-09,2.977e-09,5.319e-09,
 3.627e-09,8.633e-09,5.645e-09,6.861e-09,6.590e-09,5.312e-09,3.262e-09,
 7.204e-09,5.261e-09,2.427e-09,2.563e-09,5.459e-09,3.761e-09,9.732e-09,
 5.799e-09,6.326e-09,5.882e-09,4.273e-09,2.899e-09,3.906e-09,2.203e-09,
 6.349e-09,9.473e-09,4.906e-09,3.276e-09,2.698e-09,5.971e-09,8.066e-09\
 PG=C01 [X(C3H8)]\\@


 BREAD HAS TO MOLD IN ORDER TO GET PENICILLIN.
          -- JERRY BOATZ
 Job cpu time:       1 days 12 hours 14 minutes 53.0 seconds.
 Elapsed time:       0 days  1 hours 14 minutes  7.4 seconds.
 File lengths (MBytes):  RWF=     40 Int=      0 D2E=      0 Chk=     10 Scr=      1
 Normal termination of Gaussian 16 at Sat Jun  1 02:44:10 2019.
