 Entering Gaussian System, Link 0=g16
 Initial command:
 /ichec/packages/gaussian/16b01/l1.exe "/localscratch/339542/Gau-49554.inp" -scrdir="/localscratch/339542/"
 Entering Link 1 = /ichec/packages/gaussian/16b01/l1.exe PID=     49555.
  
 Copyright (c) 1988-2017, Gaussian, Inc.  All Rights Reserved.
  
 This is part of the Gaussian(R) 16 program.  It is based on
 the Gaussian(R) 09 system (copyright 2009, Gaussian, Inc.),
 the Gaussian(R) 03 system (copyright 2003, Gaussian, Inc.),
 the Gaussian(R) 98 system (copyright 1998, Gaussian, Inc.),
 the Gaussian(R) 94 system (copyright 1995, Gaussian, Inc.),
 the Gaussian 92(TM) system (copyright 1992, Gaussian, Inc.),
 the Gaussian 90(TM) system (copyright 1990, Gaussian, Inc.),
 the Gaussian 88(TM) system (copyright 1988, Gaussian, Inc.),
 the Gaussian 86(TM) system (copyright 1986, Carnegie Mellon
 University), and the Gaussian 82(TM) system (copyright 1983,
 Carnegie Mellon University). Gaussian is a federally registered
 trademark of Gaussian, Inc.
  
 This software contains proprietary and confidential information,
 including trade secrets, belonging to Gaussian, Inc.
  
 This software is provided under written license and may be
 used, copied, transmitted, or stored only in accord with that
 written license.
  
 The following legend is applicable only to US Government
 contracts under FAR:
  
                    RESTRICTED RIGHTS LEGEND
  
 Use, reproduction and disclosure by the US Government is
 subject to restrictions as set forth in subparagraphs (a)
 and (c) of the Commercial Computer Software - Restricted
 Rights clause in FAR 52.227-19.
  
 Gaussian, Inc.
 340 Quinnipiac St., Bldg. 40, Wallingford CT 06492
  
  
 ---------------------------------------------------------------
 Warning -- This program may not be used in any manner that
 competes with the business of Gaussian, Inc. or will provide
 assistance to any competitor of Gaussian, Inc.  The licensee
 of this program is prohibited from giving any competitor of
 Gaussian, Inc. access to this program.  By using this program,
 the user acknowledges that Gaussian, Inc. is engaged in the
 business of creating and licensing software in the field of
 computational chemistry and represents and warrants to the
 licensee that it is not a competitor of Gaussian, Inc. and that
 it will not use this program in any manner prohibited above.
 ---------------------------------------------------------------
  

 Cite this work as:
 Gaussian 16, Revision B.01,
 M. J. Frisch, G. W. Trucks, H. B. Schlegel, G. E. Scuseria, 
 M. A. Robb, J. R. Cheeseman, G. Scalmani, V. Barone, 
 G. A. Petersson, H. Nakatsuji, X. Li, M. Caricato, A. V. Marenich, 
 J. Bloino, B. G. Janesko, R. Gomperts, B. Mennucci, H. P. Hratchian, 
 J. V. Ortiz, A. F. Izmaylov, J. L. Sonnenberg, D. Williams-Young, 
 F. Ding, F. Lipparini, F. Egidi, J. Goings, B. Peng, A. Petrone, 
 T. Henderson, D. Ranasinghe, V. G. Zakrzewski, J. Gao, N. Rega, 
 G. Zheng, W. Liang, M. Hada, M. Ehara, K. Toyota, R. Fukuda, 
 J. Hasegawa, M. Ishida, T. Nakajima, Y. Honda, O. Kitao, H. Nakai, 
 T. Vreven, K. Throssell, J. A. Montgomery, Jr., J. E. Peralta, 
 F. Ogliaro, M. J. Bearpark, J. J. Heyd, E. N. Brothers, K. N. Kudin, 
 V. N. Staroverov, T. A. Keith, R. Kobayashi, J. Normand, 
 K. Raghavachari, A. P. Rendell, J. C. Burant, S. S. Iyengar, 
 J. Tomasi, M. Cossi, J. M. Millam, M. Klene, C. Adamo, R. Cammi, 
 J. W. Ochterski, R. L. Martin, K. Morokuma, O. Farkas, 
 J. B. Foresman, and D. J. Fox, Gaussian, Inc., Wallingford CT, 2016.
 
 ******************************************
 Gaussian 16:  ES64L-G16RevB.01 20-Dec-2017
                31-May-2019 
 ******************************************
 %mem=80GB
 %nproc=40
 Will use up to   40 processors via shared memory.
 -----------------------------------------------
 # opt=maxcyc=500 freq=noraman uB2PLYPD3/cc-pvtz
 -----------------------------------------------
 1/6=500,18=20,19=15,38=1/1,3;
 2/9=110,12=2,17=6,18=5,40=1/2;
 3/5=16,6=1,11=2,25=1,30=1,71=1,74=-60,116=2/1,2,3;
 4//1;
 5/5=2,38=5/2;
 8/6=4,10=1/1;
 9/15=2,16=-3/6;
 10/5=1/2;
 6/7=2,8=2,9=2,10=2/1;
 7/12=2/1,2,3,16;
 1/6=500,18=20,19=15/3(2);
 2/9=110/2;
 99//99;
 2/9=110/2;
 3/5=16,6=1,11=2,25=1,30=1,71=1,74=-60,116=2/1,2,3;
 4/5=5,16=3,69=1/1;
 5/5=2,38=5/2;
 8/6=4,10=1/1;
 9/15=2,16=-3/6;
 10/5=1/2;
 7/12=2/1,2,3,16;
 1/6=500,18=20,19=15/3(-8);
 2/9=110/2;
 6/7=2,8=2,9=2,10=2/1;
 99/9=10/99;
 -------------------
 Title Card Required
 -------------------
 Symbolic Z-matrix:
 Charge =  0 Multiplicity = 2
 C                    -0.95602   0.65966   0. 
 C                     0.55113   0.65966   0. 
 H                    -1.34584   1.70602   0. 
 H                    -1.34955   0.13646  -0.90491 
 H                    -1.34965   0.13635   0.90479 
 C                     1.11087  -0.73967  -0.00007 
 H                     0.92519   1.21237  -0.90237 
 H                     0.92527   1.21232   0.90236 
 H                     2.22715  -0.71308  -0.00013 
 H                     0.77112  -1.29935  -0.90496 
 

 GradGradGradGradGradGradGradGradGradGradGradGradGradGradGradGradGradGrad
 Berny optimization.
 Initialization pass.
                           ----------------------------
                           !    Initial Parameters    !
                           ! (Angstroms and Degrees)  !
 --------------------------                            --------------------------
 ! Name  Definition              Value          Derivative Info.                !
 --------------------------------------------------------------------------------
 ! R1    R(1,2)                  1.5072         estimate D2E/DX2                !
 ! R2    R(1,3)                  1.1166         estimate D2E/DX2                !
 ! R3    R(1,4)                  1.1169         estimate D2E/DX2                !
 ! R4    R(1,5)                  1.1169         estimate D2E/DX2                !
 ! R5    R(2,6)                  1.5071         estimate D2E/DX2                !
 ! R6    R(2,7)                  1.1224         estimate D2E/DX2                !
 ! R7    R(2,8)                  1.1224         estimate D2E/DX2                !
 ! R8    R(6,9)                  1.1166         estimate D2E/DX2                !
 ! R9    R(6,10)                 1.1169         estimate D2E/DX2                !
 ! A1    A(2,1,3)              110.4325         estimate D2E/DX2                !
 ! A2    A(2,1,4)              110.6308         estimate D2E/DX2                !
 ! A3    A(2,1,5)              110.6361         estimate D2E/DX2                !
 ! A4    A(3,1,4)              108.4186         estimate D2E/DX2                !
 ! A5    A(3,1,5)              108.4228         estimate D2E/DX2                !
 ! A6    A(4,1,5)              108.2212         estimate D2E/DX2                !
 ! A7    A(1,2,6)              111.802          estimate D2E/DX2                !
 ! A8    A(1,2,7)              109.4684         estimate D2E/DX2                !
 ! A9    A(1,2,8)              109.4724         estimate D2E/DX2                !
 ! A10   A(6,2,7)              109.4761         estimate D2E/DX2                !
 ! A11   A(6,2,8)              109.4767         estimate D2E/DX2                !
 ! A12   A(7,2,8)              107.0263         estimate D2E/DX2                !
 ! A13   A(2,6,9)              110.4371         estimate D2E/DX2                !
 ! A14   A(2,6,10)             110.629          estimate D2E/DX2                !
 ! A15   A(9,6,10)             108.421          estimate D2E/DX2                !
 ! D1    D(3,1,2,6)           -179.9971         estimate D2E/DX2                !
 ! D2    D(3,1,2,7)            -58.5119         estimate D2E/DX2                !
 ! D3    D(3,1,2,8)             58.5143         estimate D2E/DX2                !
 ! D4    D(4,1,2,6)            -59.9619         estimate D2E/DX2                !
 ! D5    D(4,1,2,7)             61.5233         estimate D2E/DX2                !
 ! D6    D(4,1,2,8)            178.5495         estimate D2E/DX2                !
 ! D7    D(5,1,2,6)             59.959          estimate D2E/DX2                !
 ! D8    D(5,1,2,7)           -178.5558         estimate D2E/DX2                !
 ! D9    D(5,1,2,8)            -61.5296         estimate D2E/DX2                !
 ! D10   D(1,2,6,9)            179.9967         estimate D2E/DX2                !
 ! D11   D(1,2,6,10)            59.9566         estimate D2E/DX2                !
 ! D12   D(7,2,6,9)             58.516          estimate D2E/DX2                !
 ! D13   D(7,2,6,10)           -61.5241         estimate D2E/DX2                !
 ! D14   D(8,2,6,9)            -58.5171         estimate D2E/DX2                !
 ! D15   D(8,2,6,10)          -178.5572         estimate D2E/DX2                !
 --------------------------------------------------------------------------------
 Trust Radius=3.00D-01 FncErr=1.00D-07 GrdErr=1.00D-07 EigMax=2.50D+02 EigMin=1.00D-04
 Number of steps in this run=    100 maximum allowed number of steps=    100.
 GradGradGradGradGradGradGradGradGradGradGradGradGradGradGradGradGradGrad

                          Input orientation:                          
 ---------------------------------------------------------------------
 Center     Atomic      Atomic             Coordinates (Angstroms)
 Number     Number       Type             X           Y           Z
 ---------------------------------------------------------------------
      1          6           0       -0.956023    0.659656    0.000000
      2          6           0        0.551127    0.659656    0.000000
      3          1           0       -1.345836    1.706016    0.000000
      4          1           0       -1.349555    0.136465   -0.904910
      5          1           0       -1.349648    0.136351    0.904788
      6          6           0        1.110874   -0.739672   -0.000072
      7          1           0        0.925194    1.212371   -0.902368
      8          1           0        0.925266    1.212316    0.902364
      9          1           0        2.227146   -0.713076   -0.000130
     10          1           0        0.771119   -1.299353   -0.904963
 ---------------------------------------------------------------------
                    Distance matrix (angstroms):
                    1          2          3          4          5
     1  C    0.000000
     2  C    1.507150   0.000000
     3  H    1.116612   2.166411   0.000000
     4  H    1.116897   2.169143   1.811730   0.000000
     5  H    1.116884   2.169201   1.811768   1.809698   0.000000
     6  C    2.496033   1.507128   3.466528   2.764066   2.764119
     7  H    2.158411   1.122358   2.493097   2.516359   3.098151
     8  H    2.158458   1.122352   2.493172   3.098145   2.516533
     9  H    3.466548   2.166433   4.314882   3.785913   3.786008
    10  H    2.764000   2.169118   3.785855   2.561022   3.135936
                    6          7          8          9         10
     6  C    0.000000
     7  H    2.158492   0.000000
     8  H    2.158494   1.804732   0.000000
     9  H    1.116589   2.493283   2.493295   0.000000
    10  H    1.116917   2.516447   3.098173   1.811756   0.000000
 Stoichiometry    C3H7(2)
 Framework group  C1[X(C3H7)]
 Deg. of freedom    24
 Full point group                 C1      NOp   1
 Largest Abelian subgroup         C1      NOp   1
 Largest concise Abelian subgroup C1      NOp   1
                         Standard orientation:                         
 ---------------------------------------------------------------------
 Center     Atomic      Atomic             Coordinates (Angstroms)
 Number     Number       Type             X           Y           Z
 ---------------------------------------------------------------------
      1          6           0        1.210354   -0.236483   -0.031933
      2          6           0       -0.076425    0.542516    0.062197
      3          1           0        2.086311    0.436619    0.130724
      4          1           0        1.238418   -1.044602    0.738531
      5          1           0        1.311136   -0.709941   -1.038467
      6          6           0       -1.280689   -0.337789   -0.152858
      7          1           0       -0.145145    1.030895    1.070390
      8          1           0       -0.072738    1.364772   -0.701711
      9          1           0       -2.219941    0.261396   -0.078330
     10          1           0       -1.317479   -1.148608    0.614425
 ---------------------------------------------------------------------
 Rotational constants (GHZ):          32.1706441           9.0712833           7.9595557
 Standard basis: CC-pVTZ (5D, 7F)
 There are   210 symmetry adapted cartesian basis functions of A   symmetry.
 There are   188 symmetry adapted basis functions of A   symmetry.
   188 basis functions,   275 primitive gaussians,   210 cartesian basis functions
    13 alpha electrons       12 beta electrons
       nuclear repulsion energy        75.6412486107 Hartrees.
 NAtoms=   10 NActive=   10 NUniq=   10 SFac= 1.00D+00 NAtFMM=   60 NAOKFM=F Big=F
 Integral buffers will be    131072 words long.
 Raffenetti 2 integral format.
 Two-electron integral symmetry is turned on.
 Nuclear repulsion after empirical dispersion term =       75.6372917656 Hartrees.
 One-electron integrals computed using PRISM.
 NBasis=   188 RedAO= T EigKep=  9.31D-04  NBF=   188
 NBsUse=   188 1.00D-06 EigRej= -1.00D+00 NBFU=   188
 ExpMin= 1.03D-01 ExpMax= 8.24D+03 ExpMxC= 2.81D+02 IAcc=3 IRadAn=         5 AccDes= 0.00D+00
 Harris functional with IExCor=  419 and IRadAn=       5 diagonalized for initial guess.
 HarFok:  IExCor=  419 AccDes= 0.00D+00 IRadAn=         5 IDoV= 1 UseB2=F ITyADJ=14
 ICtDFT=  3500011 ScaDFX=  1.000000  1.000000  1.000000  1.000000
 FoFCou: FMM=F IPFlag=           0 FMFlag=      100000 FMFlg1=           0
         NFxFlg=           0 DoJE=T BraDBF=F KetDBF=T FulRan=T
         wScrn=  0.000000 ICntrl=       500 IOpCl=  0 I1Cent=   200000004 NGrid=           0
         NMat0=    1 NMatS0=      1 NMatT0=    0 NMatD0=    1 NMtDS0=    0 NMtDT0=    0
 Petite list used in FoFCou.
 Initial guess <Sx>= 0.0000 <Sy>= 0.0000 <Sz>= 0.5000 <S**2>= 0.7500 S= 0.5000
 Keep R1 and R2 ints in memory in canonical form, NReq=357195436.
 Requested convergence on RMS density matrix=1.00D-08 within 128 cycles.
 Requested convergence on MAX density matrix=1.00D-06.
 Requested convergence on             energy=1.00D-06.
 No special actions if energy rises.
 Integral accuracy reduced to 1.0D-05 until final iterations.
 Initial convergence to 1.0D-05 achieved.  Increase integral accuracy.
 SCF Done:  E(UB2PLYPD3) =  -118.214271195     A.U. after   13 cycles
            NFock= 13  Conv=0.80D-08     -V/T= 2.0065
 <Sx>= 0.0000 <Sy>= 0.0000 <Sz>= 0.5000 <S**2>= 0.7548 S= 0.5024
 <L.S>=  0.00000000000    
 Annihilation of the first spin contaminant:
 S**2 before annihilation     0.7548,   after     0.7500
 DoSCS=T DFT=T ScalE2(SS,OS)=  0.270000  0.270000
 ExpMin= 1.03D-01 ExpMax= 8.24D+03 ExpMxC= 2.81D+02 IAcc=3 IRadAn=         5 AccDes= 0.00D+00
 HarFok:  IExCor=  205 AccDes= 0.00D+00 IRadAn=         5 IDoV=-2 UseB2=F ITyADJ=14
 ICtDFT= 12500011 ScaDFX=  1.000000  1.000000  1.000000  1.000000
 Range of M.O.s used for correlation:     4   188
 NBasis=   188 NAE=    13 NBE=    12 NFC=     3 NFV=     0
 NROrb=    185 NOA=    10 NOB=     9 NVA=   175 NVB=   176

 **** Warning!!: The largest alpha MO coefficient is  0.13595615D+02


 **** Warning!!: The largest beta MO coefficient is  0.13213333D+02

 DoSCS=T DFT=T ScalE2(SS,OS)=  0.270000  0.270000
 Fully direct method using O(ONN) memory.
 JobTyp=2 Pass  1:  I=   4 to  13 NPSUse= 40 ParTrn=T ParDer=T DoDerP=T.
 JobTyp=3 Pass  1:  I=   4 to  12 NPSUse= 40 ParTrn=T ParDer=T DoDerP=T.
 Spin components of T(2) and E(2):
     alpha-alpha T2 =       0.3111205125D-01 E2=     -0.1990253403D-01
     alpha-beta  T2 =       0.1844947870D+00 E2=     -0.1292633535D+00
     beta-beta   T2 =       0.2503851910D-01 E2=     -0.1582677599D-01
 (S**2,0)=  0.75475D+00           (S**2,1)=  0.74813D+00
 Scaling Projection term by:   0.270000
 E(PUHF)=      -0.11821606455D+03        E(PMP2)=      -0.11837941159D+03
 E2(B2PLYPD3) =    -0.1649926636D+00 E(B2PLYPD3) =    -0.11837926385903D+03
          IDoAtm=1111111111
          Differentiating once with respect to electric field.
                with respect to dipole field.
          Differentiating once with respect to nuclear coordinates.
 Keep R1 and R2 ints in memory in canonical form, NReq=357202664.
          There are     1 degrees of freedom in the 1st order CPHF.  IDoFFX=0 NUNeed=     1.
 LinEq1:  Iter=  0 NonCon=     1 RMS=6.27D-04 Max=1.56D-02 NDo=     1
 AX will form     1 AO Fock derivatives at one time.
 LinEq1:  Iter=  1 NonCon=     1 RMS=2.52D-04 Max=3.86D-03 NDo=     1
 LinEq1:  Iter=  2 NonCon=     1 RMS=8.45D-05 Max=1.73D-03 NDo=     1
 LinEq1:  Iter=  3 NonCon=     1 RMS=2.22D-05 Max=2.26D-04 NDo=     1
 LinEq1:  Iter=  4 NonCon=     1 RMS=1.11D-05 Max=1.43D-04 NDo=     1
 LinEq1:  Iter=  5 NonCon=     1 RMS=3.73D-06 Max=4.33D-05 NDo=     1
 LinEq1:  Iter=  6 NonCon=     1 RMS=1.26D-06 Max=1.62D-05 NDo=     1
 LinEq1:  Iter=  7 NonCon=     1 RMS=2.67D-07 Max=2.87D-06 NDo=     1
 LinEq1:  Iter=  8 NonCon=     1 RMS=7.20D-08 Max=9.54D-07 NDo=     1
 LinEq1:  Iter=  9 NonCon=     1 RMS=2.33D-08 Max=2.92D-07 NDo=     1
 LinEq1:  Iter= 10 NonCon=     1 RMS=1.20D-08 Max=1.63D-07 NDo=     1
 LinEq1:  Iter= 11 NonCon=     1 RMS=3.13D-09 Max=3.18D-08 NDo=     1
 LinEq1:  Iter= 12 NonCon=     1 RMS=8.65D-10 Max=8.08D-09 NDo=     1
 LinEq1:  Iter= 13 NonCon=     1 RMS=2.30D-10 Max=2.12D-09 NDo=     1
 LinEq1:  Iter= 14 NonCon=     0 RMS=6.08D-11 Max=9.48D-10 NDo=     1
 Linear equations converged to 1.000D-10 1.000D-09 after    14 iterations.
 End of Minotr F.D. properties file   721 does not exist.
 End of Minotr F.D. properties file   722 does not exist.
 End of Minotr F.D. properties file   788 does not exist.

 **********************************************************************

            Population analysis using the SCF Density.

 **********************************************************************

 Orbital symmetries:
 Alpha Orbitals:
       Occupied  (A) (A) (A) (A) (A) (A) (A) (A) (A) (A) (A) (A)
                 (A)
       Virtual   (A) (A) (A) (A) (A) (A) (A) (A) (A) (A) (A) (A)
                 (A) (A) (A) (A) (A) (A) (A) (A) (A) (A) (A) (A)
                 (A) (A) (A) (A) (A) (A) (A) (A) (A) (A) (A) (A)
                 (A) (A) (A) (A) (A) (A) (A) (A) (A) (A) (A) (A)
                 (A) (A) (A) (A) (A) (A) (A) (A) (A) (A) (A) (A)
                 (A) (A) (A) (A) (A) (A) (A) (A) (A) (A) (A) (A)
                 (A) (A) (A) (A) (A) (A) (A) (A) (A) (A) (A) (A)
                 (A) (A) (A) (A) (A) (A) (A) (A) (A) (A) (A) (A)
                 (A) (A) (A) (A) (A) (A) (A) (A) (A) (A) (A) (A)
                 (A) (A) (A) (A) (A) (A) (A) (A) (A) (A) (A) (A)
                 (A) (A) (A) (A) (A) (A) (A) (A) (A) (A) (A) (A)
                 (A) (A) (A) (A) (A) (A) (A) (A) (A) (A) (A) (A)
                 (A) (A) (A) (A) (A) (A) (A) (A) (A) (A) (A) (A)
                 (A) (A) (A) (A) (A) (A) (A) (A) (A) (A) (A) (A)
                 (A) (A) (A) (A) (A) (A) (A)
 Beta  Orbitals:
       Occupied  (A) (A) (A) (A) (A) (A) (A) (A) (A) (A) (A) (A)
       Virtual   (A) (A) (A) (A) (A) (A) (A) (A) (A) (A) (A) (A)
                 (A) (A) (A) (A) (A) (A) (A) (A) (A) (A) (A) (A)
                 (A) (A) (A) (A) (A) (A) (A) (A) (A) (A) (A) (A)
                 (A) (A) (A) (A) (A) (A) (A) (A) (A) (A) (A) (A)
                 (A) (A) (A) (A) (A) (A) (A) (A) (A) (A) (A) (A)
                 (A) (A) (A) (A) (A) (A) (A) (A) (A) (A) (A) (A)
                 (A) (A) (A) (A) (A) (A) (A) (A) (A) (A) (A) (A)
                 (A) (A) (A) (A) (A) (A) (A) (A) (A) (A) (A) (A)
                 (A) (A) (A) (A) (A) (A) (A) (A) (A) (A) (A) (A)
                 (A) (A) (A) (A) (A) (A) (A) (A) (A) (A) (A) (A)
                 (A) (A) (A) (A) (A) (A) (A) (A) (A) (A) (A) (A)
                 (A) (A) (A) (A) (A) (A) (A) (A) (A) (A) (A) (A)
                 (A) (A) (A) (A) (A) (A) (A) (A) (A) (A) (A) (A)
                 (A) (A) (A) (A) (A) (A) (A) (A) (A) (A) (A) (A)
                 (A) (A) (A) (A) (A) (A) (A) (A)
 The electronic state is 2-A.
 Alpha  occ. eigenvalues --  -10.63128 -10.61855 -10.60771  -0.90328  -0.77765
 Alpha  occ. eigenvalues --   -0.66225  -0.52618  -0.51039  -0.46240  -0.42065
 Alpha  occ. eigenvalues --   -0.40040  -0.39501  -0.29994
 Alpha virt. eigenvalues --    0.07856   0.11525   0.11897   0.13570   0.15179
 Alpha virt. eigenvalues --    0.17186   0.18179   0.22131   0.27499   0.30383
 Alpha virt. eigenvalues --    0.31174   0.32553   0.35249   0.37515   0.40460
 Alpha virt. eigenvalues --    0.44275   0.45713   0.48424   0.50457   0.51425
 Alpha virt. eigenvalues --    0.52055   0.54109   0.55247   0.55875   0.56519
 Alpha virt. eigenvalues --    0.58799   0.63989   0.67031   0.73080   0.78968
 Alpha virt. eigenvalues --    0.82087   0.85045   0.87836   0.92626   0.95679
 Alpha virt. eigenvalues --    0.99473   1.02448   1.03577   1.07785   1.11602
 Alpha virt. eigenvalues --    1.12510   1.16371   1.16656   1.18491   1.21422
 Alpha virt. eigenvalues --    1.22794   1.24080   1.25287   1.28007   1.32392
 Alpha virt. eigenvalues --    1.34439   1.35001   1.37699   1.40241   1.41844
 Alpha virt. eigenvalues --    1.44614   1.47834   1.49038   1.54742   1.56494
 Alpha virt. eigenvalues --    1.60631   1.61824   1.62964   1.70534   2.26611
 Alpha virt. eigenvalues --    2.35136   2.36527   2.38565   2.41410   2.45099
 Alpha virt. eigenvalues --    2.50547   2.55432   2.57414   2.63348   2.64273
 Alpha virt. eigenvalues --    2.68429   2.70955   2.72633   2.77319   2.80458
 Alpha virt. eigenvalues --    2.82997   2.84865   2.88635   2.92508   2.94170
 Alpha virt. eigenvalues --    2.95293   2.99887   3.02660   3.04906   3.10004
 Alpha virt. eigenvalues --    3.12363   3.15306   3.16791   3.19244   3.20938
 Alpha virt. eigenvalues --    3.21748   3.24286   3.26377   3.28431   3.30259
 Alpha virt. eigenvalues --    3.31911   3.37693   3.40416   3.44245   3.44840
 Alpha virt. eigenvalues --    3.48399   3.50319   3.54400   3.56250   3.59060
 Alpha virt. eigenvalues --    3.60482   3.64473   3.68026   3.77526   3.80114
 Alpha virt. eigenvalues --    3.82430   3.83016   3.88894   3.91503   3.92874
 Alpha virt. eigenvalues --    3.93409   3.94842   3.96117   3.99070   4.03518
 Alpha virt. eigenvalues --    4.06282   4.09156   4.10896   4.12786   4.14684
 Alpha virt. eigenvalues --    4.16718   4.18650   4.21246   4.22043   4.29470
 Alpha virt. eigenvalues --    4.31058   4.36560   4.39728   4.40657   4.40959
 Alpha virt. eigenvalues --    4.45073   4.50701   4.63781   4.64452   4.68386
 Alpha virt. eigenvalues --    4.79719   4.83680   4.90387   4.90931   4.91205
 Alpha virt. eigenvalues --    4.93328   4.96739   5.01064   5.04455   5.11122
 Alpha virt. eigenvalues --    5.17329   5.21272   5.26914   5.35206   5.37787
 Alpha virt. eigenvalues --    5.39802   5.41755   5.45363   5.49409   5.51220
 Alpha virt. eigenvalues --    5.58628   5.61351   5.74061   5.97287   6.01035
 Alpha virt. eigenvalues --    6.03757   6.07099  11.41698  12.52097  13.33511
  Beta  occ. eigenvalues --  -10.61925 -10.61291 -10.60742  -0.89123  -0.75460
  Beta  occ. eigenvalues --   -0.64367  -0.51649  -0.50213  -0.45558  -0.40994
  Beta  occ. eigenvalues --   -0.39326  -0.39021
  Beta virt. eigenvalues --   -0.00040   0.08147   0.11770   0.12091   0.13815
  Beta virt. eigenvalues --    0.15440   0.17472   0.18518   0.22422   0.28222
  Beta virt. eigenvalues --    0.30716   0.31367   0.33280   0.35502   0.40722
  Beta virt. eigenvalues --    0.42335   0.45926   0.47224   0.48722   0.51259
  Beta virt. eigenvalues --    0.51849   0.52600   0.54645   0.55621   0.56419
  Beta virt. eigenvalues --    0.57374   0.60140   0.64864   0.67952   0.73507
  Beta virt. eigenvalues --    0.79335   0.82727   0.85441   0.88586   0.93654
  Beta virt. eigenvalues --    0.96055   1.00529   1.02690   1.03887   1.08486
  Beta virt. eigenvalues --    1.12173   1.13315   1.16967   1.17355   1.18945
  Beta virt. eigenvalues --    1.21922   1.23472   1.24701   1.25587   1.28786
  Beta virt. eigenvalues --    1.32907   1.35167   1.35754   1.38434   1.40631
  Beta virt. eigenvalues --    1.42633   1.44888   1.48240   1.49923   1.55360
  Beta virt. eigenvalues --    1.57088   1.61477   1.62342   1.63434   1.71040
  Beta virt. eigenvalues --    2.30208   2.36535   2.37092   2.39765   2.42763
  Beta virt. eigenvalues --    2.45803   2.51205   2.55782   2.58184   2.64009
  Beta virt. eigenvalues --    2.64685   2.68929   2.72278   2.73672   2.77955
  Beta virt. eigenvalues --    2.81306   2.84208   2.85384   2.89256   2.92917
  Beta virt. eigenvalues --    2.95606   2.96229   3.00922   3.03728   3.05704
  Beta virt. eigenvalues --    3.11502   3.14523   3.15927   3.17186   3.19742
  Beta virt. eigenvalues --    3.22180   3.22646   3.25393   3.26899   3.29421
  Beta virt. eigenvalues --    3.32280   3.33425   3.38475   3.41516   3.44711
  Beta virt. eigenvalues --    3.45337   3.49045   3.50782   3.54598   3.56497
  Beta virt. eigenvalues --    3.59755   3.60857   3.64830   3.68343   3.78152
  Beta virt. eigenvalues --    3.80447   3.82927   3.83499   3.89332   3.91789
  Beta virt. eigenvalues --    3.93204   3.93923   3.95157   3.96584   3.99195
  Beta virt. eigenvalues --    4.03856   4.06452   4.09577   4.11367   4.12986
  Beta virt. eigenvalues --    4.15230   4.17242   4.19128   4.21508   4.22256
  Beta virt. eigenvalues --    4.29855   4.31398   4.37119   4.39867   4.40891
  Beta virt. eigenvalues --    4.41290   4.45401   4.50984   4.64186   4.64762
  Beta virt. eigenvalues --    4.69285   4.80311   4.84254   4.90790   4.91075
  Beta virt. eigenvalues --    4.92090   4.93471   4.97340   5.01532   5.05081
  Beta virt. eigenvalues --    5.11517   5.17963   5.22073   5.27223   5.35537
  Beta virt. eigenvalues --    5.38009   5.39840   5.41968   5.45624   5.49832
  Beta virt. eigenvalues --    5.51562   5.58840   5.61686   5.74466   5.97976
  Beta virt. eigenvalues --    6.01067   6.03923   6.07342  11.42953  12.52493
  Beta virt. eigenvalues --   13.33533
          Condensed to atoms (all electrons):
               1          2          3          4          5          6
     1  C    4.841981   0.341473   0.407311   0.407042   0.405074  -0.058742
     2  C    0.341473   4.825565  -0.038310  -0.037952  -0.036874   0.344726
     3  H    0.407311  -0.038310   0.603117  -0.030381  -0.029026   0.008209
     4  H    0.407042  -0.037952  -0.030381   0.609755  -0.031450  -0.005597
     5  H    0.405074  -0.036874  -0.029026  -0.031450   0.601214  -0.001231
     6  C   -0.058742   0.344726   0.008209  -0.005597  -0.001231   5.219967
     7  H   -0.039194   0.411225  -0.004196  -0.006667   0.008601  -0.044100
     8  H   -0.036732   0.408690  -0.005447   0.008016  -0.006438  -0.038035
     9  H    0.008176  -0.046385  -0.000537  -0.000107   0.000006   0.404165
    10  H   -0.006318  -0.047361  -0.000151   0.004571  -0.000327   0.399884
               7          8          9         10
     1  C   -0.039194  -0.036732   0.008176  -0.006318
     2  C    0.411225   0.408690  -0.046385  -0.047361
     3  H   -0.004196  -0.005447  -0.000537  -0.000151
     4  H   -0.006667   0.008016  -0.000107   0.004571
     5  H    0.008601  -0.006438   0.000006  -0.000327
     6  C   -0.044100  -0.038035   0.404165   0.399884
     7  H    0.625490  -0.036289  -0.002281  -0.003297
     8  H   -0.036289   0.622104  -0.006966   0.007937
     9  H   -0.002281  -0.006966   0.589512  -0.043398
    10  H   -0.003297   0.007937  -0.043398   0.598659
          Atomic-Atomic Spin Densities.
               1          2          3          4          5          6
     1  C    0.013000   0.008868  -0.001777   0.000640  -0.004733  -0.008306
     2  C    0.008868  -0.042658   0.000456   0.000815  -0.002169  -0.038539
     3  H   -0.001777   0.000456  -0.001476  -0.000178   0.001296   0.000136
     4  H    0.000640   0.000815  -0.000178  -0.000403  -0.000444  -0.000192
     5  H   -0.004733  -0.002169   0.001296  -0.000444   0.003010   0.006193
     6  C   -0.008306  -0.038539   0.000136  -0.000192   0.006193   1.088065
     7  H   -0.005315   0.014471   0.001642  -0.001171   0.001474  -0.025907
     8  H    0.003711   0.002460  -0.000500   0.000130  -0.001043  -0.005337
     9  H    0.000110   0.003121   0.000004   0.000060  -0.000193   0.001487
    10  H    0.000836   0.003688  -0.000100   0.000178  -0.000409   0.001147
               7          8          9         10
     1  C   -0.005315   0.003711   0.000110   0.000836
     2  C    0.014471   0.002460   0.003121   0.003688
     3  H    0.001642  -0.000500   0.000004  -0.000100
     4  H   -0.001171   0.000130   0.000060   0.000178
     5  H    0.001474  -0.001043  -0.000193  -0.000409
     6  C   -0.025907  -0.005337   0.001487   0.001147
     7  H    0.082789  -0.006920  -0.003473  -0.003278
     8  H   -0.006920   0.013406   0.001549   0.000189
     9  H   -0.003473   0.001549  -0.030338   0.007444
    10  H   -0.003278   0.000189   0.007444  -0.029639
 Mulliken charges and spin densities:
               1          2
     1  C   -0.270071   0.007035
     2  C   -0.124797  -0.049487
     3  H    0.089411  -0.000496
     4  H    0.082769  -0.000564
     5  H    0.090450   0.002981
     6  C   -0.229246   1.018748
     7  H    0.090708   0.054312
     8  H    0.083160   0.007644
     9  H    0.097815  -0.020228
    10  H    0.089800  -0.019944
 Sum of Mulliken charges =  -0.00000   1.00000
 Mulliken charges and spin densities with hydrogens summed into heavy atoms:
               1          2
     1  C   -0.007441   0.008956
     2  C    0.049071   0.012469
     6  C   -0.041631   0.978575
 Electronic spatial extent (au):  <R**2>=            211.4397
 Charge=             -0.0000 electrons
 Dipole moment (field-independent basis, Debye):
    X=              0.1341    Y=              0.4093    Z=              0.5317  Tot=              0.6843
 Quadrupole moment (field-independent basis, Debye-Ang):
   XX=            -22.0401   YY=            -21.5377   ZZ=            -21.4121
   XY=             -0.3749   XZ=             -0.7620   YZ=             -0.5503
 Traceless Quadrupole moment (field-independent basis, Debye-Ang):
   XX=             -0.3768   YY=              0.1256   ZZ=              0.2512
   XY=             -0.3749   XZ=             -0.7620   YZ=             -0.5503
 Octapole moment (field-independent basis, Debye-Ang**2):
  XXX=              0.1041  YYY=              0.9242  ZZZ=              1.0325  XYY=              0.6220
  XXY=              2.2136  XXZ=              1.3056  XZZ=              1.0939  YZZ=              0.3533
  YYZ=              0.8706  XYZ=              0.8020
 Hexadecapole moment (field-independent basis, Debye-Ang**3):
 XXXX=           -194.9209 YYYY=            -69.7809 ZZZZ=            -41.6972 XXXY=             -1.5102
 XXXZ=             -1.9380 YYYX=             -0.6566 YYYZ=             -2.1803 ZZZX=             -2.1289
 ZZZY=             -0.2657 XXYY=            -44.0487 XXZZ=            -41.3183 YYZZ=            -17.0576
 XXYZ=             -0.8143 YYXZ=             -0.8675 ZZXY=             -1.0135
 N-N= 7.563729176561D+01 E-N=-4.246566384168D+02  KE= 1.174478817882D+02
                          Isotropic Fermi Contact Couplings
        Atom                 a.u.       MegaHertz       Gauss      10(-4) cm-1
     1  C(13)              0.01122      12.61775       4.50233       4.20883
     2  C(13)             -0.01395     -15.68313      -5.59613      -5.23133
     3  H(1)              -0.00044      -1.95514      -0.69764      -0.65216
     4  H(1)              -0.00033      -1.46282      -0.52197      -0.48794
     5  H(1)              -0.00041      -1.84822      -0.65949      -0.61650
     6  C(13)              0.26560     298.58165     106.54136      99.59612
     7  H(1)               0.02799     125.09713      44.63777      41.72791
     8  H(1)               0.00504      22.53636       8.04153       7.51732
     9  H(1)              -0.00285     -12.73281      -4.54338      -4.24721
    10  H(1)              -0.00193      -8.61517      -3.07411      -2.87371
 --------------------------------------------------------
       Center         ----  Spin Dipole Couplings  ----
                      3XX-RR        3YY-RR        3ZZ-RR
 --------------------------------------------------------
     1   Atom        0.018696     -0.008949     -0.009746
     2   Atom        0.000716      0.000435     -0.001152
     3   Atom        0.006189     -0.003120     -0.003069
     4   Atom        0.006977     -0.004095     -0.002882
     5   Atom        0.012499     -0.006509     -0.005989
     6   Atom       -0.504197     -0.250815      0.755012
     7   Atom       -0.000385     -0.001475      0.001860
     8   Atom       -0.002308      0.010986     -0.008679
     9   Atom        0.031556     -0.019392     -0.012164
    10   Atom       -0.059870      0.031950      0.027920
 --------------------------------------------------------
                        XY            XZ            YZ
 --------------------------------------------------------
     1   Atom       -0.002750      0.007121     -0.001107
     2   Atom        0.024181      0.020669      0.022621
     3   Atom        0.001860      0.000844      0.000655
     4   Atom       -0.003881      0.005841     -0.001324
     5   Atom       -0.001622     -0.004112      0.001384
     6   Atom       -0.037059     -0.076125      0.569772
     7   Atom        0.006980      0.002144      0.008659
     8   Atom        0.012762     -0.002999     -0.003941
     9   Atom       -0.055557      0.003672      0.016293
    10   Atom       -0.000332     -0.004999     -0.037406
 --------------------------------------------------------


 ---------------------------------------------------------------------------------
              Anisotropic Spin Dipole Couplings in Principal Axis System
 ---------------------------------------------------------------------------------

       Atom             a.u.   MegaHertz   Gauss  10(-4) cm-1        Axes

              Baa    -0.0115    -1.545    -0.551    -0.515 -0.2088  0.1900  0.9593
     1 C(13)  Bbb    -0.0092    -1.228    -0.438    -0.410  0.1382  0.9768 -0.1634
              Bcc     0.0207     2.774     0.990     0.925  0.9681 -0.0985  0.2302
 
              Baa    -0.0242    -3.243    -1.157    -1.082 -0.4894  0.8001 -0.3469
     2 C(13)  Bbb    -0.0209    -2.802    -1.000    -0.935 -0.6488 -0.0683  0.7579
              Bcc     0.0450     6.045     2.157     2.016  0.5827  0.5960  0.5525
 
              Baa    -0.0038    -2.042    -0.729    -0.681 -0.1002  0.8052 -0.5845
     3 H(1)   Bbb    -0.0028    -1.501    -0.536    -0.501 -0.1914  0.5609  0.8054
              Bcc     0.0066     3.543     1.264     1.182  0.9764  0.1926  0.0979
 
              Baa    -0.0059    -3.129    -1.117    -1.044 -0.4788 -0.5216  0.7062
     4 H(1)   Bbb    -0.0049    -2.637    -0.941    -0.880 -0.0222  0.8113  0.5842
              Bcc     0.0108     5.766     2.058     1.923  0.8776 -0.2641  0.4000
 
              Baa    -0.0078    -4.157    -1.483    -1.386  0.0949 -0.6728  0.7337
     5 H(1)   Bbb    -0.0058    -3.072    -1.096    -1.025  0.2107  0.7339  0.6457
              Bcc     0.0135     7.228     2.579     2.411  0.9729 -0.0933 -0.2114
 
              Baa    -0.5109   -68.560   -24.464   -22.869  0.7747  0.5927 -0.2202
     6 C(13)  Bbb    -0.5059   -67.883   -24.222   -22.643 -0.6299  0.6928 -0.3511
              Bcc     1.0168   136.442    48.686    45.512 -0.0556  0.4107  0.9101
 
              Baa    -0.0106    -5.641    -2.013    -1.882 -0.4321  0.7732 -0.4640
     7 H(1)   Bbb    -0.0016    -0.852    -0.304    -0.284  0.7769  0.0579 -0.6270
              Bcc     0.0122     6.492     2.317     2.166  0.4580  0.6315  0.6257
 
              Baa    -0.0104    -5.531    -1.974    -1.845  0.7730 -0.3664  0.5179
     8 H(1)   Bbb    -0.0092    -4.920    -1.756    -1.641 -0.3725  0.3987  0.8380
              Bcc     0.0196    10.451     3.729     3.486  0.5136  0.8407 -0.1717
 
              Baa    -0.0602   -32.117   -11.460   -10.713  0.5012  0.8071 -0.3121
     9 H(1)   Bbb    -0.0074    -3.962    -1.414    -1.322  0.2296  0.2237  0.9472
              Bcc     0.0676    36.079    12.874    12.035  0.8343 -0.5464 -0.0732
 
              Baa    -0.0602   -32.137   -11.467   -10.720  0.9970  0.0321  0.0701
    10 H(1)   Bbb    -0.0072    -3.865    -1.379    -1.289 -0.0729  0.6883  0.7218
              Bcc     0.0675    36.002    12.846    12.009  0.0251  0.7248 -0.6885
 

 ---------------------------------------------------------------------------------

 Calling FoFJK, ICntrl=  10002127 FMM=F ISym2X=0 I1Cent= 0 IOpClX= 1 NMat=1 NMatS=1 NMatT=0.
 ***** Axes restored to original set *****
 -------------------------------------------------------------------
 Center     Atomic                   Forces (Hartrees/Bohr)
 Number     Number              X              Y              Z
 -------------------------------------------------------------------
      1        6          -0.023357211    0.005099703   -0.000114023
      2        6           0.009016716    0.003958624    0.017470922
      3        1           0.002557068   -0.016406165   -0.000218879
      4        1           0.004059786    0.007745312    0.013640001
      5        1           0.004539496    0.008166196   -0.014303256
      6        6           0.027355015    0.018816353   -0.047188218
      7        1          -0.002141277   -0.008501070    0.012390508
      8        1          -0.004518695   -0.006489600   -0.015848120
      9        1          -0.016404596   -0.009950280    0.012108001
     10        1          -0.001106302   -0.002439072    0.022063066
 -------------------------------------------------------------------
 Cartesian Forces:  Max     0.047188218 RMS     0.014928452

 GradGradGradGradGradGradGradGradGradGradGradGradGradGradGradGradGradGrad
 Berny optimization.
 FormGI is forming the generalized inverse of G from B-inverse, IUseBI=4.
 Internal  Forces:  Max     0.018498111 RMS     0.009154675
 Search for a local minimum.
 Step number   1 out of a maximum of  100
 All quantities printed in internal units (Hartrees-Bohrs-Radians)
 Mixed Optimization -- RFO/linear search
 Second derivative matrix not updated -- first step.
 ITU=  0
     Eigenvalues ---    0.00671   0.00672   0.03999   0.04342   0.05603
     Eigenvalues ---    0.05799   0.05812   0.09289   0.12783   0.16000
     Eigenvalues ---    0.16000   0.16000   0.16000   0.16000   0.21939
     Eigenvalues ---    0.31326   0.31326   0.31639   0.31641   0.31878
     Eigenvalues ---    0.31881   0.31882   0.31910   0.31912
 RFO step:  Lambda=-1.99836012D-02 EMin= 6.71366733D-03
 Linear search not attempted -- first point.
 Iteration  1 RMS(Cart)=  0.06083567 RMS(Int)=  0.01080769
 Iteration  2 RMS(Cart)=  0.00792963 RMS(Int)=  0.00786042
 Iteration  3 RMS(Cart)=  0.00009077 RMS(Int)=  0.00785999
 Iteration  4 RMS(Cart)=  0.00000236 RMS(Int)=  0.00785999
 Iteration  5 RMS(Cart)=  0.00000007 RMS(Int)=  0.00785999
 Variable       Old X    -DE/DX   Delta X   Delta X   Delta X     New X
                                 (Linear)    (Quad)   (Total)
    R1        2.84810   0.01220   0.00000   0.03627   0.03627   2.88437
    R2        2.11009  -0.01627   0.00000  -0.04797  -0.04797   2.06212
    R3        2.11063  -0.01611   0.00000  -0.04755  -0.04755   2.06308
    R4        2.11061  -0.01701   0.00000  -0.05022  -0.05022   2.06039
    R5        2.84806  -0.00231   0.00000  -0.00687  -0.00687   2.84119
    R6        2.12095  -0.01486   0.00000  -0.04460  -0.04460   2.07635
    R7        2.12094  -0.01744   0.00000  -0.05234  -0.05234   2.06859
    R8        2.11005  -0.01664   0.00000  -0.04906  -0.04906   2.06098
    R9        2.11067  -0.01632   0.00000  -0.04816  -0.04816   2.06251
    A1        1.92741   0.00430   0.00000   0.02537   0.02524   1.95265
    A2        1.93087   0.00133   0.00000   0.00653   0.00647   1.93734
    A3        1.93096   0.00108   0.00000   0.00537   0.00531   1.93628
    A4        1.89226  -0.00272   0.00000  -0.01397  -0.01409   1.87817
    A5        1.89233  -0.00251   0.00000  -0.01234  -0.01246   1.87988
    A6        1.88882  -0.00174   0.00000  -0.01246  -0.01245   1.87637
    A7        1.95131   0.00751   0.00000   0.03617   0.03591   1.98722
    A8        1.91058  -0.00010   0.00000   0.00178   0.00215   1.91273
    A9        1.91065  -0.00134   0.00000   0.00641   0.00591   1.91657
   A10        1.91072  -0.00503   0.00000  -0.03514  -0.03513   1.87559
   A11        1.91073  -0.00103   0.00000   0.00671   0.00604   1.91677
   A12        1.86796  -0.00037   0.00000  -0.01834  -0.01843   1.84953
   A13        1.92749   0.01850   0.00000   0.15709   0.13274   2.06024
   A14        1.93084   0.01548   0.00000   0.14014   0.11568   2.04652
   A15        1.89230  -0.00320   0.00000   0.08658   0.05490   1.94720
    D1       -3.14154   0.00149   0.00000   0.02114   0.02121  -3.12033
    D2       -1.02122   0.00003   0.00000   0.00184   0.00190  -1.01932
    D3        1.02127  -0.00125   0.00000  -0.01558  -0.01572   1.00555
    D4       -1.04653   0.00174   0.00000   0.02442   0.02452  -1.02201
    D5        1.07378   0.00028   0.00000   0.00512   0.00521   1.07900
    D6        3.11628  -0.00100   0.00000  -0.01231  -0.01241   3.10387
    D7        1.04648   0.00113   0.00000   0.01658   0.01662   1.06310
    D8       -3.11639  -0.00033   0.00000  -0.00272  -0.00269  -3.11908
    D9       -1.07389  -0.00161   0.00000  -0.02015  -0.02031  -1.09421
   D10        3.14154   0.00844   0.00000   0.13169   0.13738  -3.00427
   D11        1.04644  -0.00962   0.00000  -0.16950  -0.17574   0.87070
   D12        1.02130   0.00706   0.00000   0.12967   0.13587   1.15717
   D13       -1.07380  -0.01101   0.00000  -0.17152  -0.17725  -1.25105
   D14       -1.02132   0.01100   0.00000   0.16825   0.17425  -0.84707
   D15       -3.11641  -0.00706   0.00000  -0.13295  -0.13887   3.02790
         Item               Value     Threshold  Converged?
 Maximum Force            0.018498     0.000450     NO 
 RMS     Force            0.009155     0.000300     NO 
 Maximum Displacement     0.151414     0.001800     NO 
 RMS     Displacement     0.057578     0.001200     NO 
 Predicted change in Energy=-1.311871D-02
 GradGradGradGradGradGradGradGradGradGradGradGradGradGradGradGradGradGrad

                          Input orientation:                          
 ---------------------------------------------------------------------
 Center     Atomic      Atomic             Coordinates (Angstroms)
 Number     Number       Type             X           Y           Z
 ---------------------------------------------------------------------
      1          6           0       -0.973819    0.674512    0.000652
      2          6           0        0.552476    0.678588   -0.010920
      3          1           0       -1.382943    1.685719    0.029842
      4          1           0       -1.370535    0.183262   -0.889950
      5          1           0       -1.355486    0.137123    0.869169
      6          6           0        1.163792   -0.693266   -0.080197
      7          1           0        0.912803    1.244466   -0.881101
      8          1           0        0.928750    1.208609    0.869853
      9          1           0        2.244396   -0.779709    0.039329
     10          1           0        0.790229   -1.368575   -0.851968
 ---------------------------------------------------------------------
                    Distance matrix (angstroms):
                    1          2          3          4          5
     1  C    0.000000
     2  C    1.526344   0.000000
     3  H    1.091226   2.182160   0.000000
     4  H    1.091734   2.171639   1.761690   0.000000
     5  H    1.090311   2.169807   1.761639   1.759789   0.000000
     6  C    2.539042   1.503493   3.486767   2.801217   2.817375
     7  H    2.159092   1.098758   2.508978   2.517909   3.071610
     8  H    2.158828   1.094653   2.505430   3.071638   2.523057
     9  H    3.531736   2.234222   4.385889   3.854686   3.806359
    10  H    2.830729   2.225930   3.850841   2.660552   3.135846
                    6          7          8          9         10
     6  C    0.000000
     7  H    2.111694   0.000000
     8  H    2.138918   1.751394   0.000000
     9  H    1.090626   2.591837   2.524699   0.000000
    10  H    1.091431   2.616076   3.102536   1.804377   0.000000
 Stoichiometry    C3H7(2)
 Framework group  C1[X(C3H7)]
 Deg. of freedom    24
 Full point group                 C1      NOp   1
 Largest Abelian subgroup         C1      NOp   1
 Largest concise Abelian subgroup C1      NOp   1
                         Standard orientation:                         
 ---------------------------------------------------------------------
 Center     Atomic      Atomic             Coordinates (Angstroms)
 Number     Number       Type             X           Y           Z
 ---------------------------------------------------------------------
      1          6           0        1.234566   -0.236461   -0.035430
      2          6           0       -0.074874    0.541895    0.060771
      3          1           0        2.102558    0.408060    0.112757
      4          1           0        1.276806   -1.025741    0.717655
      5          1           0        1.335758   -0.709609   -1.012502
      6          6           0       -1.302378   -0.309693   -0.108119
      7          1           0       -0.143317    1.027713    1.043912
      8          1           0       -0.080343    1.351304   -0.676177
      9          1           0       -2.268023    0.191747   -0.182631
     10          1           0       -1.367325   -1.217921    0.493649
 ---------------------------------------------------------------------
 Rotational constants (GHZ):          33.4570198           8.8254202           7.7470387
 Standard basis: CC-pVTZ (5D, 7F)
 There are   210 symmetry adapted cartesian basis functions of A   symmetry.
 There are   188 symmetry adapted basis functions of A   symmetry.
   188 basis functions,   275 primitive gaussians,   210 cartesian basis functions
    13 alpha electrons       12 beta electrons
       nuclear repulsion energy        75.7162006796 Hartrees.
 NAtoms=   10 NActive=   10 NUniq=   10 SFac= 1.00D+00 NAtFMM=   60 NAOKFM=F Big=F
 Integral buffers will be    131072 words long.
 Raffenetti 2 integral format.
 Two-electron integral symmetry is turned on.
 Nuclear repulsion after empirical dispersion term =       75.7122713362 Hartrees.
 One-electron integrals computed using PRISM.
 NBasis=   188 RedAO= T EigKep=  9.56D-04  NBF=   188
 NBsUse=   188 1.00D-06 EigRej= -1.00D+00 NBFU=   188
 Initial guess from the checkpoint file:  "/localscratch/339542/Gau-49555.chk"
 B after Tr=     0.000000    0.000000    0.000000
         Rot=    0.999996   -0.002865   -0.000085    0.000050 Ang=  -0.33 deg.
 Initial guess <Sx>= 0.0000 <Sy>= 0.0000 <Sz>= 0.5000 <S**2>= 0.7546 S= 0.5023
 ExpMin= 1.03D-01 ExpMax= 8.24D+03 ExpMxC= 2.81D+02 IAcc=3 IRadAn=         5 AccDes= 0.00D+00
 Harris functional with IExCor=  419 and IRadAn=       5 diagonalized for initial guess.
 HarFok:  IExCor=  419 AccDes= 0.00D+00 IRadAn=         5 IDoV= 1 UseB2=F ITyADJ=14
 ICtDFT=  3500011 ScaDFX=  1.000000  1.000000  1.000000  1.000000
 FoFCou: FMM=F IPFlag=           0 FMFlag=      100000 FMFlg1=           0
         NFxFlg=           0 DoJE=T BraDBF=F KetDBF=T FulRan=T
         wScrn=  0.000000 ICntrl=       500 IOpCl=  0 I1Cent=   200000004 NGrid=           0
         NMat0=    1 NMatS0=      1 NMatT0=    0 NMatD0=    1 NMtDS0=    0 NMtDT0=    0
 Petite list used in FoFCou.
 Keep R1 and R2 ints in memory in canonical form, NReq=357195436.
 Requested convergence on RMS density matrix=1.00D-08 within 128 cycles.
 Requested convergence on MAX density matrix=1.00D-06.
 Requested convergence on             energy=1.00D-06.
 No special actions if energy rises.
 Integral accuracy reduced to 1.0D-05 until final iterations.
 Initial convergence to 1.0D-05 achieved.  Increase integral accuracy.
 SCF Done:  E(UB2PLYPD3) =  -118.226797544     A.U. after   12 cycles
            NFock= 12  Conv=0.92D-08     -V/T= 2.0051
 <Sx>= 0.0000 <Sy>= 0.0000 <Sz>= 0.5000 <S**2>= 0.7554 S= 0.5027
 <L.S>=  0.00000000000    
 Annihilation of the first spin contaminant:
 S**2 before annihilation     0.7554,   after     0.7500
 DoSCS=T DFT=T ScalE2(SS,OS)=  0.270000  0.270000
 ExpMin= 1.03D-01 ExpMax= 8.24D+03 ExpMxC= 2.81D+02 IAcc=3 IRadAn=         5 AccDes= 0.00D+00
 HarFok:  IExCor=  205 AccDes= 0.00D+00 IRadAn=         5 IDoV=-2 UseB2=F ITyADJ=14
 ICtDFT= 12500011 ScaDFX=  1.000000  1.000000  1.000000  1.000000
 Range of M.O.s used for correlation:     4   188
 NBasis=   188 NAE=    13 NBE=    12 NFC=     3 NFV=     0
 NROrb=    185 NOA=    10 NOB=     9 NVA=   175 NVB=   176

 **** Warning!!: The largest alpha MO coefficient is  0.13675953D+02


 **** Warning!!: The largest beta MO coefficient is  0.13275464D+02

 DoSCS=T DFT=T ScalE2(SS,OS)=  0.270000  0.270000
 Fully direct method using O(ONN) memory.
 JobTyp=2 Pass  1:  I=   4 to  13 NPSUse= 40 ParTrn=T ParDer=T DoDerP=T.
 JobTyp=3 Pass  1:  I=   4 to  12 NPSUse= 40 ParTrn=T ParDer=T DoDerP=T.
 Spin components of T(2) and E(2):
     alpha-alpha T2 =       0.3080042730D-01 E2=     -0.1992352109D-01
     alpha-beta  T2 =       0.1798266312D+00 E2=     -0.1285073752D+00
     beta-beta   T2 =       0.2439907624D-01 E2=     -0.1564370509D-01
 (S**2,0)=  0.75543D+00           (S**2,1)=  0.74781D+00
 Scaling Projection term by:   0.270000
 E(PUHF)=      -0.11822887358D+03        E(PMP2)=      -0.11839104029D+03
 E2(B2PLYPD3) =    -0.1640746014D+00 E(B2PLYPD3) =    -0.11839087214539D+03
          IDoAtm=1111111111
          Differentiating once with respect to electric field.
                with respect to dipole field.
          Differentiating once with respect to nuclear coordinates.
 Keep R1 and R2 ints in memory in canonical form, NReq=357202664.
          There are     1 degrees of freedom in the 1st order CPHF.  IDoFFX=0 NUNeed=     1.
 LinEq1:  Iter=  0 NonCon=     1 RMS=6.00D-04 Max=1.56D-02 NDo=     1
 AX will form     1 AO Fock derivatives at one time.
 LinEq1:  Iter=  1 NonCon=     1 RMS=2.31D-04 Max=3.55D-03 NDo=     1
 LinEq1:  Iter=  2 NonCon=     1 RMS=7.97D-05 Max=1.51D-03 NDo=     1
 LinEq1:  Iter=  3 NonCon=     1 RMS=2.04D-05 Max=2.25D-04 NDo=     1
 LinEq1:  Iter=  4 NonCon=     1 RMS=1.02D-05 Max=1.65D-04 NDo=     1
 LinEq1:  Iter=  5 NonCon=     1 RMS=3.14D-06 Max=4.40D-05 NDo=     1
 LinEq1:  Iter=  6 NonCon=     1 RMS=1.05D-06 Max=1.15D-05 NDo=     1
 LinEq1:  Iter=  7 NonCon=     1 RMS=2.30D-07 Max=2.51D-06 NDo=     1
 LinEq1:  Iter=  8 NonCon=     1 RMS=6.70D-08 Max=7.65D-07 NDo=     1
 LinEq1:  Iter=  9 NonCon=     1 RMS=2.42D-08 Max=3.04D-07 NDo=     1
 LinEq1:  Iter= 10 NonCon=     1 RMS=1.17D-08 Max=1.70D-07 NDo=     1
 LinEq1:  Iter= 11 NonCon=     1 RMS=2.69D-09 Max=2.95D-08 NDo=     1
 LinEq1:  Iter= 12 NonCon=     1 RMS=7.56D-10 Max=8.17D-09 NDo=     1
 LinEq1:  Iter= 13 NonCon=     1 RMS=1.97D-10 Max=2.70D-09 NDo=     1
 LinEq1:  Iter= 14 NonCon=     0 RMS=4.99D-11 Max=6.14D-10 NDo=     1
 Linear equations converged to 1.000D-10 1.000D-09 after    14 iterations.
 End of Minotr F.D. properties file   721 does not exist.
 End of Minotr F.D. properties file   722 does not exist.
 End of Minotr F.D. properties file   788 does not exist.
 Calling FoFJK, ICntrl=  10002127 FMM=F ISym2X=0 I1Cent= 0 IOpClX= 1 NMat=1 NMatS=1 NMatT=0.
 ***** Axes restored to original set *****
 -------------------------------------------------------------------
 Center     Atomic                   Forces (Hartrees/Bohr)
 Number     Number              X              Y              Z
 -------------------------------------------------------------------
      1        6          -0.002370053   -0.000691743   -0.000851071
      2        6           0.002784104   -0.006309763    0.004866669
      3        1           0.001630926   -0.000881551   -0.000201848
      4        1           0.000668522    0.000282076    0.000755059
      5        1           0.000724286    0.000167907   -0.000500119
      6        6           0.006897889    0.005931105   -0.016498956
      7        1          -0.000861599    0.001183845    0.000666928
      8        1          -0.000211916   -0.000752701   -0.001974588
      9        1          -0.005311290    0.000532218    0.006435019
     10        1          -0.003950869    0.000538606    0.007302906
 -------------------------------------------------------------------
 Cartesian Forces:  Max     0.016498956 RMS     0.004414574

 GradGradGradGradGradGradGradGradGradGradGradGradGradGradGradGradGradGrad
 Berny optimization.
 Using GEDIIS/GDIIS optimizer.
 FormGI is forming the generalized inverse of G from B-inverse, IUseBI=4.
 Internal  Forces:  Max     0.007223115 RMS     0.002302809
 Search for a local minimum.
 Step number   2 out of a maximum of  100
 All quantities printed in internal units (Hartrees-Bohrs-Radians)
 Mixed Optimization -- RFO/linear search
 Update second derivatives using D2CorX and points    1    2
 DE= -1.16D-02 DEPred=-1.31D-02 R= 8.85D-01
 TightC=F SS=  1.41D+00  RLast= 4.56D-01 DXNew= 5.0454D-01 1.3667D+00
 Trust test= 8.85D-01 RLast= 4.56D-01 DXMaxT set to 5.05D-01
 ITU=  1  0
 Use linear search instead of GDIIS.
     Eigenvalues ---    0.00671   0.00672   0.02737   0.04141   0.05520
     Eigenvalues ---    0.05624   0.05738   0.09713   0.13074   0.15993
     Eigenvalues ---    0.16000   0.16000   0.16000   0.17478   0.22323
     Eigenvalues ---    0.27286   0.31332   0.31463   0.31672   0.31834
     Eigenvalues ---    0.31881   0.31895   0.31904   0.33373
 RFO step:  Lambda=-2.97774386D-03 EMin= 6.71368720D-03
 Quartic linear search produced a step of  0.35780.
 Iteration  1 RMS(Cart)=  0.04731098 RMS(Int)=  0.00762367
 Iteration  2 RMS(Cart)=  0.00444564 RMS(Int)=  0.00628077
 Iteration  3 RMS(Cart)=  0.00003260 RMS(Int)=  0.00628069
 Iteration  4 RMS(Cart)=  0.00000041 RMS(Int)=  0.00628069
 Variable       Old X    -DE/DX   Delta X   Delta X   Delta X     New X
                                 (Linear)    (Quad)   (Total)
    R1        2.88437  -0.00066   0.01298  -0.01703  -0.00405   2.88032
    R2        2.06212  -0.00143  -0.01716   0.01263  -0.00454   2.05758
    R3        2.06308  -0.00099  -0.01701   0.01438  -0.00263   2.06044
    R4        2.06039  -0.00073  -0.01797   0.01650  -0.00147   2.05892
    R5        2.84119  -0.00722  -0.00246  -0.02853  -0.03099   2.81020
    R6        2.07635  -0.00020  -0.01596   0.01658   0.00062   2.07697
    R7        2.06859  -0.00203  -0.01873   0.01164  -0.00708   2.06151
    R8        2.06098  -0.00460  -0.01755  -0.00051  -0.01806   2.04292
    R9        2.06251  -0.00415  -0.01723   0.00106  -0.01617   2.04634
    A1        1.95265  -0.00151   0.00903  -0.02339  -0.01443   1.93821
    A2        1.93734  -0.00009   0.00231  -0.00317  -0.00089   1.93645
    A3        1.93628  -0.00034   0.00190  -0.00443  -0.00257   1.93371
    A4        1.87817   0.00078  -0.00504   0.01128   0.00617   1.88434
    A5        1.87988   0.00096  -0.00446   0.01279   0.00826   1.88814
    A6        1.87637   0.00033  -0.00445   0.00899   0.00454   1.88091
    A7        1.98722  -0.00195   0.01285  -0.02528  -0.01251   1.97472
    A8        1.91273  -0.00058   0.00077  -0.00956  -0.00860   1.90413
    A9        1.91657   0.00116   0.00212   0.00534   0.00729   1.92386
   A10        1.87559   0.00178  -0.01257   0.03213   0.01953   1.89511
   A11        1.91677   0.00028   0.00216  -0.00124   0.00068   1.91744
   A12        1.84953  -0.00061  -0.00659   0.00080  -0.00585   1.84368
   A13        2.06024   0.00049   0.04750   0.00463   0.03054   2.09078
   A14        2.04652   0.00108   0.04139   0.01644   0.03623   2.08274
   A15        1.94720   0.00301   0.01964   0.08685   0.08285   2.03005
    D1       -3.12033  -0.00018   0.00759  -0.00674   0.00085  -3.11947
    D2       -1.01932   0.00038   0.00068   0.01061   0.01134  -1.00798
    D3        1.00555  -0.00002  -0.00562   0.00914   0.00347   1.00903
    D4       -1.02201  -0.00028   0.00877  -0.01042  -0.00162  -1.02363
    D5        1.07900   0.00028   0.00187   0.00693   0.00886   1.08786
    D6        3.10387  -0.00012  -0.00444   0.00546   0.00100   3.10487
    D7        1.06310  -0.00015   0.00594  -0.00411   0.00181   1.06491
    D8       -3.11908   0.00041  -0.00096   0.01324   0.01230  -3.10678
    D9       -1.09421   0.00001  -0.00727   0.01177   0.00443  -1.08977
   D10       -3.00427   0.00329   0.04916   0.08368   0.13549  -2.86877
   D11        0.87070  -0.00417  -0.06288  -0.09889  -0.16470   0.70600
   D12        1.15717   0.00400   0.04862   0.08912   0.14066   1.29783
   D13       -1.25105  -0.00346  -0.06342  -0.09346  -0.15954  -1.41058
   D14       -0.84707   0.00361   0.06235   0.07137   0.13651  -0.71056
   D15        3.02790  -0.00385  -0.04969  -0.11120  -0.16368   2.86422
         Item               Value     Threshold  Converged?
 Maximum Force            0.007223     0.000450     NO 
 RMS     Force            0.002303     0.000300     NO 
 Maximum Displacement     0.119505     0.001800     NO 
 RMS     Displacement     0.047029     0.001200     NO 
 Predicted change in Energy=-2.202950D-03
 GradGradGradGradGradGradGradGradGradGradGradGradGradGradGradGradGradGrad

                          Input orientation:                          
 ---------------------------------------------------------------------
 Center     Atomic      Atomic             Coordinates (Angstroms)
 Number     Number       Type             X           Y           Z
 ---------------------------------------------------------------------
      1          6           0       -0.961554    0.661857   -0.006085
      2          6           0        0.562143    0.693835   -0.028561
      3          1           0       -1.373072    1.668292    0.051211
      4          1           0       -1.354886    0.188439   -0.906090
      5          1           0       -1.323948    0.097001    0.852224
      6          6           0        1.173569   -0.657431   -0.136705
      7          1           0        0.896572    1.298979   -0.882932
      8          1           0        0.941880    1.202544    0.858618
      9          1           0        2.221972   -0.792322    0.089921
     10          1           0        0.726989   -1.390465   -0.796892
 ---------------------------------------------------------------------
                    Distance matrix (angstroms):
                    1          2          3          4          5
     1  C    0.000000
     2  C    1.524199   0.000000
     3  H    1.088826   2.168176   0.000000
     4  H    1.090341   2.168059   1.762589   0.000000
     5  H    1.089534   2.165486   1.764367   1.760961   0.000000
     6  C    2.513232   1.487096   3.453937   2.774983   2.790114
     7  H    2.151143   1.099086   2.481995   2.510557   3.063694
     8  H    2.159425   1.090904   2.495562   3.068832   2.521158
     9  H    3.501242   2.231083   4.356657   3.840292   3.734374
    10  H    2.772829   2.227512   3.805986   2.615161   3.022992
                    6          7          8          9         10
     6  C    0.000000
     7  H    2.112137   0.000000
     8  H    2.122228   1.744806   0.000000
     9  H    1.081066   2.660200   2.491791   0.000000
    10  H    1.082875   2.696158   3.083924   1.838256   0.000000
 Stoichiometry    C3H7(2)
 Framework group  C1[X(C3H7)]
 Deg. of freedom    24
 Full point group                 C1      NOp   1
 Largest Abelian subgroup         C1      NOp   1
 Largest concise Abelian subgroup C1      NOp   1
                         Standard orientation:                         
 ---------------------------------------------------------------------
 Center     Atomic      Atomic             Coordinates (Angstroms)
 Number     Number       Type             X           Y           Z
 ---------------------------------------------------------------------
      1          6           0        1.221560   -0.240599   -0.039444
      2          6           0       -0.078084    0.549655    0.058561
      3          1           0        2.085574    0.411285    0.079159
      4          1           0        1.270535   -1.007881    0.733680
      5          1           0        1.300391   -0.737078   -1.006078
      6          6           0       -1.290771   -0.301806   -0.067380
      7          1           0       -0.112320    1.066751    1.027804
      8          1           0       -0.098348    1.337413   -0.695825
      9          1           0       -2.249731    0.155442   -0.267439
     10          1           0       -1.312327   -1.269427    0.418277
 ---------------------------------------------------------------------
 Rotational constants (GHZ):          33.1789754           9.0250856           7.8598627
 Standard basis: CC-pVTZ (5D, 7F)
 There are   210 symmetry adapted cartesian basis functions of A   symmetry.
 There are   188 symmetry adapted basis functions of A   symmetry.
   188 basis functions,   275 primitive gaussians,   210 cartesian basis functions
    13 alpha electrons       12 beta electrons
       nuclear repulsion energy        76.1216352212 Hartrees.
 NAtoms=   10 NActive=   10 NUniq=   10 SFac= 1.00D+00 NAtFMM=   60 NAOKFM=F Big=F
 Integral buffers will be    131072 words long.
 Raffenetti 2 integral format.
 Two-electron integral symmetry is turned on.
 Nuclear repulsion after empirical dispersion term =       76.1176887716 Hartrees.
 One-electron integrals computed using PRISM.
 NBasis=   188 RedAO= T EigKep=  8.83D-04  NBF=   188
 NBsUse=   188 1.00D-06 EigRej= -1.00D+00 NBFU=   188
 Initial guess from the checkpoint file:  "/localscratch/339542/Gau-49555.chk"
 B after Tr=    -0.000000   -0.000000   -0.000000
         Rot=    0.999978    0.006103   -0.002431   -0.001056 Ang=   0.76 deg.
 Initial guess <Sx>= 0.0000 <Sy>= 0.0000 <Sz>= 0.5000 <S**2>= 0.7554 S= 0.5027
 ExpMin= 1.03D-01 ExpMax= 8.24D+03 ExpMxC= 2.81D+02 IAcc=3 IRadAn=         5 AccDes= 0.00D+00
 Harris functional with IExCor=  419 and IRadAn=       5 diagonalized for initial guess.
 HarFok:  IExCor=  419 AccDes= 0.00D+00 IRadAn=         5 IDoV= 1 UseB2=F ITyADJ=14
 ICtDFT=  3500011 ScaDFX=  1.000000  1.000000  1.000000  1.000000
 FoFCou: FMM=F IPFlag=           0 FMFlag=      100000 FMFlg1=           0
         NFxFlg=           0 DoJE=T BraDBF=F KetDBF=T FulRan=T
         wScrn=  0.000000 ICntrl=       500 IOpCl=  0 I1Cent=   200000004 NGrid=           0
         NMat0=    1 NMatS0=      1 NMatT0=    0 NMatD0=    1 NMtDS0=    0 NMtDT0=    0
 Petite list used in FoFCou.
 Keep R1 and R2 ints in memory in canonical form, NReq=357195436.
 Requested convergence on RMS density matrix=1.00D-08 within 128 cycles.
 Requested convergence on MAX density matrix=1.00D-06.
 Requested convergence on             energy=1.00D-06.
 No special actions if energy rises.
 Integral accuracy reduced to 1.0D-05 until final iterations.
 Initial convergence to 1.0D-05 achieved.  Increase integral accuracy.
 SCF Done:  E(UB2PLYPD3) =  -118.229397636     A.U. after   12 cycles
            NFock= 12  Conv=0.39D-08     -V/T= 2.0046
 <Sx>= 0.0000 <Sy>= 0.0000 <Sz>= 0.5000 <S**2>= 0.7561 S= 0.5030
 <L.S>=  0.00000000000    
 Annihilation of the first spin contaminant:
 S**2 before annihilation     0.7561,   after     0.7500
 DoSCS=T DFT=T ScalE2(SS,OS)=  0.270000  0.270000
 ExpMin= 1.03D-01 ExpMax= 8.24D+03 ExpMxC= 2.81D+02 IAcc=3 IRadAn=         5 AccDes= 0.00D+00
 HarFok:  IExCor=  205 AccDes= 0.00D+00 IRadAn=         5 IDoV=-2 UseB2=F ITyADJ=14
 ICtDFT= 12500011 ScaDFX=  1.000000  1.000000  1.000000  1.000000
 Range of M.O.s used for correlation:     4   188
 NBasis=   188 NAE=    13 NBE=    12 NFC=     3 NFV=     0
 NROrb=    185 NOA=    10 NOB=     9 NVA=   175 NVB=   176

 **** Warning!!: The largest alpha MO coefficient is  0.12396959D+02


 **** Warning!!: The largest beta MO coefficient is  0.11980001D+02

 DoSCS=T DFT=T ScalE2(SS,OS)=  0.270000  0.270000
 Fully direct method using O(ONN) memory.
 JobTyp=2 Pass  1:  I=   4 to  13 NPSUse= 40 ParTrn=T ParDer=T DoDerP=T.
 JobTyp=3 Pass  1:  I=   4 to  12 NPSUse= 40 ParTrn=T ParDer=T DoDerP=T.
 Spin components of T(2) and E(2):
     alpha-alpha T2 =       0.3080960985D-01 E2=     -0.2000931746D-01
     alpha-beta  T2 =       0.1787624898D+00 E2=     -0.1284373707D+00
     beta-beta   T2 =       0.2424094578D-01 E2=     -0.1562015233D-01
 (S**2,0)=  0.75608D+00           (S**2,1)=  0.74754D+00
 Scaling Projection term by:   0.270000
 E(PUHF)=      -0.11823171063D+03        E(PMP2)=      -0.11839365125D+03
 E2(B2PLYPD3) =    -0.1640668405D+00 E(B2PLYPD3) =    -0.11839346447692D+03
          IDoAtm=1111111111
          Differentiating once with respect to electric field.
                with respect to dipole field.
          Differentiating once with respect to nuclear coordinates.
 Keep R1 and R2 ints in memory in canonical form, NReq=357202664.
          There are     1 degrees of freedom in the 1st order CPHF.  IDoFFX=0 NUNeed=     1.
 LinEq1:  Iter=  0 NonCon=     1 RMS=5.97D-04 Max=1.52D-02 NDo=     1
 AX will form     1 AO Fock derivatives at one time.
 LinEq1:  Iter=  1 NonCon=     1 RMS=2.28D-04 Max=3.62D-03 NDo=     1
 LinEq1:  Iter=  2 NonCon=     1 RMS=8.02D-05 Max=1.45D-03 NDo=     1
 LinEq1:  Iter=  3 NonCon=     1 RMS=2.00D-05 Max=2.30D-04 NDo=     1
 LinEq1:  Iter=  4 NonCon=     1 RMS=9.93D-06 Max=1.72D-04 NDo=     1
 LinEq1:  Iter=  5 NonCon=     1 RMS=2.99D-06 Max=4.25D-05 NDo=     1
 LinEq1:  Iter=  6 NonCon=     1 RMS=9.93D-07 Max=1.08D-05 NDo=     1
 LinEq1:  Iter=  7 NonCon=     1 RMS=2.20D-07 Max=2.36D-06 NDo=     1
 LinEq1:  Iter=  8 NonCon=     1 RMS=6.44D-08 Max=6.12D-07 NDo=     1
 LinEq1:  Iter=  9 NonCon=     1 RMS=2.09D-08 Max=2.51D-07 NDo=     1
 LinEq1:  Iter= 10 NonCon=     1 RMS=1.04D-08 Max=1.46D-07 NDo=     1
 LinEq1:  Iter= 11 NonCon=     1 RMS=2.58D-09 Max=2.90D-08 NDo=     1
 LinEq1:  Iter= 12 NonCon=     1 RMS=7.28D-10 Max=7.63D-09 NDo=     1
 LinEq1:  Iter= 13 NonCon=     1 RMS=1.89D-10 Max=2.76D-09 NDo=     1
 LinEq1:  Iter= 14 NonCon=     0 RMS=4.93D-11 Max=4.85D-10 NDo=     1
 Linear equations converged to 1.000D-10 1.000D-09 after    14 iterations.
 End of Minotr F.D. properties file   721 does not exist.
 End of Minotr F.D. properties file   722 does not exist.
 End of Minotr F.D. properties file   788 does not exist.
 Calling FoFJK, ICntrl=  10002127 FMM=F ISym2X=0 I1Cent= 0 IOpClX= 1 NMat=1 NMatS=1 NMatT=0.
 ***** Axes restored to original set *****
 -------------------------------------------------------------------
 Center     Atomic                   Forces (Hartrees/Bohr)
 Number     Number              X              Y              Z
 -------------------------------------------------------------------
      1        6          -0.001640298    0.000746642    0.000286436
      2        6           0.001148420   -0.002710705   -0.000084254
      3        1          -0.000593357   -0.000053812   -0.000083701
      4        1           0.000226033    0.000098303    0.000201105
      5        1          -0.000000587    0.000204253   -0.000268495
      6        6           0.003130438    0.000647699   -0.004782060
      7        1          -0.000500768    0.001266706    0.000377478
      8        1           0.000129853    0.000548351    0.000287925
      9        1          -0.000953049   -0.000679866    0.001809538
     10        1          -0.000946686   -0.000067571    0.002256028
 -------------------------------------------------------------------
 Cartesian Forces:  Max     0.004782060 RMS     0.001398831

 GradGradGradGradGradGradGradGradGradGradGradGradGradGradGradGradGradGrad
 Berny optimization.
 Using GEDIIS/GDIIS optimizer.
 FormGI is forming the generalized inverse of G from B-inverse, IUseBI=4.
 Internal  Forces:  Max     0.001988798 RMS     0.000729212
 Search for a local minimum.
 Step number   3 out of a maximum of  100
 All quantities printed in internal units (Hartrees-Bohrs-Radians)
 Mixed Optimization -- En-DIIS/RFO-DIIS
 Update second derivatives using D2CorX and points    2    3
 DE= -2.59D-03 DEPred=-2.20D-03 R= 1.18D+00
 TightC=F SS=  1.41D+00  RLast= 3.85D-01 DXNew= 8.4853D-01 1.1555D+00
 Trust test= 1.18D+00 RLast= 3.85D-01 DXMaxT set to 8.49D-01
 ITU=  1  1  0
 Use linear search instead of GDIIS.
     Eigenvalues ---    0.00669   0.00671   0.01675   0.04193   0.05521
     Eigenvalues ---    0.05722   0.05767   0.09606   0.12978   0.15985
     Eigenvalues ---    0.15999   0.16000   0.16096   0.17526   0.22478
     Eigenvalues ---    0.26298   0.31332   0.31473   0.31707   0.31872
     Eigenvalues ---    0.31881   0.31897   0.31930   0.34549
 RFO step:  Lambda=-3.13341384D-04 EMin= 6.69476896D-03
 Quartic linear search produced a step of  0.56821.
 Iteration  1 RMS(Cart)=  0.03172976 RMS(Int)=  0.00439959
 Iteration  2 RMS(Cart)=  0.00204884 RMS(Int)=  0.00385333
 Iteration  3 RMS(Cart)=  0.00000597 RMS(Int)=  0.00385332
 Iteration  4 RMS(Cart)=  0.00000003 RMS(Int)=  0.00385332
 Variable       Old X    -DE/DX   Delta X   Delta X   Delta X     New X
                                 (Linear)    (Quad)   (Total)
    R1        2.88032   0.00199  -0.00230   0.00950   0.00719   2.88751
    R2        2.05758   0.00017  -0.00258   0.00473   0.00215   2.05973
    R3        2.06044  -0.00029  -0.00150   0.00179   0.00029   2.06074
    R4        2.05892  -0.00032  -0.00083   0.00139   0.00056   2.05948
    R5        2.81020   0.00065  -0.01761   0.01403  -0.00358   2.80663
    R6        2.07697   0.00025   0.00035   0.00325   0.00360   2.08058
    R7        2.06151   0.00054  -0.00403   0.00766   0.00363   2.06514
    R8        2.04292  -0.00046  -0.01026   0.00624  -0.00403   2.03889
    R9        2.04634  -0.00094  -0.00919   0.00318  -0.00601   2.04033
    A1        1.93821   0.00086  -0.00820   0.01274   0.00452   1.94273
    A2        1.93645  -0.00038  -0.00050  -0.00475  -0.00526   1.93119
    A3        1.93371   0.00006  -0.00146   0.00126  -0.00021   1.93350
    A4        1.88434  -0.00025   0.00351  -0.00387  -0.00038   1.88397
    A5        1.88814  -0.00035   0.00470  -0.00373   0.00094   1.88908
    A6        1.88091   0.00003   0.00258  -0.00218   0.00040   1.88131
    A7        1.97472   0.00055  -0.00711   0.00861   0.00150   1.97622
    A8        1.90413  -0.00084  -0.00489  -0.00535  -0.01030   1.89383
    A9        1.92386  -0.00017   0.00414  -0.00828  -0.00416   1.91969
   A10        1.89511   0.00081   0.01110   0.01271   0.02381   1.91893
   A11        1.91744  -0.00020   0.00038  -0.00223  -0.00184   1.91560
   A12        1.84368  -0.00020  -0.00332  -0.00617  -0.00959   1.83409
   A13        2.09078   0.00085   0.01736   0.01064   0.01427   2.10505
   A14        2.08274   0.00002   0.02058   0.00147   0.00833   2.09107
   A15        2.03005   0.00010   0.04708   0.00340   0.03643   2.06648
    D1       -3.11947  -0.00018   0.00049  -0.00008   0.00041  -3.11906
    D2       -1.00798   0.00062   0.00644   0.01800   0.02441  -0.98357
    D3        1.00903  -0.00019   0.00197   0.00286   0.00487   1.01389
    D4       -1.02363  -0.00018  -0.00092   0.00034  -0.00058  -1.02421
    D5        1.08786   0.00062   0.00503   0.01842   0.02342   1.11128
    D6        3.10487  -0.00019   0.00057   0.00328   0.00388   3.10874
    D7        1.06491  -0.00035   0.00103  -0.00468  -0.00365   1.06126
    D8       -3.10678   0.00045   0.00699   0.01340   0.02035  -3.08643
    D9       -1.08977  -0.00036   0.00252  -0.00174   0.00080  -1.08897
   D10       -2.86877   0.00116   0.07699   0.01337   0.09124  -2.77753
   D11        0.70600  -0.00139  -0.09358  -0.02746  -0.12190   0.58411
   D12        1.29783   0.00129   0.07992   0.00558   0.08637   1.38419
   D13       -1.41058  -0.00125  -0.09065  -0.03525  -0.12677  -1.53736
   D14       -0.71056   0.00119   0.07757   0.00708   0.08551  -0.62505
   D15        2.86422  -0.00136  -0.09301  -0.03375  -0.12763   2.73659
         Item               Value     Threshold  Converged?
 Maximum Force            0.001989     0.000450     NO 
 RMS     Force            0.000729     0.000300     NO 
 Maximum Displacement     0.087920     0.001800     NO 
 RMS     Displacement     0.031338     0.001200     NO 
 Predicted change in Energy=-3.014190D-04
 GradGradGradGradGradGradGradGradGradGradGradGradGradGradGradGradGradGrad

                          Input orientation:                          
 ---------------------------------------------------------------------
 Center     Atomic      Atomic             Coordinates (Angstroms)
 Number     Number       Type             X           Y           Z
 ---------------------------------------------------------------------
      1          6           0       -0.956663    0.658640   -0.010522
      2          6           0        0.570411    0.700196   -0.043963
      3          1           0       -1.378650    1.660799    0.064483
      4          1           0       -1.348707    0.196003   -0.916861
      5          1           0       -1.309076    0.075649    0.840158
      6          6           0        1.190192   -0.642976   -0.176593
      7          1           0        0.884308    1.342990   -0.880905
      8          1           0        0.950401    1.195414    0.853053
      9          1           0        2.215729   -0.806164    0.116225
     10          1           0        0.691721   -1.409822   -0.750367
 ---------------------------------------------------------------------
                    Distance matrix (angstroms):
                    1          2          3          4          5
     1  C    0.000000
     2  C    1.528006   0.000000
     3  H    1.089964   2.175628   0.000000
     4  H    1.090496   2.167758   1.763394   0.000000
     5  H    1.089830   2.168917   1.766129   1.761582   0.000000
     6  C    2.516102   1.485204   3.458966   2.774507   2.792229
     7  H    2.148273   1.100993   2.473002   2.510622   3.062538
     8  H    2.161199   1.092827   2.502580   3.068764   2.521760
     9  H    3.496540   2.236482   4.359833   3.844062   3.704851
    10  H    2.746466   2.228429   3.791982   2.601873   2.956278
                    6          7          8          9         10
     6  C    0.000000
     7  H    2.129244   0.000000
     8  H    2.120695   1.741481   0.000000
     9  H    1.078934   2.717686   2.479977   0.000000
    10  H    1.079695   2.762626   3.070036   1.854180   0.000000
 Stoichiometry    C3H7(2)
 Framework group  C1[X(C3H7)]
 Deg. of freedom    24
 Full point group                 C1      NOp   1
 Largest Abelian subgroup         C1      NOp   1
 Largest concise Abelian subgroup C1      NOp   1
                         Standard orientation:                         
 ---------------------------------------------------------------------
 Center     Atomic      Atomic             Coordinates (Angstroms)
 Number     Number       Type             X           Y           Z
 ---------------------------------------------------------------------
      1          6           0        1.220299   -0.242870   -0.040984
      2          6           0       -0.080440    0.553040    0.056006
      3          1           0        2.090265    0.406766    0.054687
      4          1           0        1.272267   -0.992511    0.749281
      5          1           0        1.285683   -0.761841   -0.997082
      6          6           0       -1.295238   -0.296153   -0.038687
      7          1           0       -0.081821    1.105731    1.008223
      8          1           0       -0.106285    1.322545   -0.719536
      9          1           0       -2.244918    0.132724   -0.318459
     10          1           0       -1.282914   -1.297514    0.364880
 ---------------------------------------------------------------------
 Rotational constants (GHZ):          33.0066080           9.0352013           7.8460943
 Standard basis: CC-pVTZ (5D, 7F)
 There are   210 symmetry adapted cartesian basis functions of A   symmetry.
 There are   188 symmetry adapted basis functions of A   symmetry.
   188 basis functions,   275 primitive gaussians,   210 cartesian basis functions
    13 alpha electrons       12 beta electrons
       nuclear repulsion energy        76.0840783741 Hartrees.
 NAtoms=   10 NActive=   10 NUniq=   10 SFac= 1.00D+00 NAtFMM=   60 NAOKFM=F Big=F
 Integral buffers will be    131072 words long.
 Raffenetti 2 integral format.
 Two-electron integral symmetry is turned on.
 Nuclear repulsion after empirical dispersion term =       76.0801309524 Hartrees.
 One-electron integrals computed using PRISM.
 NBasis=   188 RedAO= T EigKep=  8.46D-04  NBF=   188
 NBsUse=   188 1.00D-06 EigRej= -1.00D+00 NBFU=   188
 Initial guess from the checkpoint file:  "/localscratch/339542/Gau-49555.chk"
 B after Tr=    -0.000000   -0.000000    0.000000
         Rot=    0.999977    0.006568   -0.001740   -0.000029 Ang=   0.78 deg.
 Initial guess <Sx>= 0.0000 <Sy>= 0.0000 <Sz>= 0.5000 <S**2>= 0.7561 S= 0.5030
 ExpMin= 1.03D-01 ExpMax= 8.24D+03 ExpMxC= 2.81D+02 IAcc=3 IRadAn=         5 AccDes= 0.00D+00
 Harris functional with IExCor=  419 and IRadAn=       5 diagonalized for initial guess.
 HarFok:  IExCor=  419 AccDes= 0.00D+00 IRadAn=         5 IDoV= 1 UseB2=F ITyADJ=14
 ICtDFT=  3500011 ScaDFX=  1.000000  1.000000  1.000000  1.000000
 FoFCou: FMM=F IPFlag=           0 FMFlag=      100000 FMFlg1=           0
         NFxFlg=           0 DoJE=T BraDBF=F KetDBF=T FulRan=T
         wScrn=  0.000000 ICntrl=       500 IOpCl=  0 I1Cent=   200000004 NGrid=           0
         NMat0=    1 NMatS0=      1 NMatT0=    0 NMatD0=    1 NMtDS0=    0 NMtDT0=    0
 Petite list used in FoFCou.
 Keep R1 and R2 ints in memory in canonical form, NReq=357195436.
 Requested convergence on RMS density matrix=1.00D-08 within 128 cycles.
 Requested convergence on MAX density matrix=1.00D-06.
 Requested convergence on             energy=1.00D-06.
 No special actions if energy rises.
 Integral accuracy reduced to 1.0D-05 until final iterations.
 Initial convergence to 1.0D-05 achieved.  Increase integral accuracy.
 SCF Done:  E(UB2PLYPD3) =  -118.229801752     A.U. after   11 cycles
            NFock= 11  Conv=0.73D-08     -V/T= 2.0047
 <Sx>= 0.0000 <Sy>= 0.0000 <Sz>= 0.5000 <S**2>= 0.7565 S= 0.5032
 <L.S>=  0.00000000000    
 Annihilation of the first spin contaminant:
 S**2 before annihilation     0.7565,   after     0.7500
 DoSCS=T DFT=T ScalE2(SS,OS)=  0.270000  0.270000
 ExpMin= 1.03D-01 ExpMax= 8.24D+03 ExpMxC= 2.81D+02 IAcc=3 IRadAn=         5 AccDes= 0.00D+00
 HarFok:  IExCor=  205 AccDes= 0.00D+00 IRadAn=         5 IDoV=-2 UseB2=F ITyADJ=14
 ICtDFT= 12500011 ScaDFX=  1.000000  1.000000  1.000000  1.000000
 Range of M.O.s used for correlation:     4   188
 NBasis=   188 NAE=    13 NBE=    12 NFC=     3 NFV=     0
 NROrb=    185 NOA=    10 NOB=     9 NVA=   175 NVB=   176

 **** Warning!!: The largest alpha MO coefficient is  0.11921043D+02


 **** Warning!!: The largest beta MO coefficient is  0.11914584D+02

 DoSCS=T DFT=T ScalE2(SS,OS)=  0.270000  0.270000
 Fully direct method using O(ONN) memory.
 JobTyp=2 Pass  1:  I=   4 to  13 NPSUse= 40 ParTrn=T ParDer=T DoDerP=T.
 JobTyp=3 Pass  1:  I=   4 to  12 NPSUse= 40 ParTrn=T ParDer=T DoDerP=T.
 Spin components of T(2) and E(2):
     alpha-alpha T2 =       0.3088823621D-01 E2=     -0.2004654819D-01
     alpha-beta  T2 =       0.1789598001D+00 E2=     -0.1285004384D+00
[...]
      5        1           0.000001402   -0.000002008    0.000000675
      6        6           0.000005749    0.000000043   -0.000002719
      7        1          -0.000002605   -0.000004210   -0.000001702
      8        1          -0.000001642    0.000004582    0.000002794
      9        1           0.000005157   -0.000001103    0.000003232
     10        1          -0.000008332   -0.000007761   -0.000004518
 -------------------------------------------------------------------
 Cartesian Forces:  Max     0.000011495 RMS     0.000004831
 FormGI is forming the generalized inverse of G from B-inverse, IUseBI=4.

 GradGradGradGradGradGradGradGradGradGradGradGradGradGradGradGradGradGrad
 Berny optimization.
 Internal  Forces:  Max     0.000011881 RMS     0.000003549
 Search for a local minimum.
 Step number   1 out of a maximum of    2
 All quantities printed in internal units (Hartrees-Bohrs-Radians)
 Second derivative matrix not updated -- analytic derivatives used.
 ITU=  0
     Eigenvalues ---    0.00045   0.00245   0.00712   0.03755   0.04247
     Eigenvalues ---    0.04594   0.04622   0.07768   0.10180   0.10501
     Eigenvalues ---    0.11394   0.12257   0.13789   0.16139   0.20783
     Eigenvalues ---    0.29784   0.30318   0.32214   0.33772   0.33936
     Eigenvalues ---    0.34266   0.34825   0.36536   0.36777
 Angle between quadratic step and forces=  76.38 degrees.
 Linear search not attempted -- first point.
 Iteration  1 RMS(Cart)=  0.00018670 RMS(Int)=  0.00000002
 Iteration  2 RMS(Cart)=  0.00000002 RMS(Int)=  0.00000000
 Variable       Old X    -DE/DX   Delta X   Delta X   Delta X     New X
                                 (Linear)    (Quad)   (Total)
    R1        2.88671   0.00001   0.00000   0.00004   0.00004   2.88676
    R2        2.05767   0.00000   0.00000   0.00000   0.00000   2.05768
    R3        2.05971   0.00000   0.00000   0.00001   0.00001   2.05972
    R4        2.05824   0.00000   0.00000   0.00000   0.00000   2.05824
    R5        2.80766   0.00001   0.00000   0.00003   0.00003   2.80769
    R6        2.07713  -0.00000   0.00000  -0.00001  -0.00001   2.07712
    R7        2.06545   0.00000   0.00000   0.00000   0.00000   2.06546
    R8        2.03855   0.00001   0.00000   0.00001   0.00001   2.03857
    R9        2.04029   0.00001   0.00000   0.00003   0.00003   2.04033
    A1        1.94316  -0.00000   0.00000  -0.00004  -0.00004   1.94312
    A2        1.93235  -0.00000   0.00000  -0.00001  -0.00001   1.93234
    A3        1.93491  -0.00000   0.00000  -0.00001  -0.00001   1.93490
    A4        1.88302   0.00000   0.00000   0.00001   0.00001   1.88304
    A5        1.88734   0.00000   0.00000   0.00002   0.00002   1.88737
    A6        1.88084   0.00000   0.00000   0.00003   0.00003   1.88086
    A7        1.97733  -0.00000   0.00000  -0.00004  -0.00004   1.97729
    A8        1.89841   0.00000   0.00000  -0.00004  -0.00004   1.89837
    A9        1.91958  -0.00000   0.00000  -0.00000  -0.00000   1.91958
   A10        1.91591   0.00000   0.00000  -0.00001  -0.00001   1.91590
   A11        1.91569   0.00000   0.00000   0.00006   0.00006   1.91575
   A12        1.83116   0.00000   0.00000   0.00004   0.00004   1.83120
   A13        2.11240   0.00000   0.00000   0.00004   0.00004   2.11244
   A14        2.10338  -0.00000   0.00000  -0.00004  -0.00004   2.10334
   A15        2.05738   0.00000   0.00000   0.00003   0.00003   2.05740
    D1       -3.11579   0.00000   0.00000  -0.00034  -0.00034  -3.11613
    D2       -0.98009  -0.00000   0.00000  -0.00041  -0.00041  -0.98050
    D3        1.01634  -0.00000   0.00000  -0.00038  -0.00038   1.01596
    D4       -1.02107   0.00000   0.00000  -0.00035  -0.00035  -1.02142
    D5        1.11463  -0.00000   0.00000  -0.00042  -0.00042   1.11420
    D6        3.11106  -0.00000   0.00000  -0.00039  -0.00039   3.11067
    D7        1.06549   0.00000   0.00000  -0.00033  -0.00033   1.06515
    D8       -3.08200  -0.00000   0.00000  -0.00041  -0.00041  -3.08241
    D9       -1.08557  -0.00000   0.00000  -0.00037  -0.00037  -1.08594
   D10       -2.83054   0.00000   0.00000   0.00030   0.00030  -2.83024
   D11        0.46600  -0.00000   0.00000   0.00008   0.00008   0.46608
   D12        1.32671   0.00000   0.00000   0.00039   0.00039   1.32710
   D13       -1.65994   0.00000   0.00000   0.00017   0.00017  -1.65977
   D14       -0.67735  -0.00000   0.00000   0.00031   0.00031  -0.67703
   D15        2.61919  -0.00000   0.00000   0.00009   0.00009   2.61929
         Item               Value     Threshold  Converged?
 Maximum Force            0.000012     0.000450     YES
 RMS     Force            0.000004     0.000300     YES
 Maximum Displacement     0.000541     0.001800     YES
 RMS     Displacement     0.000187     0.001200     YES
 Predicted change in Energy=-3.410071D-09
 Optimization completed.
    -- Stationary point found.
                           ----------------------------
                           !   Optimized Parameters   !
                           ! (Angstroms and Degrees)  !
 --------------------------                            --------------------------
 ! Name  Definition              Value          Derivative Info.                !
 --------------------------------------------------------------------------------
 ! R1    R(1,2)                  1.5276         -DE/DX =    0.0                 !
 ! R2    R(1,3)                  1.0889         -DE/DX =    0.0                 !
 ! R3    R(1,4)                  1.09           -DE/DX =    0.0                 !
 ! R4    R(1,5)                  1.0892         -DE/DX =    0.0                 !
 ! R5    R(2,6)                  1.4857         -DE/DX =    0.0                 !
 ! R6    R(2,7)                  1.0992         -DE/DX =    0.0                 !
 ! R7    R(2,8)                  1.093          -DE/DX =    0.0                 !
 ! R8    R(6,9)                  1.0788         -DE/DX =    0.0                 !
 ! R9    R(6,10)                 1.0797         -DE/DX =    0.0                 !
 ! A1    A(2,1,3)              111.335          -DE/DX =    0.0                 !
 ! A2    A(2,1,4)              110.7154         -DE/DX =    0.0                 !
 ! A3    A(2,1,5)              110.8622         -DE/DX =    0.0                 !
 ! A4    A(3,1,4)              107.8893         -DE/DX =    0.0                 !
 ! A5    A(3,1,5)              108.1368         -DE/DX =    0.0                 !
 ! A6    A(4,1,5)              107.7641         -DE/DX =    0.0                 !
 ! A7    A(1,2,6)              113.2926         -DE/DX =    0.0                 !
 ! A8    A(1,2,7)              108.771          -DE/DX =    0.0                 !
 ! A9    A(1,2,8)              109.9839         -DE/DX =    0.0                 !
 ! A10   A(6,2,7)              109.7738         -DE/DX =    0.0                 !
 ! A11   A(6,2,8)              109.7609         -DE/DX =    0.0                 !
 ! A12   A(7,2,8)              104.9176         -DE/DX =    0.0                 !
 ! A13   A(2,6,9)              121.0316         -DE/DX =    0.0                 !
 ! A14   A(2,6,10)             120.5146         -DE/DX =    0.0                 !
 ! A15   A(9,6,10)             117.879          -DE/DX =    0.0                 !
 ! D1    D(3,1,2,6)           -178.5218         -DE/DX =    0.0                 !
 ! D2    D(3,1,2,7)            -56.1552         -DE/DX =    0.0                 !
 ! D3    D(3,1,2,8)             58.232          -DE/DX =    0.0                 !
 ! D4    D(4,1,2,6)            -58.5031         -DE/DX =    0.0                 !
 ! D5    D(4,1,2,7)             63.8635         -DE/DX =    0.0                 !
 ! D6    D(4,1,2,8)            178.2508         -DE/DX =    0.0                 !
 ! D7    D(5,1,2,6)             61.0479         -DE/DX =    0.0                 !
 ! D8    D(5,1,2,7)           -176.5856         -DE/DX =    0.0                 !
 ! D9    D(5,1,2,8)            -62.1983         -DE/DX =    0.0                 !
 ! D10   D(1,2,6,9)           -162.1781         -DE/DX =    0.0                 !
 ! D11   D(1,2,6,10)            26.6999         -DE/DX =    0.0                 !
 ! D12   D(7,2,6,9)             76.0147         -DE/DX =    0.0                 !
 ! D13   D(7,2,6,10)           -95.1073         -DE/DX =    0.0                 !
 ! D14   D(8,2,6,9)            -38.8092         -DE/DX =    0.0                 !
 ! D15   D(8,2,6,10)           150.0688         -DE/DX =    0.0                 !
 --------------------------------------------------------------------------------
 GradGradGradGradGradGradGradGradGradGradGradGradGradGradGradGradGradGrad


 ----------------------------------------------------------------------

 Electric dipole moment (input orientation):
 (Debye = 10**-18 statcoulomb cm , SI units = C m)
                  (au)            (Debye)         (10**-30 SI)
   Tot        0.115658D+00      0.293974D+00      0.980593D+00
   x         -0.110322D-01     -0.280409D-01     -0.935345D-01
   y          0.112456D+00      0.285834D+00      0.953440D+00
   z         -0.246751D-01     -0.627178D-01     -0.209204D+00

 Dipole polarizability, Alpha (input orientation).
 (esu units = cm**3 , SI units = C**2 m**2 J**-1)
 Alpha(0;0):
               (au)            (10**-24 esu)      (10**-40 SI)
   iso        0.368010D+02      0.545335D+01      0.606767D+01
   aniso      0.852291D+01      0.126296D+01      0.140524D+01
   xx         0.397318D+02      0.588764D+01      0.655088D+01
   yx        -0.263665D+01     -0.390711D+00     -0.434724D+00
   yy         0.384047D+02      0.569099D+01      0.633208D+01
   zx         0.485111D+00      0.718860D-01      0.799840D-01
   zy         0.107959D+01      0.159979D+00      0.178000D+00
   zz         0.322667D+02      0.478143D+01      0.532006D+01

 ----------------------------------------------------------------------

 Dipole orientation:
     6         -1.69456290         -0.10334361          1.39031384
     6          1.17945072         -0.30204540          1.20682202
     1         -2.36163735         -0.61127341          3.26941849
     1         -2.31861015          1.81948038          0.99570454
     1         -2.60394060         -1.35056882          0.02877194
     6          2.18514620          0.43749047         -1.30805672
     1          2.02736623          0.89044937          2.68109038
     1          1.78478245         -2.22326068          1.66355131
     1          4.06207045         -0.10472808         -1.89016744
     1          1.16368342          1.75333452         -2.48617842

 Electric dipole moment (dipole orientation):
 (Debye = 10**-18 statcoulomb cm , SI units = C m)
                  (au)            (Debye)         (10**-30 SI)
   Tot        0.115658D+00      0.293974D+00      0.980593D+00
   x          0.000000D+00      0.000000D+00      0.000000D+00
   y          0.000000D+00      0.000000D+00      0.000000D+00
   z          0.115658D+00      0.293974D+00      0.980593D+00

 Dipole polarizability, Alpha (dipole orientation).
 (esu units = cm**3 , SI units = C**2 m**2 J**-1)
 Alpha(0;0):
               (au)            (10**-24 esu)      (10**-40 SI)
   iso        0.368010D+02      0.545335D+01      0.606767D+01
   aniso      0.852291D+01      0.126296D+01      0.140524D+01
   xx         0.391484D+02      0.580120D+01      0.645471D+01
   yx        -0.598716D+00     -0.887206D-01     -0.987150D-01
   yy         0.330564D+02      0.489845D+01      0.545026D+01
   zx        -0.299177D+01     -0.443335D+00     -0.493276D+00
   zy        -0.204002D+01     -0.302299D+00     -0.336353D+00
   zz         0.381983D+02      0.566040D+01      0.629805D+01

 ----------------------------------------------------------------------
 1\1\GINC-N68\Freq\UB2PLYPD3-FC\CC-pVTZ\C3H7(2)\ROOT\31-May-2019\0\\#N 
 Geom=AllCheck Guess=TCheck SCRF=Check GenChk UB2PLYPD3(FC)/CC-pVTZ Fre
 q\\Title Card Required\\0,2\C,-0.9559971321,0.6588842254,-0.0182547947
 \C,0.5707601366,0.7039447645,-0.0403708079\H,-1.3806551604,1.658105667
 2,0.0646132868\H,-1.341609937,0.2058953766,-0.9315443765\H,-1.31443680
 74,0.0673121028,0.8230881815\C,1.1959881303,-0.6357675928,-0.187721020
 7\H,0.8934431096,1.357427371,-0.8631777737\H,0.9433427367,1.1879508195
 ,0.8660225816\H,2.233080463,-0.7959919418,0.0622424733\H,0.6657491607,
 -1.4370325924,-0.6801887497\\Version=ES64L-G16RevB.01\State=2-A\HF=-11
 8.2298656\MP2=-118.3940051\PUHF=-118.232332\PMP2-0=-118.3942058\S2=0.7
 56538\S2-1=0.747381\S2A=0.750028\RMSD=2.777e-09\RMSF=4.831e-06\ZeroPoi
 nt=0.0887536\Thermal=0.0936675\Dipole=-0.0110322,0.1124558,-0.0246751\
 DipoleDeriv=0.0368701,-0.004928,0.0010795,0.0244754,0.0950138,-0.00273
 53,0.0088681,-0.0054242,0.1164473,0.1034082,-0.0208674,-0.0297959,0.01
 71252,0.0574419,-0.029348,-0.0418846,-0.0078844,0.1764523,-0.0230178,0
 .0670923,0.0075674,0.1058894,-0.1268811,-0.0173982,0.008036,-0.0145551
 ,0.0668119,-0.0025247,-0.0182391,-0.0327618,-0.0513726,0.021367,-0.080
 5137,-0.0789819,-0.0750762,-0.0930431,-0.0034266,-0.0175388,0.0284015,
 -0.0630944,0.0020063,0.0939771,0.0706272,0.0827043,-0.064384,0.0306262
 ,-0.0088953,0.1440863,-0.0362715,0.0628052,0.1249761,0.1431698,0.12168
 25,-0.2676519,-0.0135254,-0.0064659,0.0510072,-0.0197615,-0.0711108,0.
 0867794,0.0626865,0.1130943,-0.0502885,-0.0274779,-0.0063499,-0.057070
 3,-0.0223683,-0.0127075,-0.076796,-0.0683364,-0.1041344,-0.0786436,-0.
 1002903,0.0614561,-0.0454749,0.0439154,0.0135152,-0.0339704,-0.0513516
 ,-0.0277128,0.1118315,-0.0006416,-0.045264,-0.0670391,0.001463,-0.0414
 501,-0.064971,-0.052833,-0.0826941,0.0824682\Polar=39.7317658,-2.63664
 77,38.4046873,0.4851111,1.0795895,32.2666925\PG=C01 [X(C3H7)]\NImag=0\
 \0.47121315,-0.00701871,0.58022284,-0.00045285,-0.00012137,0.57148891,
 -0.19173853,-0.00763814,0.00165363,0.47692253,-0.00828691,-0.07826326,
 -0.00291612,0.01848984,0.50177558,0.00255299,-0.00447393,-0.07940805,0
 .02047476,0.02338553,0.53152234,-0.08513802,0.09120543,0.00777743,-0.0
 1195318,0.03216366,0.00357241,0.09416473,0.09324123,-0.27519856,-0.018
 84816,-0.00289325,0.00341279,0.00058653,-0.10192993,0.29733212,0.00792
 292,-0.01838721,-0.04994920,-0.00035108,-0.00055971,-0.00097736,-0.008
 70263,0.02069305,0.04875866,-0.07667745,-0.03629482,-0.07445588,-0.013
 95802,-0.01449095,-0.03031104,0.00396192,0.00444473,0.01148821,0.08667
 085,-0.03717438,-0.09386619,-0.09205123,-0.00052940,-0.00129803,-0.000
 91349,-0.01102162,-0.01194465,-0.02611600,0.04157652,0.09761204,-0.075
 73332,-0.09213418,-0.23584565,0.00085833,0.00086622,0.00131416,0.00014
 941,-0.00013647,-0.00151016,0.08336348,0.10209536,0.25414422,-0.072710
 82,-0.04437095,0.06402276,-0.01265668,-0.01814075,0.02731454,0.0035910
 6,0.00609360,-0.01074796,0.00305797,0.00714492,-0.00855768,0.08207759,
 -0.04544962,-0.12725817,0.11210750,-0.00015827,-0.00063506,-0.00001025
 ,-0.01000350,-0.01555912,0.02408323,0.00539919,0.00809481,-0.01151100,
 0.05053353,0.13404381,0.06529054,0.11189470,-0.20919435,-0.00067746,-0
 .00089819,0.00081352,-0.00196849,-0.00236402,0.00278767,0.00876547,0.0
 1583949,-0.02097912,-0.07157287,-0.12375951,0.22428340,-0.02024902,0.0
 3581846,0.00236003,-0.10889687,0.05380413,-0.00651710,-0.00698465,0.00
 019109,0.00024748,0.00179943,0.00065587,0.00024851,0.00213334,0.000439
 51,-0.00015555,0.57178089,0.00652304,-0.00129278,0.00124894,0.06224878
 ,-0.20334442,-0.02738281,-0.00184816,0.00051760,-0.00007927,-0.0017449
 2,0.00089051,-0.00010171,-0.00149812,0.00076007,0.00001596,-0.01830274
 ,0.51842124,-0.00032682,0.00191104,0.00023008,-0.00626274,-0.02448654,
 -0.05389106,-0.00108267,-0.00005598,0.00085425,-0.00022282,0.00090902,
 0.00029349,-0.00041968,-0.00045487,0.00034873,0.16694638,0.14177557,0.
 15975042,-0.01398706,-0.02043619,0.02729882,-0.06243082,-0.03624130,0.
 04807173,0.00169686,0.00052641,0.00011881,0.00160405,-0.00018985,-0.00
 051246,-0.00721607,-0.00024248,-0.00029193,0.00398312,0.00820011,-0.00
 884779,0.07376999,-0.00037280,0.00001820,0.00099656,-0.04526250,-0.121
 56309,0.11099067,-0.00024522,0.00047367,-0.00030285,-0.00008062,-0.000
 36844,0.00002335,0.00004660,0.00084322,-0.00014701,-0.00155587,-0.0269
 7883,0.01665073,0.04309324,0.14064960,-0.00041149,0.00011659,-0.000355
 72,0.05413328,0.09998802,-0.18054834,0.00044531,-0.00026837,-0.0001758
 5,0.00022241,-0.00014697,0.00080833,0.00009112,-0.00039977,0.00149800,
 -0.00403343,0.00123016,0.00609419,-0.05826811,-0.11753500,0.19837035,-
 0.01271985,-0.01430044,-0.02927008,-0.07756439,-0.03436517,-0.06841626
 ,0.00127117,0.00054837,0.00000824,-0.00705547,-0.00015582,0.00056196,0
 .00159709,-0.00028680,0.00047640,0.00612057,0.00584972,0.01017480,0.00
 311939,0.00319779,0.00778439,0.08517013,0.00015476,-0.00057939,-0.0000
 2833,-0.03649852,-0.09043076,-0.09421943,-0.00005140,0.00030089,0.0003
 9004,0.00009338,0.00077978,0.00004078,-0.00018047,-0.00038573,-0.00019
 211,-0.01071954,-0.02052774,-0.02389936,0.00572266,0.00815701,0.016150
 99,0.03846271,0.10536905,0.00074515,0.00154972,0.00191569,-0.07145500,
 -0.09336800,-0.22384713,-0.00063734,0.00032374,0.00001880,0.00064455,0
 .00048643,0.00166070,-0.00031339,0.00000291,0.00074969,-0.00044615,-0.
 00149099,0.00009195,-0.00836602,-0.00982117,-0.02449079,0.07836562,0.1
 0191808,0.24344006,0.00005659,0.00288564,-0.00002227,-0.00507227,-0.00
 311459,-0.00184542,-0.00069352,-0.00006176,0.00006871,0.00029607,-0.00
 012566,0.00007979,0.00013835,-0.00009044,-0.00004104,-0.32488368,0.043
 62131,-0.08101834,-0.00048219,0.00035778,-0.00007632,0.00040732,0.0000
 2922,0.00028071,0.33834211,0.00011490,-0.00539255,-0.00046795,0.026270
 33,0.00303313,0.00611584,0.00182552,0.00029642,-0.00002548,0.00011694,
 -0.00001120,0.00033267,-0.00001723,0.00006934,-0.00021512,0.04137676,-
 0.05897165,-0.00342408,-0.00054390,-0.00019863,0.00058622,-0.00078795,
 0.00124966,-0.00040294,-0.04803871,0.05378705,0.00115714,-0.00055325,0
 .00077849,0.00191806,-0.00204620,0.00174524,0.00027271,-0.00020765,0.0
 0025973,0.00027915,0.00004477,0.00014446,-0.00011438,-0.00001692,0.000
 00188,-0.07655312,-0.00260136,-0.03447243,0.00095264,-0.00050334,0.000
 21345,0.00046221,0.00114439,0.00064515,0.08372911,0.00228833,0.0301549
 5,0.00195100,0.00014973,0.00108841,0.00734822,0.01018204,0.00510339,0.
 00008363,-0.00016049,-0.00005271,0.00030066,-0.00018057,-0.00045802,-0
 .00001183,-0.00014111,0.00017492,-0.12480315,-0.10304901,-0.07894032,-
 0.00005727,0.00082161,0.00011284,-0.00034596,0.00298719,0.00118188,-0.
 00810879,-0.02031665,-0.01210353,0.12364349,-0.00173151,0.00160987,0.0
 0008015,-0.01402888,-0.01268688,-0.01407866,-0.00009477,0.00036884,0.0
 0030421,0.00098056,0.00011137,0.00052499,0.00038887,0.00002683,-0.0001
 7418,-0.10170766,-0.20947400,-0.10892553,0.00011131,-0.00103272,0.0002
 7813,0.00183761,-0.00393277,0.00080221,0.00453722,0.00613843,0.0024512
 3,0.10970726,0.21887103,-0.00074426,0.00019789,0.00033980,-0.00029177,
 0.00003500,0.00327667,0.00017387,0.00027732,-0.00006653,0.00022647,-0.
 00014740,-0.00003043,0.00029752,-0.00004130,-0.00030942,-0.08209706,-0
 .11261448,-0.07929963,-0.00015569,-0.00035194,-0.00141361,-0.00014729,
 -0.00130505,-0.00018413,-0.00115493,-0.00478748,0.00052908,0.08389315,
 0.11873745,0.07715820\\0.00001112,0.00000321,-0.00000177,-0.00000918,-
 0.00001149,-0.00000412,-0.00000263,-0.00000200,-0.00000116,0.00000041,
 -0.00000018,0.00000481,-0.00000140,0.00000201,-0.00000067,-0.00000575,
 -0.00000004,0.00000272,0.00000261,0.00000421,0.00000170,0.00000164,-0.
 00000458,-0.00000279,-0.00000516,0.00000110,-0.00000323,0.00000833,0.0
 0000776,0.00000452\\\@


 ART, GLORY, FREEDOM FAIL, BUT NATURE STILL IS FAIR.

                                           -- BYRON
 Job cpu time:       0 days  4 hours 13 minutes  7.3 seconds.
 Elapsed time:       0 days  0 hours  6 minutes 30.5 seconds.
 File lengths (MBytes):  RWF=   7557 Int=      0 D2E=      0 Chk=      7 Scr=      1
 Normal termination of Gaussian 16 at Fri May 31 23:12:30 2019.
