 Entering Gaussian System, Link 0=g16
 Initial command:
 /ichec/packages/gaussian/16b01/l1.exe "/localscratch/339542/Gau-6485.inp" -scrdir="/localscratch/339542/"
 Entering Link 1 = /ichec/packages/gaussian/16b01/l1.exe PID=      6494.
  
 Copyright (c) 1988-2017, Gaussian, Inc.  All Rights Reserved.
  
 This is part of the Gaussian(R) 16 program.  It is based on
 the Gaussian(R) 09 system (copyright 2009, Gaussian, Inc.),
 the Gaussian(R) 03 system (copyright 2003, Gaussian, Inc.),
 the Gaussian(R) 98 system (copyright 1998, Gaussian, Inc.),
 the Gaussian(R) 94 system (copyright 1995, Gaussian, Inc.),
 the Gaussian 92(TM) system (copyright 1992, Gaussian, Inc.),
 the Gaussian 90(TM) system (copyright 1990, Gaussian, Inc.),
 the Gaussian 88(TM) system (copyright 1988, Gaussian, Inc.),
 the Gaussian 86(TM) system (copyright 1986, Carnegie Mellon
 University), and the Gaussian 82(TM) system (copyright 1983,
 Carnegie Mellon University). Gaussian is a federally registered
 trademark of Gaussian, Inc.
  
 This software contains proprietary and confidential information,
 including trade secrets, belonging to Gaussian, Inc.
  
 This software is provided under written license and may be
 used, copied, transmitted, or stored only in accord with that
 written license.
  
 The following legend is applicable only to US Government
 contracts under FAR:
  
                    RESTRICTED RIGHTS LEGEND
  
 Use, reproduction and disclosure by the US Government is
 subject to restrictions as set forth in subparagraphs (a)
 and (c) of the Commercial Computer Software - Restricted
 Rights clause in FAR 52.227-19.
  
 Gaussian, Inc.
 340 Quinnipiac St., Bldg. 40, Wallingford CT 06492
  
  
 ---------------------------------------------------------------
 Warning -- This program may not be used in any manner that
 competes with the business of Gaussian, Inc. or will provide
 assistance to any competitor of Gaussian, Inc.  The licensee
 of this program is prohibited from giving any competitor of
 Gaussian, Inc. access to this program.  By using this program,
 the user acknowledges that Gaussian, Inc. is engaged in the
 business of creating and licensing software in the field of
 computational chemistry and represents and warrants to the
 licensee that it is not a competitor of Gaussian, Inc. and that
 it will not use this program in any manner prohibited above.
 ---------------------------------------------------------------
  

 Cite this work as:
 Gaussian 16, Revision B.01,
 M. J. Frisch, G. W. Trucks, H. B. Schlegel, G. E. Scuseria, 
 M. A. Robb, J. R. Cheeseman, G. Scalmani, V. Barone, 
 G. A. Petersson, H. Nakatsuji, X. Li, M. Caricato, A. V. Marenich, 
 J. Bloino, B. G. Janesko, R. Gomperts, B. Mennucci, H. P. Hratchian, 
 J. V. Ortiz, A. F. Izmaylov, J. L. Sonnenberg, D. Williams-Young, 
 F. Ding, F. Lipparini, F. Egidi, J. Goings, B. Peng, A. Petrone, 
 T. Henderson, D. Ranasinghe, V. G. Zakrzewski, J. Gao, N. Rega, 
 G. Zheng, W. Liang, M. Hada, M. Ehara, K. Toyota, R. Fukuda, 
 J. Hasegawa, M. Ishida, T. Nakajima, Y. Honda, O. Kitao, H. Nakai, 
 T. Vreven, K. Throssell, J. A. Montgomery, Jr., J. E. Peralta, 
 F. Ogliaro, M. J. Bearpark, J. J. Heyd, E. N. Brothers, K. N. Kudin, 
 V. N. Staroverov, T. A. Keith, R. Kobayashi, J. Normand, 
 K. Raghavachari, A. P. Rendell, J. C. Burant, S. S. Iyengar, 
 J. Tomasi, M. Cossi, J. M. Millam, M. Klene, C. Adamo, R. Cammi, 
 J. W. Ochterski, R. L. Martin, K. Morokuma, O. Farkas, 
 J. B. Foresman, and D. J. Fox, Gaussian, Inc., Wallingford CT, 2016.
 
 ******************************************
 Gaussian 16:  ES64L-G16RevB.01 20-Dec-2017
                31-May-2019 
 ******************************************
 %mem=80GB
 %nproc=40
 Will use up to   40 processors via shared memory.
 -----------------------------------------------
 # opt=maxcyc=500 freq=noraman uB2PLYPD3/cc-pvtz
 -----------------------------------------------
 1/6=500,18=20,19=15,38=1/1,3;
 2/9=110,12=2,17=6,18=5,40=1/2;
 3/5=16,6=1,11=2,25=1,30=1,71=1,74=-60,116=2/1,2,3;
 4//1;
 5/5=2,38=5/2;
 8/6=4,10=1/1;
 9/15=2,16=-3/6;
 10/5=1/2;
 6/7=2,8=2,9=2,10=2/1;
 7/12=2/1,2,3,16;
 1/6=500,18=20,19=15/3(2);
 2/9=110/2;
 99//99;
 2/9=110/2;
 3/5=16,6=1,11=2,25=1,30=1,71=1,74=-60,116=2/1,2,3;
 4/5=5,16=3,69=1/1;
 5/5=2,38=5/2;
 8/6=4,10=1/1;
 9/15=2,16=-3/6;
 10/5=1/2;
 7/12=2/1,2,3,16;
 1/6=500,18=20,19=15/3(-8);
 2/9=110/2;
 6/7=2,8=2,9=2,10=2/1;
 99/9=10/99;
 -------------------
 Title Card Required
 -------------------
 Symbolic Z-matrix:
 Charge =  0 Multiplicity = 1
 C                    -0.95602   0.65966   0. 
 C                     0.55113   0.65966   0. 
 H                    -1.34584   1.70602   0. 
 H                    -1.34955   0.13646  -0.90491 
 H                    -1.34965   0.13635   0.90479 
 C                     1.11087  -0.73967  -0.00007 
 H                     0.92519   1.21237  -0.90237 
 H                     0.92527   1.21232   0.90236 
 H                     2.22715  -0.71308  -0.00013 
 H                     0.7712   -1.29941   0.90481 
 H                     0.77112  -1.29935  -0.90496 
 

 GradGradGradGradGradGradGradGradGradGradGradGradGradGradGradGradGradGrad
 Berny optimization.
 Initialization pass.
                           ----------------------------
                           !    Initial Parameters    !
                           ! (Angstroms and Degrees)  !
 --------------------------                            --------------------------
 ! Name  Definition              Value          Derivative Info.                !
 --------------------------------------------------------------------------------
 ! R1    R(1,2)                  1.5072         estimate D2E/DX2                !
 ! R2    R(1,3)                  1.1166         estimate D2E/DX2                !
 ! R3    R(1,4)                  1.1169         estimate D2E/DX2                !
 ! R4    R(1,5)                  1.1169         estimate D2E/DX2                !
 ! R5    R(2,6)                  1.5071         estimate D2E/DX2                !
 ! R6    R(2,7)                  1.1224         estimate D2E/DX2                !
 ! R7    R(2,8)                  1.1224         estimate D2E/DX2                !
 ! R8    R(6,9)                  1.1166         estimate D2E/DX2                !
 ! R9    R(6,10)                 1.1169         estimate D2E/DX2                !
 ! R10   R(6,11)                 1.1169         estimate D2E/DX2                !
 ! A1    A(2,1,3)              110.4325         estimate D2E/DX2                !
 ! A2    A(2,1,4)              110.6308         estimate D2E/DX2                !
 ! A3    A(2,1,5)              110.6361         estimate D2E/DX2                !
 ! A4    A(3,1,4)              108.4186         estimate D2E/DX2                !
 ! A5    A(3,1,5)              108.4228         estimate D2E/DX2                !
 ! A6    A(4,1,5)              108.2212         estimate D2E/DX2                !
 ! A7    A(1,2,6)              111.802          estimate D2E/DX2                !
 ! A8    A(1,2,7)              109.4684         estimate D2E/DX2                !
 ! A9    A(1,2,8)              109.4724         estimate D2E/DX2                !
 ! A10   A(6,2,7)              109.4761         estimate D2E/DX2                !
 ! A11   A(6,2,8)              109.4767         estimate D2E/DX2                !
 ! A12   A(7,2,8)              107.0263         estimate D2E/DX2                !
 ! A13   A(2,6,9)              110.4371         estimate D2E/DX2                !
 ! A14   A(2,6,10)             110.6289         estimate D2E/DX2                !
 ! A15   A(2,6,11)             110.629          estimate D2E/DX2                !
 ! A16   A(9,6,10)             108.422          estimate D2E/DX2                !
 ! A17   A(9,6,11)             108.421          estimate D2E/DX2                !
 ! A18   A(10,6,11)            108.224          estimate D2E/DX2                !
 ! D1    D(3,1,2,6)           -179.9971         estimate D2E/DX2                !
 ! D2    D(3,1,2,7)            -58.5119         estimate D2E/DX2                !
 ! D3    D(3,1,2,8)             58.5143         estimate D2E/DX2                !
 ! D4    D(4,1,2,6)            -59.9619         estimate D2E/DX2                !
 ! D5    D(4,1,2,7)             61.5233         estimate D2E/DX2                !
 ! D6    D(4,1,2,8)            178.5495         estimate D2E/DX2                !
 ! D7    D(5,1,2,6)             59.959          estimate D2E/DX2                !
 ! D8    D(5,1,2,7)           -178.5558         estimate D2E/DX2                !
 ! D9    D(5,1,2,8)            -61.5296         estimate D2E/DX2                !
 ! D10   D(1,2,6,9)            179.9967         estimate D2E/DX2                !
 ! D11   D(1,2,6,10)           -59.9619         estimate D2E/DX2                !
 ! D12   D(1,2,6,11)            59.9566         estimate D2E/DX2                !
 ! D13   D(7,2,6,9)             58.516          estimate D2E/DX2                !
 ! D14   D(7,2,6,10)           178.5573         estimate D2E/DX2                !
 ! D15   D(7,2,6,11)           -61.5241         estimate D2E/DX2                !
 ! D16   D(8,2,6,9)            -58.5171         estimate D2E/DX2                !
 ! D17   D(8,2,6,10)            61.5243         estimate D2E/DX2                !
 ! D18   D(8,2,6,11)          -178.5572         estimate D2E/DX2                !
 --------------------------------------------------------------------------------
 Trust Radius=3.00D-01 FncErr=1.00D-07 GrdErr=1.00D-07 EigMax=2.50D+02 EigMin=1.00D-04
 Number of steps in this run=    100 maximum allowed number of steps=    100.
 GradGradGradGradGradGradGradGradGradGradGradGradGradGradGradGradGradGrad

                          Input orientation:                          
 ---------------------------------------------------------------------
 Center     Atomic      Atomic             Coordinates (Angstroms)
 Number     Number       Type             X           Y           Z
 ---------------------------------------------------------------------
      1          6           0       -0.956023    0.659656    0.000000
      2          6           0        0.551127    0.659656    0.000000
      3          1           0       -1.345836    1.706016    0.000000
      4          1           0       -1.349555    0.136465   -0.904910
      5          1           0       -1.349648    0.136351    0.904788
      6          6           0        1.110874   -0.739672   -0.000072
      7          1           0        0.925194    1.212371   -0.902368
      8          1           0        0.925266    1.212316    0.902364
      9          1           0        2.227146   -0.713076   -0.000130
     10          1           0        0.771196   -1.299413    0.904809
     11          1           0        0.771119   -1.299353   -0.904963
 ---------------------------------------------------------------------
                    Distance matrix (angstroms):
                    1          2          3          4          5
     1  C    0.000000
     2  C    1.507150   0.000000
     3  H    1.116612   2.166411   0.000000
     4  H    1.116897   2.169143   1.811730   0.000000
     5  H    1.116884   2.169201   1.811768   1.809698   0.000000
     6  C    2.496033   1.507128   3.466528   2.764066   2.764119
     7  H    2.158411   1.122358   2.493097   2.516359   3.098151
     8  H    2.158458   1.122352   2.493172   3.098145   2.516533
     9  H    3.466548   2.166433   4.314882   3.785913   3.786008
    10  H    2.764040   2.169115   3.785909   3.135987   2.561132
    11  H    2.764000   2.169118   3.785855   2.561022   3.135936
                    6          7          8          9         10
     6  C    0.000000
     7  H    2.158492   0.000000
     8  H    2.158494   1.804732   0.000000
     9  H    1.116589   2.493283   2.493295   0.000000
    10  H    1.116916   3.098171   2.516451   1.811766   0.000000
    11  H    1.116917   2.516447   3.098173   1.811756   1.809772
                   11
    11  H    0.000000
 Stoichiometry    C3H8
 Framework group  C1[X(C3H8)]
 Deg. of freedom    27
 Full point group                 C1      NOp   1
 Largest Abelian subgroup         C1      NOp   1
 Largest concise Abelian subgroup C1      NOp   1
                         Standard orientation:                         
 ---------------------------------------------------------------------
 Center     Atomic      Atomic             Coordinates (Angstroms)
 Number     Number       Type             X           Y           Z
 ---------------------------------------------------------------------
      1          6           0        1.248009   -0.260556   -0.000032
      2          6           0       -0.000017    0.584389   -0.000032
      3          1           0        2.157416    0.387366   -0.000032
      4          1           0        1.280568   -0.914418    0.904878
      5          1           0        1.280581   -0.914565   -0.904820
      6          6           0       -1.248024   -0.260546    0.000040
      7          1           0        0.000094    1.251787    0.902336
      8          1           0        0.000004    1.251781   -0.902396
      9          1           0       -2.157466    0.387286    0.000098
     10          1           0       -1.280551   -0.914483   -0.904841
     11          1           0       -1.280454   -0.914476    0.904931
 ---------------------------------------------------------------------
 Rotational constants (GHZ):          28.8814848           8.6662865           7.6654095
 Standard basis: CC-pVTZ (5D, 7F)
 There are   225 symmetry adapted cartesian basis functions of A   symmetry.
 There are   202 symmetry adapted basis functions of A   symmetry.
   202 basis functions,   292 primitive gaussians,   225 cartesian basis functions
    13 alpha electrons       13 beta electrons
       nuclear repulsion energy        82.5771239130 Hartrees.
 NAtoms=   11 NActive=   11 NUniq=   11 SFac= 1.00D+00 NAtFMM=   60 NAOKFM=F Big=F
 Integral buffers will be    131072 words long.
 Raffenetti 2 integral format.
 Two-electron integral symmetry is turned on.
 Nuclear repulsion after empirical dispersion term =       82.5727874232 Hartrees.
 One-electron integrals computed using PRISM.
 NBasis=   202 RedAO= T EigKep=  8.99D-04  NBF=   202
 NBsUse=   202 1.00D-06 EigRej= -1.00D+00 NBFU=   202
 ExpMin= 1.03D-01 ExpMax= 8.24D+03 ExpMxC= 2.81D+02 IAcc=3 IRadAn=         5 AccDes= 0.00D+00
 Harris functional with IExCor=  419 and IRadAn=       5 diagonalized for initial guess.
 HarFok:  IExCor=  419 AccDes= 0.00D+00 IRadAn=         5 IDoV= 1 UseB2=F ITyADJ=14
 ICtDFT=  3500011 ScaDFX=  1.000000  1.000000  1.000000  1.000000
 FoFCou: FMM=F IPFlag=           0 FMFlag=      100000 FMFlg1=           0
         NFxFlg=           0 DoJE=T BraDBF=F KetDBF=T FulRan=T
         wScrn=  0.000000 ICntrl=       500 IOpCl=  0 I1Cent=   200000004 NGrid=           0
         NMat0=    1 NMatS0=      1 NMatT0=    0 NMatD0=    1 NMtDS0=    0 NMtDT0=    0
 Petite list used in FoFCou.
 Initial guess <Sx>= 0.0000 <Sy>= 0.0000 <Sz>= 0.0000 <S**2>=-0.0000 S=-0.0000
 Keep R1 and R2 ints in memory in canonical form, NReq=462602481.
 Requested convergence on RMS density matrix=1.00D-08 within 128 cycles.
 Requested convergence on MAX density matrix=1.00D-06.
 Requested convergence on             energy=1.00D-06.
 No special actions if energy rises.
 Integral accuracy reduced to 1.0D-05 until final iterations.
 Initial convergence to 1.0D-05 achieved.  Increase integral accuracy.
 SCF Done:  E(UB2PLYPD3) =  -118.882448644     A.U. after   10 cycles
            NFock= 10  Conv=0.65D-08     -V/T= 2.0067
 <Sx>= 0.0000 <Sy>= 0.0000 <Sz>= 0.0000 <S**2>=-0.0000 S=-0.0000
 <L.S>=  0.00000000000    
 Annihilation of the first spin contaminant:
 S**2 before annihilation    -0.0000,   after    -0.0000
 DoSCS=T DFT=T ScalE2(SS,OS)=  0.270000  0.270000
 ExpMin= 1.03D-01 ExpMax= 8.24D+03 ExpMxC= 2.81D+02 IAcc=3 IRadAn=         5 AccDes= 0.00D+00
 HarFok:  IExCor=  205 AccDes= 0.00D+00 IRadAn=         5 IDoV=-2 UseB2=F ITyADJ=14
 ICtDFT= 12500011 ScaDFX=  1.000000  1.000000  1.000000  1.000000
 Range of M.O.s used for correlation:     4   202
 NBasis=   202 NAE=    13 NBE=    13 NFC=     3 NFV=     0
 NROrb=    199 NOA=    10 NOB=    10 NVA=   189 NVB=   189

 **** Warning!!: The largest alpha MO coefficient is  0.14422258D+02


 **** Warning!!: The largest beta MO coefficient is  0.14422258D+02

 DoSCS=T DFT=T ScalE2(SS,OS)=  0.270000  0.270000
 Fully direct method using O(ONN) memory.
 JobTyp=2 Pass  1:  I=   4 to  13 NPSUse= 40 ParTrn=T ParDer=T DoDerP=T.
 JobTyp=3 Pass  1:  I=   4 to  13 NPSUse= 40 ParTrn=T ParDer=T DoDerP=T.
 Spin components of T(2) and E(2):
     alpha-alpha T2 =       0.2942945585D-01 E2=     -0.1886950626D-01
     alpha-beta  T2 =       0.1980555342D+00 E2=     -0.1396693783D+00
     beta-beta   T2 =       0.2942945585D-01 E2=     -0.1886950626D-01
 (S**2,0)=  0.00000D+00           (S**2,1)=  0.00000D+00
 E(PUHF)=      -0.11888244864D+03        E(PMP2)=      -0.11905985704D+03
 E2(B2PLYPD3) =    -0.1774083908D+00 E(B2PLYPD3) =    -0.11905985703522D+03
          IDoAtm=11111111111
          Differentiating once with respect to electric field.
                with respect to dipole field.
          Differentiating once with respect to nuclear coordinates.
 Keep R1 and R2 ints in memory in canonical form, NReq=462610563.
          There are     1 degrees of freedom in the 1st order CPHF.  IDoFFX=0 NUNeed=     1.
 LinEq1:  Iter=  0 NonCon=     1 RMS=4.96D-04 Max=7.35D-03 NDo=     1
 AX will form     1 AO Fock derivatives at one time.
 LinEq1:  Iter=  1 NonCon=     1 RMS=2.37D-04 Max=4.09D-03 NDo=     1
 LinEq1:  Iter=  2 NonCon=     1 RMS=4.34D-05 Max=6.24D-04 NDo=     1
 LinEq1:  Iter=  3 NonCon=     1 RMS=1.15D-05 Max=1.44D-04 NDo=     1
 LinEq1:  Iter=  4 NonCon=     1 RMS=3.41D-06 Max=4.20D-05 NDo=     1
 LinEq1:  Iter=  5 NonCon=     1 RMS=1.04D-06 Max=1.09D-05 NDo=     1
 LinEq1:  Iter=  6 NonCon=     1 RMS=1.88D-07 Max=2.16D-06 NDo=     1
 LinEq1:  Iter=  7 NonCon=     1 RMS=3.10D-08 Max=4.30D-07 NDo=     1
 LinEq1:  Iter=  8 NonCon=     1 RMS=3.23D-09 Max=6.43D-08 NDo=     1
 LinEq1:  Iter=  9 NonCon=     1 RMS=2.98D-10 Max=6.33D-09 NDo=     1
 LinEq1:  Iter= 10 NonCon=     0 RMS=3.13D-11 Max=2.98D-10 NDo=     1
 Linear equations converged to 1.000D-10 1.000D-09 after    10 iterations.
 End of Minotr F.D. properties file   721 does not exist.
 End of Minotr F.D. properties file   722 does not exist.
 End of Minotr F.D. properties file   788 does not exist.

 **********************************************************************

            Population analysis using the SCF Density.

 **********************************************************************

 Orbital symmetries:
 Alpha Orbitals:
       Occupied  (A) (A) (A) (A) (A) (A) (A) (A) (A) (A) (A) (A)
                 (A)
       Virtual   (A) (A) (A) (A) (A) (A) (A) (A) (A) (A) (A) (A)
                 (A) (A) (A) (A) (A) (A) (A) (A) (A) (A) (A) (A)
                 (A) (A) (A) (A) (A) (A) (A) (A) (A) (A) (A) (A)
                 (A) (A) (A) (A) (A) (A) (A) (A) (A) (A) (A) (A)
                 (A) (A) (A) (A) (A) (A) (A) (A) (A) (A) (A) (A)
                 (A) (A) (A) (A) (A) (A) (A) (A) (A) (A) (A) (A)
                 (A) (A) (A) (A) (A) (A) (A) (A) (A) (A) (A) (A)
                 (A) (A) (A) (A) (A) (A) (A) (A) (A) (A) (A) (A)
                 (A) (A) (A) (A) (A) (A) (A) (A) (A) (A) (A) (A)
                 (A) (A) (A) (A) (A) (A) (A) (A) (A) (A) (A) (A)
                 (A) (A) (A) (A) (A) (A) (A) (A) (A) (A) (A) (A)
                 (A) (A) (A) (A) (A) (A) (A) (A) (A) (A) (A) (A)
                 (A) (A) (A) (A) (A) (A) (A) (A) (A) (A) (A) (A)
                 (A) (A) (A) (A) (A) (A) (A) (A) (A) (A) (A) (A)
                 (A) (A) (A) (A) (A) (A) (A) (A) (A) (A) (A) (A)
                 (A) (A) (A) (A) (A) (A) (A) (A) (A)
 Beta  Orbitals:
       Occupied  (A) (A) (A) (A) (A) (A) (A) (A) (A) (A) (A) (A)
                 (A)
       Virtual   (A) (A) (A) (A) (A) (A) (A) (A) (A) (A) (A) (A)
                 (A) (A) (A) (A) (A) (A) (A) (A) (A) (A) (A) (A)
                 (A) (A) (A) (A) (A) (A) (A) (A) (A) (A) (A) (A)
                 (A) (A) (A) (A) (A) (A) (A) (A) (A) (A) (A) (A)
                 (A) (A) (A) (A) (A) (A) (A) (A) (A) (A) (A) (A)
                 (A) (A) (A) (A) (A) (A) (A) (A) (A) (A) (A) (A)
                 (A) (A) (A) (A) (A) (A) (A) (A) (A) (A) (A) (A)
                 (A) (A) (A) (A) (A) (A) (A) (A) (A) (A) (A) (A)
                 (A) (A) (A) (A) (A) (A) (A) (A) (A) (A) (A) (A)
                 (A) (A) (A) (A) (A) (A) (A) (A) (A) (A) (A) (A)
                 (A) (A) (A) (A) (A) (A) (A) (A) (A) (A) (A) (A)
                 (A) (A) (A) (A) (A) (A) (A) (A) (A) (A) (A) (A)
                 (A) (A) (A) (A) (A) (A) (A) (A) (A) (A) (A) (A)
                 (A) (A) (A) (A) (A) (A) (A) (A) (A) (A) (A) (A)
                 (A) (A) (A) (A) (A) (A) (A) (A) (A) (A) (A) (A)
                 (A) (A) (A) (A) (A) (A) (A) (A) (A)
 The electronic state is 1-A.
 Alpha  occ. eigenvalues --  -10.61068 -10.60503 -10.60501  -0.89821  -0.77712
 Alpha  occ. eigenvalues --   -0.66357  -0.52768  -0.50413  -0.46128  -0.43907
 Alpha  occ. eigenvalues --   -0.39381  -0.39288  -0.38122
 Alpha virt. eigenvalues --    0.07750   0.11663   0.12010   0.12362   0.15191
 Alpha virt. eigenvalues --    0.16815   0.17775   0.19324   0.21926   0.28653
 Alpha virt. eigenvalues --    0.30023   0.30202   0.31875   0.35300   0.35474
 Alpha virt. eigenvalues --    0.39780   0.43301   0.48209   0.48493   0.51016
 Alpha virt. eigenvalues --    0.51847   0.53371   0.54131   0.55716   0.55974
 Alpha virt. eigenvalues --    0.56322   0.57756   0.62745   0.66302   0.70232
 Alpha virt. eigenvalues --    0.78696   0.79028   0.79690   0.85685   0.86849
 Alpha virt. eigenvalues --    0.95035   0.95059   1.00615   1.01588   1.05025
 Alpha virt. eigenvalues --    1.07479   1.09800   1.11622   1.15522   1.18207
 Alpha virt. eigenvalues --    1.18528   1.20522   1.21476   1.23957   1.26529
 Alpha virt. eigenvalues --    1.27174   1.27638   1.31077   1.33271   1.33956
 Alpha virt. eigenvalues --    1.37153   1.39109   1.41324   1.45248   1.45935
 Alpha virt. eigenvalues --    1.46927   1.51182   1.55839   1.56113   1.58487
 Alpha virt. eigenvalues --    1.62278   1.63074   1.71029   1.72428   2.32426
 Alpha virt. eigenvalues --    2.37863   2.38058   2.42893   2.45102   2.50051
 Alpha virt. eigenvalues --    2.56511   2.59495   2.61199   2.64275   2.66469
 Alpha virt. eigenvalues --    2.67078   2.73633   2.74832   2.78472   2.80078
 Alpha virt. eigenvalues --    2.86863   2.89299   2.91261   2.92548   2.92693
 Alpha virt. eigenvalues --    2.95431   3.01580   3.03441   3.04168   3.12864
 Alpha virt. eigenvalues --    3.14254   3.16654   3.17689   3.18668   3.20043
 Alpha virt. eigenvalues --    3.21393   3.22807   3.25835   3.26521   3.29641
 Alpha virt. eigenvalues --    3.30761   3.35167   3.39568   3.43071   3.46657
 Alpha virt. eigenvalues --    3.49181   3.50279   3.51989   3.52111   3.56737
 Alpha virt. eigenvalues --    3.58517   3.62048   3.64757   3.68133   3.72043
 Alpha virt. eigenvalues --    3.75488   3.83772   3.85672   3.87271   3.91106
 Alpha virt. eigenvalues --    3.91226   3.92787   3.93616   3.93997   3.94980
 Alpha virt. eigenvalues --    3.98974   4.04355   4.05871   4.07475   4.10009
 Alpha virt. eigenvalues --    4.11800   4.12987   4.15477   4.17772   4.21269
 Alpha virt. eigenvalues --    4.21956   4.24036   4.25081   4.27982   4.37219
 Alpha virt. eigenvalues --    4.37838   4.37880   4.39432   4.42343   4.43653
 Alpha virt. eigenvalues --    4.49987   4.55277   4.61386   4.64249   4.66919
 Alpha virt. eigenvalues --    4.85121   4.85609   4.89068   4.89983   4.91802
 Alpha virt. eigenvalues --    4.94256   4.96572   4.99076   5.01820   5.09701
 Alpha virt. eigenvalues --    5.11643   5.25411   5.26104   5.34013   5.36464
 Alpha virt. eigenvalues --    5.39926   5.40024   5.40998   5.43793   5.45464
 Alpha virt. eigenvalues --    5.47138   5.53310   5.60260   5.63684   5.64013
 Alpha virt. eigenvalues --    5.74810   6.00350   6.01090   6.02689   6.06448
 Alpha virt. eigenvalues --    6.09891  12.30600  13.36840  13.37479
  Beta  occ. eigenvalues --  -10.61068 -10.60503 -10.60501  -0.89821  -0.77712
  Beta  occ. eigenvalues --   -0.66357  -0.52768  -0.50413  -0.46128  -0.43907
  Beta  occ. eigenvalues --   -0.39381  -0.39288  -0.38122
  Beta virt. eigenvalues --    0.07750   0.11663   0.12010   0.12362   0.15191
  Beta virt. eigenvalues --    0.16815   0.17775   0.19324   0.21926   0.28653
  Beta virt. eigenvalues --    0.30023   0.30202   0.31875   0.35300   0.35474
  Beta virt. eigenvalues --    0.39780   0.43301   0.48209   0.48493   0.51016
  Beta virt. eigenvalues --    0.51847   0.53371   0.54131   0.55716   0.55974
  Beta virt. eigenvalues --    0.56322   0.57756   0.62745   0.66302   0.70232
  Beta virt. eigenvalues --    0.78696   0.79028   0.79690   0.85685   0.86849
  Beta virt. eigenvalues --    0.95035   0.95059   1.00615   1.01588   1.05025
  Beta virt. eigenvalues --    1.07479   1.09800   1.11622   1.15522   1.18207
  Beta virt. eigenvalues --    1.18528   1.20522   1.21476   1.23957   1.26529
  Beta virt. eigenvalues --    1.27174   1.27638   1.31077   1.33271   1.33956
  Beta virt. eigenvalues --    1.37153   1.39109   1.41324   1.45248   1.45935
  Beta virt. eigenvalues --    1.46927   1.51182   1.55839   1.56113   1.58487
  Beta virt. eigenvalues --    1.62278   1.63074   1.71029   1.72428   2.32426
  Beta virt. eigenvalues --    2.37863   2.38058   2.42893   2.45102   2.50051
  Beta virt. eigenvalues --    2.56511   2.59495   2.61199   2.64275   2.66469
  Beta virt. eigenvalues --    2.67078   2.73633   2.74832   2.78472   2.80078
  Beta virt. eigenvalues --    2.86863   2.89299   2.91261   2.92548   2.92693
  Beta virt. eigenvalues --    2.95431   3.01580   3.03441   3.04168   3.12864
  Beta virt. eigenvalues --    3.14254   3.16654   3.17689   3.18668   3.20043
  Beta virt. eigenvalues --    3.21393   3.22807   3.25835   3.26521   3.29641
  Beta virt. eigenvalues --    3.30761   3.35167   3.39568   3.43071   3.46657
  Beta virt. eigenvalues --    3.49181   3.50279   3.51989   3.52111   3.56737
  Beta virt. eigenvalues --    3.58517   3.62048   3.64757   3.68133   3.72043
  Beta virt. eigenvalues --    3.75488   3.83772   3.85672   3.87271   3.91106
  Beta virt. eigenvalues --    3.91226   3.92787   3.93616   3.93997   3.94980
  Beta virt. eigenvalues --    3.98974   4.04355   4.05871   4.07475   4.10009
  Beta virt. eigenvalues --    4.11800   4.12987   4.15477   4.17772   4.21269
  Beta virt. eigenvalues --    4.21956   4.24036   4.25081   4.27982   4.37219
  Beta virt. eigenvalues --    4.37838   4.37880   4.39432   4.42343   4.43653
  Beta virt. eigenvalues --    4.49987   4.55277   4.61386   4.64249   4.66919
  Beta virt. eigenvalues --    4.85121   4.85609   4.89068   4.89983   4.91802
  Beta virt. eigenvalues --    4.94256   4.96572   4.99076   5.01820   5.09701
  Beta virt. eigenvalues --    5.11643   5.25411   5.26104   5.34013   5.36464
  Beta virt. eigenvalues --    5.39926   5.40024   5.40998   5.43793   5.45464
  Beta virt. eigenvalues --    5.47138   5.53310   5.60260   5.63684   5.64013
  Beta virt. eigenvalues --    5.74810   6.00350   6.01090   6.02689   6.06448
  Beta virt. eigenvalues --    6.09891  12.30600  13.36840  13.37479
          Condensed to atoms (all electrons):
               1          2          3          4          5          6
     1  C    4.839369   0.346756   0.409220   0.406086   0.406088  -0.056885
     2  C    0.346756   4.838176  -0.038394  -0.038370  -0.038365   0.346758
     3  H    0.409220  -0.038394   0.600070  -0.029695  -0.029691   0.008282
     4  H    0.406086  -0.038370  -0.029695   0.611003  -0.032639  -0.004887
     5  H    0.406088  -0.038365  -0.029691  -0.032639   0.610980  -0.004885
     6  C   -0.056885   0.346758   0.008282  -0.004887  -0.004885   4.839340
     7  H   -0.038432   0.412926  -0.005160  -0.006387   0.008194  -0.038427
     8  H   -0.038430   0.412927  -0.005160   0.008194  -0.006384  -0.038427
     9  H    0.008282  -0.038390  -0.000504  -0.000082  -0.000082   0.409225
    10  H   -0.004888  -0.038374  -0.000082  -0.000455   0.004420   0.406085
    11  H   -0.004888  -0.038374  -0.000082   0.004421  -0.000455   0.406085
               7          8          9         10         11
     1  C   -0.038432  -0.038430   0.008282  -0.004888  -0.004888
     2  C    0.412926   0.412927  -0.038390  -0.038374  -0.038374
     3  H   -0.005160  -0.005160  -0.000504  -0.000082  -0.000082
     4  H   -0.006387   0.008194  -0.000082  -0.000455   0.004421
     5  H    0.008194  -0.006384  -0.000082   0.004420  -0.000455
     6  C   -0.038427  -0.038427   0.409225   0.406085   0.406085
     7  H    0.628275  -0.036717  -0.005160   0.008194  -0.006385
     8  H   -0.036717   0.628264  -0.005159  -0.006385   0.008194
     9  H   -0.005160  -0.005159   0.600047  -0.029693  -0.029695
    10  H    0.008194  -0.006385  -0.029693   0.611002  -0.032633
    11  H   -0.006385   0.008194  -0.029695  -0.032633   0.611005
          Atomic-Atomic Spin Densities.
               1          2          3          4          5          6
     1  C    0.000000  -0.000000  -0.000000   0.000000  -0.000000  -0.000000
     2  C   -0.000000   0.000000   0.000000  -0.000000  -0.000000  -0.000000
     3  H   -0.000000   0.000000   0.000000  -0.000000  -0.000000  -0.000000
     4  H    0.000000  -0.000000  -0.000000  -0.000000   0.000000  -0.000000
     5  H   -0.000000  -0.000000  -0.000000   0.000000  -0.000000  -0.000000
     6  C   -0.000000  -0.000000  -0.000000  -0.000000  -0.000000   0.000000
     7  H   -0.000000   0.000000   0.000000  -0.000000  -0.000000  -0.000000
     8  H   -0.000000   0.000000  -0.000000  -0.000000   0.000000  -0.000000
     9  H    0.000000   0.000000   0.000000   0.000000  -0.000000  -0.000000
    10  H    0.000000  -0.000000   0.000000  -0.000000   0.000000  -0.000000
    11  H    0.000000  -0.000000  -0.000000   0.000000  -0.000000  -0.000000
               7          8          9         10         11
     1  C   -0.000000  -0.000000   0.000000   0.000000   0.000000
     2  C    0.000000   0.000000   0.000000  -0.000000  -0.000000
     3  H    0.000000  -0.000000   0.000000   0.000000  -0.000000
     4  H   -0.000000  -0.000000   0.000000  -0.000000   0.000000
     5  H   -0.000000   0.000000  -0.000000   0.000000  -0.000000
     6  C   -0.000000  -0.000000  -0.000000  -0.000000  -0.000000
     7  H    0.000000   0.000000  -0.000000  -0.000000   0.000000
     8  H    0.000000  -0.000000   0.000000   0.000000  -0.000000
     9  H   -0.000000   0.000000  -0.000000  -0.000000  -0.000000
    10  H   -0.000000   0.000000  -0.000000   0.000000   0.000000
    11  H    0.000000  -0.000000  -0.000000   0.000000  -0.000000
 Mulliken charges and spin densities:
               1          2
     1  C   -0.272277   0.000000
     2  C   -0.127276   0.000000
     3  H    0.091197  -0.000000
     4  H    0.082812  -0.000000
     5  H    0.082820  -0.000000
     6  C   -0.272263  -0.000000
     7  H    0.079078   0.000000
     8  H    0.079083  -0.000000
     9  H    0.091211   0.000000
    10  H    0.082808   0.000000
    11  H    0.082807  -0.000000
 Sum of Mulliken charges =  -0.00000   0.00000
 Mulliken charges and spin densities with hydrogens summed into heavy atoms:
               1          2
     1  C   -0.015448  -0.000000
     2  C    0.030885   0.000000
     6  C   -0.015437  -0.000000
 Electronic spatial extent (au):  <R**2>=            224.9751
 Charge=             -0.0000 electrons
 Dipole moment (field-independent basis, Debye):
    X=             -0.0000    Y=              0.0905    Z=              0.0000  Tot=              0.0905
 Quadrupole moment (field-independent basis, Debye-Ang):
   XX=            -22.8482   YY=            -22.2633   ZZ=            -21.6253
   XY=             -0.0000   XZ=              0.0001   YZ=              0.0001
 Traceless Quadrupole moment (field-independent basis, Debye-Ang):
   XX=             -0.6026   YY=             -0.0177   ZZ=              0.6203
   XY=             -0.0000   XZ=              0.0001   YZ=              0.0001
 Octapole moment (field-independent basis, Debye-Ang**2):
  XXX=             -0.0007  YYY=              0.2980  ZZZ=              0.0001  XYY=              0.0005
  XXY=              1.7882  XXZ=              0.0001  XZZ=              0.0000  YZZ=             -0.4962
  YYZ=             -0.0002  XYZ=              0.0001
 Hexadecapole moment (field-independent basis, Debye-Ang**3):
 XXXX=           -204.1065 YYYY=            -74.9349 ZZZZ=            -46.4698 XXXY=             -0.0009
 XXXZ=              0.0017 YYYX=             -0.0002 YYYZ=              0.0008 ZZZX=              0.0021
 ZZZY=              0.0004 XXYY=            -45.6568 XXZZ=            -42.6281 YYZZ=            -17.9883
 XXYZ=              0.0005 YYXZ=              0.0005 ZZXY=              0.0000
 N-N= 8.257278742321D+01 E-N=-4.398562141361D+02  KE= 1.180882144777D+02
                          Isotropic Fermi Contact Couplings
        Atom                 a.u.       MegaHertz       Gauss      10(-4) cm-1
     1  C(13)              0.00000       0.00000       0.00000       0.00000
     2  C(13)              0.00000       0.00000       0.00000       0.00000
     3  H(1)               0.00000       0.00000       0.00000       0.00000
     4  H(1)              -0.00000      -0.00000      -0.00000      -0.00000
     5  H(1)              -0.00000      -0.00000      -0.00000      -0.00000
     6  C(13)              0.00000       0.00000       0.00000       0.00000
     7  H(1)              -0.00000      -0.00000      -0.00000      -0.00000
     8  H(1)               0.00000       0.00000       0.00000       0.00000
     9  H(1)               0.00000       0.00000       0.00000       0.00000
    10  H(1)              -0.00000      -0.00000      -0.00000      -0.00000
    11  H(1)              -0.00000      -0.00000      -0.00000      -0.00000
 --------------------------------------------------------
       Center         ----  Spin Dipole Couplings  ----
                      3XX-RR        3YY-RR        3ZZ-RR
 --------------------------------------------------------
     1   Atom        0.000000      0.000000      0.000000
     2   Atom        0.000000      0.000000      0.000000
     3   Atom        0.000000      0.000000      0.000000
     4   Atom        0.000000      0.000000      0.000000
     5   Atom        0.000000      0.000000      0.000000
     6   Atom        0.000000      0.000000      0.000000
     7   Atom        0.000000      0.000000      0.000000
     8   Atom        0.000000      0.000000      0.000000
     9   Atom        0.000000      0.000000      0.000000
    10   Atom        0.000000      0.000000      0.000000
    11   Atom        0.000000      0.000000      0.000000
 --------------------------------------------------------
                        XY            XZ            YZ
 --------------------------------------------------------
     1   Atom        0.000000      0.000000      0.000000
     2   Atom        0.000000      0.000000      0.000000
     3   Atom        0.000000      0.000000      0.000000
     4   Atom        0.000000      0.000000      0.000000
     5   Atom        0.000000      0.000000      0.000000
     6   Atom        0.000000      0.000000      0.000000
     7   Atom        0.000000      0.000000      0.000000
     8   Atom        0.000000      0.000000      0.000000
     9   Atom        0.000000      0.000000      0.000000
    10   Atom        0.000000      0.000000      0.000000
    11   Atom        0.000000      0.000000      0.000000
 --------------------------------------------------------


 ---------------------------------------------------------------------------------
              Anisotropic Spin Dipole Couplings in Principal Axis System
 ---------------------------------------------------------------------------------

       Atom             a.u.   MegaHertz   Gauss  10(-4) cm-1        Axes

              Baa     0.0000     0.000     0.000     0.000  1.0000  0.0000  0.0000
     1 C(13)  Bbb     0.0000     0.000     0.000     0.000 -0.0000  1.0000  0.0000
              Bcc     0.0000     0.000     0.000     0.000  0.0000  0.0000  1.0000
 
              Baa     0.0000     0.000     0.000     0.000  1.0000  0.0000  0.0000
     2 C(13)  Bbb     0.0000     0.000     0.000     0.000 -0.0000  1.0000  0.0000
              Bcc     0.0000     0.000     0.000     0.000  0.0000  0.0000  1.0000
 
              Baa     0.0000     0.000     0.000     0.000  1.0000  0.0000  0.0000
     3 H(1)   Bbb     0.0000     0.000     0.000     0.000 -0.0000  1.0000  0.0000
              Bcc     0.0000     0.000     0.000     0.000  0.0000  0.0000  1.0000
 
              Baa     0.0000     0.000     0.000     0.000  1.0000  0.0000  0.0000
     4 H(1)   Bbb     0.0000     0.000     0.000     0.000 -0.0000  1.0000  0.0000
              Bcc     0.0000     0.000     0.000     0.000  0.0000  0.0000  1.0000
 
              Baa     0.0000     0.000     0.000     0.000  1.0000  0.0000  0.0000
     5 H(1)   Bbb     0.0000     0.000     0.000     0.000 -0.0000  1.0000  0.0000
              Bcc     0.0000     0.000     0.000     0.000  0.0000  0.0000  1.0000
 
              Baa     0.0000     0.000     0.000     0.000  1.0000  0.0000  0.0000
     6 C(13)  Bbb     0.0000     0.000     0.000     0.000 -0.0000  1.0000  0.0000
              Bcc     0.0000     0.000     0.000     0.000  0.0000  0.0000  1.0000
 
              Baa     0.0000     0.000     0.000     0.000  1.0000  0.0000  0.0000
     7 H(1)   Bbb     0.0000     0.000     0.000     0.000 -0.0000  1.0000  0.0000
              Bcc     0.0000     0.000     0.000     0.000  0.0000  0.0000  1.0000
 
              Baa     0.0000     0.000     0.000     0.000  1.0000  0.0000  0.0000
     8 H(1)   Bbb     0.0000     0.000     0.000     0.000 -0.0000  1.0000  0.0000
              Bcc     0.0000     0.000     0.000     0.000  0.0000  0.0000  1.0000
 
              Baa     0.0000     0.000     0.000     0.000  1.0000  0.0000  0.0000
     9 H(1)   Bbb     0.0000     0.000     0.000     0.000 -0.0000  1.0000  0.0000
              Bcc     0.0000     0.000     0.000     0.000  0.0000  0.0000  1.0000
 
              Baa     0.0000     0.000     0.000     0.000  1.0000  0.0000  0.0000
    10 H(1)   Bbb     0.0000     0.000     0.000     0.000 -0.0000  1.0000  0.0000
              Bcc     0.0000     0.000     0.000     0.000  0.0000  0.0000  1.0000
 
              Baa     0.0000     0.000     0.000     0.000  1.0000  0.0000  0.0000
    11 H(1)   Bbb     0.0000     0.000     0.000     0.000 -0.0000  1.0000  0.0000
              Bcc     0.0000     0.000     0.000     0.000  0.0000  0.0000  1.0000
 

 ---------------------------------------------------------------------------------

 Calling FoFJK, ICntrl=  10002127 FMM=F ISym2X=0 I1Cent= 0 IOpClX= 1 NMat=1 NMatS=1 NMatT=0.
 ***** Axes restored to original set *****
 -------------------------------------------------------------------
 Center     Atomic                   Forces (Hartrees/Bohr)
 Number     Number              X              Y              Z
 -------------------------------------------------------------------
      1        6          -0.020858813    0.004666996   -0.000012983
      2        6           0.013447365    0.019895291   -0.000003455
      3        1           0.002464854   -0.016540167    0.000003760
      4        1           0.003965108    0.007684634    0.013581261
      5        1           0.003968062    0.007687110   -0.013572863
      6        6           0.012055687   -0.017646420   -0.000001916
      7        1          -0.005058781   -0.007486981    0.015423399
      8        1          -0.005062364   -0.007485241   -0.015419659
      9        1          -0.016261299   -0.003849477    0.000001851
     10        1           0.005669976    0.006537186   -0.013592052
     11        1           0.005670205    0.006537069    0.013592658
 -------------------------------------------------------------------
 Cartesian Forces:  Max     0.020858813 RMS     0.010625398

 GradGradGradGradGradGradGradGradGradGradGradGradGradGradGradGradGradGrad
 Berny optimization.
 FormGI is forming the generalized inverse of G from B-inverse, IUseBI=4.
 Internal  Forces:  Max     0.017773355 RMS     0.007404407
 Search for a local minimum.
 Step number   1 out of a maximum of  100
 All quantities printed in internal units (Hartrees-Bohrs-Radians)
 Mixed Optimization -- RFO/linear search
 Second derivative matrix not updated -- first step.
 ITU=  0
     Eigenvalues ---    0.00671   0.00672   0.03867   0.05086   0.05799
     Eigenvalues ---    0.05800   0.05812   0.05812   0.08336   0.12168
     Eigenvalues ---    0.16000   0.16000   0.16000   0.16000   0.16000
     Eigenvalues ---    0.16000   0.21907   0.31326   0.31326   0.31639
     Eigenvalues ---    0.31641   0.31878   0.31879   0.31881   0.31882
     Eigenvalues ---    0.31910   0.31912
 RFO step:  Lambda=-8.15044632D-03 EMin= 6.71366733D-03
 Linear search not attempted -- first point.
 Iteration  1 RMS(Cart)=  0.03166718 RMS(Int)=  0.00028786
 Iteration  2 RMS(Cart)=  0.00034949 RMS(Int)=  0.00007365
 Iteration  3 RMS(Cart)=  0.00000008 RMS(Int)=  0.00007365
 Variable       Old X    -DE/DX   Delta X   Delta X   Delta X     New X
                                 (Linear)    (Quad)   (Total)
    R1        2.84810   0.01046   0.00000   0.03223   0.03223   2.88033
    R2        2.11009  -0.01636   0.00000  -0.04999  -0.04999   2.06010
    R3        2.11063  -0.01600   0.00000  -0.04894  -0.04894   2.06169
    R4        2.11061  -0.01600   0.00000  -0.04892  -0.04892   2.06168
    R5        2.84806   0.01047   0.00000   0.03226   0.03226   2.88032
    R6        2.12095  -0.01777   0.00000  -0.05530  -0.05530   2.06565
    R7        2.12094  -0.01777   0.00000  -0.05529  -0.05529   2.06565
    R8        2.11005  -0.01635   0.00000  -0.04995  -0.04995   2.06009
    R9        2.11066  -0.01601   0.00000  -0.04898  -0.04898   2.06169
   R10        2.11067  -0.01601   0.00000  -0.04898  -0.04898   2.06169
    A1        1.92741   0.00444   0.00000   0.02835   0.02817   1.95558
    A2        1.93087   0.00135   0.00000   0.00707   0.00699   1.93786
    A3        1.93096   0.00134   0.00000   0.00701   0.00693   1.93789
    A4        1.89226  -0.00275   0.00000  -0.01451  -0.01467   1.87759
    A5        1.89233  -0.00276   0.00000  -0.01456  -0.01472   1.87762
    A6        1.88882  -0.00191   0.00000  -0.01505  -0.01504   1.87378
    A7        1.95131   0.00387   0.00000   0.02211   0.02202   1.97333
    A8        1.91058  -0.00090   0.00000  -0.00114  -0.00122   1.90936
    A9        1.91065  -0.00090   0.00000  -0.00119  -0.00127   1.90939
   A10        1.91072  -0.00090   0.00000  -0.00123  -0.00131   1.90941
   A11        1.91073  -0.00090   0.00000  -0.00124  -0.00132   1.90941
   A12        1.86796  -0.00046   0.00000  -0.01913  -0.01916   1.84880
   A13        1.92749   0.00443   0.00000   0.02829   0.02812   1.95561
   A14        1.93084   0.00136   0.00000   0.00710   0.00702   1.93786
   A15        1.93084   0.00135   0.00000   0.00710   0.00702   1.93786
   A16        1.89232  -0.00276   0.00000  -0.01455  -0.01471   1.87761
   A17        1.89230  -0.00275   0.00000  -0.01454  -0.01470   1.87760
   A18        1.88887  -0.00192   0.00000  -0.01510  -0.01509   1.87378
    D1       -3.14154  -0.00000   0.00000  -0.00004  -0.00004  -3.14158
    D2       -1.02122   0.00079   0.00000   0.01220   0.01221  -1.00902
    D3        1.02127  -0.00080   0.00000  -0.01225  -0.01225   1.00901
    D4       -1.04653   0.00032   0.00000   0.00484   0.00488  -1.04165
    D5        1.07378   0.00111   0.00000   0.01708   0.01714   1.09092
    D6        3.11628  -0.00047   0.00000  -0.00736  -0.00733   3.10895
    D7        1.04648  -0.00032   0.00000  -0.00483  -0.00487   1.04161
    D8       -3.11639   0.00048   0.00000   0.00742   0.00738  -3.10901
    D9       -1.07389  -0.00111   0.00000  -0.01703  -0.01708  -1.09098
   D10        3.14154   0.00000   0.00000   0.00003   0.00003   3.14157
   D11       -1.04653   0.00032   0.00000   0.00485   0.00489  -1.04164
   D12        1.04644  -0.00032   0.00000  -0.00480  -0.00485   1.04160
   D13        1.02130  -0.00080   0.00000  -0.01227  -0.01228   1.00902
   D14        3.11641  -0.00048   0.00000  -0.00745  -0.00741   3.10900
   D15       -1.07380  -0.00112   0.00000  -0.01710  -0.01715  -1.09095
   D16       -1.02132   0.00080   0.00000   0.01227   0.01227  -1.00904
   D17        1.07380   0.00112   0.00000   0.01708   0.01713   1.09094
   D18       -3.11641   0.00048   0.00000   0.00743   0.00740  -3.10901
         Item               Value     Threshold  Converged?
 Maximum Force            0.017773     0.000450     NO 
 RMS     Force            0.007404     0.000300     NO 
 Maximum Displacement     0.068437     0.001800     NO 
 RMS     Displacement     0.031542     0.001200     NO 
 Predicted change in Energy=-4.193438D-03
 GradGradGradGradGradGradGradGradGradGradGradGradGradGradGradGradGradGrad

                          Input orientation:                          
 ---------------------------------------------------------------------
 Center     Atomic      Atomic             Coordinates (Angstroms)
 Number     Number       Type             X           Y           Z
 ---------------------------------------------------------------------
      1          6           0       -0.972618    0.677022   -0.000015
      2          6           0        0.551497    0.660238   -0.000018
      3          1           0       -1.370671    1.691909    0.000018
      4          1           0       -1.369793    0.167352   -0.879089
      5          1           0       -1.369816    0.167254    0.878986
      6          6           0        1.133122   -0.748624   -0.000075
      7          1           0        0.920576    1.205466   -0.872581
      8          1           0        0.920603    1.205406    0.872568
      9          1           0        2.223252   -0.741314   -0.000104
     10          1           0        0.807375   -1.306726    0.878952
     11          1           0        0.807334   -1.306669   -0.879124
 ---------------------------------------------------------------------
                    Distance matrix (angstroms):
                    1          2          3          4          5
     1  C    0.000000
     2  C    1.524207   0.000000
     3  H    1.090158   2.181531   0.000000
     4  H    1.091000   2.169575   1.759859   0.000000
     5  H    1.090996   2.169591   1.759875   1.758075   0.000000
     6  C    2.542951   1.524198   3.496452   2.806467   2.806471
     7  H    2.150536   1.093096   2.499573   2.514659   3.064598
     8  H    2.150553   1.093094   2.499593   3.064600   2.514721
     9  H    3.496463   2.181538   4.340145   3.808971   3.808993
    10  H    2.806459   2.169564   3.808966   3.162859   2.629217
    11  H    2.806437   2.169562   3.808946   2.629186   3.162813
                    6          7          8          9         10
     6  C    0.000000
     7  H    2.150560   0.000000
     8  H    2.150559   1.745149   0.000000
     9  H    1.090155   2.499626   2.499634   0.000000
    10  H    1.090999   3.064602   2.514691   1.759868   0.000000
    11  H    1.090999   2.514694   3.064601   1.759865   1.758076
                   11
    11  H    0.000000
 Stoichiometry    C3H8
 Framework group  C1[X(C3H8)]
 Deg. of freedom    27
 Full point group                 C1      NOp   1
 Largest Abelian subgroup         C1      NOp   1
 Largest concise Abelian subgroup C1      NOp   1
                         Standard orientation:                         
 ---------------------------------------------------------------------
 Center     Atomic      Atomic             Coordinates (Angstroms)
 Number     Number       Type             X           Y           Z
 ---------------------------------------------------------------------
      1          6           0        1.271475   -0.257566   -0.000024
      2          6           0       -0.000006    0.582996   -0.000021
      3          1           0        2.170064    0.359671   -0.000057
      4          1           0        1.314628   -0.902274    0.879049
      5          1           0        1.314593   -0.902368   -0.879026
      6          6           0       -1.271477   -0.257563    0.000036
      7          1           0        0.000042    1.241398    0.872541
      8          1           0       -0.000015    1.241364   -0.872608
      9          1           0       -2.170081    0.359647    0.000064
     10          1           0       -1.314624   -0.902332   -0.878991
     11          1           0       -1.314558   -0.902307    0.879085
 ---------------------------------------------------------------------
 Rotational constants (GHZ):          29.7879728           8.4358853           7.4788196
 Standard basis: CC-pVTZ (5D, 7F)
 There are   225 symmetry adapted cartesian basis functions of A   symmetry.
 There are   202 symmetry adapted basis functions of A   symmetry.
   202 basis functions,   292 primitive gaussians,   225 cartesian basis functions
    13 alpha electrons       13 beta electrons
       nuclear repulsion energy        82.6776538045 Hartrees.
 NAtoms=   11 NActive=   11 NUniq=   11 SFac= 1.00D+00 NAtFMM=   60 NAOKFM=F Big=F
 Integral buffers will be    131072 words long.
 Raffenetti 2 integral format.
 Two-electron integral symmetry is turned on.
 Nuclear repulsion after empirical dispersion term =       82.6733347160 Hartrees.
 One-electron integrals computed using PRISM.
 NBasis=   202 RedAO= T EigKep=  9.24D-04  NBF=   202
 NBsUse=   202 1.00D-06 EigRej= -1.00D+00 NBFU=   202
 Initial guess from the checkpoint file:  "/localscratch/339542/Gau-6494.chk"
 B after Tr=     0.000000   -0.000000   -0.000000
         Rot=    1.000000   -0.000001    0.000001    0.000001 Ang=  -0.00 deg.
 Initial guess <Sx>= 0.0000 <Sy>= 0.0000 <Sz>= 0.0000 <S**2>=-0.0000 S=-0.0000
 ExpMin= 1.03D-01 ExpMax= 8.24D+03 ExpMxC= 2.81D+02 IAcc=3 IRadAn=         5 AccDes= 0.00D+00
 Harris functional with IExCor=  419 and IRadAn=       5 diagonalized for initial guess.
 HarFok:  IExCor=  419 AccDes= 0.00D+00 IRadAn=         5 IDoV= 1 UseB2=F ITyADJ=14
 ICtDFT=  3500011 ScaDFX=  1.000000  1.000000  1.000000  1.000000
 FoFCou: FMM=F IPFlag=           0 FMFlag=      100000 FMFlg1=           0
         NFxFlg=           0 DoJE=T BraDBF=F KetDBF=T FulRan=T
         wScrn=  0.000000 ICntrl=       500 IOpCl=  0 I1Cent=   200000004 NGrid=           0
         NMat0=    1 NMatS0=      1 NMatT0=    0 NMatD0=    1 NMtDS0=    0 NMtDT0=    0
 Petite list used in FoFCou.
 Keep R1 and R2 ints in memory in canonical form, NReq=462602481.
 Requested convergence on RMS density matrix=1.00D-08 within 128 cycles.
 Requested convergence on MAX density matrix=1.00D-06.
 Requested convergence on             energy=1.00D-06.
 No special actions if energy rises.
 Integral accuracy reduced to 1.0D-05 until final iterations.
 Initial convergence to 1.0D-05 achieved.  Increase integral accuracy.
 SCF Done:  E(UB2PLYPD3) =  -118.887517612     A.U. after    9 cycles
            NFock=  9  Conv=0.33D-08     -V/T= 2.0049
 <Sx>= 0.0000 <Sy>= 0.0000 <Sz>= 0.0000 <S**2>=-0.0000 S=-0.0000
 <L.S>=  0.00000000000    
 Annihilation of the first spin contaminant:
 S**2 before annihilation    -0.0000,   after     0.0000
 DoSCS=T DFT=T ScalE2(SS,OS)=  0.270000  0.270000
 ExpMin= 1.03D-01 ExpMax= 8.24D+03 ExpMxC= 2.81D+02 IAcc=3 IRadAn=         5 AccDes= 0.00D+00
 HarFok:  IExCor=  205 AccDes= 0.00D+00 IRadAn=         5 IDoV=-2 UseB2=F ITyADJ=14
 ICtDFT= 12500011 ScaDFX=  1.000000  1.000000  1.000000  1.000000
 Range of M.O.s used for correlation:     4   202
 NBasis=   202 NAE=    13 NBE=    13 NFC=     3 NFV=     0
 NROrb=    199 NOA=    10 NOB=    10 NVA=   189 NVB=   189

 **** Warning!!: The largest alpha MO coefficient is  0.13963072D+02


 **** Warning!!: The largest beta MO coefficient is  0.13963072D+02

 DoSCS=T DFT=T ScalE2(SS,OS)=  0.270000  0.270000
 Fully direct method using O(ONN) memory.
 JobTyp=2 Pass  1:  I=   4 to  13 NPSUse= 40 ParTrn=T ParDer=T DoDerP=T.
 JobTyp=3 Pass  1:  I=   4 to  13 NPSUse= 40 ParTrn=T ParDer=T DoDerP=T.
 Spin components of T(2) and E(2):
     alpha-alpha T2 =       0.2895607810D-01 E2=     -0.1879659628D-01
     alpha-beta  T2 =       0.1933064479D+00 E2=     -0.1388981190D+00
     beta-beta   T2 =       0.2895607810D-01 E2=     -0.1879659628D-01
 (S**2,0)=  0.00000D+00           (S**2,1)=  0.00000D+00
 E(PUHF)=      -0.11888751761D+03        E(PMP2)=      -0.11906400892D+03
 E2(B2PLYPD3) =    -0.1764913116D+00 E(B2PLYPD3) =    -0.11906400892401D+03
          IDoAtm=11111111111
          Differentiating once with respect to electric field.
                with respect to dipole field.
          Differentiating once with respect to nuclear coordinates.
 Keep R1 and R2 ints in memory in canonical form, NReq=462610563.
          There are     1 degrees of freedom in the 1st order CPHF.  IDoFFX=0 NUNeed=     1.
 LinEq1:  Iter=  0 NonCon=     1 RMS=4.79D-04 Max=7.29D-03 NDo=     1
 AX will form     1 AO Fock derivatives at one time.
 LinEq1:  Iter=  1 NonCon=     1 RMS=2.17D-04 Max=3.85D-03 NDo=     1
 LinEq1:  Iter=  2 NonCon=     1 RMS=4.07D-05 Max=5.65D-04 NDo=     1
 LinEq1:  Iter=  3 NonCon=     1 RMS=1.07D-05 Max=1.34D-04 NDo=     1
 LinEq1:  Iter=  4 NonCon=     1 RMS=3.18D-06 Max=3.91D-05 NDo=     1
 LinEq1:  Iter=  5 NonCon=     1 RMS=9.52D-07 Max=1.00D-05 NDo=     1
 LinEq1:  Iter=  6 NonCon=     1 RMS=1.62D-07 Max=1.70D-06 NDo=     1
 LinEq1:  Iter=  7 NonCon=     1 RMS=2.70D-08 Max=4.11D-07 NDo=     1
 LinEq1:  Iter=  8 NonCon=     1 RMS=2.75D-09 Max=4.43D-08 NDo=     1
 LinEq1:  Iter=  9 NonCon=     1 RMS=2.46D-10 Max=4.91D-09 NDo=     1
 LinEq1:  Iter= 10 NonCon=     0 RMS=1.74D-11 Max=1.88D-10 NDo=     1
 Linear equations converged to 1.000D-10 1.000D-09 after    10 iterations.
 End of Minotr F.D. properties file   721 does not exist.
 End of Minotr F.D. properties file   722 does not exist.
 End of Minotr F.D. properties file   788 does not exist.
 Calling FoFJK, ICntrl=  10002127 FMM=F ISym2X=0 I1Cent= 0 IOpClX= 1 NMat=1 NMatS=1 NMatT=0.
 ***** Axes restored to original set *****
 -------------------------------------------------------------------
 Center     Atomic                   Forces (Hartrees/Bohr)
 Number     Number              X              Y              Z
 -------------------------------------------------------------------
      1        6          -0.001590801   -0.001118060   -0.000004012
      2        6           0.001973357    0.002925077   -0.000001005
      3        1           0.001057190   -0.000240170    0.000001565
      4        1           0.000331039   -0.000015228    0.000101014
      5        1           0.000330942   -0.000014641   -0.000098560
      6        6          -0.000449669   -0.001894864   -0.000000560
      7        1          -0.000382456   -0.000568928    0.000562437
      8        1          -0.000383619   -0.000568514   -0.000561417
      9        1          -0.000614025    0.000893620    0.000000368
     10        1          -0.000135930    0.000300874   -0.000100137
     11        1          -0.000136028    0.000300833    0.000100307
 -------------------------------------------------------------------
 Cartesian Forces:  Max     0.002925077 RMS     0.000860303

 GradGradGradGradGradGradGradGradGradGradGradGradGradGradGradGradGradGrad
 Berny optimization.
 Using GEDIIS/GDIIS optimizer.
 FormGI is forming the generalized inverse of G from B-inverse, IUseBI=4.
 Internal  Forces:  Max     0.001876003 RMS     0.000514121
 Search for a local minimum.
 Step number   2 out of a maximum of  100
 All quantities printed in internal units (Hartrees-Bohrs-Radians)
 Mixed Optimization -- En-DIIS/RFO-DIIS
 Update second derivatives using D2CorX and points    1    2
 DE= -4.15D-03 DEPred=-4.19D-03 R= 9.90D-01
 TightC=F SS=  1.41D+00  RLast= 1.70D-01 DXNew= 5.0454D-01 5.0928D-01
 Trust test= 9.90D-01 RLast= 1.70D-01 DXMaxT set to 5.05D-01
 ITU=  1  0
 Use linear search instead of GDIIS.
     Eigenvalues ---    0.00671   0.00672   0.03715   0.05086   0.05598
     Eigenvalues ---    0.05598   0.05724   0.05738   0.08577   0.12346
     Eigenvalues ---    0.15992   0.16000   0.16000   0.16000   0.16000
     Eigenvalues ---    0.16451   0.22008   0.30623   0.31326   0.31640
     Eigenvalues ---    0.31674   0.31809   0.31879   0.31880   0.31881
     Eigenvalues ---    0.31911   0.32168
 RFO step:  Lambda=-6.61659431D-05 EMin= 6.71366733D-03
 Quartic linear search produced a step of -0.00022.
 Iteration  1 RMS(Cart)=  0.00529824 RMS(Int)=  0.00000994
 Iteration  2 RMS(Cart)=  0.00001480 RMS(Int)=  0.00000359
 Iteration  3 RMS(Cart)=  0.00000000 RMS(Int)=  0.00000359
 Variable       Old X    -DE/DX   Delta X   Delta X   Delta X     New X
                                 (Linear)    (Quad)   (Total)
    R1        2.88033  -0.00014  -0.00001  -0.00015  -0.00016   2.88018
    R2        2.06010  -0.00061   0.00001  -0.00238  -0.00237   2.05773
    R3        2.06169  -0.00019   0.00001  -0.00107  -0.00106   2.06063
    R4        2.06168  -0.00019   0.00001  -0.00106  -0.00105   2.06063
    R5        2.88032  -0.00014  -0.00001  -0.00014  -0.00015   2.88017
    R6        2.06565  -0.00086   0.00001  -0.00327  -0.00326   2.06239
    R7        2.06565  -0.00086   0.00001  -0.00327  -0.00325   2.06239
    R8        2.06009  -0.00061   0.00001  -0.00237  -0.00236   2.05773
    R9        2.06169  -0.00019   0.00001  -0.00107  -0.00106   2.06063
   R10        2.06169  -0.00019   0.00001  -0.00107  -0.00106   2.06063
    A1        1.95558  -0.00117  -0.00001  -0.00753  -0.00754   1.94805
    A2        1.93786  -0.00011  -0.00000  -0.00040  -0.00040   1.93746
    A3        1.93789  -0.00012  -0.00000  -0.00042  -0.00042   1.93747
    A4        1.87759   0.00063   0.00000   0.00338   0.00337   1.88096
    A5        1.87762   0.00063   0.00000   0.00335   0.00335   1.88097
    A6        1.87378   0.00023   0.00000   0.00221   0.00222   1.87599
    A7        1.97333  -0.00188  -0.00000  -0.00964  -0.00965   1.96368
    A8        1.90936   0.00054   0.00000   0.00179   0.00178   1.91115
    A9        1.90939   0.00054   0.00000   0.00177   0.00176   1.91115
   A10        1.90941   0.00054   0.00000   0.00176   0.00175   1.91116
   A11        1.90941   0.00054   0.00000   0.00176   0.00175   1.91116
   A12        1.84880  -0.00018   0.00000   0.00342   0.00342   1.85222
   A13        1.95561  -0.00117  -0.00001  -0.00755  -0.00756   1.94805
   A14        1.93786  -0.00011  -0.00000  -0.00039  -0.00040   1.93746
   A15        1.93786  -0.00011  -0.00000  -0.00039  -0.00040   1.93746
   A16        1.87761   0.00063   0.00000   0.00336   0.00336   1.88096
   A17        1.87760   0.00063   0.00000   0.00336   0.00336   1.88096
   A18        1.87378   0.00023   0.00000   0.00221   0.00221   1.87599
    D1       -3.14158  -0.00000   0.00000  -0.00001  -0.00001   3.14159
    D2       -1.00902  -0.00020  -0.00000  -0.00305  -0.00306  -1.01207
    D3        1.00901   0.00020   0.00000   0.00304   0.00304   1.01206
    D4       -1.04165  -0.00007  -0.00000  -0.00112  -0.00111  -1.04276
    D5        1.09092  -0.00026  -0.00000  -0.00415  -0.00416   1.08676
    D6        3.10895   0.00013   0.00000   0.00194   0.00194   3.11089
    D7        1.04161   0.00007   0.00000   0.00113   0.00113   1.04274
    D8       -3.10901  -0.00013  -0.00000  -0.00191  -0.00191  -3.11092
    D9       -1.09098   0.00027   0.00000   0.00419   0.00419  -1.08679
   D10        3.14157   0.00000  -0.00000   0.00002   0.00002   3.14158
   D11       -1.04164  -0.00007  -0.00000  -0.00112  -0.00112  -1.04276
   D12        1.04160   0.00007   0.00000   0.00114   0.00114   1.04274
   D13        1.00902   0.00020   0.00000   0.00304   0.00304   1.01206
   D14        3.10900   0.00013   0.00000   0.00190   0.00191   3.11091
   D15       -1.09095   0.00026   0.00000   0.00416   0.00417  -1.08678
   D16       -1.00904  -0.00020  -0.00000  -0.00303  -0.00304  -1.01208
   D17        1.09094  -0.00026  -0.00000  -0.00417  -0.00417   1.08677
   D18       -3.10901  -0.00013  -0.00000  -0.00191  -0.00191  -3.11092
         Item               Value     Threshold  Converged?
 Maximum Force            0.001876     0.000450     NO 
 RMS     Force            0.000514     0.000300     NO 
 Maximum Displacement     0.011990     0.001800     NO 
 RMS     Displacement     0.005311     0.001200     NO 
 Predicted change in Energy=-3.309483D-05
 GradGradGradGradGradGradGradGradGradGradGradGradGradGradGradGradGradGrad

                          Input orientation:                          
 ---------------------------------------------------------------------
 Center     Atomic      Atomic             Coordinates (Angstroms)
 Number     Number       Type             X           Y           Z
 ---------------------------------------------------------------------
      1          6           0       -0.970269    0.673117   -0.000020
      2          6           0        0.553825    0.663686   -0.000025
      3          1           0       -1.365112    1.687914    0.000024
      4          1           0       -1.364365    0.162695   -0.879348
      5          1           0       -1.364366    0.162611    0.879257
      6          6           0        1.128614   -0.747893   -0.000078
      7          1           0        0.921508    1.206814   -0.872329
      8          1           0        0.921517    1.206752    0.872314
      9          1           0        2.217470   -0.737616   -0.000091
     10          1           0        0.801031   -1.303412    0.879209
     11          1           0        0.801009   -1.303354   -0.879394
 ---------------------------------------------------------------------
                    Distance matrix (angstroms):
                    1          2          3          4          5
     1  C    0.000000
     2  C    1.524123   0.000000
     3  H    1.088905   2.175169   0.000000
     4  H    1.090440   2.168790   1.760565   0.000000
     5  H    1.090439   2.168794   1.760568   1.758604   0.000000
     6  C    2.534676   1.524119   3.485946   2.795931   2.795925
     7  H    2.150483   1.091372   2.494210   2.513055   3.063271
     8  H    2.150486   1.091372   2.494209   3.063271   2.513074
     9  H    3.485950   2.175170   4.326440   3.796471   3.796473
    10  H    2.795928   2.168787   3.796468   3.151338   2.614989
    11  H    2.795919   2.168787   3.796464   2.614984   3.151310
                    6          7          8          9         10
     6  C    0.000000
     7  H    2.150488   0.000000
     8  H    2.150487   1.744643   0.000000
     9  H    1.088905   2.494219   2.494223   0.000000
    10  H    1.090439   3.063272   2.513063   1.760566   0.000000
    11  H    1.090439   2.513069   3.063272   1.760566   1.758603
                   11
    11  H    0.000000
 Stoichiometry    C3H8
 Framework group  C1[X(C3H8)]
 Deg. of freedom    27
 Full point group                 C1      NOp   1
 Largest Abelian subgroup         C1      NOp   1
 Largest concise Abelian subgroup C1      NOp   1
                         Standard orientation:                         
 ---------------------------------------------------------------------
 Center     Atomic      Atomic             Coordinates (Angstroms)
 Number     Number       Type             X           Y           Z
 ---------------------------------------------------------------------
      1          6           0        1.267338   -0.259546   -0.000022
      2          6           0       -0.000002    0.587095   -0.000017
      3          1           0        2.163218    0.359414   -0.000066
      4          1           0        1.307518   -0.903151    0.879306
      5          1           0        1.307472   -0.903221   -0.879299
      6          6           0       -1.267338   -0.259545    0.000036
      7          1           0        0.000025    1.242975    0.872287
      8          1           0       -0.000019    1.242929   -0.872356
      9          1           0       -2.163222    0.359408    0.000049
     10          1           0       -1.307516   -0.903204   -0.879252
     11          1           0       -1.307466   -0.903169    0.879351
 ---------------------------------------------------------------------
 Rotational constants (GHZ):          29.6187692           8.4906101           7.5111841
 Standard basis: CC-pVTZ (5D, 7F)
 There are   225 symmetry adapted cartesian basis functions of A   symmetry.
 There are   202 symmetry adapted basis functions of A   symmetry.
   202 basis functions,   292 primitive gaussians,   225 cartesian basis functions
    13 alpha electrons       13 beta electrons
       nuclear repulsion energy        82.7663476029 Hartrees.
 NAtoms=   11 NActive=   11 NUniq=   11 SFac= 1.00D+00 NAtFMM=   60 NAOKFM=F Big=F
 Integral buffers will be    131072 words long.
 Raffenetti 2 integral format.
 Two-electron integral symmetry is turned on.
 Nuclear repulsion after empirical dispersion term =       82.7620218245 Hartrees.
 One-electron integrals computed using PRISM.
 NBasis=   202 RedAO= T EigKep=  9.19D-04  NBF=   202
 NBsUse=   202 1.00D-06 EigRej= -1.00D+00 NBFU=   202
 Initial guess from the checkpoint file:  "/localscratch/339542/Gau-6494.chk"
 B after Tr=     0.000000   -0.000000    0.000000
         Rot=    1.000000   -0.000000    0.000000    0.000000 Ang=  -0.00 deg.
 Initial guess <Sx>= 0.0000 <Sy>= 0.0000 <Sz>= 0.0000 <S**2>= 0.0000 S= 0.0000
 Keep R1 and R2 ints in memory in canonical form, NReq=462602481.
 Requested convergence on RMS density matrix=1.00D-08 within 128 cycles.
 Requested convergence on MAX density matrix=1.00D-06.
 Requested convergence on             energy=1.00D-06.
 No special actions if energy rises.
 SCF Done:  E(UB2PLYPD3) =  -118.887573737     A.U. after    7 cycles
            NFock=  7  Conv=0.28D-08     -V/T= 2.0048
 <Sx>= 0.0000 <Sy>= 0.0000 <Sz>= 0.0000 <S**2>=-0.0000 S=-0.0000
 <L.S>=  0.00000000000    
 Annihilation of the first spin contaminant:
 S**2 before annihilation    -0.0000,   after     0.0000
 DoSCS=T DFT=T ScalE2(SS,OS)=  0.270000  0.270000
 ExpMin= 1.03D-01 ExpMax= 8.24D+03 ExpMxC= 2.81D+02 IAcc=3 IRadAn=         5 AccDes= 0.00D+00
 HarFok:  IExCor=  205 AccDes= 0.00D+00 IRadAn=         5 IDoV=-2 UseB2=F ITyADJ=14
 ICtDFT= 12500011 ScaDFX=  1.000000  1.000000  1.000000  1.000000
 Range of M.O.s used for correlation:     4   202
 NBasis=   202 NAE=    13 NBE=    13 NFC=     3 NFV=     0
 NROrb=    199 NOA=    10 NOB=    10 NVA=   189 NVB=   189

 **** Warning!!: The largest alpha MO coefficient is  0.14029766D+02


 **** Warning!!: The largest beta MO coefficient is  0.14029766D+02

 DoSCS=T DFT=T ScalE2(SS,OS)=  0.270000  0.270000
 Fully direct method using O(ONN) memory.
 JobTyp=2 Pass  1:  I=   4 to  13 NPSUse= 40 ParTrn=T ParDer=T DoDerP=T.
 JobTyp=3 Pass  1:  I=   4 to  13 NPSUse= 40 ParTrn=T ParDer=T DoDerP=T.
 Spin components of T(2) and E(2):
     alpha-alpha T2 =       0.2893553062D-01 E2=     -0.1879772626D-01
     alpha-beta  T2 =       0.1930804712D+00 E2=     -0.1388716532D+00
     beta-beta   T2 =       0.2893553062D-01 E2=     -0.1879772626D-01
 (S**2,0)=  0.00000D+00           (S**2,1)=  0.00000D+00
 E(PUHF)=      -0.11888757374D+03        E(PMP2)=      -0.11906404084D+03
 E2(B2PLYPD3) =    -0.1764671057D+00 E(B2PLYPD3) =    -0.11906404084271D+03
          IDoAtm=11111111111
          Differentiating once with respect to electric field.
                with respect to dipole field.
          Differentiating once with respect to nuclear coordinates.
 Keep R1 and R2 ints in memory in canonical form, NReq=462610563.
          There are     1 degrees of freedom in the 1st order CPHF.  IDoFFX=0 NUNeed=     1.
 LinEq1:  Iter=  0 NonCon=     1 RMS=4.78D-04 Max=7.26D-03 NDo=     1
 AX will form     1 AO Fock derivatives at one time.
 LinEq1:  Iter=  1 NonCon=     1 RMS=2.16D-04 Max=3.87D-03 NDo=     1
 LinEq1:  Iter=  2 NonCon=     1 RMS=4.05D-05 Max=5.64D-04 NDo=     1
 LinEq1:  Iter=  3 NonCon=     1 RMS=1.05D-05 Max=1.34D-04 NDo=     1
 LinEq1:  Iter=  4 NonCon=     1 RMS=3.14D-06 Max=3.84D-05 NDo=     1
 LinEq1:  Iter=  5 NonCon=     1 RMS=9.50D-07 Max=1.01D-05 NDo=     1
 LinEq1:  Iter=  6 NonCon=     1 RMS=1.62D-07 Max=1.67D-06 NDo=     1
 LinEq1:  Iter=  7 NonCon=     1 RMS=2.68D-08 Max=4.11D-07 NDo=     1
 LinEq1:  Iter=  8 NonCon=     1 RMS=2.74D-09 Max=4.59D-08 NDo=     1
 LinEq1:  Iter=  9 NonCon=     1 RMS=2.46D-10 Max=5.08D-09 NDo=     1
 LinEq1:  Iter= 10 NonCon=     0 RMS=1.59D-11 Max=1.98D-10 NDo=     1
 Linear equations converged to 1.000D-10 1.000D-09 after    10 iterations.
 End of Minotr F.D. properties file   721 does not exist.
 End of Minotr F.D. properties file   722 does not exist.
 End of Minotr F.D. properties file   788 does not exist.
 Calling FoFJK, ICntrl=  10002127 FMM=F ISym2X=0 I1Cent= 0 IOpClX= 1 NMat=1 NMatS=1 NMatT=0.
 ***** Axes restored to original set *****
 -------------------------------------------------------------------
 Center     Atomic                   Forces (Hartrees/Bohr)
 Number     Number              X              Y              Z
 -------------------------------------------------------------------
      1        6          -0.000629864    0.000025604   -0.000000934
      2        6           0.000214528    0.000320469   -0.000000024
      3        1          -0.000125382    0.000248516    0.000000292
      4        1           0.000127641   -0.000055237   -0.000086012
      5        1           0.000127673   -0.000055136    0.000086614
      6        6           0.000258020   -0.000576672   -0.000000212
      7        1          -0.000026304   -0.000039801   -0.000182073
      8        1          -0.000026520   -0.000039727    0.000182237
      9        1           0.000277284   -0.000023790    0.000000054
     10        1          -0.000098567    0.000097874    0.000086468
     11        1          -0.000098508    0.000097899   -0.000086410
 -------------------------------------------------------------------
 Cartesian Forces:  Max     0.000629864 RMS     0.000196807

 GradGradGradGradGradGradGradGradGradGradGradGradGradGradGradGradGradGrad
 Berny optimization.
 Using GEDIIS/GDIIS optimizer.
 FormGI is forming the generalized inverse of G from B-inverse, IUseBI=4.
 Internal  Forces:  Max     0.000502363 RMS     0.000147525
 Search for a local minimum.
 Step number   3 out of a maximum of  100
 All quantities printed in internal units (Hartrees-Bohrs-Radians)
 Mixed Optimization -- En-DIIS/RFO-DIIS
 Swapping is turned off.
 Update second derivatives using D2CorX and points    1    2    3
 DE= -3.19D-05 DEPred=-3.31D-05 R= 9.64D-01
 TightC=F SS=  1.41D+00  RLast= 2.12D-02 DXNew= 8.4853D-01 6.3652D-02
 Trust test= 9.64D-01 RLast= 2.12D-02 DXMaxT set to 5.05D-01
 ITU=  1  1  0
     Eigenvalues ---    0.00671   0.00672   0.03770   0.04831   0.05649
     Eigenvalues ---    0.05649   0.05731   0.05824   0.08482   0.12276
     Eigenvalues ---    0.14543   0.16000   0.16000   0.16000   0.16000
     Eigenvalues ---    0.17127   0.22325   0.30539   0.31326   0.31640
     Eigenvalues ---    0.31790   0.31879   0.31880   0.31881   0.31911
     Eigenvalues ---    0.32042   0.36015
 En-DIIS/RFO-DIIS/Sim-DIIS IScMMF=       -3 using points:     3    2
 RFO step:  Lambda=-4.15822459D-06.
 DidBck=F Rises=F RFO-DIIS coefs:    1.07508   -0.07508
 Iteration  1 RMS(Cart)=  0.00090936 RMS(Int)=  0.00000099
 Iteration  2 RMS(Cart)=  0.00000092 RMS(Int)=  0.00000049
 Variable       Old X    -DE/DX   Delta X   Delta X   Delta X     New X
                                 (Linear)    (Quad)   (Total)
    R1        2.88018   0.00050  -0.00001   0.00154   0.00152   2.88170
    R2        2.05773   0.00028  -0.00018   0.00085   0.00068   2.05841
    R3        2.06063   0.00005  -0.00008   0.00015   0.00007   2.06070
    R4        2.06063   0.00005  -0.00008   0.00015   0.00007   2.06070
    R5        2.88017   0.00050  -0.00001   0.00154   0.00153   2.88170
    R6        2.06239   0.00012  -0.00024   0.00039   0.00015   2.06254
    R7        2.06239   0.00012  -0.00024   0.00039   0.00015   2.06254
    R8        2.05773   0.00028  -0.00018   0.00085   0.00068   2.05841
    R9        2.06063   0.00005  -0.00008   0.00015   0.00007   2.06070
   R10        2.06063   0.00005  -0.00008   0.00015   0.00007   2.06070
    A1        1.94805   0.00012  -0.00057   0.00109   0.00052   1.94857
    A2        1.93746  -0.00020  -0.00003  -0.00129  -0.00132   1.93614
    A3        1.93747  -0.00020  -0.00003  -0.00130  -0.00133   1.93614
    A4        1.88096   0.00006   0.00025   0.00052   0.00077   1.88173
    A5        1.88097   0.00006   0.00025   0.00051   0.00077   1.88173
    A6        1.87599   0.00016   0.00017   0.00055   0.00072   1.87671
    A7        1.96368   0.00009  -0.00072   0.00028  -0.00045   1.96323
    A8        1.91115  -0.00004   0.00013  -0.00037  -0.00024   1.91091
    A9        1.91115  -0.00004   0.00013  -0.00037  -0.00024   1.91091
   A10        1.91116  -0.00005   0.00013  -0.00038  -0.00025   1.91091
   A11        1.91116  -0.00004   0.00013  -0.00038  -0.00025   1.91091
   A12        1.85222   0.00009   0.00026   0.00128   0.00154   1.85376
   A13        1.94805   0.00012  -0.00057   0.00108   0.00052   1.94857
   A14        1.93746  -0.00020  -0.00003  -0.00129  -0.00132   1.93614
   A15        1.93746  -0.00020  -0.00003  -0.00129  -0.00132   1.93614
   A16        1.88096   0.00006   0.00025   0.00052   0.00077   1.88173
   A17        1.88096   0.00006   0.00025   0.00052   0.00077   1.88173
   A18        1.87599   0.00016   0.00017   0.00055   0.00072   1.87671
    D1        3.14159  -0.00000  -0.00000   0.00000  -0.00000   3.14159
    D2       -1.01207  -0.00003  -0.00023  -0.00056  -0.00079  -1.01286
    D3        1.01206   0.00003   0.00023   0.00056   0.00079   1.01285
    D4       -1.04276   0.00003  -0.00008   0.00051   0.00043  -1.04234
    D5        1.08676  -0.00000  -0.00031  -0.00005  -0.00036   1.08641
    D6        3.11089   0.00006   0.00015   0.00107   0.00122   3.11211
    D7        1.04274  -0.00003   0.00008  -0.00050  -0.00042   1.04232
    D8       -3.11092  -0.00006  -0.00014  -0.00106  -0.00120  -3.11212
    D9       -1.08679   0.00000   0.00031   0.00006   0.00037  -1.08642
   D10        3.14158   0.00000   0.00000   0.00000   0.00001   3.14159
   D11       -1.04276   0.00003  -0.00008   0.00051   0.00042  -1.04233
   D12        1.04274  -0.00003   0.00009  -0.00050  -0.00041   1.04232
   D13        1.01206   0.00003   0.00023   0.00056   0.00079   1.01285
   D14        3.11091   0.00006   0.00014   0.00106   0.00120   3.11211
   D15       -1.08678   0.00000   0.00031   0.00005   0.00037  -1.08642
   D16       -1.01208  -0.00003  -0.00023  -0.00055  -0.00078  -1.01286
   D17        1.08677  -0.00000  -0.00031  -0.00005  -0.00036   1.08641
   D18       -3.11092  -0.00006  -0.00014  -0.00106  -0.00120  -3.11212
         Item               Value     Threshold  Converged?
 Maximum Force            0.000502     0.000450     NO 
 RMS     Force            0.000148     0.000300     YES
 Maximum Displacement     0.002509     0.001800     NO 
 RMS     Displacement     0.000910     0.001200     YES
 Predicted change in Energy=-2.078722D-06
 GradGradGradGradGradGradGradGradGradGradGradGradGradGradGradGradGradGrad

                          Input orientation:                          
 ---------------------------------------------------------------------
 Center     Atomic      Atomic             Coordinates (Angstroms)
 Number     Number       Type             X           Y           Z
 ---------------------------------------------------------------------
      1          6           0       -0.970710    0.673328   -0.000021
      2          6           0        0.554193    0.664233   -0.000026
      3          1           0       -1.366439    1.688163    0.000023
      4          1           0       -1.363359    0.162156   -0.879605
      5          1           0       -1.363354    0.162080    0.879520
      6          6           0        1.128970   -0.748225   -0.000079
      7          1           0        0.921532    1.206843   -0.872895
      8          1           0        0.921538    1.206780    0.872879
      9          1           0        2.218192   -0.738751   -0.000087
     10          1           0        0.800157   -1.302677    0.879467
     11          1           0        0.800143   -1.302617   -0.879657
 ---------------------------------------------------------------------
                    Distance matrix (angstroms):
                    1          2          3          4          5
     1  C    0.000000
     2  C    1.524930   0.000000
     3  H    1.089263   2.176524   0.000000
     4  H    1.090475   2.168581   1.761378   0.000000
     5  H    1.090475   2.168581   1.761378   1.759124   0.000000
     6  C    2.535639   1.524928   3.487557   2.795365   2.795359
     7  H    2.151076   1.091450   2.495690   2.512398   3.063200
     8  H    2.151076   1.091450   2.495685   3.063200   2.512404
     9  H    3.487558   2.176524   4.328913   3.796405   3.796403
    10  H    2.795364   2.168581   3.796404   3.149741   2.612718
    11  H    2.795360   2.168581   3.796404   2.612719   3.149724
                    6          7          8          9         10
     6  C    0.000000
     7  H    2.151076   0.000000
     8  H    2.151076   1.745774   0.000000
     9  H    1.089263   2.495687   2.495691   0.000000
    10  H    1.090475   3.063200   2.512399   1.761378   0.000000
    11  H    1.090475   2.512404   3.063200   1.761378   1.759124
                   11
    11  H    0.000000
 Stoichiometry    C3H8
 Framework group  C1[X(C3H8)]
 Deg. of freedom    27
 Full point group                 C1      NOp   1
 Largest Abelian subgroup         C1      NOp   1
 Largest concise Abelian subgroup C1      NOp   1
                         Standard orientation:                         
 ---------------------------------------------------------------------
 Center     Atomic      Atomic             Coordinates (Angstroms)
 Number     Number       Type             X           Y           Z
 ---------------------------------------------------------------------
      1          6           0        1.267820   -0.259718   -0.000021
      2          6           0       -0.000001    0.587656   -0.000017
      3          1           0        2.164456    0.358777   -0.000066
      4          1           0        1.306383   -0.903133    0.879562
      5          1           0        1.306336   -0.903193   -0.879563
      6          6           0       -1.267819   -0.259718    0.000036
      7          1           0        0.000020    1.242914    0.872852
      8          1           0       -0.000020    1.242865   -0.872922
      9          1           0       -2.164457    0.358776    0.000045
     10          1           0       -1.306382   -0.903184   -0.879510
     11          1           0       -1.306336   -0.903142    0.879614
 ---------------------------------------------------------------------
 Rotational constants (GHZ):          29.5971637           8.4860493           7.5070807
 Standard basis: CC-pVTZ (5D, 7F)
 There are   225 symmetry adapted cartesian basis functions of A   symmetry.
 There are   202 symmetry adapted basis functions of A   symmetry.
[...]
    A1        1.94857   0.00003   0.00000   0.00016   0.00016   1.94873
    A2        1.93614  -0.00004   0.00000  -0.00035  -0.00035   1.93579
    A3        1.93614  -0.00004   0.00000  -0.00035  -0.00035   1.93579
    A4        1.88173   0.00001   0.00000   0.00014   0.00014   1.88188
    A5        1.88173   0.00001   0.00000   0.00014   0.00014   1.88188
    A6        1.87671   0.00004   0.00000   0.00028   0.00028   1.87699
    A7        1.96323  -0.00001   0.00000  -0.00035  -0.00035   1.96288
    A8        1.91091  -0.00000   0.00000  -0.00003  -0.00003   1.91088
    A9        1.91091  -0.00000   0.00000  -0.00003  -0.00003   1.91088
   A10        1.91091  -0.00000   0.00000  -0.00003  -0.00003   1.91088
   A11        1.91091  -0.00000   0.00000  -0.00003  -0.00003   1.91088
   A12        1.85376   0.00002   0.00000   0.00053   0.00053   1.85428
   A13        1.94857   0.00003   0.00000   0.00016   0.00016   1.94873
   A14        1.93614  -0.00004   0.00000  -0.00035  -0.00035   1.93579
   A15        1.93614  -0.00004   0.00000  -0.00035  -0.00035   1.93579
   A16        1.88173   0.00001   0.00000   0.00015   0.00015   1.88188
   A17        1.88173   0.00001   0.00000   0.00015   0.00015   1.88188
   A18        1.87671   0.00004   0.00000   0.00028   0.00028   1.87699
    D1        3.14159   0.00000   0.00000   0.00001   0.00001   3.14159
    D2       -1.01286  -0.00001   0.00000  -0.00029  -0.00029  -1.01315
    D3        1.01285   0.00001   0.00000   0.00031   0.00031   1.01315
    D4       -1.04234   0.00000   0.00000   0.00006   0.00006  -1.04227
    D5        1.08641  -0.00001   0.00000  -0.00024  -0.00024   1.08617
    D6        3.11211   0.00001   0.00000   0.00036   0.00036   3.11247
    D7        1.04232  -0.00000   0.00000  -0.00005  -0.00005   1.04227
    D8       -3.11212  -0.00001   0.00000  -0.00035  -0.00035  -3.11247
    D9       -1.08642   0.00001   0.00000   0.00025   0.00025  -1.08617
   D10        3.14159   0.00000   0.00000   0.00001   0.00001   3.14159
   D11       -1.04233   0.00000   0.00000   0.00006   0.00006  -1.04227
   D12        1.04232  -0.00000   0.00000  -0.00005  -0.00005   1.04227
   D13        1.01285   0.00001   0.00000   0.00030   0.00030   1.01315
   D14        3.11211   0.00001   0.00000   0.00036   0.00036   3.11247
   D15       -1.08642   0.00001   0.00000   0.00025   0.00025  -1.08617
   D16       -1.01286  -0.00001   0.00000  -0.00029  -0.00029  -1.01315
   D17        1.08641  -0.00001   0.00000  -0.00024  -0.00024   1.08617
   D18       -3.11212  -0.00001   0.00000  -0.00035  -0.00035  -3.11247
         Item               Value     Threshold  Converged?
 Maximum Force            0.000132     0.000450     YES
 RMS     Force            0.000033     0.000300     YES
 Maximum Displacement     0.000859     0.001800     YES
 RMS     Displacement     0.000319     0.001200     YES
 Predicted change in Energy=-1.433477D-07
 Optimization completed.
    -- Stationary point found.
                           ----------------------------
                           !   Optimized Parameters   !
                           ! (Angstroms and Degrees)  !
 --------------------------                            --------------------------
 ! Name  Definition              Value          Derivative Info.                !
 --------------------------------------------------------------------------------
 ! R1    R(1,2)                  1.5249         -DE/DX =    0.0001              !
 ! R2    R(1,3)                  1.0893         -DE/DX =    0.0                 !
 ! R3    R(1,4)                  1.0905         -DE/DX =    0.0                 !
 ! R4    R(1,5)                  1.0905         -DE/DX =    0.0                 !
 ! R5    R(2,6)                  1.5249         -DE/DX =    0.0001              !
 ! R6    R(2,7)                  1.0914         -DE/DX =    0.0                 !
 ! R7    R(2,8)                  1.0915         -DE/DX =    0.0                 !
 ! R8    R(6,9)                  1.0893         -DE/DX =    0.0                 !
 ! R9    R(6,10)                 1.0905         -DE/DX =    0.0                 !
 ! R10   R(6,11)                 1.0905         -DE/DX =    0.0                 !
 ! A1    A(2,1,3)              111.6447         -DE/DX =    0.0                 !
 ! A2    A(2,1,4)              110.9325         -DE/DX =    0.0                 !
 ! A3    A(2,1,5)              110.9325         -DE/DX =    0.0                 !
 ! A4    A(3,1,4)              107.8153         -DE/DX =    0.0                 !
 ! A5    A(3,1,5)              107.8153         -DE/DX =    0.0                 !
 ! A6    A(4,1,5)              107.5274         -DE/DX =    0.0                 !
 ! A7    A(1,2,6)              112.4848         -DE/DX =    0.0                 !
 ! A8    A(1,2,7)              109.487          -DE/DX =    0.0                 !
 ! A9    A(1,2,8)              109.487          -DE/DX =    0.0                 !
 ! A10   A(6,2,7)              109.4871         -DE/DX =    0.0                 !
 ! A11   A(6,2,8)              109.4871         -DE/DX =    0.0                 !
 ! A12   A(7,2,8)              106.2124         -DE/DX =    0.0                 !
 ! A13   A(2,6,9)              111.6448         -DE/DX =    0.0                 !
 ! A14   A(2,6,10)             110.9325         -DE/DX =    0.0                 !
 ! A15   A(2,6,11)             110.9325         -DE/DX =    0.0                 !
 ! A16   A(9,6,10)             107.8153         -DE/DX =    0.0                 !
 ! A17   A(9,6,11)             107.8153         -DE/DX =    0.0                 !
 ! A18   A(10,6,11)            107.5274         -DE/DX =    0.0                 !
 ! D1    D(3,1,2,6)            179.9996         -DE/DX =    0.0                 !
 ! D2    D(3,1,2,7)            -58.0325         -DE/DX =    0.0                 !
 ! D3    D(3,1,2,8)             58.0318         -DE/DX =    0.0                 !
 ! D4    D(4,1,2,6)            -59.7214         -DE/DX =    0.0                 !
 ! D5    D(4,1,2,7)             62.2464         -DE/DX =    0.0                 !
 ! D6    D(4,1,2,8)            178.3107         -DE/DX =    0.0                 !
 ! D7    D(5,1,2,6)             59.7206         -DE/DX =    0.0                 !
 ! D8    D(5,1,2,7)           -178.3115         -DE/DX =    0.0                 !
 ! D9    D(5,1,2,8)            -62.2472         -DE/DX =    0.0                 !
 ! D10   D(1,2,6,9)            179.9997         -DE/DX =    0.0                 !
 ! D11   D(1,2,6,10)           -59.7213         -DE/DX =    0.0                 !
 ! D12   D(1,2,6,11)            59.7207         -DE/DX =    0.0                 !
 ! D13   D(7,2,6,9)             58.0319         -DE/DX =    0.0                 !
 ! D14   D(7,2,6,10)           178.3109         -DE/DX =    0.0                 !
 ! D15   D(7,2,6,11)           -62.2471         -DE/DX =    0.0                 !
 ! D16   D(8,2,6,9)            -58.0325         -DE/DX =    0.0                 !
 ! D17   D(8,2,6,10)            62.2465         -DE/DX =    0.0                 !
 ! D18   D(8,2,6,11)          -178.3115         -DE/DX =    0.0                 !
 --------------------------------------------------------------------------------
 GradGradGradGradGradGradGradGradGradGradGradGradGradGradGradGradGradGrad


 ----------------------------------------------------------------------

 Electric dipole moment (input orientation):
 (Debye = 10**-18 statcoulomb cm , SI units = C m)
                  (au)            (Debye)         (10**-30 SI)
   Tot        0.329335D-01      0.837085D-01      0.279221D+00
   x          0.184636D-01      0.469297D-01      0.156541D+00
   y          0.272710D-01      0.693160D-01      0.231213D+00
   z          0.000000D+00      0.000000D+00      0.000000D+00

 Dipole polarizability, Alpha (input orientation).
 (esu units = cm**3 , SI units = C**2 m**2 J**-1)
 Alpha(0;0):
               (au)            (10**-24 esu)      (10**-40 SI)
   iso        0.387001D+02      0.573476D+01      0.638078D+01
   aniso      0.592092D+01      0.877389D+00      0.976227D+00
   xx         0.409903D+02      0.607414D+01      0.675839D+01
   yx        -0.225781D+01     -0.334574D+00     -0.372263D+00
   yy         0.391841D+02      0.580648D+01      0.646058D+01
   zx        -0.956824D-04     -0.141787D-04     -0.157759D-04
   zy         0.125309D-03      0.185688D-04      0.206606D-04
   zz         0.359258D+02      0.532366D+01      0.592337D+01

 ----------------------------------------------------------------------

 Dipole orientation:
     6         -1.84849292          1.25155383          0.02522166
     6          0.13543537         -0.09157950          1.62653763
     1         -3.25159706          2.20144916          1.19399929
     1         -0.97698257          2.66876177         -1.19070338
     1         -2.84060092         -0.08399173         -1.19072315
     6          2.11937469         -1.43472056          0.02524618
     1          1.06017123          1.27435256          2.86475037
     1         -0.78931332         -1.45750273          2.86475065
     1          3.52246901         -2.38461268          1.19403858
     1          1.24787501         -2.85193326         -1.19068103
     1          3.11149503         -0.09918211         -1.19069676

 Electric dipole moment (dipole orientation):
 (Debye = 10**-18 statcoulomb cm , SI units = C m)
                  (au)            (Debye)         (10**-30 SI)
   Tot        0.329335D-01      0.837085D-01      0.279221D+00
   x          0.000000D+00      0.000000D+00      0.000000D+00
   y          0.000000D+00      0.000000D+00      0.000000D+00
   z          0.329335D-01      0.837085D-01      0.279221D+00

 Dipole polarizability, Alpha (dipole orientation).
 (esu units = cm**3 , SI units = C**2 m**2 J**-1)
 Alpha(0;0):
               (au)            (10**-24 esu)      (10**-40 SI)
   iso        0.387001D+02      0.573476D+01      0.638078D+01
   aniso      0.592092D+01      0.877389D+00      0.976227D+00
   xx         0.404468D+02      0.599360D+01      0.666878D+01
   yx        -0.306074D+01     -0.453555D+00     -0.504648D+00
   yy         0.379980D+02      0.563072D+01      0.626502D+01
   zx         0.228280D-04      0.338276D-05      0.376383D-05
   zy        -0.168549D-04     -0.249764D-05     -0.277900D-05
   zz         0.376555D+02      0.557996D+01      0.620855D+01

 ----------------------------------------------------------------------
 1\1\GINC-N68\Freq\UB2PLYPD3-FC\CC-pVTZ\C3H8\ROOT\31-May-2019\0\\#N Geo
 m=AllCheck Guess=TCheck SCRF=Check GenChk UB2PLYPD3(FC)/CC-pVTZ Freq\\
 Title Card Required\\0,1\C,-0.9707099504,0.6733276454,-0.0000214499\C,
 0.5541925835,0.6642333736,-0.0000263314\H,-1.3664391833,1.6881632911,0
 .0000234802\H,-1.3633591981,0.1621562825,-0.8796046355\H,-1.3633543609
 ,0.1620802414,0.8795196417\C,1.1289701384,-0.7482245141,-0.0000790711\
 H,0.9215321908,1.2068433087,-0.8728946595\H,0.9215376976,1.206780083,0
 .8728790364\H,2.2181916574,-0.7387507794,-0.0000874783\H,0.8001566891,
 -1.3026768012,0.8794666062\H,0.800142506,-1.302617111,-0.8796571387\\V
 ersion=ES64L-G16RevB.01\State=1-A\HF=-118.8875661\MP2=-119.0640434\PUH
 F=-118.8875661\PMP2-0=-119.0640434\S2=0.\S2-1=0.\S2A=0.\RMSD=1.471e-09
 \RMSF=5.099e-05\ZeroPoint=0.10396\Thermal=0.1084761\Dipole=0.0184636,0
 .027271,0.0000009\DipoleDeriv=0.0115608,0.017127,0.000001,0.0308054,0.
 0837201,-0.0000013,0.0000015,-0.0000015,0.1211492,0.1392118,-0.0159986
 ,-0.0000003,-0.0159985,0.1264135,-0.0000007,-0.0000004,-0.0000005,0.14
 15051,-0.0222035,0.0741761,0.0000032,0.1065541,-0.1367602,-0.000009,0.
 0000048,-0.0000089,0.0669293,-0.0064837,-0.0197351,-0.0345894,-0.05707
 32,0.0086528,-0.0904131,-0.0790584,-0.0830938,-0.0866376,-0.0064827,-0
 .0197376,0.0345873,-0.0570795,0.008638,0.0904216,0.079053,0.0831021,-0
 .0866234,0.057239,0.0490762,0.0000019,0.0353977,0.0380428,-0.0000031,0
 .0000015,-0.0000031,0.121149,-0.0278261,-0.022253,0.0579851,-0.0222535
 ,-0.0456349,0.0856494,0.0734209,0.1084483,-0.0855634,-0.027827,-0.0222
 492,-0.0579873,-0.0222489,-0.0456208,-0.0856462,-0.0734231,-0.1084452,
 -0.0855767,-0.1832803,0.0421237,0.0000033,0.009746,0.0243163,-0.000001
 4,0.0000022,-0.0000017,0.0669295,0.0330467,-0.0412662,0.0711023,-0.003
 9258,-0.0308897,0.0656968,0.047793,0.1042655,-0.0866256,0.033045,-0.04
 12632,-0.071107,-0.0039237,-0.0308779,-0.065693,-0.0477951,-0.1042611,
 -0.0866355\Polar=40.9903362,-2.257814,39.1840759,-0.0000957,0.0001253,
 35.9258178\PG=C01 [X(C3H8)]\NImag=0\\0.47427886,-0.00424927,0.57795775
 ,0.00000003,0.00000035,0.56826591,-0.19590264,-0.00496539,0.00000012,0
 .48234152,-0.00160609,-0.08007499,0.00000001,0.03902874,0.51356701,0.0
 0000028,0.00000009,-0.08081223,0.00000179,-0.00000323,0.59764095,-0.07
 962312,0.08570362,0.00000381,-0.01033800,0.03330930,0.00000141,0.08792
 782,0.08719474,-0.28082764,-0.00001028,-0.00208231,0.00219922,0.000000
 16,-0.09586649,0.30390191,0.00000389,-0.00001030,-0.04819087,-0.000000
 09,0.00000007,-0.00147372,-0.00000424,0.00001136,0.04710904,-0.0778607
 8,-0.04170394,-0.07265471,-0.01354825,-0.01649328,-0.02945290,0.003571
 98,0.00473773,0.01031700,0.08767034,-0.04232469,-0.10612650,-0.0996447
 8,-0.00015306,-0.00095070,0.00003393,-0.01114654,-0.01380112,-0.025661
 89,0.04726929,0.11118966,-0.07353926,-0.09955720,-0.22100900,0.0005571
 7,0.00037982,0.00063453,0.00103581,0.00079787,0.00056366,0.08136081,0.
 11055865,0.23819626,-0.07786001,-0.04170973,0.07265034,-0.01354806,-0.
 01649575,0.02945159,0.00357192,0.00473862,-0.01031661,0.00345564,0.006
 39085,-0.00918014,0.08766944,-0.04233057,-0.10614374,0.09965499,-0.000
 15296,-0.00095063,-0.00003407,-0.01114631,-0.01380327,0.02566070,0.006
 38998,0.00775723,-0.01331657,0.04727570,0.11120879,0.07353479,0.099567
 37,-0.22099259,-0.00055705,-0.00037986,0.00063430,-0.00103679,-0.00079
 914,0.00056588,0.00918055,0.01331906,-0.02131703,-0.08135595,-0.110569
 93,0.23817807,-0.01797564,0.03648051,0.00000144,-0.09378536,0.03588223
 ,0.00000130,-0.00727176,0.00064439,0.00000002,0.00188676,0.00037496,0.
 00024750,0.00188681,0.00037498,-0.00024750,0.56658759,0.00475584,-0.00
 148109,-0.00000010,0.03924152,-0.18219397,-0.00000381,-0.00212110,0.00
 110814,0.00000004,-0.00133564,0.00086562,0.00022647,-0.00133567,0.0008
 6572,-0.00022641,0.03267326,0.48565065,0.00000028,-0.00000022,0.000311
 81,0.00000144,-0.00000373,-0.08081221,-0.00000003,0.00000002,0.0003841
 5,-0.00059569,0.00104501,0.00021104,0.00059559,-0.00104496,0.00021097,
 0.00000111,-0.00000309,0.56826535,-0.01409680,-0.01680322,0.02904554,-
 0.07551246,-0.04226872,0.06727931,0.00141063,0.00054872,-0.00004172,0.
 00158325,-0.00027076,-0.00048612,-0.00713151,0.00012184,-0.00039628,0.
 00394105,0.00756478,-0.01145346,0.08615982,0.00034916,0.00024606,-0.00
 071754,-0.04226872,-0.10933373,0.09938091,-0.00026239,0.00039766,-0.00
 035722,-0.00017939,-0.00023008,0.00017496,0.00035167,0.00092086,-0.000
 06905,-0.00958681,-0.01779286,0.02670155,0.04353811,0.12099717,-0.0005
 6244,-0.00083100,0.00081027,0.06813156,0.10063975,-0.21779657,0.000570
 10,-0.00033576,0.00000543,0.00039898,-0.00004948,0.00079368,-0.0003655
 2,-0.00052767,0.00173195,-0.00056305,-0.00083158,0.00081139,-0.0752977
 8,-0.11122479,0.23354247,-0.01409695,-0.01680101,-0.02904672,-0.075513
 33,-0.04226445,-0.06728319,0.00141065,0.00054871,0.00004176,-0.0071315
 1,0.00012178,0.00039635,0.00158322,-0.00027080,0.00048609,0.00394116,0
 .00756394,0.01145395,0.00338523,0.00589922,0.00875978,0.08616073,0.000
 34918,0.00024594,0.00071753,-0.04226443,-0.10931921,-0.09937278,-0.000
 26233,0.00039763,0.00035726,0.00035166,0.00092082,0.00006900,-0.000179
 36,-0.00023008,-0.00017504,-0.00958707,-0.01779104,-0.02670281,0.00589
 993,0.00810491,0.01293938,0.04353332,0.12098107,0.00056253,0.00083105,
 0.00081055,-0.06813544,-0.10063160,-0.21781015,-0.00057013,0.00033580,
 0.00000551,0.00036558,0.00052760,0.00173200,-0.00039900,0.00004940,0.0
 0079364,0.00056234,0.00083022,0.00080945,-0.00875951,-0.01293721,-0.02
 242971,0.07530185,0.11121632,0.23355758,0.00046152,0.00373769,0.000000
 15,-0.01029798,-0.00206629,0.,-0.00090342,-0.00004085,0.,0.00036145,-0
 .00011572,0.00007682,0.00036146,-0.00011572,-0.00007684,-0.31269514,-0
 .00603384,0.00000192,0.00043863,0.00015993,-0.00052349,0.00043862,0.00
 015990,0.00052349,0.34022696,0.00097220,-0.00662512,-0.00000027,0.0333
 2533,0.00215920,-0.00000010,0.00218818,-0.00004449,-0.00000002,-0.0001
 0206,-0.00000383,0.00025994,-0.00010203,-0.00000380,-0.00025996,-0.007
 52498,-0.04775542,0.00000006,-0.00065115,0.00136966,0.00040469,-0.0006
 5118,0.00136965,-0.00040459,0.00505293,0.05160258,0.00000003,-0.000000
 25,0.00038415,0.00000119,0.00000016,-0.00147373,0.00000008,-0.00000002
 ,0.00058227,0.00045037,0.00004980,0.00022434,-0.00045038,-0.00004983,0
 .00022432,0.00000188,0.00000005,-0.04819086,-0.00031621,-0.00017138,0.
 00000549,0.00031616,0.00017148,0.00000545,-0.00000218,0.00000010,0.047
 10905,0.00133778,0.00015542,-0.00119146,0.00305219,0.00648751,-0.01096
 966,0.00012166,-0.00021164,0.00012101,-0.00005559,-0.00000592,-0.00003
 490,0.00006669,-0.00014023,0.00043406,-0.07325668,-0.04048792,0.065537
 51,-0.00035309,0.00283318,-0.00035402,0.00017526,-0.00083398,0.0001940
 6,-0.00919583,-0.01625456,0.02765701,0.07535090,-0.00155525,0.00141466
 ,0.00016499,-0.00985416,-0.01755204,0.02733258,-0.00019796,0.00023600,
 -0.00043666,0.00014829,0.00000136,-0.00005589,0.00091738,0.00037758,-0
 .00046292,-0.03986711,-0.11074498,0.10446926,0.00306303,-0.00585754,-0
 .00053564,-0.00074255,0.00117791,-0.00035208,-0.00036900,-0.00103417,-
 0.00004861,0.04234689,0.12352508,-0.00011839,-0.00031385,0.00021099,-0
 .00014613,-0.00065903,0.00063542,-0.00021283,-0.00016788,0.00022431,0.
 00003894,0.00005316,-0.00010345,-0.00059100,0.00023110,0.00007395,0.06
 512770,0.10525802,-0.22099452,0.00008322,-0.00039390,0.00173195,-0.000
 34304,0.00038636,0.00079368,-0.00035644,-0.00125865,0.00056449,-0.0724
 3783,-0.11660614,0.23818024,0.00133778,0.00015532,0.00119145,0.0030523
 6,0.00648680,0.01097007,0.00012166,-0.00021163,-0.00012101,0.00006671,
 -0.00014019,-0.00043407,-0.00005559,-0.00000593,0.00003491,-0.07325877
 ,-0.04048517,-0.06554262,0.00017525,-0.00083396,-0.00019411,-0.0003531
 0,0.00283318,0.00035424,-0.00919627,-0.01625267,-0.02765796,0.00275673
 ,0.00611043,0.00895580,0.07535324,-0.00155526,0.00141468,-0.00016489,-
 0.00985456,-0.01755016,-0.02733367,-0.00019798,0.00023596,0.00043667,0
 .00091735,0.00037754,0.00046294,0.00014831,0.00000136,0.00005589,-0.03
 986437,-0.11073077,-0.10446110,-0.00074257,0.00117789,0.00035211,0.003
 06303,-0.00585760,0.00053509,-0.00036903,-0.00103426,0.00004850,0.0061
 1126,0.00845614,0.01347081,0.04234381,0.12350922,0.00011826,0.00031395
 ,0.00021102,0.00014543,0.00065764,0.00063341,0.00021281,0.00016788,0.0
 0022435,0.00059106,-0.00023108,0.00007396,-0.00003892,-0.00005316,-0.0
 0010346,-0.06513275,-0.10524979,-0.22100656,0.00034300,-0.00038633,0.0
 0079365,-0.00008298,0.00039332,0.00173201,0.00035658,0.00125881,0.0005
 6503,-0.00895578,-0.01346889,-0.02131706,0.07244329,0.11659765,0.23819
 367\\0.00017037,-0.00002462,0.00000004,-0.00007163,-0.00010682,-0.0000
 0004,0.00001067,-0.00000130,0.00000002,-0.00002461,0.00000438,0.000020
 56,-0.00002462,0.00000436,-0.00002063,-0.00008646,0.00014971,0.0000000
 3,0.00000248,0.00000377,0.00005123,0.00000248,0.00000380,-0.00005121,-
 0.00000513,0.00000935,-0.00000001,0.00001324,-0.00002129,-0.00002061,0
 .00001320,-0.00002132,0.00002062\\\@


 WHERE THERE IS MUCH DESIRE TO LEARN, THERE OF NECESSITY WILL BE
 MUCH ARGUING, MUCH WRITING, MANY OPINIONS; FOR OPINION IN GOOD MEN
 IS BUT KNOWLEDGE IN THE MAKING. -- JOHN MILTON.
 Job cpu time:       0 days  5 hours 34 minutes 55.8 seconds.
 Elapsed time:       0 days  0 hours  8 minutes 33.5 seconds.
 File lengths (MBytes):  RWF=   9478 Int=      0 D2E=      0 Chk=      8 Scr=      1
 Normal termination of Gaussian 16 at Fri May 31 22:58:31 2019.
