 Entering Gaussian System, Link 0=g16
 Initial command:
 /ichec/packages/gaussian/16b01/l1.exe "/localscratch/339542/Gau-50594.inp" -scrdir="/localscratch/339542/"
 Entering Link 1 = /ichec/packages/gaussian/16b01/l1.exe PID=     50608.
  
 Copyright (c) 1988-2017, Gaussian, Inc.  All Rights Reserved.
  
 This is part of the Gaussian(R) 16 program.  It is based on
 the Gaussian(R) 09 system (copyright 2009, Gaussian, Inc.),
 the Gaussian(R) 03 system (copyright 2003, Gaussian, Inc.),
 the Gaussian(R) 98 system (copyright 1998, Gaussian, Inc.),
 the Gaussian(R) 94 system (copyright 1995, Gaussian, Inc.),
 the Gaussian 92(TM) system (copyright 1992, Gaussian, Inc.),
 the Gaussian 90(TM) system (copyright 1990, Gaussian, Inc.),
 the Gaussian 88(TM) system (copyright 1988, Gaussian, Inc.),
 the Gaussian 86(TM) system (copyright 1986, Carnegie Mellon
 University), and the Gaussian 82(TM) system (copyright 1983,
 Carnegie Mellon University). Gaussian is a federally registered
 trademark of Gaussian, Inc.
  
 This software contains proprietary and confidential information,
 including trade secrets, belonging to Gaussian, Inc.
  
 This software is provided under written license and may be
 used, copied, transmitted, or stored only in accord with that
 written license.
  
 The following legend is applicable only to US Government
 contracts under FAR:
  
                    RESTRICTED RIGHTS LEGEND
  
 Use, reproduction and disclosure by the US Government is
 subject to restrictions as set forth in subparagraphs (a)
 and (c) of the Commercial Computer Software - Restricted
 Rights clause in FAR 52.227-19.
  
 Gaussian, Inc.
 340 Quinnipiac St., Bldg. 40, Wallingford CT 06492
  
  
 ---------------------------------------------------------------
 Warning -- This program may not be used in any manner that
 competes with the business of Gaussian, Inc. or will provide
 assistance to any competitor of Gaussian, Inc.  The licensee
 of this program is prohibited from giving any competitor of
 Gaussian, Inc. access to this program.  By using this program,
 the user acknowledges that Gaussian, Inc. is engaged in the
 business of creating and licensing software in the field of
 computational chemistry and represents and warrants to the
 licensee that it is not a competitor of Gaussian, Inc. and that
 it will not use this program in any manner prohibited above.
 ---------------------------------------------------------------
  

 Cite this work as:
 Gaussian 16, Revision B.01,
 M. J. Frisch, G. W. Trucks, H. B. Schlegel, G. E. Scuseria, 
 M. A. Robb, J. R. Cheeseman, G. Scalmani, V. Barone, 
 G. A. Petersson, H. Nakatsuji, X. Li, M. Caricato, A. V. Marenich, 
 J. Bloino, B. G. Janesko, R. Gomperts, B. Mennucci, H. P. Hratchian, 
 J. V. Ortiz, A. F. Izmaylov, J. L. Sonnenberg, D. Williams-Young, 
 F. Ding, F. Lipparini, F. Egidi, J. Goings, B. Peng, A. Petrone, 
 T. Henderson, D. Ranasinghe, V. G. Zakrzewski, J. Gao, N. Rega, 
 G. Zheng, W. Liang, M. Hada, M. Ehara, K. Toyota, R. Fukuda, 
 J. Hasegawa, M. Ishida, T. Nakajima, Y. Honda, O. Kitao, H. Nakai, 
 T. Vreven, K. Throssell, J. A. Montgomery, Jr., J. E. Peralta, 
 F. Ogliaro, M. J. Bearpark, J. J. Heyd, E. N. Brothers, K. N. Kudin, 
 V. N. Staroverov, T. A. Keith, R. Kobayashi, J. Normand, 
 K. Raghavachari, A. P. Rendell, J. C. Burant, S. S. Iyengar, 
 J. Tomasi, M. Cossi, J. M. Millam, M. Klene, C. Adamo, R. Cammi, 
 J. W. Ochterski, R. L. Martin, K. Morokuma, O. Farkas, 
 J. B. Foresman, and D. J. Fox, Gaussian, Inc., Wallingford CT, 2016.
 
 ******************************************
 Gaussian 16:  ES64L-G16RevB.01 20-Dec-2017
                31-May-2019 
 ******************************************
 %mem=80GB
 %nproc=40
 Will use up to   40 processors via shared memory.
 -----------------------------------------------
 # opt=maxcyc=500 freq=noraman uB2PLYPD3/cc-pvtz
 -----------------------------------------------
 1/6=500,18=20,19=15,38=1/1,3;
 2/9=110,12=2,17=6,18=5,40=1/2;
 3/5=16,6=1,11=2,25=1,30=1,71=1,74=-60,116=2/1,2,3;
 4//1;
 5/5=2,38=5/2;
 8/6=4,10=1/1;
 9/15=2,16=-3/6;
 10/5=1/2;
 6/7=2,8=2,9=2,10=2/1;
 7/12=2/1,2,3,16;
 1/6=500,18=20,19=15/3(2);
 2/9=110/2;
 99//99;
 2/9=110/2;
 3/5=16,6=1,11=2,25=1,30=1,71=1,74=-60,116=2/1,2,3;
 4/5=5,16=3,69=1/1;
 5/5=2,38=5/2;
 8/6=4,10=1/1;
 9/15=2,16=-3/6;
 10/5=1/2;
 7/12=2/1,2,3,16;
 1/6=500,18=20,19=15/3(-8);
 2/9=110/2;
 6/7=2,8=2,9=2,10=2/1;
 99/9=10/99;
 -------------------
 Title Card Required
 -------------------
 Symbolic Z-matrix:
 Charge =  0 Multiplicity = 2
 C                    -0.95602   0.65966   0. 
 C                     0.55113   0.65966   0. 
 H                    -1.34584   1.70602   0. 
 H                    -1.34955   0.13646  -0.90491 
 H                    -1.34965   0.13635   0.90479 
 C                     1.11087  -0.73967  -0.00007 
 H                     0.92519   1.21237  -0.90237 
 H                     2.17999  -0.69616  -0.00014 
 H                     0.77496  -1.25814  -0.87371 
 H                     0.77507  -1.25818   0.87359 
 

 GradGradGradGradGradGradGradGradGradGradGradGradGradGradGradGradGradGrad
 Berny optimization.
 Initialization pass.
                           ----------------------------
                           !    Initial Parameters    !
                           ! (Angstroms and Degrees)  !
 --------------------------                            --------------------------
 ! Name  Definition              Value          Derivative Info.                !
 --------------------------------------------------------------------------------
 ! R1    R(1,2)                  1.5072         estimate D2E/DX2                !
 ! R2    R(1,3)                  1.1166         estimate D2E/DX2                !
 ! R3    R(1,4)                  1.1169         estimate D2E/DX2                !
 ! R4    R(1,5)                  1.1169         estimate D2E/DX2                !
 ! R5    R(2,6)                  1.5071         estimate D2E/DX2                !
 ! R6    R(2,7)                  1.1224         estimate D2E/DX2                !
 ! R7    R(6,8)                  1.07           estimate D2E/DX2                !
 ! R8    R(6,9)                  1.07           estimate D2E/DX2                !
 ! R9    R(6,10)                 1.07           estimate D2E/DX2                !
 ! A1    A(2,1,3)              110.4325         estimate D2E/DX2                !
 ! A2    A(2,1,4)              110.6308         estimate D2E/DX2                !
 ! A3    A(2,1,5)              110.6361         estimate D2E/DX2                !
 ! A4    A(3,1,4)              108.4186         estimate D2E/DX2                !
 ! A5    A(3,1,5)              108.4228         estimate D2E/DX2                !
 ! A6    A(4,1,5)              108.2212         estimate D2E/DX2                !
 ! A7    A(1,2,6)              111.802          estimate D2E/DX2                !
 ! A8    A(1,2,7)              109.4684         estimate D2E/DX2                !
 ! A9    A(6,2,7)              109.4761         estimate D2E/DX2                !
 ! A10   A(2,6,8)              109.4712         estimate D2E/DX2                !
 ! A11   A(2,6,9)              109.4712         estimate D2E/DX2                !
 ! A12   A(2,6,10)             109.4712         estimate D2E/DX2                !
 ! A13   A(8,6,9)              109.4712         estimate D2E/DX2                !
 ! A14   A(8,6,10)             109.4712         estimate D2E/DX2                !
 ! A15   A(9,6,10)             109.4712         estimate D2E/DX2                !
 ! D1    D(3,1,2,6)           -179.9971         estimate D2E/DX2                !
 ! D2    D(3,1,2,7)            -58.5119         estimate D2E/DX2                !
 ! D3    D(4,1,2,6)            -59.9619         estimate D2E/DX2                !
 ! D4    D(4,1,2,7)             61.5233         estimate D2E/DX2                !
 ! D5    D(5,1,2,6)             59.959          estimate D2E/DX2                !
 ! D6    D(5,1,2,7)           -178.5558         estimate D2E/DX2                !
 ! D7    D(1,2,6,8)            179.9959         estimate D2E/DX2                !
 ! D8    D(1,2,6,9)             59.9959         estimate D2E/DX2                !
 ! D9    D(1,2,6,10)           -60.0041         estimate D2E/DX2                !
 ! D10   D(7,2,6,8)             58.5151         estimate D2E/DX2                !
 ! D11   D(7,2,6,9)            -61.4849         estimate D2E/DX2                !
 ! D12   D(7,2,6,10)           178.5151         estimate D2E/DX2                !
 --------------------------------------------------------------------------------
 Trust Radius=3.00D-01 FncErr=1.00D-07 GrdErr=1.00D-07 EigMax=2.50D+02 EigMin=1.00D-04
 Number of steps in this run=    100 maximum allowed number of steps=    100.
 GradGradGradGradGradGradGradGradGradGradGradGradGradGradGradGradGradGrad

                          Input orientation:                          
 ---------------------------------------------------------------------
 Center     Atomic      Atomic             Coordinates (Angstroms)
 Number     Number       Type             X           Y           Z
 ---------------------------------------------------------------------
      1          6           0       -0.956023    0.659656    0.000000
      2          6           0        0.551127    0.659656    0.000000
      3          1           0       -1.345836    1.706016    0.000000
      4          1           0       -1.349555    0.136465   -0.904910
      5          1           0       -1.349648    0.136351    0.904788
      6          6           0        1.110874   -0.739672   -0.000072
      7          1           0        0.925194    1.212371   -0.902368
      8          1           0        2.179989   -0.696157   -0.000142
      9          1           0        0.774957   -1.258141   -0.873714
     10          1           0        0.775074   -1.258184    0.873589
 ---------------------------------------------------------------------
                    Distance matrix (angstroms):
                    1          2          3          4          5
     1  C    0.000000
     2  C    1.507150   0.000000
     3  H    1.116612   2.166411   0.000000
     4  H    1.116897   2.169143   1.811730   0.000000
     5  H    1.116884   2.169201   1.811768   1.809698   0.000000
     6  C    2.496033   1.507128   3.466528   2.764066   2.764119
     7  H    2.158411   1.122358   2.493097   2.516359   3.098151
     8  H    3.416548   2.119297   4.266366   3.737585   3.737687
     9  H    2.727199   2.119297   3.747981   2.541545   3.101874
    10  H    2.727263   2.119297   3.748053   3.101959   2.541681
                    6          7          8          9         10
     6  C    0.000000
     7  H    2.158492   0.000000
     8  H    1.070000   2.455810   0.000000
     9  H    1.070000   2.475242   1.747303   0.000000
    10  H    1.070000   3.046342   1.747303   1.747303   0.000000
 Stoichiometry    C3H7(2)
 Framework group  C1[X(C3H7)]
 Deg. of freedom    24
 Full point group                 C1      NOp   1
 Largest Abelian subgroup         C1      NOp   1
 Largest concise Abelian subgroup C1      NOp   1
                         Standard orientation:                         
 ---------------------------------------------------------------------
 Center     Atomic      Atomic             Coordinates (Angstroms)
 Number     Number       Type             X           Y           Z
 ---------------------------------------------------------------------
      1          6           0        1.245116   -0.211166    0.021006
      2          6           0       -0.005436    0.599752   -0.202674
      3          1           0        2.152578    0.416175   -0.151564
      4          1           0        1.279413   -0.601147    1.067044
      5          1           0        1.279867   -1.081866   -0.677638
      6          6           0       -1.250906   -0.218507    0.022473
      7          1           0       -0.007544    1.482815    0.490063
      8          1           0       -2.113713    0.391557   -0.145711
      9          1           0       -1.261771   -0.582015    1.028775
     10          1           0       -1.261468   -1.045995   -0.655799
 ---------------------------------------------------------------------
 Rotational constants (GHZ):          34.1152519           8.8876874           7.8871094
 Standard basis: CC-pVTZ (5D, 7F)
 There are   210 symmetry adapted cartesian basis functions of A   symmetry.
 There are   188 symmetry adapted basis functions of A   symmetry.
   188 basis functions,   275 primitive gaussians,   210 cartesian basis functions
    13 alpha electrons       12 beta electrons
       nuclear repulsion energy        75.9016157087 Hartrees.
 NAtoms=   10 NActive=   10 NUniq=   10 SFac= 1.00D+00 NAtFMM=   60 NAOKFM=F Big=F
 Integral buffers will be    131072 words long.
 Raffenetti 2 integral format.
 Two-electron integral symmetry is turned on.
 Nuclear repulsion after empirical dispersion term =       75.8976662059 Hartrees.
 One-electron integrals computed using PRISM.
 NBasis=   188 RedAO= T EigKep=  9.40D-04  NBF=   188
 NBsUse=   188 1.00D-06 EigRej= -1.00D+00 NBFU=   188
 ExpMin= 1.03D-01 ExpMax= 8.24D+03 ExpMxC= 2.81D+02 IAcc=3 IRadAn=         5 AccDes= 0.00D+00
 Harris functional with IExCor=  419 and IRadAn=       5 diagonalized for initial guess.
 HarFok:  IExCor=  419 AccDes= 0.00D+00 IRadAn=         5 IDoV= 1 UseB2=F ITyADJ=14
 ICtDFT=  3500011 ScaDFX=  1.000000  1.000000  1.000000  1.000000
 FoFCou: FMM=F IPFlag=           0 FMFlag=      100000 FMFlg1=           0
         NFxFlg=           0 DoJE=T BraDBF=F KetDBF=T FulRan=T
         wScrn=  0.000000 ICntrl=       500 IOpCl=  0 I1Cent=   200000004 NGrid=           0
         NMat0=    1 NMatS0=      1 NMatT0=    0 NMatD0=    1 NMtDS0=    0 NMtDT0=    0
 Petite list used in FoFCou.
 Initial guess <Sx>= 0.0000 <Sy>= 0.0000 <Sz>= 0.5000 <S**2>= 0.7500 S= 0.5000
 Keep R1 and R2 ints in memory in canonical form, NReq=357195436.
 Requested convergence on RMS density matrix=1.00D-08 within 128 cycles.
 Requested convergence on MAX density matrix=1.00D-06.
 Requested convergence on             energy=1.00D-06.
 No special actions if energy rises.
 Integral accuracy reduced to 1.0D-05 until final iterations.
 Initial convergence to 1.0D-05 achieved.  Increase integral accuracy.
 SCF Done:  E(UB2PLYPD3) =  -118.220532351     A.U. after   13 cycles
            NFock= 13  Conv=0.72D-08     -V/T= 2.0050
 <Sx>= 0.0000 <Sy>= 0.0000 <Sz>= 0.5000 <S**2>= 0.7550 S= 0.5025
 <L.S>=  0.00000000000    
 Annihilation of the first spin contaminant:
 S**2 before annihilation     0.7550,   after     0.7500
 DoSCS=T DFT=T ScalE2(SS,OS)=  0.270000  0.270000
 ExpMin= 1.03D-01 ExpMax= 8.24D+03 ExpMxC= 2.81D+02 IAcc=3 IRadAn=         5 AccDes= 0.00D+00
 HarFok:  IExCor=  205 AccDes= 0.00D+00 IRadAn=         5 IDoV=-2 UseB2=F ITyADJ=14
 ICtDFT= 12500011 ScaDFX=  1.000000  1.000000  1.000000  1.000000
 Range of M.O.s used for correlation:     4   188
 NBasis=   188 NAE=    13 NBE=    12 NFC=     3 NFV=     0
 NROrb=    185 NOA=    10 NOB=     9 NVA=   175 NVB=   176

 **** Warning!!: The largest alpha MO coefficient is  0.12591024D+02


 **** Warning!!: The largest beta MO coefficient is  0.12590361D+02

 DoSCS=T DFT=T ScalE2(SS,OS)=  0.270000  0.270000
 Fully direct method using O(ONN) memory.
 JobTyp=2 Pass  1:  I=   4 to  13 NPSUse= 40 ParTrn=T ParDer=T DoDerP=T.
 JobTyp=3 Pass  1:  I=   4 to  12 NPSUse= 40 ParTrn=T ParDer=T DoDerP=T.
 Spin components of T(2) and E(2):
     alpha-alpha T2 =       0.3063832184D-01 E2=     -0.1982522578D-01
     alpha-beta  T2 =       0.1814625912D+00 E2=     -0.1288796976D+00
     beta-beta   T2 =       0.2537550930D-01 E2=     -0.1605912981D-01
 (S**2,0)=  0.75503D+00           (S**2,1)=  0.74793D+00
 Scaling Projection term by:   0.270000
 E(PUHF)=      -0.11822242216D+03        E(PMP2)=      -0.11838544712D+03
 E2(B2PLYPD3) =    -0.1647640532D+00 E(B2PLYPD3) =    -0.11838529640405D+03
          IDoAtm=1111111111
          Differentiating once with respect to electric field.
                with respect to dipole field.
          Differentiating once with respect to nuclear coordinates.
 Keep R1 and R2 ints in memory in canonical form, NReq=357202664.
          There are     1 degrees of freedom in the 1st order CPHF.  IDoFFX=0 NUNeed=     1.
 LinEq1:  Iter=  0 NonCon=     1 RMS=6.54D-04 Max=2.42D-02 NDo=     1
 AX will form     1 AO Fock derivatives at one time.
 LinEq1:  Iter=  1 NonCon=     1 RMS=2.44D-04 Max=3.26D-03 NDo=     1
 LinEq1:  Iter=  2 NonCon=     1 RMS=7.86D-05 Max=1.73D-03 NDo=     1
 LinEq1:  Iter=  3 NonCon=     1 RMS=1.72D-05 Max=2.79D-04 NDo=     1
 LinEq1:  Iter=  4 NonCon=     1 RMS=7.47D-06 Max=8.37D-05 NDo=     1
 LinEq1:  Iter=  5 NonCon=     1 RMS=2.80D-06 Max=4.28D-05 NDo=     1
 LinEq1:  Iter=  6 NonCon=     1 RMS=1.17D-06 Max=1.42D-05 NDo=     1
 LinEq1:  Iter=  7 NonCon=     1 RMS=2.83D-07 Max=3.19D-06 NDo=     1
 LinEq1:  Iter=  8 NonCon=     1 RMS=7.84D-08 Max=1.04D-06 NDo=     1
 LinEq1:  Iter=  9 NonCon=     1 RMS=3.00D-08 Max=3.88D-07 NDo=     1
 LinEq1:  Iter= 10 NonCon=     1 RMS=1.34D-08 Max=2.15D-07 NDo=     1
 LinEq1:  Iter= 11 NonCon=     1 RMS=2.87D-09 Max=3.99D-08 NDo=     1
 LinEq1:  Iter= 12 NonCon=     1 RMS=7.85D-10 Max=1.29D-08 NDo=     1
 LinEq1:  Iter= 13 NonCon=     1 RMS=2.66D-10 Max=3.06D-09 NDo=     1
 LinEq1:  Iter= 14 NonCon=     0 RMS=6.77D-11 Max=8.22D-10 NDo=     1
 Linear equations converged to 1.000D-10 1.000D-09 after    14 iterations.
 End of Minotr F.D. properties file   721 does not exist.
 End of Minotr F.D. properties file   722 does not exist.
 End of Minotr F.D. properties file   788 does not exist.

 **********************************************************************

            Population analysis using the SCF Density.

 **********************************************************************

 Orbital symmetries:
 Alpha Orbitals:
       Occupied  (A) (A) (A) (A) (A) (A) (A) (A) (A) (A) (A) (A)
                 (A)
       Virtual   (A) (A) (A) (A) (A) (A) (A) (A) (A) (A) (A) (A)
                 (A) (A) (A) (A) (A) (A) (A) (A) (A) (A) (A) (A)
                 (A) (A) (A) (A) (A) (A) (A) (A) (A) (A) (A) (A)
                 (A) (A) (A) (A) (A) (A) (A) (A) (A) (A) (A) (A)
                 (A) (A) (A) (A) (A) (A) (A) (A) (A) (A) (A) (A)
                 (A) (A) (A) (A) (A) (A) (A) (A) (A) (A) (A) (A)
                 (A) (A) (A) (A) (A) (A) (A) (A) (A) (A) (A) (A)
                 (A) (A) (A) (A) (A) (A) (A) (A) (A) (A) (A) (A)
                 (A) (A) (A) (A) (A) (A) (A) (A) (A) (A) (A) (A)
                 (A) (A) (A) (A) (A) (A) (A) (A) (A) (A) (A) (A)
                 (A) (A) (A) (A) (A) (A) (A) (A) (A) (A) (A) (A)
                 (A) (A) (A) (A) (A) (A) (A) (A) (A) (A) (A) (A)
                 (A) (A) (A) (A) (A) (A) (A) (A) (A) (A) (A) (A)
                 (A) (A) (A) (A) (A) (A) (A) (A) (A) (A) (A) (A)
                 (A) (A) (A) (A) (A) (A) (A)
 Beta  Orbitals:
       Occupied  (A) (A) (A) (A) (A) (A) (A) (A) (A) (A) (A) (A)
       Virtual   (A) (A) (A) (A) (A) (A) (A) (A) (A) (A) (A) (A)
                 (A) (A) (A) (A) (A) (A) (A) (A) (A) (A) (A) (A)
                 (A) (A) (A) (A) (A) (A) (A) (A) (A) (A) (A) (A)
                 (A) (A) (A) (A) (A) (A) (A) (A) (A) (A) (A) (A)
                 (A) (A) (A) (A) (A) (A) (A) (A) (A) (A) (A) (A)
                 (A) (A) (A) (A) (A) (A) (A) (A) (A) (A) (A) (A)
                 (A) (A) (A) (A) (A) (A) (A) (A) (A) (A) (A) (A)
                 (A) (A) (A) (A) (A) (A) (A) (A) (A) (A) (A) (A)
                 (A) (A) (A) (A) (A) (A) (A) (A) (A) (A) (A) (A)
                 (A) (A) (A) (A) (A) (A) (A) (A) (A) (A) (A) (A)
                 (A) (A) (A) (A) (A) (A) (A) (A) (A) (A) (A) (A)
                 (A) (A) (A) (A) (A) (A) (A) (A) (A) (A) (A) (A)
                 (A) (A) (A) (A) (A) (A) (A) (A) (A) (A) (A) (A)
                 (A) (A) (A) (A) (A) (A) (A) (A) (A) (A) (A) (A)
                 (A) (A) (A) (A) (A) (A) (A) (A)
 The electronic state is 2-A.
 Alpha  occ. eigenvalues --  -10.62922 -10.61050 -10.59535  -0.90437  -0.78939
 Alpha  occ. eigenvalues --   -0.65647  -0.52466  -0.50784  -0.47100  -0.45273
 Alpha  occ. eigenvalues --   -0.40141  -0.39559  -0.28039
 Alpha virt. eigenvalues --    0.08084   0.11771   0.12170   0.14227   0.15658
 Alpha virt. eigenvalues --    0.17845   0.19466   0.21199   0.28504   0.29929
 Alpha virt. eigenvalues --    0.30035   0.33150   0.34746   0.36406   0.40797
 Alpha virt. eigenvalues --    0.43188   0.46217   0.48733   0.51452   0.53078
 Alpha virt. eigenvalues --    0.53321   0.54537   0.55111   0.56449   0.57891
 Alpha virt. eigenvalues --    0.59406   0.65218   0.69070   0.73164   0.78898
 Alpha virt. eigenvalues --    0.80107   0.86485   0.91277   0.92022   0.95306
 Alpha virt. eigenvalues --    1.01954   1.02287   1.05767   1.07223   1.07713
 Alpha virt. eigenvalues --    1.11058   1.11955   1.16785   1.18725   1.22682
 Alpha virt. eigenvalues --    1.23348   1.26838   1.27947   1.31474   1.33061
 Alpha virt. eigenvalues --    1.35353   1.36325   1.38452   1.39993   1.40761
 Alpha virt. eigenvalues --    1.45992   1.47383   1.50936   1.53362   1.56370
 Alpha virt. eigenvalues --    1.58119   1.63873   1.66311   1.70238   2.18767
 Alpha virt. eigenvalues --    2.27647   2.36444   2.39264   2.43030   2.43801
 Alpha virt. eigenvalues --    2.51798   2.57095   2.57635   2.63768   2.64969
 Alpha virt. eigenvalues --    2.69340   2.71972   2.73102   2.75809   2.81780
 Alpha virt. eigenvalues --    2.85976   2.89032   2.90481   2.92109   2.95254
 Alpha virt. eigenvalues --    2.97339   3.01230   3.03167   3.03474   3.04846
 Alpha virt. eigenvalues --    3.11628   3.15670   3.18217   3.19028   3.20238
 Alpha virt. eigenvalues --    3.21036   3.24158   3.26031   3.27718   3.34758
 Alpha virt. eigenvalues --    3.35415   3.38951   3.43329   3.44330   3.49140
 Alpha virt. eigenvalues --    3.52003   3.53346   3.54182   3.55660   3.59679
 Alpha virt. eigenvalues --    3.62321   3.65297   3.71646   3.74672   3.79895
 Alpha virt. eigenvalues --    3.83034   3.84444   3.88740   3.92368   3.93278
 Alpha virt. eigenvalues --    3.94830   3.95934   3.98709   4.01557   4.02293
 Alpha virt. eigenvalues --    4.04873   4.07868   4.09159   4.11662   4.15936
 Alpha virt. eigenvalues --    4.18882   4.23578   4.27172   4.29098   4.32264
 Alpha virt. eigenvalues --    4.33275   4.39889   4.41897   4.43460   4.45886
 Alpha virt. eigenvalues --    4.46736   4.50299   4.63970   4.65492   4.70976
 Alpha virt. eigenvalues --    4.84550   4.88287   4.91191   4.95132   4.98251
 Alpha virt. eigenvalues --    5.00619   5.02982   5.09471   5.21094   5.25506
 Alpha virt. eigenvalues --    5.26554   5.29432   5.34963   5.37941   5.41542
 Alpha virt. eigenvalues --    5.43626   5.47785   5.50750   5.51363   5.54633
 Alpha virt. eigenvalues --    5.59793   5.66771   5.83734   5.97921   6.00098
 Alpha virt. eigenvalues --    6.02838   6.08010  10.55276  13.22250  14.05465
  Beta  occ. eigenvalues --  -10.61132 -10.61076 -10.59591  -0.88250  -0.78651
  Beta  occ. eigenvalues --   -0.62743  -0.51418  -0.48774  -0.46356  -0.44575
  Beta  occ. eigenvalues --   -0.39498  -0.38857
  Beta virt. eigenvalues --    0.01179   0.08446   0.11896   0.12374   0.14500
  Beta virt. eigenvalues --    0.15955   0.17898   0.19646   0.22101   0.29013
  Beta virt. eigenvalues --    0.30116   0.30215   0.33785   0.36268   0.37142
  Beta virt. eigenvalues --    0.43368   0.44467   0.48998   0.49252   0.51826
  Beta virt. eigenvalues --    0.53193   0.53901   0.55167   0.55441   0.57447
  Beta virt. eigenvalues --    0.58731   0.60877   0.66158   0.70115   0.73614
  Beta virt. eigenvalues --    0.79163   0.80656   0.86500   0.91916   0.92843
  Beta virt. eigenvalues --    0.95715   1.02232   1.03478   1.06380   1.07368
  Beta virt. eigenvalues --    1.08030   1.11623   1.12197   1.17673   1.19630
  Beta virt. eigenvalues --    1.23565   1.23635   1.27855   1.28703   1.31749
  Beta virt. eigenvalues --    1.34541   1.36632   1.37552   1.38781   1.40313
  Beta virt. eigenvalues --    1.41200   1.46624   1.48135   1.51051   1.54371
  Beta virt. eigenvalues --    1.56575   1.58652   1.64849   1.67232   1.70686
  Beta virt. eigenvalues --    2.23036   2.28395   2.36864   2.39749   2.44122
  Beta virt. eigenvalues --    2.45232   2.52284   2.57450   2.59071   2.65325
  Beta virt. eigenvalues --    2.65613   2.70814   2.72637   2.73762   2.76351
  Beta virt. eigenvalues --    2.82715   2.87235   2.89684   2.90715   2.92239
  Beta virt. eigenvalues --    2.95348   2.98476   3.01724   3.03942   3.04810
  Beta virt. eigenvalues --    3.05450   3.12575   3.15892   3.18692   3.19465
  Beta virt. eigenvalues --    3.20773   3.21523   3.26073   3.27408   3.27912
  Beta virt. eigenvalues --    3.36800   3.37365   3.42119   3.43832   3.44752
  Beta virt. eigenvalues --    3.49953   3.52360   3.53856   3.54901   3.56099
  Beta virt. eigenvalues --    3.60064   3.62799   3.65816   3.72285   3.75107
  Beta virt. eigenvalues --    3.80142   3.83599   3.85230   3.89348   3.92809
  Beta virt. eigenvalues --    3.93914   3.95347   3.96270   3.99228   4.02267
  Beta virt. eigenvalues --    4.02692   4.05241   4.08489   4.09772   4.12098
  Beta virt. eigenvalues --    4.16809   4.19192   4.24294   4.27457   4.29709
  Beta virt. eigenvalues --    4.33047   4.33916   4.40246   4.42269   4.43988
  Beta virt. eigenvalues --    4.46799   4.47343   4.50743   4.64542   4.66267
  Beta virt. eigenvalues --    4.71573   4.85537   4.88602   4.91681   4.95631
  Beta virt. eigenvalues --    4.98557   5.01202   5.03441   5.09780   5.21394
  Beta virt. eigenvalues --    5.25952   5.26956   5.29691   5.35248   5.38427
  Beta virt. eigenvalues --    5.41761   5.43938   5.48117   5.50961   5.51809
  Beta virt. eigenvalues --    5.54883   5.60146   5.67160   5.84472   5.98219
  Beta virt. eigenvalues --    6.00229   6.03117   6.08122  10.56784  13.22387
  Beta virt. eigenvalues --   14.05541
          Condensed to atoms (all electrons):
               1          2          3          4          5          6
     1  C    4.821781   0.347831   0.407981   0.400168   0.402156  -0.064098
     2  C    0.347831   5.255527  -0.038956  -0.048822  -0.038372   0.341006
     3  H    0.407981  -0.038956   0.593312  -0.031163  -0.027672   0.007704
     4  H    0.400168  -0.048822  -0.031163   0.627238  -0.034906  -0.002431
     5  H    0.402156  -0.038372  -0.027672  -0.034906   0.608592  -0.005619
     6  C   -0.064098   0.341006   0.007704  -0.002431  -0.005619   4.834433
     7  H   -0.049502   0.407650  -0.006154  -0.003598   0.007810  -0.049271
     8  H    0.007882  -0.039182  -0.000476  -0.000148  -0.000096   0.414652
     9  H   -0.002427  -0.048751  -0.000186   0.006368  -0.000563   0.407323
    10  H   -0.005737  -0.038485  -0.000118  -0.000542   0.004018   0.408304
               7          8          9         10
     1  C   -0.049502   0.007882  -0.002427  -0.005737
     2  C    0.407650  -0.039182  -0.048751  -0.038485
     3  H   -0.006154  -0.000476  -0.000186  -0.000118
     4  H   -0.003598  -0.000148   0.006368  -0.000542
     5  H    0.007810  -0.000096  -0.000563   0.004018
     6  C   -0.049271   0.414652   0.407323   0.408304
     7  H    0.611752  -0.006278  -0.003902   0.008076
     8  H   -0.006278   0.574227  -0.031804  -0.027650
     9  H   -0.003902  -0.031804   0.610018  -0.035778
    10  H    0.008076  -0.027650  -0.035778   0.590633
          Atomic-Atomic Spin Densities.
               1          2          3          4          5          6
     1  C   -0.052549  -0.025939   0.004960   0.005283   0.004812   0.005616
     2  C   -0.025939   1.107626  -0.004592  -0.032119  -0.005280  -0.026800
     3  H    0.004960  -0.004592   0.008236  -0.006043   0.001785  -0.000182
     4  H    0.005283  -0.032119  -0.006043   0.098400  -0.008853   0.000550
     5  H    0.004812  -0.005280   0.001785  -0.008853   0.014424   0.000994
     6  C    0.005616  -0.026800  -0.000182   0.000550   0.000994  -0.044027
     7  H    0.005950   0.003390   0.001318  -0.004574   0.000224   0.006059
     8  H   -0.000164  -0.004552   0.000019  -0.000313   0.000084   0.004730
     9  H    0.000407  -0.031757  -0.000333   0.009960  -0.001487   0.005588
    10  H    0.001054  -0.005498   0.000088  -0.001493   0.000877   0.004649
               7          8          9         10
     1  C    0.005950  -0.000164   0.000407   0.001054
     2  C    0.003390  -0.004552  -0.031757  -0.005498
     3  H    0.001318   0.000019  -0.000333   0.000088
     4  H   -0.004574  -0.000313   0.009960  -0.001493
     5  H    0.000224   0.000084  -0.001487   0.000877
     6  C    0.006059   0.004730   0.005588   0.004649
     7  H   -0.026375   0.001265  -0.004628   0.000253
     8  H    0.001265   0.006849  -0.005563   0.001862
     9  H   -0.004628  -0.005563   0.088411  -0.008703
    10  H    0.000253   0.001862  -0.008703   0.013195
 Mulliken charges and spin densities:
               1          2
     1  C   -0.266035  -0.050569
     2  C   -0.099447   0.974479
     3  H    0.095728   0.005256
     4  H    0.087836   0.060799
     5  H    0.084651   0.007579
     6  C   -0.292003  -0.042823
     7  H    0.083417  -0.017117
     8  H    0.108871   0.004218
     9  H    0.099701   0.051894
    10  H    0.097280   0.006284
 Sum of Mulliken charges =  -0.00000   1.00000
 Mulliken charges and spin densities with hydrogens summed into heavy atoms:
               1          2
     1  C    0.002180   0.023065
     2  C   -0.016030   0.957363
     6  C    0.013849   0.019573
 Electronic spatial extent (au):  <R**2>=            212.3637
 Charge=             -0.0000 electrons
 Dipole moment (field-independent basis, Debye):
    X=             -0.0485    Y=             -0.2869    Z=              0.5365  Tot=              0.6103
 Quadrupole moment (field-independent basis, Debye-Ang):
   XX=            -21.4136   YY=            -21.5633   ZZ=            -21.3506
   XY=             -0.0143   XZ=              0.0009   YZ=              0.7348
 Traceless Quadrupole moment (field-independent basis, Debye-Ang):
   XX=              0.0289   YY=             -0.1208   ZZ=              0.0919
   XY=             -0.0143   XZ=              0.0009   YZ=              0.7348
 Octapole moment (field-independent basis, Debye-Ang**2):
  XXX=             -0.6437  YYY=             -0.8693  ZZZ=              1.8830  XYY=             -0.1847
  XXY=              1.4341  XXZ=             -0.2315  XZZ=             -0.2334  YZZ=             -1.4041
  YYZ=              0.5700  XYZ=             -0.0177
 Hexadecapole moment (field-independent basis, Debye-Ang**3):
 XXXX=           -197.5965 YYYY=            -66.1202 ZZZZ=            -40.4544 XXXY=              0.2677
 XXXZ=             -0.0621 YYYX=              0.0773 YYYZ=              3.1150 ZZZX=              0.0662
 ZZZY=              0.7767 XXYY=            -43.2445 XXZZ=            -40.0908 YYZZ=            -17.1432
 XXYZ=             -0.3114 YYXZ=             -0.0620 ZZXY=             -0.0452
 N-N= 7.589766620586D+01 E-N=-4.253376657165D+02  KE= 1.176281934988D+02
                          Isotropic Fermi Contact Couplings
        Atom                 a.u.       MegaHertz       Gauss      10(-4) cm-1
     1  C(13)             -0.00933     -10.49203      -3.74382      -3.49977
     2  C(13)              0.25339     284.86346     101.64637      95.02022
     3  H(1)               0.00375      16.74121       5.97368       5.58427
     4  H(1)               0.02554     114.16777      40.73790      38.08227
     5  H(1)               0.00472      21.11509       7.53439       7.04323
     6  C(13)             -0.00794      -8.92628      -3.18512      -2.97749
     7  H(1)              -0.00132      -5.88352      -2.09939      -1.96253
     8  H(1)               0.00364      16.25560       5.80040       5.42228
     9  H(1)               0.02352     105.12783      37.51222      35.06687
    10  H(1)               0.00460      20.57378       7.34124       6.86267
 --------------------------------------------------------
       Center         ----  Spin Dipole Couplings  ----
                      3XX-RR        3YY-RR        3ZZ-RR
 --------------------------------------------------------
     1   Atom        0.009892      0.000188     -0.010080
     2   Atom       -0.514581     -0.341880      0.856461
     3   Atom        0.018495     -0.010071     -0.008424
     4   Atom        0.001053     -0.002396      0.001343
     5   Atom       -0.000694      0.009401     -0.008707
     6   Atom        0.004814     -0.001573     -0.003241
     7   Atom       -0.058716      0.038065      0.020652
     8   Atom        0.019594     -0.010656     -0.008938
     9   Atom        0.000756     -0.002887      0.002132
    10   Atom       -0.001133      0.010465     -0.009331
 --------------------------------------------------------
                        XY            XZ            YZ
 --------------------------------------------------------
     1   Atom       -0.024479      0.017650     -0.014295
     2   Atom        0.000505     -0.001122     -0.479480
     3   Atom       -0.003075      0.003558     -0.000675
     4   Atom       -0.006975      0.004535     -0.006513
     5   Atom       -0.013356     -0.002480      0.002370
     6   Atom        0.023816     -0.018919     -0.018435
     7   Atom       -0.000251     -0.000125      0.037107
     8   Atom        0.003243     -0.003951     -0.000713
     9   Atom        0.007777     -0.004571     -0.007432
    10   Atom        0.014067      0.002581      0.002594
 --------------------------------------------------------


 ---------------------------------------------------------------------------------
              Anisotropic Spin Dipole Couplings in Principal Axis System
 ---------------------------------------------------------------------------------

       Atom             a.u.   MegaHertz   Gauss  10(-4) cm-1        Axes

              Baa    -0.0204    -2.734    -0.976    -0.912 -0.4900  0.0224  0.8714
     1 C(13)  Bbb    -0.0199    -2.667    -0.952    -0.889  0.5126  0.8160  0.2673
              Bcc     0.0402     5.401     1.927     1.801  0.7051 -0.5777  0.4114
 
              Baa    -0.5146   -69.052   -24.640   -23.033  0.9997 -0.0225 -0.0070
     2 C(13)  Bbb    -0.5101   -68.452   -24.425   -22.833  0.0235  0.9433  0.3310
              Bcc     1.0247   137.504    49.065    45.866 -0.0008 -0.3311  0.9436
 
              Baa    -0.0105    -5.577    -1.990    -1.860  0.0816  0.9798  0.1826
     3 H(1)   Bbb    -0.0088    -4.716    -1.683    -1.573 -0.1459 -0.1695  0.9747
              Bcc     0.0193    10.294     3.673     3.434  0.9859 -0.1062  0.1291
 
              Baa    -0.0087    -4.654    -1.661    -1.552  0.4351  0.8326  0.3428
     4 H(1)   Bbb    -0.0033    -1.768    -0.631    -0.590 -0.6779  0.0523  0.7333
              Bcc     0.0120     6.422     2.292     2.142  0.5926 -0.5514  0.5872
 
              Baa    -0.0103    -5.505    -1.964    -1.836  0.7468  0.4466  0.4927
     5 H(1)   Bbb    -0.0087    -4.653    -1.660    -1.552 -0.3478 -0.3691  0.8619
              Bcc     0.0190    10.158     3.625     3.388 -0.5668  0.8150  0.1203
 
              Baa    -0.0228    -3.059    -1.091    -1.020 -0.5219  0.8122  0.2608
     6 C(13)  Bbb    -0.0185    -2.481    -0.885    -0.828  0.5641  0.0992  0.8197
              Bcc     0.0413     5.540     1.977     1.848  0.6399  0.5749 -0.5099
 
              Baa    -0.0587   -31.329   -11.179   -10.450  1.0000  0.0024  0.0004
     7 H(1)   Bbb    -0.0088    -4.672    -1.667    -1.559  0.0012 -0.6211  0.7837
              Bcc     0.0675    36.001    12.846    12.009 -0.0022  0.7837  0.6211
 
              Baa    -0.0111    -5.898    -2.104    -1.967 -0.0805  0.9804  0.1801
     8 H(1)   Bbb    -0.0094    -5.031    -1.795    -1.678  0.1512 -0.1666  0.9744
              Bcc     0.0205    10.928     3.900     3.645  0.9852  0.1057 -0.1349
 
              Baa    -0.0101    -5.402    -1.928    -1.802 -0.4514  0.8276  0.3335
     9 H(1)   Bbb    -0.0031    -1.649    -0.588    -0.550  0.6873  0.0842  0.7215
              Bcc     0.0132     7.051     2.516     2.352 -0.5690 -0.5549  0.6068
 
              Baa    -0.0110    -5.846    -2.086    -1.950  0.7498 -0.4316 -0.5016
    10 H(1)   Bbb    -0.0094    -4.993    -1.782    -1.666  0.3611 -0.3684  0.8567
              Bcc     0.0203    10.840     3.868     3.616  0.5545  0.8234  0.1203
 

 ---------------------------------------------------------------------------------

 Calling FoFJK, ICntrl=  10002127 FMM=F ISym2X=0 I1Cent= 0 IOpClX= 1 NMat=1 NMatS=1 NMatT=0.
 ***** Axes restored to original set *****
 -------------------------------------------------------------------
 Center     Atomic                   Forces (Hartrees/Bohr)
 Number     Number              X              Y              Z
 -------------------------------------------------------------------
      1        6          -0.008360171    0.014761673    0.016973059
      2        6          -0.013373343   -0.014641720   -0.050919097
      3        1           0.001702087   -0.016678150   -0.000693429
      4        1           0.004948375    0.006184380    0.010675346
      5        1           0.002938014    0.006983146   -0.013871600
      6        6           0.005136056    0.026101283    0.017254786
      7        1           0.000926839    0.001998422    0.024278096
      8        1           0.013411496   -0.005219260   -0.000653048
      9        1          -0.004502986   -0.008614636   -0.012546727
     10        1          -0.002826367   -0.010875138    0.009502614
 -------------------------------------------------------------------
 Cartesian Forces:  Max     0.050919097 RMS     0.014771121

 GradGradGradGradGradGradGradGradGradGradGradGradGradGradGradGradGradGrad
 Berny optimization.
 FormGI is forming the generalized inverse of G from B-inverse, IUseBI=4.
 Internal  Forces:  Max     0.019264220 RMS     0.008659100
 Search for a local minimum.
 Step number   1 out of a maximum of  100
 All quantities printed in internal units (Hartrees-Bohrs-Radians)
 Mixed Optimization -- RFO/linear search
 Second derivative matrix not updated -- first step.
 ITU=  0
     Eigenvalues ---    0.00671   0.00672   0.02723   0.07261   0.07275
     Eigenvalues ---    0.07484   0.07484   0.10890   0.16000   0.16000
     Eigenvalues ---    0.16000   0.16000   0.16000   0.16000   0.23397
     Eigenvalues ---    0.31326   0.31639   0.31641   0.31881   0.31882
     Eigenvalues ---    0.31910   0.37230   0.37230   0.37230
 RFO step:  Lambda=-1.80795195D-02 EMin= 6.71366733D-03
 Linear search not attempted -- first point.
 Iteration  1 RMS(Cart)=  0.07993242 RMS(Int)=  0.00738351
 Iteration  2 RMS(Cart)=  0.00625203 RMS(Int)=  0.00546893
 Iteration  3 RMS(Cart)=  0.00001203 RMS(Int)=  0.00546891
 Iteration  4 RMS(Cart)=  0.00000019 RMS(Int)=  0.00546891
 Variable       Old X    -DE/DX   Delta X   Delta X   Delta X     New X
                                 (Linear)    (Quad)   (Total)
    R1        2.84810  -0.00123   0.00000  -0.00367  -0.00367   2.84443
    R2        2.11009  -0.01622   0.00000  -0.04811  -0.04811   2.06198
    R3        2.11063  -0.01329   0.00000  -0.03945  -0.03945   2.07118
    R4        2.11061  -0.01554   0.00000  -0.04614  -0.04614   2.06446
    R5        2.84806   0.00287   0.00000   0.00859   0.00859   2.85665
    R6        2.12095  -0.01823   0.00000  -0.05501  -0.05501   2.06594
    R7        2.02201   0.01319   0.00000   0.03378   0.03378   2.05579
    R8        2.02201   0.01583   0.00000   0.04056   0.04056   2.06256
    R9        2.02201   0.01392   0.00000   0.03565   0.03565   2.05765
    A1        1.92741   0.00613   0.00000   0.03743   0.03714   1.96455
    A2        1.93087  -0.00269   0.00000  -0.01928  -0.01914   1.91173
    A3        1.93096   0.00330   0.00000   0.01975   0.01940   1.95036
    A4        1.89226  -0.00235   0.00000  -0.01552  -0.01534   1.87692
    A5        1.89233  -0.00301   0.00000  -0.00880  -0.00949   1.88285
    A6        1.88882  -0.00167   0.00000  -0.01511  -0.01504   1.87378
    A7        1.95131   0.01926   0.00000   0.11556   0.09939   2.05070
    A8        1.91058  -0.00040   0.00000   0.09430   0.07474   1.98533
    A9        1.91072   0.00016   0.00000   0.09873   0.07954   1.99026
   A10        1.91063   0.00752   0.00000   0.04503   0.04446   1.95510
   A11        1.91063  -0.00132   0.00000  -0.01141  -0.01131   1.89933
   A12        1.91063   0.00547   0.00000   0.03195   0.03139   1.94202
   A13        1.91063  -0.00371   0.00000  -0.02329  -0.02320   1.88744
   A14        1.91063  -0.00454   0.00000  -0.01748  -0.01859   1.89205
   A15        1.91063  -0.00343   0.00000  -0.02480  -0.02470   1.88593
    D1       -3.14154  -0.00537   0.00000  -0.12442  -0.12618   3.01546
    D2       -1.02122   0.00727   0.00000   0.14113   0.14356  -0.87766
    D3       -1.04653  -0.00606   0.00000  -0.13196  -0.13410  -1.18063
    D4        1.07378   0.00658   0.00000   0.13359   0.13565   1.20943
    D5        1.04648  -0.00774   0.00000  -0.15056  -0.15295   0.89353
    D6       -3.11639   0.00489   0.00000   0.11499   0.11680  -2.99959
    D7        3.14152   0.00519   0.00000   0.12348   0.12540  -3.01627
    D8        1.04713   0.00593   0.00000   0.13142   0.13380   1.18092
    D9       -1.04727   0.00758   0.00000   0.14922   0.15207  -0.89520
   D10        1.02128  -0.00712   0.00000  -0.13953  -0.14238   0.87890
   D11       -1.07311  -0.00638   0.00000  -0.13159  -0.13398  -1.20709
   D12        3.11568  -0.00473   0.00000  -0.11380  -0.11571   2.99997
         Item               Value     Threshold  Converged?
 Maximum Force            0.019264     0.000450     NO 
 RMS     Force            0.008659     0.000300     NO 
 Maximum Displacement     0.193110     0.001800     NO 
 RMS     Displacement     0.076735     0.001200     NO 
 Predicted change in Energy=-1.223783D-02
 GradGradGradGradGradGradGradGradGradGradGradGradGradGradGradGradGradGrad

                          Input orientation:                          
 ---------------------------------------------------------------------
 Center     Atomic      Atomic             Coordinates (Angstroms)
 Number     Number       Type             X           Y           Z
 ---------------------------------------------------------------------
      1          6           0       -0.992427    0.688927   -0.001508
      2          6           0        0.507442    0.612101   -0.102189
      3          1           0       -1.357125    1.716488    0.040030
      4          1           0       -1.443523    0.213599   -0.880051
      5          1           0       -1.366279    0.164416    0.880880
      6          6           0        1.144809   -0.754705    0.001545
      7          1           0        0.928591    1.241059   -0.891011
      8          1           0        2.230320   -0.696427    0.043327
      9          1           0        0.869457   -1.339350   -0.878033
     10          1           0        0.794891   -1.287749    0.884181
 ---------------------------------------------------------------------
                    Distance matrix (angstroms):
                    1          2          3          4          5
     1  C    0.000000
     2  C    1.505206   0.000000
     3  H    1.091152   2.171752   0.000000
     4  H    1.096021   2.137788   1.764282   0.000000
     5  H    1.092467   2.162794   1.765231   1.763310   0.000000
     6  C    2.579120   1.511674   3.516810   2.900739   2.814885
     7  H    2.187779   1.093249   2.513438   2.585096   3.092763
     8  H    3.508179   2.168348   4.323417   3.895882   3.791843
     9  H    2.889432   2.130998   3.890843   2.785953   3.217702
    10  H    2.808238   2.159857   3.790673   3.221344   2.603738
                    6          7          8          9         10
     6  C    0.000000
     7  H    2.196925   0.000000
     8  H    1.087877   2.514227   0.000000
     9  H    1.091461   2.581120   1.764711   0.000000
    10  H    1.088864   3.092580   1.765547   1.764546   0.000000
 Stoichiometry    C3H7(2)
 Framework group  C1[X(C3H7)]
 Deg. of freedom    24
 Full point group                 C1      NOp   1
 Largest Abelian subgroup         C1      NOp   1
 Largest concise Abelian subgroup C1      NOp   1
                         Standard orientation:                         
 ---------------------------------------------------------------------
 Center     Atomic      Atomic             Coordinates (Angstroms)
 Number     Number       Type             X           Y           Z
 ---------------------------------------------------------------------
      1          6           0        1.287416   -0.203553    0.013690
      2          6           0        0.001038    0.559630   -0.154916
      3          1           0        2.164231    0.390920   -0.247863
      4          1           0        1.396806   -0.510783    1.060068
      5          1           0        1.303000   -1.110219   -0.595571
      6          6           0       -1.291703   -0.205374    0.014634
      7          1           0        0.004515    1.540551    0.327760
      8          1           0       -2.159182    0.396500   -0.247481
      9          1           0       -1.389141   -0.504998    1.059631
     10          1           0       -1.300735   -1.106187   -0.596986
 ---------------------------------------------------------------------
 Rotational constants (GHZ):          36.2670453           8.4076829           7.5270940
 Standard basis: CC-pVTZ (5D, 7F)
 There are   210 symmetry adapted cartesian basis functions of A   symmetry.
 There are   188 symmetry adapted basis functions of A   symmetry.
   188 basis functions,   275 primitive gaussians,   210 cartesian basis functions
    13 alpha electrons       12 beta electrons
       nuclear repulsion energy        75.3691283194 Hartrees.
 NAtoms=   10 NActive=   10 NUniq=   10 SFac= 1.00D+00 NAtFMM=   60 NAOKFM=F Big=F
 Integral buffers will be    131072 words long.
 Raffenetti 2 integral format.
 Two-electron integral symmetry is turned on.
 Nuclear repulsion after empirical dispersion term =       75.3652411515 Hartrees.
 One-electron integrals computed using PRISM.
 NBasis=   188 RedAO= T EigKep=  9.54D-04  NBF=   188
 NBsUse=   188 1.00D-06 EigRej= -1.00D+00 NBFU=   188
 Initial guess from the checkpoint file:  "/localscratch/339542/Gau-50608.chk"
 B after Tr=    -0.000000   -0.000000   -0.000000
         Rot=    0.999651    0.026413   -0.000159    0.001096 Ang=   3.03 deg.
 Initial guess <Sx>= 0.0000 <Sy>= 0.0000 <Sz>= 0.5000 <S**2>= 0.7550 S= 0.5025
 ExpMin= 1.03D-01 ExpMax= 8.24D+03 ExpMxC= 2.81D+02 IAcc=3 IRadAn=         5 AccDes= 0.00D+00
 Harris functional with IExCor=  419 and IRadAn=       5 diagonalized for initial guess.
 HarFok:  IExCor=  419 AccDes= 0.00D+00 IRadAn=         5 IDoV= 1 UseB2=F ITyADJ=14
 ICtDFT=  3500011 ScaDFX=  1.000000  1.000000  1.000000  1.000000
 FoFCou: FMM=F IPFlag=           0 FMFlag=      100000 FMFlg1=           0
         NFxFlg=           0 DoJE=T BraDBF=F KetDBF=T FulRan=T
         wScrn=  0.000000 ICntrl=       500 IOpCl=  0 I1Cent=   200000004 NGrid=           0
         NMat0=    1 NMatS0=      1 NMatT0=    0 NMatD0=    1 NMtDS0=    0 NMtDT0=    0
 Petite list used in FoFCou.
 Keep R1 and R2 ints in memory in canonical form, NReq=357195436.
 Requested convergence on RMS density matrix=1.00D-08 within 128 cycles.
 Requested convergence on MAX density matrix=1.00D-06.
 Requested convergence on             energy=1.00D-06.
 No special actions if energy rises.
 Integral accuracy reduced to 1.0D-05 until final iterations.
 Initial convergence to 1.0D-05 achieved.  Increase integral accuracy.
 SCF Done:  E(UB2PLYPD3) =  -118.231676667     A.U. after   12 cycles
            NFock= 12  Conv=0.71D-08     -V/T= 2.0051
 <Sx>= 0.0000 <Sy>= 0.0000 <Sz>= 0.5000 <S**2>= 0.7558 S= 0.5029
 <L.S>=  0.00000000000    
 Annihilation of the first spin contaminant:
 S**2 before annihilation     0.7558,   after     0.7500
 DoSCS=T DFT=T ScalE2(SS,OS)=  0.270000  0.270000
 ExpMin= 1.03D-01 ExpMax= 8.24D+03 ExpMxC= 2.81D+02 IAcc=3 IRadAn=         5 AccDes= 0.00D+00
 HarFok:  IExCor=  205 AccDes= 0.00D+00 IRadAn=         5 IDoV=-2 UseB2=F ITyADJ=14
 ICtDFT= 12500011 ScaDFX=  1.000000  1.000000  1.000000  1.000000
 Range of M.O.s used for correlation:     4   188
 NBasis=   188 NAE=    13 NBE=    12 NFC=     3 NFV=     0
 NROrb=    185 NOA=    10 NOB=     9 NVA=   175 NVB=   176

 **** Warning!!: The largest alpha MO coefficient is  0.11663887D+02


 **** Warning!!: The largest beta MO coefficient is  0.11687258D+02

 DoSCS=T DFT=T ScalE2(SS,OS)=  0.270000  0.270000
 Fully direct method using O(ONN) memory.
 JobTyp=2 Pass  1:  I=   4 to  13 NPSUse= 40 ParTrn=T ParDer=T DoDerP=T.
 JobTyp=3 Pass  1:  I=   4 to  12 NPSUse= 40 ParTrn=T ParDer=T DoDerP=T.
 Spin components of T(2) and E(2):
     alpha-alpha T2 =       0.3054109495D-01 E2=     -0.1981772992D-01
     alpha-beta  T2 =       0.1799592520D+00 E2=     -0.1285526503D+00
     beta-beta   T2 =       0.2506122764D-01 E2=     -0.1592289032D-01
 (S**2,0)=  0.75580D+00           (S**2,1)=  0.74760D+00
 Scaling Projection term by:   0.270000
 E(PUHF)=      -0.11823385849D+03        E(PMP2)=      -0.11839614394D+03
 E2(B2PLYPD3) =    -0.1642932705D+00 E(B2PLYPD3) =    -0.11839596993798D+03
          IDoAtm=1111111111
          Differentiating once with respect to electric field.
                with respect to dipole field.
          Differentiating once with respect to nuclear coordinates.
 Keep R1 and R2 ints in memory in canonical form, NReq=357202664.
          There are     1 degrees of freedom in the 1st order CPHF.  IDoFFX=0 NUNeed=     1.
 LinEq1:  Iter=  0 NonCon=     1 RMS=6.42D-04 Max=2.47D-02 NDo=     1
 AX will form     1 AO Fock derivatives at one time.
 LinEq1:  Iter=  1 NonCon=     1 RMS=2.39D-04 Max=2.81D-03 NDo=     1
 LinEq1:  Iter=  2 NonCon=     1 RMS=7.76D-05 Max=1.72D-03 NDo=     1
 LinEq1:  Iter=  3 NonCon=     1 RMS=1.60D-05 Max=1.92D-04 NDo=     1
 LinEq1:  Iter=  4 NonCon=     1 RMS=6.27D-06 Max=8.90D-05 NDo=     1
 LinEq1:  Iter=  5 NonCon=     1 RMS=2.17D-06 Max=4.64D-05 NDo=     1
 LinEq1:  Iter=  6 NonCon=     1 RMS=9.45D-07 Max=1.51D-05 NDo=     1
 LinEq1:  Iter=  7 NonCon=     1 RMS=2.38D-07 Max=2.98D-06 NDo=     1
 LinEq1:  Iter=  8 NonCon=     1 RMS=6.27D-08 Max=6.58D-07 NDo=     1
 LinEq1:  Iter=  9 NonCon=     1 RMS=2.04D-08 Max=2.72D-07 NDo=     1
 LinEq1:  Iter= 10 NonCon=     1 RMS=1.01D-08 Max=1.50D-07 NDo=     1
 LinEq1:  Iter= 11 NonCon=     1 RMS=2.52D-09 Max=3.54D-08 NDo=     1
 LinEq1:  Iter= 12 NonCon=     1 RMS=7.59D-10 Max=1.28D-08 NDo=     1
 LinEq1:  Iter= 13 NonCon=     1 RMS=2.35D-10 Max=3.10D-09 NDo=     1
 LinEq1:  Iter= 14 NonCon=     0 RMS=4.60D-11 Max=7.18D-10 NDo=     1
 Linear equations converged to 1.000D-10 1.000D-09 after    14 iterations.
 End of Minotr F.D. properties file   721 does not exist.
 End of Minotr F.D. properties file   722 does not exist.
 End of Minotr F.D. properties file   788 does not exist.
 Calling FoFJK, ICntrl=  10002127 FMM=F ISym2X=0 I1Cent= 0 IOpClX= 1 NMat=1 NMatS=1 NMatT=0.
 ***** Axes restored to original set *****
 -------------------------------------------------------------------
 Center     Atomic                   Forces (Hartrees/Bohr)
 Number     Number              X              Y              Z
 -------------------------------------------------------------------
      1        6           0.006628449    0.001582966    0.006049446
      2        6          -0.005139737   -0.010217394   -0.015179478
      3        1           0.001289404   -0.001165750   -0.000903322
      4        1          -0.001616934   -0.000220512   -0.000159857
      5        1           0.000575428   -0.000064322   -0.001291726
      6        6          -0.003453102    0.013820878    0.005518927
      7        1           0.001504609    0.001484672    0.008425215
      8        1           0.000343599   -0.000158749   -0.000810559
      9        1           0.000359244   -0.003856739   -0.001662534
     10        1          -0.000490960   -0.001205049    0.000013888
 -------------------------------------------------------------------
 Cartesian Forces:  Max     0.015179478 RMS     0.005105256

 GradGradGradGradGradGradGradGradGradGradGradGradGradGradGradGradGradGrad
 Berny optimization.
 Using GEDIIS/GDIIS optimizer.
 FormGI is forming the generalized inverse of G from B-inverse, IUseBI=4.
 Internal  Forces:  Max     0.008932739 RMS     0.002662222
 Search for a local minimum.
 Step number   2 out of a maximum of  100
 All quantities printed in internal units (Hartrees-Bohrs-Radians)
 Mixed Optimization -- RFO/linear search
 Update second derivatives using D2CorX and points    1    2
 DE= -1.07D-02 DEPred=-1.22D-02 R= 8.72D-01
 TightC=F SS=  1.41D+00  RLast= 5.10D-01 DXNew= 5.0454D-01 1.5313D+00
 Trust test= 8.72D-01 RLast= 5.10D-01 DXMaxT set to 5.05D-01
 ITU=  1  0
 Use linear search instead of GDIIS.
     Eigenvalues ---    0.00671   0.00672   0.02304   0.06951   0.07070
     Eigenvalues ---    0.07309   0.07424   0.12859   0.15502   0.16000
     Eigenvalues ---    0.16000   0.16000   0.16000   0.16628   0.23233
     Eigenvalues ---    0.27796   0.31532   0.31644   0.31877   0.31898
     Eigenvalues ---    0.34191   0.36698   0.37230   0.37574
 RFO step:  Lambda=-3.41096217D-03 EMin= 6.71405093D-03
 Quartic linear search produced a step of  0.44846.
 Iteration  1 RMS(Cart)=  0.05949211 RMS(Int)=  0.00701510
 Iteration  2 RMS(Cart)=  0.00588804 RMS(Int)=  0.00556302
 Iteration  3 RMS(Cart)=  0.00000791 RMS(Int)=  0.00556301
 Iteration  4 RMS(Cart)=  0.00000010 RMS(Int)=  0.00556301
 Variable       Old X    -DE/DX   Delta X   Delta X   Delta X     New X
                                 (Linear)    (Quad)   (Total)
    R1        2.84443  -0.00660  -0.00165  -0.02810  -0.02975   2.81468
    R2        2.06198  -0.00156  -0.02158   0.01542  -0.00615   2.05582
    R3        2.07118   0.00089  -0.01769   0.02238   0.00468   2.07586
    R4        2.06446  -0.00121  -0.02069   0.01608  -0.00461   2.05986
    R5        2.85665  -0.00893   0.00385  -0.04436  -0.04051   2.81614
    R6        2.06594  -0.00465  -0.02467   0.00444  -0.02023   2.04572
    R7        2.05579   0.00030   0.01515  -0.01458   0.00057   2.05636
    R8        2.06256   0.00332   0.01819  -0.00616   0.01203   2.07459
    R9        2.05765   0.00076   0.01599  -0.01370   0.00229   2.05994
    A1        1.96455  -0.00147   0.01666  -0.03068  -0.01413   1.95042
    A2        1.91173   0.00211  -0.00859   0.02761   0.01911   1.93084
    A3        1.95036  -0.00032   0.00870  -0.01149  -0.00296   1.94740
    A4        1.87692  -0.00051  -0.00688   0.00185  -0.00489   1.87203
    A5        1.88285   0.00105  -0.00426   0.01406   0.00948   1.89233
    A6        1.87378  -0.00087  -0.00674   0.00015  -0.00657   1.86721
    A7        2.05070   0.00119   0.04457  -0.00646   0.01993   2.07063
    A8        1.98533   0.00144   0.03352   0.05362   0.06780   2.05313
    A9        1.99026   0.00072   0.03567   0.04382   0.05991   2.05017
   A10        1.95510  -0.00050   0.01994  -0.02509  -0.00539   1.94971
   A11        1.89933   0.00347  -0.00507   0.03618   0.03111   1.93044
   A12        1.94202   0.00041   0.01408  -0.01093   0.00285   1.94487
   A13        1.88744  -0.00162  -0.01040  -0.00344  -0.01379   1.87364
   A14        1.89205   0.00009  -0.00833   0.00967   0.00085   1.89290
   A15        1.88593  -0.00200  -0.01108  -0.00587  -0.01699   1.86894
    D1        3.01546  -0.00204  -0.05659  -0.05799  -0.11598   2.89948
    D2       -0.87766   0.00234   0.06438   0.07257   0.13873  -0.73894
    D3       -1.18063  -0.00220  -0.06014  -0.05667  -0.11844  -1.29907
    D4        1.20943   0.00218   0.06083   0.07390   0.13627   1.34570
    D5        0.89353  -0.00211  -0.06859  -0.04569  -0.11601   0.77753
    D6       -2.99959   0.00228   0.05238   0.08488   0.13870  -2.86089
    D7       -3.01627   0.00224   0.05624   0.06142   0.11875  -2.89752
    D8        1.18092   0.00229   0.06000   0.05748   0.11882   1.29974
    D9       -0.89520   0.00230   0.06820   0.04840   0.11807  -0.77712
   D10        0.87890  -0.00245  -0.06385  -0.07348  -0.13884   0.74006
   D11       -1.20709  -0.00241  -0.06009  -0.07742  -0.13877  -1.34586
   D12        2.99997  -0.00239  -0.05189  -0.08650  -0.13952   2.86046
         Item               Value     Threshold  Converged?
 Maximum Force            0.008933     0.000450     NO 
 RMS     Force            0.002662     0.000300     NO 
 Maximum Displacement     0.165321     0.001800     NO 
 RMS     Displacement     0.059824     0.001200     NO 
 Predicted change in Energy=-2.004949D-03
 GradGradGradGradGradGradGradGradGradGradGradGradGradGradGradGradGradGrad

                          Input orientation:                          
 ---------------------------------------------------------------------
 Center     Atomic      Atomic             Coordinates (Angstroms)
 Number     Number       Type             X           Y           Z
 ---------------------------------------------------------------------
      1          6           0       -0.992396    0.680166   -0.009575
      2          6           0        0.482575    0.577548   -0.189673
      3          1           0       -1.317313    1.715048    0.073884
      4          1           0       -1.518588    0.241597   -0.868342
      5          1           0       -1.326382    0.141665    0.877348
      6          6           0        1.133533   -0.750708   -0.008564
      7          1           0        0.955642    1.277243   -0.866830
      8          1           0        2.214575   -0.660795    0.077416
      9          1           0        0.926478   -1.402740   -0.867171
     10          1           0        0.758029   -1.260665    0.878679
 ---------------------------------------------------------------------
                    Distance matrix (angstroms):
                    1          2          3          4          5
     1  C    0.000000
     2  C    1.489465   0.000000
     3  H    1.087895   2.145452   0.000000
     4  H    1.098500   2.139652   1.760500   0.000000
     5  H    1.090029   2.144960   1.766683   1.759081   0.000000
     6  C    2.562611   1.490238   3.477555   2.959329   2.762671
     7  H    2.210484   1.082546   2.498587   2.682234   3.088580
     8  H    3.477126   2.145845   4.256627   3.955411   3.717823
     9  H    2.959062   2.139531   3.954843   2.946556   3.240974
    10  H    2.760400   2.143893   3.716128   3.239114   2.512230
                    6          7          8          9         10
     6  C    0.000000
     7  H    2.209264   0.000000
     8  H    1.088177   2.496498   0.000000
     9  H    1.097827   2.680142   1.761227   0.000000
    10  H    1.090074   3.086556   1.767313   1.759703   0.000000
 Stoichiometry    C3H7(2)
 Framework group  C1[X(C3H7)]
 Deg. of freedom    24
 Full point group                 C1      NOp   1
 Largest Abelian subgroup         C1      NOp   1
 Largest concise Abelian subgroup C1      NOp   1
                         Standard orientation:                         
 ---------------------------------------------------------------------
 Center     Atomic      Atomic             Coordinates (Angstroms)
 Number     Number       Type             X           Y           Z
 ---------------------------------------------------------------------
      1          6           0        1.281151   -0.203081    0.007618
      2          6           0        0.000141    0.549211   -0.099976
      3          1           0        2.128361    0.394127   -0.322677
      4          1           0        1.473304   -0.493119    1.049567
      5          1           0        1.257303   -1.121324   -0.579257
      6          6           0       -1.281459   -0.203565    0.007901
      7          1           0       -0.001521    1.585388    0.213458
      8          1           0       -2.128266    0.393651   -0.324336
      9          1           0       -1.473252   -0.492652    1.049471
     10          1           0       -1.254927   -1.121465   -0.579480
 ---------------------------------------------------------------------
 Rotational constants (GHZ):          36.7963699           8.5165015           7.5918641
 Standard basis: CC-pVTZ (5D, 7F)
 There are   210 symmetry adapted cartesian basis functions of A   symmetry.
 There are   188 symmetry adapted basis functions of A   symmetry.
   188 basis functions,   275 primitive gaussians,   210 cartesian basis functions
    13 alpha electrons       12 beta electrons
       nuclear repulsion energy        75.7748807470 Hartrees.
 NAtoms=   10 NActive=   10 NUniq=   10 SFac= 1.00D+00 NAtFMM=   60 NAOKFM=F Big=F
 Integral buffers will be    131072 words long.
 Raffenetti 2 integral format.
 Two-electron integral symmetry is turned on.
 Nuclear repulsion after empirical dispersion term =       75.7709958538 Hartrees.
 One-electron integrals computed using PRISM.
 NBasis=   188 RedAO= T EigKep=  8.83D-04  NBF=   188
 NBsUse=   188 1.00D-06 EigRej= -1.00D+00 NBFU=   188
 Initial guess from the checkpoint file:  "/localscratch/339542/Gau-50608.chk"
 B after Tr=     0.000000   -0.000000    0.000000
         Rot=    0.999982    0.005945    0.000186   -0.000353 Ang=   0.68 deg.
 Initial guess <Sx>= 0.0000 <Sy>= 0.0000 <Sz>= 0.5000 <S**2>= 0.7558 S= 0.5029
 ExpMin= 1.03D-01 ExpMax= 8.24D+03 ExpMxC= 2.81D+02 IAcc=3 IRadAn=         5 AccDes= 0.00D+00
 Harris functional with IExCor=  419 and IRadAn=       5 diagonalized for initial guess.
 HarFok:  IExCor=  419 AccDes= 0.00D+00 IRadAn=         5 IDoV= 1 UseB2=F ITyADJ=14
 ICtDFT=  3500011 ScaDFX=  1.000000  1.000000  1.000000  1.000000
 FoFCou: FMM=F IPFlag=           0 FMFlag=      100000 FMFlg1=           0
         NFxFlg=           0 DoJE=T BraDBF=F KetDBF=T FulRan=T
         wScrn=  0.000000 ICntrl=       500 IOpCl=  0 I1Cent=   200000004 NGrid=           0
         NMat0=    1 NMatS0=      1 NMatT0=    0 NMatD0=    1 NMtDS0=    0 NMtDT0=    0
 Petite list used in FoFCou.
 Keep R1 and R2 ints in memory in canonical form, NReq=357195436.
 Requested convergence on RMS density matrix=1.00D-08 within 128 cycles.
 Requested convergence on MAX density matrix=1.00D-06.
 Requested convergence on             energy=1.00D-06.
 No special actions if energy rises.
 Integral accuracy reduced to 1.0D-05 until final iterations.
 Initial convergence to 1.0D-05 achieved.  Increase integral accuracy.
 SCF Done:  E(UB2PLYPD3) =  -118.234402784     A.U. after   12 cycles
            NFock= 12  Conv=0.55D-08     -V/T= 2.0046
 <Sx>= 0.0000 <Sy>= 0.0000 <Sz>= 0.5000 <S**2>= 0.7565 S= 0.5033
 <L.S>=  0.00000000000    
 Annihilation of the first spin contaminant:
 S**2 before annihilation     0.7565,   after     0.7500
 DoSCS=T DFT=T ScalE2(SS,OS)=  0.270000  0.270000
 ExpMin= 1.03D-01 ExpMax= 8.24D+03 ExpMxC= 2.81D+02 IAcc=3 IRadAn=         5 AccDes= 0.00D+00
 HarFok:  IExCor=  205 AccDes= 0.00D+00 IRadAn=         5 IDoV=-2 UseB2=F ITyADJ=14
 ICtDFT= 12500011 ScaDFX=  1.000000  1.000000  1.000000  1.000000
 Range of M.O.s used for correlation:     4   188
 NBasis=   188 NAE=    13 NBE=    12 NFC=     3 NFV=     0
 NROrb=    185 NOA=    10 NOB=     9 NVA=   175 NVB=   176
 DoSCS=T DFT=T ScalE2(SS,OS)=  0.270000  0.270000
 Fully direct method using O(ONN) memory.
 JobTyp=2 Pass  1:  I=   4 to  13 NPSUse= 40 ParTrn=T ParDer=T DoDerP=T.
 JobTyp=3 Pass  1:  I=   4 to  12 NPSUse= 40 ParTrn=T ParDer=T DoDerP=T.
 Spin components of T(2) and E(2):
     alpha-alpha T2 =       0.3049421566D-01 E2=     -0.1988888376D-01
     alpha-beta  T2 =       0.1789255381D+00 E2=     -0.1284992912D+00
     beta-beta   T2 =       0.2494360562D-01 E2=     -0.1593776030D-01
 (S**2,0)=  0.75653D+00           (S**2,1)=  0.74728D+00
 Scaling Projection term by:   0.270000
 E(PUHF)=      -0.11823684712D+03        E(PMP2)=      -0.11839892268D+03
 E2(B2PLYPD3) =    -0.1643259353D+00 E(B2PLYPD3) =    -0.11839872871952D+03
          IDoAtm=1111111111
          Differentiating once with respect to electric field.
                with respect to dipole field.
          Differentiating once with respect to nuclear coordinates.
 Keep R1 and R2 ints in memory in canonical form, NReq=357202664.
          There are     1 degrees of freedom in the 1st order CPHF.  IDoFFX=0 NUNeed=     1.
 LinEq1:  Iter=  0 NonCon=     1 RMS=6.43D-04 Max=2.52D-02 NDo=     1
 AX will form     1 AO Fock derivatives at one time.
 LinEq1:  Iter=  1 NonCon=     1 RMS=2.40D-04 Max=2.92D-03 NDo=     1
 LinEq1:  Iter=  2 NonCon=     1 RMS=7.91D-05 Max=1.71D-03 NDo=     1
 LinEq1:  Iter=  3 NonCon=     1 RMS=1.62D-05 Max=2.10D-04 NDo=     1
 LinEq1:  Iter=  4 NonCon=     1 RMS=6.57D-06 Max=9.09D-05 NDo=     1
 LinEq1:  Iter=  5 NonCon=     1 RMS=2.28D-06 Max=5.17D-05 NDo=     1
 LinEq1:  Iter=  6 NonCon=     1 RMS=9.50D-07 Max=1.47D-05 NDo=     1
 LinEq1:  Iter=  7 NonCon=     1 RMS=2.29D-07 Max=2.89D-06 NDo=     1
 LinEq1:  Iter=  8 NonCon=     1 RMS=5.61D-08 Max=6.71D-07 NDo=     1
 LinEq1:  Iter=  9 NonCon=     1 RMS=1.33D-08 Max=2.08D-07 NDo=     1
 LinEq1:  Iter= 10 NonCon=     1 RMS=3.41D-09 Max=5.63D-08 NDo=     1
 LinEq1:  Iter= 11 NonCon=     1 RMS=1.45D-09 Max=1.65D-08 NDo=     1
 LinEq1:  Iter= 12 NonCon=     1 RMS=5.34D-10 Max=7.34D-09 NDo=     1
 LinEq1:  Iter= 13 NonCon=     1 RMS=2.00D-10 Max=2.83D-09 NDo=     1
 LinEq1:  Iter= 14 NonCon=     0 RMS=4.17D-11 Max=6.05D-10 NDo=     1
 Linear equations converged to 1.000D-10 1.000D-09 after    14 iterations.
 End of Minotr F.D. properties file   721 does not exist.
 End of Minotr F.D. properties file   722 does not exist.
 End of Minotr F.D. properties file   788 does not exist.
 Calling FoFJK, ICntrl=  10002127 FMM=F ISym2X=0 I1Cent= 0 IOpClX= 1 NMat=1 NMatS=1 NMatT=0.
 ***** Axes restored to original set *****
 -------------------------------------------------------------------
 Center     Atomic                   Forces (Hartrees/Bohr)
 Number     Number              X              Y              Z
 -------------------------------------------------------------------
      1        6           0.002199624    0.002263670   -0.000559385
      2        6          -0.002782068   -0.004953759   -0.001947578
      3        1          -0.001166655    0.000589417   -0.000271876
      4        1          -0.001221126    0.000104225    0.000512159
      5        1           0.000035820   -0.000297737    0.000238934
      6        6           0.001093701    0.003576105   -0.000030720
      7        1           0.000666893    0.001315331    0.001938358
      8        1           0.000785199   -0.000957038   -0.000325100
      9        1           0.000550837   -0.001358155    0.000305890
     10        1          -0.000162223   -0.000282060    0.000139318
 -------------------------------------------------------------------
 Cartesian Forces:  Max     0.004953759 RMS     0.001570187

 GradGradGradGradGradGradGradGradGradGradGradGradGradGradGradGradGradGrad
 Berny optimization.
 Using GEDIIS/GDIIS optimizer.
 FormGI is forming the generalized inverse of G from B-inverse, IUseBI=4.
 Internal  Forces:  Max     0.003851169 RMS     0.001077203
 Search for a local minimum.
 Step number   3 out of a maximum of  100
 All quantities printed in internal units (Hartrees-Bohrs-Radians)
 Mixed Optimization -- RFO/linear search
 Update second derivatives using D2CorX and points    2    3
 DE= -2.76D-03 DEPred=-2.00D-03 R= 1.38D+00
 TightC=F SS=  1.41D+00  RLast= 4.61D-01 DXNew= 8.4853D-01 1.3817D+00
 Trust test= 1.38D+00 RLast= 4.61D-01 DXMaxT set to 8.49D-01
 ITU=  1  1  0
 Use linear search instead of GDIIS.
     Eigenvalues ---    0.00660   0.00672   0.01360   0.07019   0.07049
     Eigenvalues ---    0.07225   0.07239   0.14368   0.14921   0.16000
     Eigenvalues ---    0.16000   0.16000   0.16120   0.16668   0.23022
     Eigenvalues ---    0.27955   0.31570   0.31644   0.31877   0.31905
     Eigenvalues ---    0.34875   0.36817   0.37232   0.38351
 RFO step:  Lambda=-4.58108150D-04 EMin= 6.60162315D-03
 Quartic linear search produced a step of  0.40759.
 Iteration  1 RMS(Cart)=  0.03206672 RMS(Int)=  0.00263486
 Iteration  2 RMS(Cart)=  0.00180251 RMS(Int)=  0.00223450
 Iteration  3 RMS(Cart)=  0.00000092 RMS(Int)=  0.00223450
 Variable       Old X    -DE/DX   Delta X   Delta X   Delta X     New X
                                 (Linear)    (Quad)   (Total)
    R1        2.81468   0.00032  -0.01212   0.00658  -0.00554   2.80914
    R2        2.05582   0.00089  -0.00251   0.00672   0.00421   2.06003
    R3        2.07586   0.00014   0.00191   0.00129   0.00320   2.07906
    R4        2.05986   0.00033  -0.00188   0.00392   0.00204   2.06190
    R5        2.81614   0.00013  -0.01651   0.00707  -0.00944   2.80670
    R6        2.04572  -0.00007  -0.00824   0.00509  -0.00315   2.04256
    R7        2.05636   0.00068   0.00023   0.00124   0.00147   2.05783
    R8        2.07459   0.00046   0.00490  -0.00174   0.00316   2.07776
    R9        2.05994   0.00030   0.00093  -0.00053   0.00040   2.06034
    A1        1.95042   0.00109  -0.00576   0.01132   0.00552   1.95595
    A2        1.93084   0.00171   0.00779   0.01310   0.02088   1.95172
    A3        1.94740  -0.00081  -0.00121  -0.00865  -0.00983   1.93757
    A4        1.87203  -0.00122  -0.00199  -0.00688  -0.00895   1.86308
    A5        1.89233  -0.00021   0.00386  -0.00381   0.00005   1.89237
    A6        1.86721  -0.00069  -0.00268  -0.00601  -0.00864   1.85857
    A7        2.07063   0.00385   0.00812   0.02295   0.02355   2.09417
    A8        2.05313  -0.00165   0.02764  -0.00530   0.01461   2.06774
    A9        2.05017  -0.00131   0.02442  -0.00094   0.01565   2.06582
   A10        1.94971   0.00112  -0.00220   0.00978   0.00752   1.95722
   A11        1.93044   0.00177   0.01268   0.01106   0.02367   1.95410
   A12        1.94487  -0.00046   0.00116  -0.00672  -0.00556   1.93932
   A13        1.87364  -0.00133  -0.00562  -0.00664  -0.01239   1.86125
   A14        1.89290  -0.00035   0.00035  -0.00279  -0.00243   1.89047
   A15        1.86894  -0.00089  -0.00692  -0.00552  -0.01245   1.85650
    D1        2.89948  -0.00073  -0.04727   0.00849  -0.03930   2.86019
    D2       -0.73894   0.00076   0.05654   0.04337   0.10037  -0.63857
    D3       -1.29907  -0.00039  -0.04827   0.01603  -0.03268  -1.33175
    D4        1.34570   0.00109   0.05554   0.05091   0.10698   1.45268
    D5        0.77753  -0.00065  -0.04728   0.01153  -0.03626   0.74127
    D6       -2.86089   0.00083   0.05653   0.04640   0.10340  -2.75749
    D7       -2.89752   0.00062   0.04840  -0.01022   0.03856  -2.85895
    D8        1.29974   0.00037   0.04843  -0.01568   0.03303   1.33277
    D9       -0.77712   0.00063   0.04812  -0.01167   0.03677  -0.74036
   D10        0.74006  -0.00076  -0.05659  -0.04379  -0.10065   0.63941
   D11       -1.34586  -0.00101  -0.05656  -0.04925  -0.10618  -1.45205
   D12        2.86046  -0.00075  -0.05687  -0.04525  -0.10245   2.75801
         Item               Value     Threshold  Converged?
 Maximum Force            0.003851     0.000450     NO 
 RMS     Force            0.001077     0.000300     NO 
 Maximum Displacement     0.091406     0.001800     NO 
 RMS     Displacement     0.031556     0.001200     NO 
 Predicted change in Energy=-3.508484D-04
 GradGradGradGradGradGradGradGradGradGradGradGradGradGradGradGradGradGrad

                          Input orientation:                          
 ---------------------------------------------------------------------
 Center     Atomic      Atomic             Coordinates (Angstroms)
 Number     Number       Type             X           Y           Z
 ---------------------------------------------------------------------
      1          6           0       -0.998527    0.682325   -0.019502
      2          6           0        0.468417    0.556268   -0.224339
      3          1           0       -1.311132    1.722482    0.073869
      4          1           0       -1.566958    0.254592   -0.858759
      5          1           0       -1.316233    0.145079    0.875456
      6          6           0        1.136859   -0.753938   -0.018211
      7          1           0        0.970154    1.299341   -0.827995
      8          1           0        2.216912   -0.653106    0.077406
      9          1           0        0.957894   -1.443178   -0.855959
     10          1           0        0.758768   -1.251506    0.875204
 ---------------------------------------------------------------------
                    Distance matrix (angstroms):
                    1          2          3          4          5
     1  C    0.000000
     2  C    1.486531   0.000000
     3  H    1.090122   2.148436   0.000000
     4  H    1.100191   2.153195   1.757823   0.000000
     5  H    1.091110   2.136259   1.769398   1.755664   0.000000
     6  C    2.573467   1.485242   3.483360   3.005708   2.761257
     7  H    2.215869   1.080879   2.489312   2.743972   3.075977
     8  H    3.483076   2.147293   4.253295   4.002248   3.709056
     9  H    3.007492   2.153211   4.004305   3.042582   3.269865
    10  H    2.761936   2.135731   3.710960   3.268632   2.501216
                    6          7          8          9         10
     6  C    0.000000
     7  H    2.213480   0.000000
     8  H    1.088955   2.487208   0.000000
     9  H    1.099501   2.742689   1.755139   0.000000
    10  H    1.090284   3.074475   1.766564   1.753088   0.000000
 Stoichiometry    C3H7(2)
 Framework group  C1[X(C3H7)]
 Deg. of freedom    24
 Full point group                 C1      NOp   1
 Largest Abelian subgroup         C1      NOp   1
 Largest concise Abelian subgroup C1      NOp   1
                         Standard orientation:                         
 ---------------------------------------------------------------------
 Center     Atomic      Atomic             Coordinates (Angstroms)
 Number     Number       Type             X           Y           Z
 ---------------------------------------------------------------------
      1          6           0        1.287120   -0.199775    0.004990
      2          6           0       -0.000292    0.539639   -0.069934
      3          1           0        2.127040    0.404476   -0.338201
      4          1           0        1.520434   -0.511589    1.033949
      5          1           0        1.250390   -1.111058   -0.593954
      6          6           0       -1.286347   -0.199551    0.004926
      7          1           0       -0.001518    1.596448    0.156894
      8          1           0       -2.126255    0.402304   -0.338802
      9          1           0       -1.522147   -0.511454    1.032553
     10          1           0       -1.250825   -1.111003   -0.592330
 ---------------------------------------------------------------------
 Rotational constants (GHZ):          37.3792323           8.4461214           7.5402335
 Standard basis: CC-pVTZ (5D, 7F)
 There are   210 symmetry adapted cartesian basis functions of A   symmetry.
 There are   188 symmetry adapted basis functions of A   symmetry.
   188 basis functions,   275 primitive gaussians,   210 cartesian basis functions
    13 alpha electrons       12 beta electrons
       nuclear repulsion energy        75.7292904888 Hartrees.
 NAtoms=   10 NActive=   10 NUniq=   10 SFac= 1.00D+00 NAtFMM=   60 NAOKFM=F Big=F
 Integral buffers will be    131072 words long.
 Raffenetti 2 integral format.
 Two-electron integral symmetry is turned on.
 Nuclear repulsion after empirical dispersion term =       75.7254195185 Hartrees.
 One-electron integrals computed using PRISM.
 NBasis=   188 RedAO= T EigKep=  8.58D-04  NBF=   188
 NBsUse=   188 1.00D-06 EigRej= -1.00D+00 NBFU=   188
 Initial guess from the checkpoint file:  "/localscratch/339542/Gau-50608.chk"
 B after Tr=    -0.000000   -0.000000   -0.000000
         Rot=    0.999990   -0.004444    0.000003    0.000035 Ang=  -0.51 deg.
 Initial guess <Sx>= 0.0000 <Sy>= 0.0000 <Sz>= 0.5000 <S**2>= 0.7565 S= 0.5033
 ExpMin= 1.03D-01 ExpMax= 8.24D+03 ExpMxC= 2.81D+02 IAcc=3 IRadAn=         5 AccDes= 0.00D+00
 Harris functional with IExCor=  419 and IRadAn=       5 diagonalized for initial guess.
 HarFok:  IExCor=  419 AccDes= 0.00D+00 IRadAn=         5 IDoV= 1 UseB2=F ITyADJ=14
 ICtDFT=  3500011 ScaDFX=  1.000000  1.000000  1.000000  1.000000
 FoFCou: FMM=F IPFlag=           0 FMFlag=      100000 FMFlg1=           0
         NFxFlg=           0 DoJE=T BraDBF=F KetDBF=T FulRan=T
         wScrn=  0.000000 ICntrl=       500 IOpCl=  0 I1Cent=   200000004 NGrid=           0
         NMat0=    1 NMatS0=      1 NMatT0=    0 NMatD0=    1 NMtDS0=    0 NMtDT0=    0
 Petite list used in FoFCou.
 Keep R1 and R2 ints in memory in canonical form, NReq=357195436.
 Requested convergence on RMS density matrix=1.00D-08 within 128 cycles.
 Requested convergence on MAX density matrix=1.00D-06.
 Requested convergence on             energy=1.00D-06.
 No special actions if energy rises.
 Integral accuracy reduced to 1.0D-05 until final iterations.
 Initial convergence to 1.0D-05 achieved.  Increase integral accuracy.
 SCF Done:  E(UB2PLYPD3) =  -118.234831761     A.U. after   11 cycles
            NFock= 11  Conv=0.63D-08     -V/T= 2.0046
 <Sx>= 0.0000 <Sy>= 0.0000 <Sz>= 0.5000 <S**2>= 0.7569 S= 0.5034
 <L.S>=  0.00000000000    
 Annihilation of the first spin contaminant:
 S**2 before annihilation     0.7569,   after     0.7500
 DoSCS=T DFT=T ScalE2(SS,OS)=  0.270000  0.270000
 ExpMin= 1.03D-01 ExpMax= 8.24D+03 ExpMxC= 2.81D+02 IAcc=3 IRadAn=         5 AccDes= 0.00D+00
 HarFok:  IExCor=  205 AccDes= 0.00D+00 IRadAn=         5 IDoV=-2 UseB2=F ITyADJ=14
 ICtDFT= 12500011 ScaDFX=  1.000000  1.000000  1.000000  1.000000
 Range of M.O.s used for correlation:     4   188
 NBasis=   188 NAE=    13 NBE=    12 NFC=     3 NFV=     0
 NROrb=    185 NOA=    10 NOB=     9 NVA=   175 NVB=   176

 **** Warning!!: The largest alpha MO coefficient is  0.10816339D+02


 **** Warning!!: The largest beta MO coefficient is  0.10946969D+02

 DoSCS=T DFT=T ScalE2(SS,OS)=  0.270000  0.270000
 Fully direct method using O(ONN) memory.
 JobTyp=2 Pass  1:  I=   4 to  13 NPSUse= 40 ParTrn=T ParDer=T DoDerP=T.
 JobTyp=3 Pass  1:  I=   4 to  12 NPSUse= 40 ParTrn=T ParDer=T DoDerP=T.
 Spin components of T(2) and E(2):
     alpha-alpha T2 =       0.3054039681D-01 E2=     -0.1991862604D-01
     alpha-beta  T2 =       0.1790037897D+00 E2=     -0.1285457377D+00
     beta-beta   T2 =       0.2493295405D-01 E2=     -0.1593766772D-01
 (S**2,0)=  0.75690D+00           (S**2,1)=  0.74715D+00
 Scaling Projection term by:   0.270000
 E(PUHF)=      -0.11823739927D+03        E(PMP2)=      -0.11839943863D+03
 E2(B2PLYPD3) =    -0.1644020315D+00 E(B2PLYPD3) =    -0.11839923379204D+03
          IDoAtm=1111111111
          Differentiating once with respect to electric field.
                with respect to dipole field.
          Differentiating once with respect to nuclear coordinates.
 Keep R1 and R2 ints in memory in canonical form, NReq=357202664.
          There are     1 degrees of freedom in the 1st order CPHF.  IDoFFX=0 NUNeed=     1.
 LinEq1:  Iter=  0 NonCon=     1 RMS=6.45D-04 Max=2.55D-02 NDo=     1
 AX will form     1 AO Fock derivatives at one time.
 LinEq1:  Iter=  1 NonCon=     1 RMS=2.42D-04 Max=3.00D-03 NDo=     1
 LinEq1:  Iter=  2 NonCon=     1 RMS=8.02D-05 Max=1.71D-03 NDo=     1
 LinEq1:  Iter=  3 NonCon=     1 RMS=1.65D-05 Max=2.36D-04 NDo=     1
 LinEq1:  Iter=  4 NonCon=     1 RMS=6.89D-06 Max=9.77D-05 NDo=     1
 LinEq1:  Iter=  5 NonCon=     1 RMS=2.38D-06 Max=5.46D-05 NDo=     1
[...]
 Center     Atomic                   Forces (Hartrees/Bohr)
 Number     Number              X              Y              Z
 -------------------------------------------------------------------
      1        6          -0.000004782    0.000005266   -0.000000802
      2        6          -0.000001648    0.000003910    0.000005458
      3        1           0.000003680   -0.000001746    0.000000328
      4        1           0.000001364   -0.000001794    0.000000198
      5        1          -0.000000064   -0.000000382   -0.000002204
      6        6           0.000010927   -0.000010378   -0.000001610
      7        1          -0.000001687   -0.000002215   -0.000000899
      8        1          -0.000003493    0.000004164    0.000000608
      9        1          -0.000003009    0.000002244   -0.000000181
     10        1          -0.000001289    0.000000931   -0.000000895
 -------------------------------------------------------------------
 Cartesian Forces:  Max     0.000010927 RMS     0.000003704
 FormGI is forming the generalized inverse of G from B-inverse, IUseBI=4.

 GradGradGradGradGradGradGradGradGradGradGradGradGradGradGradGradGradGrad
 Berny optimization.
 Internal  Forces:  Max     0.000005766 RMS     0.000002332
 Search for a local minimum.
 Step number   1 out of a maximum of    2
 All quantities printed in internal units (Hartrees-Bohrs-Radians)
 Second derivative matrix not updated -- analytic derivatives used.
 ITU=  0
     Eigenvalues ---    0.00056   0.00086   0.00561   0.05624   0.05631
     Eigenvalues ---    0.05732   0.05773   0.10765   0.11805   0.11816
     Eigenvalues ---    0.12216   0.13662   0.13843   0.15031   0.18682
     Eigenvalues ---    0.30625   0.30952   0.32296   0.32723   0.33614
     Eigenvalues ---    0.33997   0.34683   0.35081   0.36274
 Angle between quadratic step and forces=  75.46 degrees.
 Linear search not attempted -- first point.
 Iteration  1 RMS(Cart)=  0.00008877 RMS(Int)=  0.00000001
 Iteration  2 RMS(Cart)=  0.00000001 RMS(Int)=  0.00000001
 Variable       Old X    -DE/DX   Delta X   Delta X   Delta X     New X
                                 (Linear)    (Quad)   (Total)
    R1        2.80870  -0.00000   0.00000   0.00000   0.00000   2.80871
    R2        2.05672  -0.00000   0.00000  -0.00001  -0.00001   2.05671
    R3        2.07602  -0.00000   0.00000   0.00000   0.00000   2.07602
    R4        2.06509  -0.00000   0.00000  -0.00001  -0.00001   2.06508
    R5        2.80868   0.00000   0.00000   0.00002   0.00002   2.80871
    R6        2.04103  -0.00000   0.00000   0.00000   0.00000   2.04103
    R7        2.05672  -0.00000   0.00000  -0.00001  -0.00001   2.05671
    R8        2.07603  -0.00000   0.00000  -0.00000  -0.00000   2.07602
    R9        2.06509  -0.00000   0.00000  -0.00001  -0.00001   2.06508
    A1        1.95618  -0.00000   0.00000  -0.00003  -0.00003   1.95615
    A2        1.95068  -0.00000   0.00000  -0.00002  -0.00002   1.95066
    A3        1.94244   0.00000   0.00000   0.00001   0.00001   1.94245
    A4        1.86948   0.00000   0.00000   0.00002   0.00002   1.86951
    A5        1.88833   0.00000   0.00000   0.00002   0.00002   1.88835
    A6        1.85173  -0.00000   0.00000  -0.00000  -0.00000   1.85173
    A7        2.10213   0.00001   0.00000   0.00003   0.00003   2.10216
    A8        2.07657  -0.00000   0.00000  -0.00006  -0.00006   2.07651
    A9        2.07657  -0.00000   0.00000  -0.00006  -0.00006   2.07651
   A10        1.95620  -0.00000   0.00000  -0.00004  -0.00004   1.95615
   A11        1.95069  -0.00000   0.00000  -0.00003  -0.00003   1.95066
   A12        1.94246  -0.00000   0.00000  -0.00001  -0.00001   1.94245
   A13        1.86946   0.00000   0.00000   0.00004   0.00004   1.86951
   A14        1.88832   0.00000   0.00000   0.00003   0.00003   1.88835
   A15        1.85171   0.00000   0.00000   0.00002   0.00002   1.85173
    D1        2.95597   0.00000   0.00000   0.00005   0.00005   2.95602
    D2       -0.43982  -0.00000   0.00000  -0.00034  -0.00034  -0.44015
    D3       -1.22830   0.00000   0.00000   0.00004   0.00004  -1.22825
    D4        1.65910  -0.00000   0.00000  -0.00034  -0.00034   1.65876
    D5        0.83863   0.00000   0.00000   0.00004   0.00004   0.83867
    D6       -2.55716  -0.00000   0.00000  -0.00035  -0.00035  -2.55750
    D7       -2.95601  -0.00000   0.00000  -0.00001  -0.00001  -2.95602
    D8        1.22826  -0.00000   0.00000  -0.00001  -0.00001   1.22825
    D9       -0.83866  -0.00000   0.00000  -0.00001  -0.00001  -0.83867
   D10        0.43978   0.00000   0.00000   0.00038   0.00038   0.44015
   D11       -1.65914   0.00000   0.00000   0.00038   0.00038  -1.65876
   D12        2.55713   0.00000   0.00000   0.00038   0.00038   2.55750
         Item               Value     Threshold  Converged?
 Maximum Force            0.000006     0.000450     YES
 RMS     Force            0.000002     0.000300     YES
 Maximum Displacement     0.000315     0.001800     YES
 RMS     Displacement     0.000089     0.001200     YES
 Predicted change in Energy=-1.570493D-09
 Optimization completed.
    -- Stationary point found.
                           ----------------------------
                           !   Optimized Parameters   !
                           ! (Angstroms and Degrees)  !
 --------------------------                            --------------------------
 ! Name  Definition              Value          Derivative Info.                !
 --------------------------------------------------------------------------------
 ! R1    R(1,2)                  1.4863         -DE/DX =    0.0                 !
 ! R2    R(1,3)                  1.0884         -DE/DX =    0.0                 !
 ! R3    R(1,4)                  1.0986         -DE/DX =    0.0                 !
 ! R4    R(1,5)                  1.0928         -DE/DX =    0.0                 !
 ! R5    R(2,6)                  1.4863         -DE/DX =    0.0                 !
 ! R6    R(2,7)                  1.0801         -DE/DX =    0.0                 !
 ! R7    R(6,8)                  1.0884         -DE/DX =    0.0                 !
 ! R8    R(6,9)                  1.0986         -DE/DX =    0.0                 !
 ! R9    R(6,10)                 1.0928         -DE/DX =    0.0                 !
 ! A1    A(2,1,3)              112.0811         -DE/DX =    0.0                 !
 ! A2    A(2,1,4)              111.7657         -DE/DX =    0.0                 !
 ! A3    A(2,1,5)              111.2935         -DE/DX =    0.0                 !
 ! A4    A(3,1,4)              107.1134         -DE/DX =    0.0                 !
 ! A5    A(3,1,5)              108.1934         -DE/DX =    0.0                 !
 ! A6    A(4,1,5)              106.0962         -DE/DX =    0.0                 !
 ! A7    A(1,2,6)              120.443          -DE/DX =    0.0                 !
 ! A8    A(1,2,7)              118.9786         -DE/DX =    0.0                 !
 ! A9    A(6,2,7)              118.9786         -DE/DX =    0.0                 !
 ! A10   A(2,6,8)              112.0818         -DE/DX =    0.0                 !
 ! A11   A(2,6,9)              111.7665         -DE/DX =    0.0                 !
 ! A12   A(2,6,10)             111.2945         -DE/DX =    0.0                 !
 ! A13   A(8,6,9)              107.1124         -DE/DX =    0.0                 !
 ! A14   A(8,6,10)             108.1928         -DE/DX =    0.0                 !
 ! A15   A(9,6,10)             106.095          -DE/DX =    0.0                 !
 ! D1    D(3,1,2,6)            169.3648         -DE/DX =    0.0                 !
 ! D2    D(3,1,2,7)            -25.1996         -DE/DX =    0.0                 !
 ! D3    D(4,1,2,6)            -70.3762         -DE/DX =    0.0                 !
 ! D4    D(4,1,2,7)             95.0594         -DE/DX =    0.0                 !
 ! D5    D(5,1,2,6)             48.0501         -DE/DX =    0.0                 !
 ! D6    D(5,1,2,7)           -146.5143         -DE/DX =    0.0                 !
 ! D7    D(1,2,6,8)           -169.3671         -DE/DX =    0.0                 !
 ! D8    D(1,2,6,9)             70.3742         -DE/DX =    0.0                 !
 ! D9    D(1,2,6,10)           -48.0518         -DE/DX =    0.0                 !
 ! D10   D(7,2,6,8)             25.1973         -DE/DX =    0.0                 !
 ! D11   D(7,2,6,9)            -95.0614         -DE/DX =    0.0                 !
 ! D12   D(7,2,6,10)           146.5126         -DE/DX =    0.0                 !
 --------------------------------------------------------------------------------
 GradGradGradGradGradGradGradGradGradGradGradGradGradGradGradGradGradGrad


 ----------------------------------------------------------------------

 Electric dipole moment (input orientation):
 (Debye = 10**-18 statcoulomb cm , SI units = C m)
                  (au)            (Debye)         (10**-30 SI)
   Tot        0.784625D-01      0.199432D+00      0.665233D+00
   x         -0.322427D-01     -0.819527D-01     -0.273365D+00
   y         -0.479861D-01     -0.121969D+00     -0.406843D+00
   z         -0.530481D-01     -0.134835D+00     -0.449761D+00

 Dipole polarizability, Alpha (input orientation).
 (esu units = cm**3 , SI units = C**2 m**2 J**-1)
 Alpha(0;0):
               (au)            (10**-24 esu)      (10**-40 SI)
   iso        0.373218D+02      0.553052D+01      0.615354D+01
   aniso      0.966682D+01      0.143247D+01      0.159384D+01
   xx         0.410640D+02      0.608506D+01      0.677054D+01
   yx        -0.304561D+01     -0.451312D+00     -0.502153D+00
   yy         0.385858D+02      0.571782D+01      0.636193D+01
   zx        -0.686767D+00     -0.101768D+00     -0.113233D+00
   zy        -0.103450D+01     -0.153297D+00     -0.170565D+00
   zz         0.323157D+02      0.478869D+01      0.532814D+01

 ----------------------------------------------------------------------

 Dipole orientation:
     6         -1.87158672         -1.32141623          0.03870004
     6          0.79878287         -0.92246877         -0.73510786
     1         -2.73176425         -2.91096632         -0.94288925
     1         -2.03522812         -1.69898321          2.07352944
     1         -3.01690990          0.35782910         -0.32595838
     6          2.17262767          1.40181749          0.03880939
     1          1.86317579         -2.50313960         -1.46609869
     1          3.96905441          1.60109525         -0.94263830
     1          2.58389371          1.41146309          2.07366845
     1          1.04742362          3.09459984         -0.32588983

 Electric dipole moment (dipole orientation):
 (Debye = 10**-18 statcoulomb cm , SI units = C m)
                  (au)            (Debye)         (10**-30 SI)
   Tot        0.784625D-01      0.199432D+00      0.665233D+00
   x          0.000000D+00      0.000000D+00      0.000000D+00
   y          0.000000D+00      0.000000D+00      0.000000D+00
   z          0.784625D-01      0.199432D+00      0.665233D+00

 Dipole polarizability, Alpha (dipole orientation).
 (esu units = cm**3 , SI units = C**2 m**2 J**-1)
 Alpha(0;0):
               (au)            (10**-24 esu)      (10**-40 SI)
   iso        0.373218D+02      0.553052D+01      0.615354D+01
   aniso      0.966682D+01      0.143247D+01      0.159384D+01
   xx         0.407324D+02      0.603592D+01      0.671587D+01
   yx         0.353525D+01      0.523870D+00      0.582884D+00
   yy         0.378628D+02      0.561069D+01      0.624274D+01
   zx        -0.123377D+01     -0.182827D+00     -0.203422D+00
   zy         0.183275D+01      0.271586D+00      0.302180D+00
   zz         0.333702D+02      0.494496D+01      0.550201D+01

 ----------------------------------------------------------------------
 1\1\GINC-N68\Freq\UB2PLYPD3-FC\CC-pVTZ\C3H7(2)\ROOT\31-May-2019\0\\#N 
 Geom=AllCheck Guess=TCheck SCRF=Check GenChk UB2PLYPD3(FC)/CC-pVTZ Fre
 q\\Title Card Required\\0,2\C,-1.0038840966,0.6791967912,-0.0345151792
 \C,0.4667704265,0.5537420304,-0.2092395018\H,-1.3258836281,1.718569761
 2,-0.0107106779\H,-1.5541979172,0.1888535731,-0.8491338809\H,-1.336363
 1707,0.1977716535,0.8884684353\C,1.1366631282,-0.7612199084,-0.0326580
 426\H,1.0068139974,1.3556556521,-0.6907271265\H,2.2207496709,-0.668049
 5938,-0.0076706484\H,0.8906439899,-1.4563678267,-0.8469887179\H,0.8148
 409896,-1.2497931226,0.89034621\\Version=ES64L-G16RevB.01\State=2-A\HF
 =-118.2349692\MP2=-118.3993829\PUHF=-118.2376019\PMP2-0=-118.3995945\S
 2=0.757108\S2-1=0.747093\S2A=0.750037\RMSD=1.295e-09\RMSF=3.704e-06\Ze
 roPoint=0.0885105\Thermal=0.0936634\Dipole=-0.0322427,-0.0479861,-0.05
 30481\DipoleDeriv=0.006769,0.0551069,0.032621,0.0144644,0.0641757,0.03
 03122,0.0001142,0.0490099,0.1479531,0.1661787,-0.0778065,-0.0889234,-0
 .0778216,0.1026412,-0.1326886,-0.0993678,-0.1482176,-0.2033271,0.00380
 43,0.0567899,0.0037958,0.089888,-0.1285512,-0.0062768,0.0110552,-0.006
 9648,0.073111,-0.0607291,-0.0109894,-0.0583166,-0.0674672,0.0148289,-0
 .0857721,-0.1037943,-0.0772774,-0.0624133,0.0080086,-0.0054602,0.03221
 09,-0.0332167,0.0161785,0.0923028,0.0829545,0.0744081,-0.0937989,0.031
 6871,0.0246113,0.0156375,0.06525,0.039241,0.0418011,0.0451635,0.018684
 6,0.1479779,-0.0547565,-0.0103254,0.0543344,-0.0103047,-0.0629704,0.08
 08995,0.0693359,0.1031945,0.0735702,-0.1609359,0.0228898,-0.0075366,-0
 .0101997,0.0362111,0.0011718,-0.0108798,0.0076756,0.0730841,0.0315898,
 -0.0298768,-0.0573603,0.0265739,-0.0775634,-0.0862879,-0.0324081,-0.12
 5283,-0.0623478,0.0283841,-0.0249396,0.0735372,0.0028335,-0.0041915,0.
 0645381,0.0378267,0.1047701,-0.0938093\Polar=41.0640344,-3.0456074,38.
 585769,-0.6867672,-1.0344968,32.3156812\PG=C01 [X(C3H7)]\NImag=0\\0.47
 718151,-0.01742079,0.56902855,-0.01294907,-0.02106163,0.50341024,-0.22
 790511,0.01559011,0.02532823,0.52497686,0.01318733,-0.08712515,0.00991
 922,0.01552706,0.53732789,0.02687029,0.01025204,-0.05548901,-0.1034892
 9,-0.15423616,0.17198092,-0.06771960,0.07117928,0.00416096,-0.00988688
 ,0.03443749,-0.00206667,0.07643613,0.07333603,-0.29385105,-0.00408991,
 -0.00065839,-0.00032394,0.00064192,-0.08006876,0.31819447,0.00439638,-
 0.00428576,-0.04752098,-0.00030451,-0.00333227,-0.00111133,-0.00234469
 ,0.00557051,0.04615325,-0.09646692,-0.05388683,-0.09362937,-0.02578870
 ,-0.01396872,-0.01912450,0.00437883,0.00352076,0.00701958,0.11328846,-
 0.04702858,-0.09327908,-0.08174739,-0.00262720,0.00213634,0.00393878,-
 0.01530292,-0.01433582,-0.02467447,0.05892149,0.09859690,-0.08259354,-
 0.08192244,-0.17803095,-0.00155992,0.00349965,0.00760224,0.00046940,-0
 .00002991,-0.00082342,0.09799357,0.09142055,0.19633864,-0.06455291,-0.
 02961185,0.06618658,-0.01537473,-0.01832007,0.02598843,0.00172577,0.00
 311553,-0.00879420,0.00465707,0.00702733,-0.01338497,0.07631102,-0.027
 54418,-0.09797439,0.09595284,-0.00343123,0.00054920,-0.00163131,-0.009
 38715,-0.01203992,0.02676844,0.00384999,0.00618734,-0.01329154,0.03645
 663,0.10143735,0.06359664,0.09725647,-0.22902162,0.00281214,0.00221445
 ,0.00040510,-0.00151674,-0.00132738,0.00193351,0.00608884,0.01131740,-
 0.02367009,-0.07057857,-0.10721897,0.25040718,-0.01271673,0.03209077,-
 0.00142183,-0.11713644,0.06059931,-0.00074628,-0.00586018,0.00066902,0
 .00047274,0.00176009,-0.00036645,-0.00031062,0.00172819,0.00012108,-0.
 00045612,0.56818967,0.00241722,0.00131176,-0.00018466,0.05819372,-0.19
 786116,0.02893927,-0.00152060,0.00124172,0.00053865,-0.00063882,0.0001
 6436,0.00022700,-0.00116052,0.00045673,-0.00005657,0.01956591,0.478035
 75,0.00034656,-0.00134889,0.00083806,-0.00047156,0.02738766,-0.0555346
 3,0.00153228,-0.00055555,0.00071622,0.00069617,-0.00006810,0.00062571,
 0.00048868,-0.00134768,0.00056664,-0.01457406,-0.01989117,0.50339869,-
 0.01009546,-0.02025027,0.01517530,-0.12526127,-0.10402661,0.07166534,0
 .00159943,0.00038202,-0.00031628,-0.00131791,-0.00036820,-0.00021654,-
 0.00497847,0.00005023,-0.00040143,0.00808123,0.01186879,-0.00624353,0.
 13109548,0.00448607,0.00466957,-0.00056520,-0.10402081,-0.20964104,0.1
 0647330,-0.00076736,0.00102796,-0.00038614,0.00048532,0.00023944,-0.00
 016707,0.00151543,0.00105672,-0.00126001,-0.01287826,-0.01349016,0.013
 84380,0.10884815,0.21938578,-0.00043651,0.00110870,0.00390939,0.075865
 48,0.11271533,-0.07474693,-0.00015604,0.00005844,-0.00018514,0.0002768
 8,0.00018680,-0.00154093,0.00146947,0.00051768,-0.00071519,0.00120698,
 0.00004145,0.00389245,-0.07833604,-0.11639367,0.07182950,0.00053247,0.
 00326594,-0.00109447,-0.01346363,-0.00211070,0.00136020,-0.00086685,0.
 00001343,-0.00000113,0.00006967,-0.00015202,-0.00008131,0.00038077,-0.
 00005321,-0.00013776,-0.31218042,-0.02606221,-0.00564184,0.00124363,0.
 00023791,0.00011438,0.33975674,0.00107680,-0.00514833,0.00121620,0.032
 98202,0.00325240,-0.00163771,0.00158757,-0.00021614,-0.00016497,0.0001
 5179,0.00004505,0.00019021,-0.00020486,0.00000068,-0.00019627,-0.02821
 936,-0.04937164,0.00228311,-0.00091209,0.00138349,-0.00012492,0.026995
 96,0.05485791,0.00031986,0.00064955,0.00071393,-0.00301369,-0.00154310
 ,-0.00111078,-0.00015531,-0.00006260,0.00047608,0.00044513,-0.00007976
 ,0.00005305,-0.00042829,-0.00005158,0.00030865,-0.00591027,0.00243005,
 -0.04753754,-0.00023617,-0.00043944,-0.00018485,0.00636244,-0.00004999
 ,0.04616780,0.00074143,-0.00078069,-0.00032454,0.00394852,0.00947855,0
 .01083944,0.00004871,-0.00016077,-0.00024136,-0.00037091,-0.00020490,-
 0.00040414,-0.00001052,0.00018239,0.00004422,-0.05842272,-0.03150809,-
 0.04029780,-0.00002234,0.00015895,0.00007045,-0.00754102,-0.02018260,-
 0.02549272,0.05945462,-0.00105335,0.00118350,0.00061768,-0.00184999,-0
 .02763152,-0.01620602,0.00014291,0.00006641,0.00038245,0.00140515,0.00
 011697,0.00023439,0.00024080,-0.00007064,-0.00012711,-0.03835807,-0.13
 140809,-0.11760398,0.00101170,-0.00105625,0.00032752,-0.00133455,-0.00
 238851,-0.00279082,0.03697210,0.15252527,0.00032829,-0.00020358,0.0006
 2549,0.00382683,-0.00008711,0.00763281,0.00020671,-0.00000387,0.000052
 69,0.00036814,-0.00028669,-0.00028633,-0.00018204,0.00002104,-0.000268
 02,-0.04461075,-0.10743890,-0.17794011,-0.00007228,-0.00026364,-0.0015
 4109,-0.00021138,0.00040120,-0.00085156,0.04759041,0.12528638,0.196240
 00,0.00100132,-0.00017567,-0.00143180,0.00589138,0.00519638,-0.0112969
 6,0.00014464,-0.00014888,0.00011347,-0.00020969,0.00010146,0.00008808,
 0.00011380,-0.00024457,0.00054879,-0.07344269,-0.03115540,0.06416511,-
 0.00034430,0.00193461,-0.00007505,-0.00793138,-0.01327523,0.02810903,0
 .00217424,0.00282328,-0.00724393,0.07260267,-0.00145655,0.00118462,-0.
 00005715,-0.00970530,-0.02068302,0.02346589,-0.00030045,0.00023632,-0.
 00041645,0.00015987,0.00012850,-0.00016085,0.00094157,0.00039692,-0.00
 060201,-0.03322395,-0.08907928,0.09730080,0.00339628,-0.00357550,0.001
 56267,-0.00080055,-0.00241490,0.00193770,0.00604506,0.00866286,-0.0174
 2484,0.03494402,0.10514347,0.00012110,-0.00044447,0.00056544,0.0010063
 0,0.00346232,0.00037162,-0.00012989,-0.00020166,0.00030912,-0.00013444
 ,-0.00000713,-0.00026792,-0.00076508,0.00028107,0.00005384,0.06635019,
 0.09539489,-0.22902550,-0.00101837,-0.00084192,-0.00071721,-0.00066914
 ,-0.00191685,0.00196523,0.00821605,0.00987950,-0.02366386,-0.07297673,
 -0.10560575,0.25040923\\0.00000478,-0.00000527,0.00000080,0.00000165,-
 0.00000391,-0.00000546,-0.00000368,0.00000175,-0.00000033,-0.00000136,
 0.00000179,-0.00000020,0.00000006,0.00000038,0.00000220,-0.00001093,0.
 00001038,0.00000161,0.00000169,0.00000221,0.00000090,0.00000349,-0.000
 00416,-0.00000061,0.00000301,-0.00000224,0.00000018,0.00000129,-0.0000
 0093,0.00000090\\\@


 EVERYTHING'S GOT A MORAL, IF ONLY YOU CAN FIND IT.

                                    -- LEWIS CARROL, ALICE IN WONDERLAND
 Job cpu time:       0 days  4 hours  8 minutes 49.3 seconds.
 Elapsed time:       0 days  0 hours  6 minutes 23.5 seconds.
 File lengths (MBytes):  RWF=   7557 Int=      0 D2E=      0 Chk=      7 Scr=      1
 Normal termination of Gaussian 16 at Fri May 31 23:26:34 2019.
