 Entering Gaussian System, Link 0=g16
 Initial command:
 /ichec/packages/gaussian/16b01/l1.exe "/localscratch/339542/Gau-53895.inp" -scrdir="/localscratch/339542/"
 Entering Link 1 = /ichec/packages/gaussian/16b01/l1.exe PID=     53896.
  
 Copyright (c) 1988-2017, Gaussian, Inc.  All Rights Reserved.
  
 This is part of the Gaussian(R) 16 program.  It is based on
 the Gaussian(R) 09 system (copyright 2009, Gaussian, Inc.),
 the Gaussian(R) 03 system (copyright 2003, Gaussian, Inc.),
 the Gaussian(R) 98 system (copyright 1998, Gaussian, Inc.),
 the Gaussian(R) 94 system (copyright 1995, Gaussian, Inc.),
 the Gaussian 92(TM) system (copyright 1992, Gaussian, Inc.),
 the Gaussian 90(TM) system (copyright 1990, Gaussian, Inc.),
 the Gaussian 88(TM) system (copyright 1988, Gaussian, Inc.),
 the Gaussian 86(TM) system (copyright 1986, Carnegie Mellon
 University), and the Gaussian 82(TM) system (copyright 1983,
 Carnegie Mellon University). Gaussian is a federally registered
 trademark of Gaussian, Inc.
  
 This software contains proprietary and confidential information,
 including trade secrets, belonging to Gaussian, Inc.
  
 This software is provided under written license and may be
 used, copied, transmitted, or stored only in accord with that
 written license.
  
 The following legend is applicable only to US Government
 contracts under FAR:
  
                    RESTRICTED RIGHTS LEGEND
  
 Use, reproduction and disclosure by the US Government is
 subject to restrictions as set forth in subparagraphs (a)
 and (c) of the Commercial Computer Software - Restricted
 Rights clause in FAR 52.227-19.
  
 Gaussian, Inc.
 340 Quinnipiac St., Bldg. 40, Wallingford CT 06492
  
  
 ---------------------------------------------------------------
 Warning -- This program may not be used in any manner that
 competes with the business of Gaussian, Inc. or will provide
 assistance to any competitor of Gaussian, Inc.  The licensee
 of this program is prohibited from giving any competitor of
 Gaussian, Inc. access to this program.  By using this program,
 the user acknowledges that Gaussian, Inc. is engaged in the
 business of creating and licensing software in the field of
 computational chemistry and represents and warrants to the
 licensee that it is not a competitor of Gaussian, Inc. and that
 it will not use this program in any manner prohibited above.
 ---------------------------------------------------------------
  

 Cite this work as:
 Gaussian 16, Revision B.01,
 M. J. Frisch, G. W. Trucks, H. B. Schlegel, G. E. Scuseria, 
 M. A. Robb, J. R. Cheeseman, G. Scalmani, V. Barone, 
 G. A. Petersson, H. Nakatsuji, X. Li, M. Caricato, A. V. Marenich, 
 J. Bloino, B. G. Janesko, R. Gomperts, B. Mennucci, H. P. Hratchian, 
 J. V. Ortiz, A. F. Izmaylov, J. L. Sonnenberg, D. Williams-Young, 
 F. Ding, F. Lipparini, F. Egidi, J. Goings, B. Peng, A. Petrone, 
 T. Henderson, D. Ranasinghe, V. G. Zakrzewski, J. Gao, N. Rega, 
 G. Zheng, W. Liang, M. Hada, M. Ehara, K. Toyota, R. Fukuda, 
 J. Hasegawa, M. Ishida, T. Nakajima, Y. Honda, O. Kitao, H. Nakai, 
 T. Vreven, K. Throssell, J. A. Montgomery, Jr., J. E. Peralta, 
 F. Ogliaro, M. J. Bearpark, J. J. Heyd, E. N. Brothers, K. N. Kudin, 
 V. N. Staroverov, T. A. Keith, R. Kobayashi, J. Normand, 
 K. Raghavachari, A. P. Rendell, J. C. Burant, S. S. Iyengar, 
 J. Tomasi, M. Cossi, J. M. Millam, M. Klene, C. Adamo, R. Cammi, 
 J. W. Ochterski, R. L. Martin, K. Morokuma, O. Farkas, 
 J. B. Foresman, and D. J. Fox, Gaussian, Inc., Wallingford CT, 2016.
 
 ******************************************
 Gaussian 16:  ES64L-G16RevB.01 20-Dec-2017
                31-May-2019 
 ******************************************
 %mem=80GB
 %nproc=40
 Will use up to   40 processors via shared memory.
 -----------------------------------------------
 # opt=maxcyc=500 freq=noraman uB2PLYPD3/cc-pvtz
 -----------------------------------------------
 1/6=500,18=20,19=15,38=1/1,3;
 2/9=110,12=2,17=6,18=5,40=1/2;
 3/5=16,6=1,11=2,25=1,30=1,71=1,74=-60,116=2/1,2,3;
 4//1;
 5/5=2,38=5/2;
 8/6=4,10=1/1;
 9/15=2,16=-3/6;
 10/5=1/2;
 6/7=2,8=2,9=2,10=2/1;
 7/12=2/1,2,3,16;
 1/6=500,18=20,19=15/3(2);
 2/9=110/2;
 99//99;
 2/9=110/2;
 3/5=16,6=1,11=2,25=1,30=1,71=1,74=-60,116=2/1,2,3;
 4/5=5,16=3,69=1/1;
 5/5=2,38=5/2;
 8/6=4,10=1/1;
 9/15=2,16=-3/6;
 10/5=1/2;
 7/12=2/1,2,3,16;
 1/6=500,18=20,19=15/3(-8);
 2/9=110/2;
 6/7=2,8=2,9=2,10=2/1;
 99/9=10/99;
 -------------------
 Title Card Required
 -------------------
 Symbolic Z-matrix:
 Charge =  0 Multiplicity = 1
 C                    -1.39579   0.50669   0. 
 C                     0.11092   0.50669   0. 
 H                    -1.7844    1.55359   0. 
 H                    -1.79031  -0.01594  -0.90484 
 H                    -1.79023  -0.01581   0.90498 
 C                     0.66852  -0.90116   0.00018 
 H                     0.48812   1.05673  -0.90244 
 H                     0.48452   1.03728   0.91549 
 C                     2.17525  -0.90113   0.00011 
 H                     0.29134  -1.45118   0.9026 
 H                     0.29128  -1.45138  -0.9021 
 H                     2.56405  -1.94793   0.00026 
 H                     2.56956  -0.3785   -0.90484 
 H                     2.56964  -0.37821   0.90487 
 

 GradGradGradGradGradGradGradGradGradGradGradGradGradGradGradGradGradGrad
 Berny optimization.
 Initialization pass.
                           ----------------------------
                           !    Initial Parameters    !
                           ! (Angstroms and Degrees)  !
 --------------------------                            --------------------------
 ! Name  Definition              Value          Derivative Info.                !
 --------------------------------------------------------------------------------
 ! R1    R(1,2)                  1.5067         estimate D2E/DX2                !
 ! R2    R(1,3)                  1.1167         estimate D2E/DX2                !
 ! R3    R(1,4)                  1.1169         estimate D2E/DX2                !
 ! R4    R(1,5)                  1.1169         estimate D2E/DX2                !
 ! R5    R(2,6)                  1.5142         estimate D2E/DX2                !
 ! R6    R(2,7)                  1.1221         estimate D2E/DX2                !
 ! R7    R(2,8)                  1.1221         estimate D2E/DX2                !
 ! R8    R(6,9)                  1.5067         estimate D2E/DX2                !
 ! R9    R(6,10)                 1.1221         estimate D2E/DX2                !
 ! R10   R(6,11)                 1.1221         estimate D2E/DX2                !
 ! R11   R(9,12)                 1.1167         estimate D2E/DX2                !
 ! R12   R(9,13)                 1.1169         estimate D2E/DX2                !
 ! R13   R(9,14)                 1.1169         estimate D2E/DX2                !
 ! A1    A(2,1,3)              110.3651         estimate D2E/DX2                !
 ! A2    A(2,1,4)              110.684          estimate D2E/DX2                !
 ! A3    A(2,1,5)              110.6793         estimate D2E/DX2                !
 ! A4    A(3,1,4)              108.4063         estimate D2E/DX2                !
 ! A5    A(3,1,5)              108.4007         estimate D2E/DX2                !
 ! A6    A(4,1,5)              108.2253         estimate D2E/DX2                !
 ! A7    A(1,2,6)              111.6065         estimate D2E/DX2                !
 ! A8    A(1,2,7)              109.6417         estimate D2E/DX2                !
 ! A9    A(1,2,8)              109.4465         estimate D2E/DX2                !
 ! A10   A(6,2,7)              109.3929         estimate D2E/DX2                !
 ! A11   A(6,2,8)              108.4766         estimate D2E/DX2                !
 ! A12   A(7,2,8)              108.2056         estimate D2E/DX2                !
 ! A13   A(2,6,9)              111.6054         estimate D2E/DX2                !
 ! A14   A(2,6,10)             109.3931         estimate D2E/DX2                !
 ! A15   A(2,6,11)             109.3904         estimate D2E/DX2                !
 ! A16   A(9,6,10)             109.6438         estimate D2E/DX2                !
 ! A17   A(9,6,11)             109.643          estimate D2E/DX2                !
 ! A18   A(10,6,11)            107.0555         estimate D2E/DX2                !
 ! A19   A(6,9,12)             110.375          estimate D2E/DX2                !
 ! A20   A(6,9,13)             110.6752         estimate D2E/DX2                !
 ! A21   A(6,9,14)             110.6753         estimate D2E/DX2                !
 ! A22   A(12,9,13)            108.4103         estimate D2E/DX2                !
 ! A23   A(12,9,14)            108.4105         estimate D2E/DX2                !
 ! A24   A(13,9,14)            108.2146         estimate D2E/DX2                !
 ! D1    D(3,1,2,6)            179.9928         estimate D2E/DX2                !
 ! D2    D(3,1,2,7)            -58.6375         estimate D2E/DX2                !
 ! D3    D(3,1,2,8)             59.905          estimate D2E/DX2                !
 ! D4    D(4,1,2,6)            -59.9967         estimate D2E/DX2                !
 ! D5    D(4,1,2,7)             61.373          estimate D2E/DX2                !
 ! D6    D(4,1,2,8)            179.9156         estimate D2E/DX2                !
 ! D7    D(5,1,2,6)             59.9922         estimate D2E/DX2                !
 ! D8    D(5,1,2,7)           -178.6381         estimate D2E/DX2                !
 ! D9    D(5,1,2,8)            -60.0955         estimate D2E/DX2                !
 ! D10   D(1,2,6,9)            179.9973         estimate D2E/DX2                !
 ! D11   D(1,2,6,10)           -58.4866         estimate D2E/DX2                !
 ! D12   D(1,2,6,11)            58.4842         estimate D2E/DX2                !
 ! D13   D(7,2,6,9)             58.4834         estimate D2E/DX2                !
 ! D14   D(7,2,6,10)           179.9995         estimate D2E/DX2                !
 ! D15   D(7,2,6,11)           -63.0297         estimate D2E/DX2                !
 ! D16   D(8,2,6,9)            -59.3463         estimate D2E/DX2                !
 ! D17   D(8,2,6,10)            62.1698         estimate D2E/DX2                !
 ! D18   D(8,2,6,11)           179.1406         estimate D2E/DX2                !
 ! D19   D(2,6,9,12)           179.9991         estimate D2E/DX2                !
 ! D20   D(2,6,9,13)           -59.9846         estimate D2E/DX2                !
 ! D21   D(2,6,9,14)            59.9826         estimate D2E/DX2                !
 ! D22   D(10,6,9,12)           58.6285         estimate D2E/DX2                !
 ! D23   D(10,6,9,13)          178.6448         estimate D2E/DX2                !
 ! D24   D(10,6,9,14)          -61.3881         estimate D2E/DX2                !
 ! D25   D(11,6,9,12)          -58.6342         estimate D2E/DX2                !
 ! D26   D(11,6,9,13)           61.3821         estimate D2E/DX2                !
 ! D27   D(11,6,9,14)         -178.6508         estimate D2E/DX2                !
 --------------------------------------------------------------------------------
 Trust Radius=3.00D-01 FncErr=1.00D-07 GrdErr=1.00D-07 EigMax=2.50D+02 EigMin=1.00D-04
 Number of steps in this run=    100 maximum allowed number of steps=    100.
 GradGradGradGradGradGradGradGradGradGradGradGradGradGradGradGradGradGrad

                          Input orientation:                          
 ---------------------------------------------------------------------
 Center     Atomic      Atomic             Coordinates (Angstroms)
 Number     Number       Type             X           Y           Z
 ---------------------------------------------------------------------
      1          6           0       -1.395793    0.506692    0.000000
      2          6           0        0.110925    0.506692    0.000000
      3          1           0       -1.784404    1.553585    0.000000
      4          1           0       -1.790306   -0.015941   -0.904842
      5          1           0       -1.790228   -0.015807    0.904976
      6          6           0        0.668516   -0.901159    0.000178
      7          1           0        0.488119    1.056730   -0.902436
      8          1           0        0.484518    1.037277    0.915492
      9          6           0        2.175250   -0.901131    0.000113
     10          1           0        0.291341   -1.451183    0.902596
     11          1           0        0.291277   -1.451384   -0.902097
     12          1           0        2.564052   -1.947927    0.000262
     13          1           0        2.569561   -0.378505   -0.904843
     14          1           0        2.569641   -0.378214    0.904866
 ---------------------------------------------------------------------
                    Distance matrix (angstroms):
                    1          2          3          4          5
     1  C    0.000000
     2  C    1.506718   0.000000
     3  H    1.116693   2.165238   0.000000
     4  H    1.116926   2.169462   1.811680   0.000000
     5  H    1.116945   2.169417   1.811631   1.809818   0.000000
     6  C    2.498683   1.514250   3.470243   2.765588   2.765489
     7  H    2.160106   1.122144   2.495119   2.518303   3.099668
     8  H    2.157595   1.122149   2.500541   3.098017   2.506704
     9  C    3.838530   2.498680   4.658808   4.162708   4.162642
    10  H    2.737586   2.163447   3.761918   3.108055   2.528486
    11  H    2.737525   2.163416   3.761924   2.528536   3.107902
    12  H    4.658919   3.470301   5.582979   4.848940   4.848850
    13  H    4.162493   2.765358   4.848580   4.374916   4.734422
    14  H    4.162512   2.765344   4.848540   4.734493   4.374905
                    6          7          8          9         10
     6  C    0.000000
     7  H    2.163466   0.000000
     8  H    2.151555   1.818036   0.000000
     9  C    1.506734   2.737558   2.730187   0.000000
    10  H    1.122117   3.096206   2.495980   2.160126   0.000000
    11  H    1.122122   2.515826   3.087783   2.160119   1.804693
    12  H    2.165359   3.761958   3.751473   1.116669   2.495231
    13  H    2.169378   2.528301   3.108933   1.116944   3.099639
    14  H    2.169380   3.107755   2.520211   1.116944   2.518317
                   11         12         13         14
    11  H    0.000000
    12  H    2.495258   0.000000
    13  H    2.518264   1.811720   0.000000
    14  H    3.099637   1.811723   1.809709   0.000000
 Stoichiometry    C4H10
 Framework group  C1[X(C4H10)]
 Deg. of freedom    36
 Full point group                 C1      NOp   1
 Largest Abelian subgroup         C1      NOp   1
 Largest concise Abelian subgroup C1      NOp   1
                         Standard orientation:                         
 ---------------------------------------------------------------------
 Center     Atomic      Atomic             Coordinates (Angstroms)
 Number     Number       Type             X           Y           Z
 ---------------------------------------------------------------------
      1          6           0        1.915468    0.122324   -0.000491
      2          6           0        0.552003   -0.518897   -0.000184
      3          1           0        2.712662   -0.659651   -0.000073
      4          1           0        2.050069    0.762693   -0.905662
      5          1           0        2.050023    0.763474    0.904156
      6          6           0       -0.551719    0.517804   -0.000562
      7          1           0        0.444770   -1.177630   -0.902282
      8          1           0        0.439717   -1.157554    0.915636
      9          6           0       -1.915186   -0.123449   -0.000320
     10          1           0       -0.444497    1.176516    0.901518
     11          1           0       -0.444492    1.175792   -0.903175
     12          1           0       -2.712512    0.658357   -0.000589
     13          1           0       -2.049575   -0.764662   -0.904947
     14          1           0       -2.049556   -0.764024    0.904762
 ---------------------------------------------------------------------
 Rotational constants (GHZ):          22.7871265           3.7567484           3.5220777
 Standard basis: CC-pVTZ (5D, 7F)
 There are   290 symmetry adapted cartesian basis functions of A   symmetry.
 There are   260 symmetry adapted basis functions of A   symmetry.
   260 basis functions,   378 primitive gaussians,   290 cartesian basis functions
    17 alpha electrons       17 beta electrons
       nuclear repulsion energy       131.0328090280 Hartrees.
 NAtoms=   14 NActive=   14 NUniq=   14 SFac= 1.00D+00 NAtFMM=   60 NAOKFM=F Big=F
 Integral buffers will be    131072 words long.
 Raffenetti 2 integral format.
 Two-electron integral symmetry is turned on.
 Nuclear repulsion after empirical dispersion term =      131.0263389239 Hartrees.
 One-electron integrals computed using PRISM.
 NBasis=   260 RedAO= T EigKep=  5.45D-04  NBF=   260
 NBsUse=   260 1.00D-06 EigRej= -1.00D+00 NBFU=   260
 ExpMin= 1.03D-01 ExpMax= 8.24D+03 ExpMxC= 2.81D+02 IAcc=3 IRadAn=         5 AccDes= 0.00D+00
 Harris functional with IExCor=  419 and IRadAn=       5 diagonalized for initial guess.
 HarFok:  IExCor=  419 AccDes= 0.00D+00 IRadAn=         5 IDoV= 1 UseB2=F ITyADJ=14
 ICtDFT=  3500011 ScaDFX=  1.000000  1.000000  1.000000  1.000000
 FoFCou: FMM=F IPFlag=           0 FMFlag=      100000 FMFlg1=           0
         NFxFlg=           0 DoJE=T BraDBF=F KetDBF=T FulRan=T
         wScrn=  0.000000 ICntrl=       500 IOpCl=  0 I1Cent=   200000004 NGrid=           0
         NMat0=    1 NMatS0=      1 NMatT0=    0 NMatD0=    1 NMtDS0=    0 NMtDT0=    0
 Petite list used in FoFCou.
 Initial guess <Sx>= 0.0000 <Sy>= 0.0000 <Sz>= 0.0000 <S**2>=-0.0000 S=-0.0000
 Requested convergence on RMS density matrix=1.00D-08 within 128 cycles.
 Requested convergence on MAX density matrix=1.00D-06.
 Requested convergence on             energy=1.00D-06.
 No special actions if energy rises.
 Integral accuracy reduced to 1.0D-05 until final iterations.
 Initial convergence to 1.0D-05 achieved.  Increase integral accuracy.
 SCF Done:  E(UB2PLYPD3) =  -158.114086638     A.U. after   10 cycles
            NFock= 10  Conv=0.87D-08     -V/T= 2.0065
 <Sx>= 0.0000 <Sy>= 0.0000 <Sz>= 0.0000 <S**2>=-0.0000 S=-0.0000
 <L.S>=  0.00000000000    
 Annihilation of the first spin contaminant:
 S**2 before annihilation    -0.0000,   after    -0.0000
 DoSCS=T DFT=T ScalE2(SS,OS)=  0.270000  0.270000
 ExpMin= 1.03D-01 ExpMax= 8.24D+03 ExpMxC= 2.81D+02 IAcc=3 IRadAn=         5 AccDes= 0.00D+00
 HarFok:  IExCor=  205 AccDes= 0.00D+00 IRadAn=         5 IDoV=-2 UseB2=F ITyADJ=14
 ICtDFT= 12500011 ScaDFX=  1.000000  1.000000  1.000000  1.000000
 Range of M.O.s used for correlation:     5   260
 NBasis=   260 NAE=    17 NBE=    17 NFC=     4 NFV=     0
 NROrb=    256 NOA=    13 NOB=    13 NVA=   243 NVB=   243

 **** Warning!!: The largest alpha MO coefficient is  0.12830264D+02


 **** Warning!!: The largest beta MO coefficient is  0.12830264D+02

 DoSCS=T DFT=T ScalE2(SS,OS)=  0.270000  0.270000
 Fully direct method using O(ONN) memory.
 JobTyp=2 Pass  1:  I=   5 to  17 NPSUse= 40 ParTrn=T ParDer=T DoDerP=T.
 JobTyp=3 Pass  1:  I=   5 to  17 NPSUse= 40 ParTrn=T ParDer=T DoDerP=T.
 Spin components of T(2) and E(2):
     alpha-alpha T2 =       0.3971358840D-01 E2=     -0.2544394836D-01
     alpha-beta  T2 =       0.2603661925D+00 E2=     -0.1835352167D+00
     beta-beta   T2 =       0.3971358840D-01 E2=     -0.2544394836D-01
 (S**2,0)=  0.00000D+00           (S**2,1)=  0.00000D+00
 E(PUHF)=      -0.15811408664D+03        E(PMP2)=      -0.15834850975D+03
 E2(B2PLYPD3) =    -0.2344231135D+00 E(B2PLYPD3) =    -0.15834850975191D+03
          IDoAtm=11111111111111
          Differentiating once with respect to electric field.
                with respect to dipole field.
          Differentiating once with respect to nuclear coordinates.
 Keep R1 and R2 ints in memory in canonical form, NReq=1196157298.
          There are     1 degrees of freedom in the 1st order CPHF.  IDoFFX=0 NUNeed=     1.
 LinEq1:  Iter=  0 NonCon=     1 RMS=4.54D-04 Max=8.08D-03 NDo=     1
 AX will form     1 AO Fock derivatives at one time.
 LinEq1:  Iter=  1 NonCon=     1 RMS=2.02D-04 Max=3.55D-03 NDo=     1
 LinEq1:  Iter=  2 NonCon=     1 RMS=3.87D-05 Max=6.64D-04 NDo=     1
 LinEq1:  Iter=  3 NonCon=     1 RMS=1.20D-05 Max=2.33D-04 NDo=     1
 LinEq1:  Iter=  4 NonCon=     1 RMS=3.27D-06 Max=4.58D-05 NDo=     1
 LinEq1:  Iter=  5 NonCon=     1 RMS=6.83D-07 Max=1.11D-05 NDo=     1
 LinEq1:  Iter=  6 NonCon=     1 RMS=9.47D-08 Max=1.27D-06 NDo=     1
 LinEq1:  Iter=  7 NonCon=     1 RMS=2.26D-08 Max=3.58D-07 NDo=     1
 LinEq1:  Iter=  8 NonCon=     1 RMS=4.61D-09 Max=6.62D-08 NDo=     1
 LinEq1:  Iter=  9 NonCon=     1 RMS=2.18D-09 Max=4.72D-08 NDo=     1
 LinEq1:  Iter= 10 NonCon=     1 RMS=3.43D-10 Max=7.67D-09 NDo=     1
 LinEq1:  Iter= 11 NonCon=     0 RMS=5.31D-11 Max=7.97D-10 NDo=     1
 Linear equations converged to 1.000D-10 1.000D-09 after    11 iterations.
 End of Minotr F.D. properties file   721 does not exist.
 End of Minotr F.D. properties file   722 does not exist.
 End of Minotr F.D. properties file   788 does not exist.

 **********************************************************************

            Population analysis using the SCF Density.

 **********************************************************************

 Orbital symmetries:
 Alpha Orbitals:
       Occupied  (A) (A) (A) (A) (A) (A) (A) (A) (A) (A) (A) (A)
                 (A) (A) (A) (A) (A)
       Virtual   (A) (A) (A) (A) (A) (A) (A) (A) (A) (A) (A) (A)
                 (A) (A) (A) (A) (A) (A) (A) (A) (A) (A) (A) (A)
                 (A) (A) (A) (A) (A) (A) (A) (A) (A) (A) (A) (A)
                 (A) (A) (A) (A) (A) (A) (A) (A) (A) (A) (A) (A)
                 (A) (A) (A) (A) (A) (A) (A) (A) (A) (A) (A) (A)
                 (A) (A) (A) (A) (A) (A) (A) (A) (A) (A) (A) (A)
                 (A) (A) (A) (A) (A) (A) (A) (A) (A) (A) (A) (A)
                 (A) (A) (A) (A) (A) (A) (A) (A) (A) (A) (A) (A)
                 (A) (A) (A) (A) (A) (A) (A) (A) (A) (A) (A) (A)
                 (A) (A) (A) (A) (A) (A) (A) (A) (A) (A) (A) (A)
                 (A) (A) (A) (A) (A) (A) (A) (A) (A) (A) (A) (A)
                 (A) (A) (A) (A) (A) (A) (A) (A) (A) (A) (A) (A)
                 (A) (A) (A) (A) (A) (A) (A) (A) (A) (A) (A) (A)
                 (A) (A) (A) (A) (A) (A) (A) (A) (A) (A) (A) (A)
                 (A) (A) (A) (A) (A) (A) (A) (A) (A) (A) (A) (A)
                 (A) (A) (A) (A) (A) (A) (A) (A) (A) (A) (A) (A)
                 (A) (A) (A) (A) (A) (A) (A) (A) (A) (A) (A) (A)
                 (A) (A) (A) (A) (A) (A) (A) (A) (A) (A) (A) (A)
                 (A) (A) (A) (A) (A) (A) (A) (A) (A) (A) (A) (A)
                 (A) (A) (A) (A) (A) (A) (A) (A) (A) (A) (A) (A)
                 (A) (A) (A)
 Beta  Orbitals:
       Occupied  (A) (A) (A) (A) (A) (A) (A) (A) (A) (A) (A) (A)
                 (A) (A) (A) (A) (A)
       Virtual   (A) (A) (A) (A) (A) (A) (A) (A) (A) (A) (A) (A)
                 (A) (A) (A) (A) (A) (A) (A) (A) (A) (A) (A) (A)
                 (A) (A) (A) (A) (A) (A) (A) (A) (A) (A) (A) (A)
                 (A) (A) (A) (A) (A) (A) (A) (A) (A) (A) (A) (A)
                 (A) (A) (A) (A) (A) (A) (A) (A) (A) (A) (A) (A)
                 (A) (A) (A) (A) (A) (A) (A) (A) (A) (A) (A) (A)
                 (A) (A) (A) (A) (A) (A) (A) (A) (A) (A) (A) (A)
                 (A) (A) (A) (A) (A) (A) (A) (A) (A) (A) (A) (A)
                 (A) (A) (A) (A) (A) (A) (A) (A) (A) (A) (A) (A)
                 (A) (A) (A) (A) (A) (A) (A) (A) (A) (A) (A) (A)
                 (A) (A) (A) (A) (A) (A) (A) (A) (A) (A) (A) (A)
                 (A) (A) (A) (A) (A) (A) (A) (A) (A) (A) (A) (A)
                 (A) (A) (A) (A) (A) (A) (A) (A) (A) (A) (A) (A)
                 (A) (A) (A) (A) (A) (A) (A) (A) (A) (A) (A) (A)
                 (A) (A) (A) (A) (A) (A) (A) (A) (A) (A) (A) (A)
                 (A) (A) (A) (A) (A) (A) (A) (A) (A) (A) (A) (A)
                 (A) (A) (A) (A) (A) (A) (A) (A) (A) (A) (A) (A)
                 (A) (A) (A) (A) (A) (A) (A) (A) (A) (A) (A) (A)
                 (A) (A) (A) (A) (A) (A) (A) (A) (A) (A) (A) (A)
                 (A) (A) (A) (A) (A) (A) (A) (A) (A) (A) (A) (A)
                 (A) (A) (A)
 The electronic state is 1-A.
 Alpha  occ. eigenvalues --  -10.60862 -10.60813 -10.60432 -10.60432  -0.91399
 Alpha  occ. eigenvalues --   -0.82976  -0.71623  -0.65523  -0.54152  -0.49266
 Alpha  occ. eigenvalues --   -0.48428  -0.47375  -0.42587  -0.40440  -0.39181
 Alpha  occ. eigenvalues --   -0.37785  -0.37468
 Alpha virt. eigenvalues --    0.07894   0.09697   0.11234   0.11398   0.14928
 Alpha virt. eigenvalues --    0.15747   0.16716   0.17870   0.18114   0.19249
 Alpha virt. eigenvalues --    0.23433   0.24076   0.27775   0.30006   0.31962
 Alpha virt. eigenvalues --    0.33068   0.34263   0.35889   0.37302   0.42088
 Alpha virt. eigenvalues --    0.46228   0.47000   0.47238   0.47366   0.51430
 Alpha virt. eigenvalues --    0.52568   0.53196   0.53233   0.53486   0.54574
 Alpha virt. eigenvalues --    0.55432   0.56261   0.56580   0.58847   0.59271
 Alpha virt. eigenvalues --    0.65028   0.69995   0.70651   0.76456   0.79989
 Alpha virt. eigenvalues --    0.81744   0.82423   0.84802   0.86691   0.90110
 Alpha virt. eigenvalues --    0.94115   0.95602   0.96185   0.98339   1.04366
 Alpha virt. eigenvalues --    1.05713   1.06036   1.10000   1.12519   1.14240
 Alpha virt. eigenvalues --    1.15053   1.17193   1.19012   1.19438   1.20280
 Alpha virt. eigenvalues --    1.23582   1.24848   1.25244   1.25398   1.27357
 Alpha virt. eigenvalues --    1.28352   1.28714   1.32975   1.34929   1.36580
 Alpha virt. eigenvalues --    1.36655   1.40041   1.42107   1.42240   1.45368
 Alpha virt. eigenvalues --    1.46161   1.48208   1.48950   1.50006   1.54400
 Alpha virt. eigenvalues --    1.57035   1.60089   1.62304   1.63413   1.63758
 Alpha virt. eigenvalues --    1.66965   1.73185   1.74024   1.78543   2.32860
 Alpha virt. eigenvalues --    2.39944   2.40489   2.43437   2.44577   2.46810
 Alpha virt. eigenvalues --    2.49558   2.51775   2.58711   2.60229   2.61783
 Alpha virt. eigenvalues --    2.64192   2.67750   2.70368   2.70518   2.71156
 Alpha virt. eigenvalues --    2.74259   2.78223   2.78471   2.81665   2.81966
 Alpha virt. eigenvalues --    2.86914   2.88272   2.90576   2.92942   2.93027
 Alpha virt. eigenvalues --    2.95791   2.98482   3.01082   3.03601   3.07283
 Alpha virt. eigenvalues --    3.08257   3.13248   3.13920   3.15026   3.17217
 Alpha virt. eigenvalues --    3.19503   3.20432   3.20537   3.21154   3.21954
 Alpha virt. eigenvalues --    3.24310   3.24653   3.28333   3.30663   3.30879
 Alpha virt. eigenvalues --    3.31621   3.35154   3.35256   3.41737   3.42543
 Alpha virt. eigenvalues --    3.44356   3.45167   3.51884   3.52245   3.54560
 Alpha virt. eigenvalues --    3.55897   3.55978   3.58291   3.60257   3.64500
 Alpha virt. eigenvalues --    3.66475   3.67630   3.69575   3.75669   3.77545
 Alpha virt. eigenvalues --    3.78782   3.81988   3.83566   3.87273   3.87607
 Alpha virt. eigenvalues --    3.90304   3.91152   3.92713   3.93291   3.97272
 Alpha virt. eigenvalues --    3.97492   3.98705   4.01669   4.03227   4.04190
 Alpha virt. eigenvalues --    4.06621   4.08383   4.08777   4.13845   4.14182
 Alpha virt. eigenvalues --    4.14281   4.18914   4.20951   4.21851   4.22945
 Alpha virt. eigenvalues --    4.23236   4.23463   4.24111   4.29712   4.31242
 Alpha virt. eigenvalues --    4.34811   4.35803   4.36446   4.39331   4.41596
 Alpha virt. eigenvalues --    4.44863   4.45792   4.50235   4.52031   4.55246
 Alpha virt. eigenvalues --    4.57710   4.68890   4.72945   4.73375   4.76055
 Alpha virt. eigenvalues --    4.80979   4.83947   4.90144   4.93335   4.94050
 Alpha virt. eigenvalues --    4.94778   4.95112   4.95314   5.01153   5.02958
 Alpha virt. eigenvalues --    5.04379   5.06579   5.11738   5.18449   5.19831
 Alpha virt. eigenvalues --    5.23151   5.29779   5.34732   5.38452   5.39012
 Alpha virt. eigenvalues --    5.40087   5.42684   5.43204   5.45345   5.50194
 Alpha virt. eigenvalues --    5.51314   5.57072   5.59105   5.62306   5.63370
 Alpha virt. eigenvalues --    5.65369   5.75447   5.78377   5.99535   6.04273
 Alpha virt. eigenvalues --    6.04392   6.04547   6.07448   6.15374  12.16640
 Alpha virt. eigenvalues --   12.85707  13.44208  13.46919
  Beta  occ. eigenvalues --  -10.60862 -10.60813 -10.60432 -10.60432  -0.91399
  Beta  occ. eigenvalues --   -0.82976  -0.71623  -0.65523  -0.54152  -0.49266
  Beta  occ. eigenvalues --   -0.48428  -0.47375  -0.42587  -0.40440  -0.39181
  Beta  occ. eigenvalues --   -0.37785  -0.37468
  Beta virt. eigenvalues --    0.07894   0.09697   0.11234   0.11398   0.14928
  Beta virt. eigenvalues --    0.15747   0.16716   0.17870   0.18114   0.19249
  Beta virt. eigenvalues --    0.23433   0.24076   0.27775   0.30006   0.31962
  Beta virt. eigenvalues --    0.33068   0.34263   0.35889   0.37302   0.42088
  Beta virt. eigenvalues --    0.46228   0.47000   0.47238   0.47366   0.51430
  Beta virt. eigenvalues --    0.52568   0.53196   0.53233   0.53486   0.54574
  Beta virt. eigenvalues --    0.55432   0.56261   0.56580   0.58847   0.59271
  Beta virt. eigenvalues --    0.65028   0.69995   0.70651   0.76456   0.79989
  Beta virt. eigenvalues --    0.81744   0.82423   0.84802   0.86691   0.90110
  Beta virt. eigenvalues --    0.94115   0.95602   0.96185   0.98339   1.04366
  Beta virt. eigenvalues --    1.05713   1.06036   1.10000   1.12519   1.14240
  Beta virt. eigenvalues --    1.15053   1.17193   1.19012   1.19438   1.20280
  Beta virt. eigenvalues --    1.23582   1.24848   1.25244   1.25398   1.27357
  Beta virt. eigenvalues --    1.28352   1.28714   1.32975   1.34929   1.36580
  Beta virt. eigenvalues --    1.36655   1.40041   1.42107   1.42240   1.45368
  Beta virt. eigenvalues --    1.46161   1.48208   1.48950   1.50006   1.54400
  Beta virt. eigenvalues --    1.57035   1.60089   1.62304   1.63413   1.63758
  Beta virt. eigenvalues --    1.66965   1.73185   1.74024   1.78543   2.32860
  Beta virt. eigenvalues --    2.39944   2.40489   2.43437   2.44577   2.46810
  Beta virt. eigenvalues --    2.49558   2.51775   2.58711   2.60229   2.61783
  Beta virt. eigenvalues --    2.64192   2.67750   2.70368   2.70518   2.71156
  Beta virt. eigenvalues --    2.74259   2.78223   2.78471   2.81665   2.81966
  Beta virt. eigenvalues --    2.86914   2.88272   2.90576   2.92942   2.93027
  Beta virt. eigenvalues --    2.95791   2.98482   3.01082   3.03601   3.07283
  Beta virt. eigenvalues --    3.08257   3.13248   3.13920   3.15026   3.17217
  Beta virt. eigenvalues --    3.19503   3.20432   3.20537   3.21154   3.21954
  Beta virt. eigenvalues --    3.24310   3.24653   3.28333   3.30663   3.30879
  Beta virt. eigenvalues --    3.31621   3.35154   3.35256   3.41737   3.42543
  Beta virt. eigenvalues --    3.44356   3.45167   3.51884   3.52245   3.54560
  Beta virt. eigenvalues --    3.55897   3.55978   3.58291   3.60257   3.64500
  Beta virt. eigenvalues --    3.66475   3.67630   3.69575   3.75669   3.77545
  Beta virt. eigenvalues --    3.78782   3.81988   3.83566   3.87273   3.87607
  Beta virt. eigenvalues --    3.90304   3.91152   3.92713   3.93291   3.97272
  Beta virt. eigenvalues --    3.97492   3.98705   4.01669   4.03227   4.04190
  Beta virt. eigenvalues --    4.06621   4.08383   4.08777   4.13845   4.14182
  Beta virt. eigenvalues --    4.14281   4.18914   4.20951   4.21851   4.22945
  Beta virt. eigenvalues --    4.23236   4.23463   4.24111   4.29712   4.31242
  Beta virt. eigenvalues --    4.34811   4.35803   4.36446   4.39331   4.41596
  Beta virt. eigenvalues --    4.44863   4.45792   4.50235   4.52031   4.55246
  Beta virt. eigenvalues --    4.57710   4.68890   4.72945   4.73375   4.76055
  Beta virt. eigenvalues --    4.80979   4.83947   4.90144   4.93335   4.94050
  Beta virt. eigenvalues --    4.94778   4.95112   4.95314   5.01153   5.02958
  Beta virt. eigenvalues --    5.04379   5.06579   5.11738   5.18449   5.19831
  Beta virt. eigenvalues --    5.23151   5.29779   5.34732   5.38452   5.39012
  Beta virt. eigenvalues --    5.40087   5.42684   5.43204   5.45345   5.50194
  Beta virt. eigenvalues --    5.51314   5.57072   5.59105   5.62306   5.63370
  Beta virt. eigenvalues --    5.65369   5.75447   5.78377   5.99535   6.04273
  Beta virt. eigenvalues --    6.04392   6.04547   6.07448   6.15374  12.16640
  Beta virt. eigenvalues --   12.85707  13.44208  13.46919
          Condensed to atoms (all electrons):
               1          2          3          4          5          6
     1  C    4.841542   0.349064   0.410196   0.407393   0.407498  -0.055953
     2  C    0.349064   4.855177  -0.038827  -0.039483  -0.039261   0.356736
     3  H    0.410196  -0.038827   0.599235  -0.029827  -0.029756   0.008514
     4  H    0.407393  -0.039483  -0.029827   0.610455  -0.032294  -0.005506
     5  H    0.407498  -0.039261  -0.029756  -0.032294   0.610225  -0.005324
     6  C   -0.055953   0.356736   0.008514  -0.005506  -0.005324   4.858024
     7  H   -0.037326   0.410709  -0.005430  -0.005619   0.007936  -0.038995
     8  H   -0.037355   0.410338  -0.005360   0.008027  -0.005927  -0.040160
     9  C    0.006999  -0.056362  -0.000493   0.000061   0.000064   0.349336
    10  H   -0.004226  -0.038502  -0.000097  -0.000278   0.003646   0.410302
    11  H   -0.004255  -0.039023  -0.000100   0.003734  -0.000289   0.409869
    12  H   -0.000491   0.008479   0.000026  -0.000002  -0.000001  -0.038649
    13  H    0.000060  -0.005343  -0.000002   0.000020  -0.000018  -0.039436
    14  H    0.000062  -0.005331  -0.000002  -0.000017   0.000019  -0.039525
               7          8          9         10         11         12
     1  C   -0.037326  -0.037355   0.006999  -0.004226  -0.004255  -0.000491
     2  C    0.410709   0.410338  -0.056362  -0.038502  -0.039023   0.008479
     3  H   -0.005430  -0.005360  -0.000493  -0.000097  -0.000100   0.000026
     4  H   -0.005619   0.008027   0.000061  -0.000278   0.003734  -0.000002
     5  H    0.007936  -0.005927   0.000064   0.003646  -0.000289  -0.000001
     6  C   -0.038995  -0.040160   0.349336   0.410302   0.409869  -0.038649
     7  H    0.624689  -0.034220  -0.004190   0.008106  -0.006081  -0.000091
     8  H   -0.034220   0.627395  -0.004282  -0.006462   0.008314  -0.000101
     9  C   -0.004190  -0.004282   4.841061  -0.037067  -0.037115   0.410032
    10  H    0.008106  -0.006462  -0.037067   0.626911  -0.035868  -0.005353
    11  H   -0.006081   0.008314  -0.037115  -0.035868   0.627770  -0.005381
    12  H   -0.000091  -0.000101   0.410032  -0.005353  -0.005381   0.599198
    13  H    0.003645  -0.000284   0.407521   0.007987  -0.005872  -0.029749
    14  H   -0.000273   0.003711   0.407521  -0.005871   0.008006  -0.029780
              13         14
     1  C    0.000060   0.000062
     2  C   -0.005343  -0.005331
     3  H   -0.000002  -0.000002
     4  H    0.000020  -0.000017
     5  H   -0.000018   0.000019
     6  C   -0.039436  -0.039525
     7  H    0.003645  -0.000273
     8  H   -0.000284   0.003711
     9  C    0.407521   0.407521
    10  H    0.007987  -0.005871
    11  H   -0.005872   0.008006
    12  H   -0.029749  -0.029780
    13  H    0.610452  -0.032402
    14  H   -0.032402   0.610563
          Atomic-Atomic Spin Densities.
               1          2          3          4          5          6
     1  C    0.000000  -0.000000   0.000000   0.000000  -0.000000   0.000000
     2  C   -0.000000   0.000000  -0.000000  -0.000000  -0.000000  -0.000000
     3  H    0.000000  -0.000000  -0.000000  -0.000000  -0.000000   0.000000
     4  H    0.000000  -0.000000  -0.000000  -0.000000   0.000000  -0.000000
     5  H   -0.000000  -0.000000  -0.000000   0.000000  -0.000000   0.000000
     6  C    0.000000  -0.000000   0.000000  -0.000000   0.000000   0.000000
     7  H   -0.000000   0.000000   0.000000   0.000000  -0.000000  -0.000000
     8  H   -0.000000  -0.000000   0.000000   0.000000   0.000000  -0.000000
     9  C   -0.000000   0.000000   0.000000  -0.000000  -0.000000  -0.000000
    10  H    0.000000  -0.000000   0.000000   0.000000  -0.000000   0.000000
    11  H    0.000000  -0.000000  -0.000000  -0.000000   0.000000  -0.000000
    12  H   -0.000000   0.000000  -0.000000  -0.000000   0.000000  -0.000000
    13  H   -0.000000   0.000000   0.000000  -0.000000  -0.000000  -0.000000
    14  H    0.000000   0.000000   0.000000   0.000000   0.000000  -0.000000
               7          8          9         10         11         12
     1  C   -0.000000  -0.000000  -0.000000   0.000000   0.000000  -0.000000
     2  C    0.000000  -0.000000   0.000000  -0.000000  -0.000000   0.000000
     3  H    0.000000   0.000000   0.000000   0.000000  -0.000000  -0.000000
     4  H    0.000000   0.000000  -0.000000   0.000000  -0.000000  -0.000000
     5  H   -0.000000   0.000000  -0.000000  -0.000000   0.000000   0.000000
     6  C   -0.000000  -0.000000  -0.000000   0.000000  -0.000000  -0.000000
     7  H    0.000000  -0.000000   0.000000  -0.000000   0.000000  -0.000000
     8  H   -0.000000   0.000000   0.000000  -0.000000   0.000000  -0.000000
     9  C    0.000000   0.000000   0.000000   0.000000  -0.000000   0.000000
    10  H   -0.000000  -0.000000   0.000000   0.000000  -0.000000   0.000000
    11  H    0.000000   0.000000  -0.000000  -0.000000   0.000000   0.000000
    12  H   -0.000000  -0.000000   0.000000   0.000000   0.000000  -0.000000
    13  H    0.000000   0.000000   0.000000   0.000000   0.000000  -0.000000
    14  H    0.000000   0.000000  -0.000000   0.000000  -0.000000   0.000000
              13         14
     1  C   -0.000000   0.000000
     2  C    0.000000   0.000000
     3  H    0.000000   0.000000
     4  H   -0.000000   0.000000
     5  H   -0.000000   0.000000
     6  C   -0.000000  -0.000000
     7  H    0.000000   0.000000
     8  H    0.000000   0.000000
     9  C    0.000000  -0.000000
    10  H    0.000000   0.000000
    11  H    0.000000  -0.000000
    12  H   -0.000000   0.000000
    13  H   -0.000000   0.000000
    14  H    0.000000  -0.000000
 Mulliken charges and spin densities:
               1          2
     1  C   -0.283210   0.000000
     2  C   -0.128372  -0.000000
     3  H    0.091921  -0.000000
     4  H    0.083335  -0.000000
     5  H    0.083482  -0.000000
     6  C   -0.129234  -0.000000
     7  H    0.077138   0.000000
     8  H    0.076365  -0.000000
     9  C   -0.283088   0.000000
    10  H    0.076772   0.000000
    11  H    0.076291  -0.000000
    12  H    0.091862  -0.000000
    13  H    0.083419  -0.000000
    14  H    0.083319  -0.000000
 Sum of Mulliken charges =  -0.00000   0.00000
 Mulliken charges and spin densities with hydrogens summed into heavy atoms:
               1          2
     1  C   -0.024472   0.000000
     2  C    0.025130  -0.000000
     6  C    0.023829  -0.000000
     9  C   -0.024487   0.000000
 Electronic spatial extent (au):  <R**2>=            417.2989
 Charge=             -0.0000 electrons
 Dipole moment (field-independent basis, Debye):
    X=              0.0008    Y=              0.0033    Z=              0.0017  Tot=              0.0038
 Quadrupole moment (field-independent basis, Debye-Ang):
   XX=            -30.2265   YY=            -29.0863   ZZ=            -28.1688
   XY=             -0.4229   XZ=             -0.0040   YZ=              0.0188
 Traceless Quadrupole moment (field-independent basis, Debye-Ang):
   XX=             -1.0659   YY=              0.0742   ZZ=              0.9917
   XY=             -0.4229   XZ=             -0.0040   YZ=              0.0188
 Octapole moment (field-independent basis, Debye-Ang**2):
  XXX=             -0.0091  YYY=              0.0634  ZZZ=              0.0172  XYY=             -0.0130
  XXY=              0.0049  XXZ=              0.0008  XZZ=              0.0146  YZZ=             -0.0288
  YYZ=             -0.0249  XYZ=              0.0095
 Hexadecapole moment (field-independent basis, Debye-Ang**3):
 XXXX=           -456.9287 YYYY=            -95.5593 ZZZZ=            -61.4420 XXXY=             -7.8519
 XXXZ=              0.0175 YYYX=             -1.6461 YYYZ=              0.0905 ZZZX=              0.0000
 ZZZY=              0.0146 XXYY=            -87.4727 XXZZ=            -84.6122 YYZZ=            -23.6300
 XXYZ=              0.0184 YYXZ=             -0.0208 ZZXY=              1.8509
 N-N= 1.310263389239D+02 E-N=-6.276053325657D+02  KE= 1.570905193714D+02
                          Isotropic Fermi Contact Couplings
        Atom                 a.u.       MegaHertz       Gauss      10(-4) cm-1
     1  C(13)             -0.00000      -0.00000      -0.00000      -0.00000
     2  C(13)              0.00000       0.00000       0.00000       0.00000
     3  H(1)               0.00000       0.00000       0.00000       0.00000
     4  H(1)               0.00000       0.00000       0.00000       0.00000
     5  H(1)              -0.00000      -0.00000      -0.00000      -0.00000
     6  C(13)             -0.00000      -0.00000      -0.00000      -0.00000
     7  H(1)               0.00000       0.00000       0.00000       0.00000
     8  H(1)               0.00000       0.00000       0.00000       0.00000
     9  C(13)              0.00000       0.00000       0.00000       0.00000
    10  H(1)               0.00000       0.00000       0.00000       0.00000
    11  H(1)               0.00000       0.00000       0.00000       0.00000
    12  H(1)              -0.00000      -0.00000      -0.00000      -0.00000
    13  H(1)              -0.00000      -0.00000      -0.00000      -0.00000
    14  H(1)              -0.00000      -0.00000      -0.00000      -0.00000
 --------------------------------------------------------
       Center         ----  Spin Dipole Couplings  ----
                      3XX-RR        3YY-RR        3ZZ-RR
 --------------------------------------------------------
     1   Atom        0.000000      0.000000      0.000000
     2   Atom        0.000000      0.000000      0.000000
     3   Atom        0.000000      0.000000      0.000000
     4   Atom        0.000000      0.000000      0.000000
     5   Atom        0.000000      0.000000      0.000000
     6   Atom        0.000000      0.000000      0.000000
     7   Atom        0.000000      0.000000      0.000000
     8   Atom        0.000000      0.000000      0.000000
     9   Atom        0.000000      0.000000      0.000000
    10   Atom        0.000000      0.000000      0.000000
    11   Atom        0.000000      0.000000      0.000000
    12   Atom        0.000000      0.000000      0.000000
    13   Atom        0.000000      0.000000      0.000000
    14   Atom        0.000000      0.000000      0.000000
 --------------------------------------------------------
                        XY            XZ            YZ
 --------------------------------------------------------
     1   Atom        0.000000      0.000000      0.000000
     2   Atom        0.000000      0.000000      0.000000
     3   Atom        0.000000      0.000000      0.000000
     4   Atom        0.000000      0.000000      0.000000
     5   Atom        0.000000      0.000000      0.000000
     6   Atom        0.000000      0.000000      0.000000
     7   Atom        0.000000      0.000000      0.000000
     8   Atom        0.000000      0.000000      0.000000
     9   Atom        0.000000      0.000000      0.000000
    10   Atom        0.000000      0.000000      0.000000
    11   Atom        0.000000      0.000000      0.000000
    12   Atom        0.000000      0.000000      0.000000
    13   Atom        0.000000      0.000000      0.000000
    14   Atom        0.000000      0.000000      0.000000
 --------------------------------------------------------


 ---------------------------------------------------------------------------------
              Anisotropic Spin Dipole Couplings in Principal Axis System
 ---------------------------------------------------------------------------------

       Atom             a.u.   MegaHertz   Gauss  10(-4) cm-1        Axes

              Baa     0.0000     0.000     0.000     0.000  1.0000  0.0000  0.0000
     1 C(13)  Bbb     0.0000     0.000     0.000     0.000 -0.0000  1.0000  0.0000
              Bcc     0.0000     0.000     0.000     0.000  0.0000  0.0000  1.0000
 
              Baa     0.0000     0.000     0.000     0.000  1.0000  0.0000  0.0000
     2 C(13)  Bbb     0.0000     0.000     0.000     0.000 -0.0000  1.0000  0.0000
              Bcc     0.0000     0.000     0.000     0.000  0.0000  0.0000  1.0000
 
              Baa     0.0000     0.000     0.000     0.000  1.0000  0.0000  0.0000
     3 H(1)   Bbb     0.0000     0.000     0.000     0.000 -0.0000  1.0000  0.0000
              Bcc     0.0000     0.000     0.000     0.000  0.0000  0.0000  1.0000
 
              Baa     0.0000     0.000     0.000     0.000  1.0000  0.0000  0.0000
     4 H(1)   Bbb     0.0000     0.000     0.000     0.000 -0.0000  1.0000  0.0000
              Bcc     0.0000     0.000     0.000     0.000  0.0000  0.0000  1.0000
 
              Baa     0.0000     0.000     0.000     0.000  1.0000  0.0000  0.0000
     5 H(1)   Bbb     0.0000     0.000     0.000     0.000 -0.0000  1.0000  0.0000
              Bcc     0.0000     0.000     0.000     0.000  0.0000  0.0000  1.0000
 
              Baa     0.0000     0.000     0.000     0.000  1.0000  0.0000  0.0000
     6 C(13)  Bbb     0.0000     0.000     0.000     0.000 -0.0000  1.0000  0.0000
              Bcc     0.0000     0.000     0.000     0.000  0.0000  0.0000  1.0000
 
              Baa     0.0000     0.000     0.000     0.000  1.0000  0.0000  0.0000
     7 H(1)   Bbb     0.0000     0.000     0.000     0.000 -0.0000  1.0000  0.0000
              Bcc     0.0000     0.000     0.000     0.000  0.0000  0.0000  1.0000
 
              Baa     0.0000     0.000     0.000     0.000  1.0000  0.0000  0.0000
     8 H(1)   Bbb     0.0000     0.000     0.000     0.000 -0.0000  1.0000  0.0000
              Bcc     0.0000     0.000     0.000     0.000  0.0000  0.0000  1.0000
 
              Baa     0.0000     0.000     0.000     0.000  1.0000  0.0000  0.0000
     9 C(13)  Bbb     0.0000     0.000     0.000     0.000 -0.0000  1.0000  0.0000
              Bcc     0.0000     0.000     0.000     0.000  0.0000  0.0000  1.0000
 
              Baa     0.0000     0.000     0.000     0.000  1.0000  0.0000  0.0000
    10 H(1)   Bbb     0.0000     0.000     0.000     0.000 -0.0000  1.0000  0.0000
              Bcc     0.0000     0.000     0.000     0.000  0.0000  0.0000  1.0000
 
              Baa     0.0000     0.000     0.000     0.000  1.0000  0.0000  0.0000
    11 H(1)   Bbb     0.0000     0.000     0.000     0.000 -0.0000  1.0000  0.0000
              Bcc     0.0000     0.000     0.000     0.000  0.0000  0.0000  1.0000
 
              Baa     0.0000     0.000     0.000     0.000  1.0000  0.0000  0.0000
    12 H(1)   Bbb     0.0000     0.000     0.000     0.000 -0.0000  1.0000  0.0000
              Bcc     0.0000     0.000     0.000     0.000  0.0000  0.0000  1.0000
 
              Baa     0.0000     0.000     0.000     0.000  1.0000  0.0000  0.0000
    13 H(1)   Bbb     0.0000     0.000     0.000     0.000 -0.0000  1.0000  0.0000
              Bcc     0.0000     0.000     0.000     0.000  0.0000  0.0000  1.0000
 
              Baa     0.0000     0.000     0.000     0.000  1.0000  0.0000  0.0000
    14 H(1)   Bbb     0.0000     0.000     0.000     0.000 -0.0000  1.0000  0.0000
              Bcc     0.0000     0.000     0.000     0.000  0.0000  0.0000  1.0000
 

 ---------------------------------------------------------------------------------

 Calling FoFJK, ICntrl=  10002127 FMM=F ISym2X=0 I1Cent= 0 IOpClX= 1 NMat=1 NMatS=1 NMatT=0.
 ***** Axes restored to original set *****
 -------------------------------------------------------------------
 Center     Atomic                   Forces (Hartrees/Bohr)
 Number     Number              X              Y              Z
 -------------------------------------------------------------------
      1        6          -0.021539297    0.005671372   -0.000147017
      2        6           0.009771393    0.012072273    0.001580851
      3        1           0.002164989   -0.016567029    0.000010183
      4        1           0.004016807    0.007865320    0.013643243
      5        1           0.004064556    0.007833401   -0.013727603
      6        6          -0.010419247   -0.014602320   -0.000909316
      7        1          -0.004025763   -0.007132331    0.015743446
      8        1          -0.004137796   -0.005600732   -0.016151414
      9        6           0.021392909   -0.005692452   -0.000008865
     10        1           0.004419242    0.007759194   -0.014751329
     11        1           0.004535717    0.007524175    0.014690855
     12        1          -0.002172326    0.016572429    0.000007335
     13        1          -0.004040432   -0.007858472    0.013695453
     14        1          -0.004030753   -0.007844830   -0.013675823
 -------------------------------------------------------------------
 Cartesian Forces:  Max     0.021539297 RMS     0.010219733

 GradGradGradGradGradGradGradGradGradGradGradGradGradGradGradGradGradGrad
 Berny optimization.
 FormGI is forming the generalized inverse of G from B-inverse, IUseBI=4.
 Internal  Forces:  Max     0.017510139 RMS     0.007188311
 Search for a local minimum.
 Step number   1 out of a maximum of  100
 All quantities printed in internal units (Hartrees-Bohrs-Radians)
 Mixed Optimization -- RFO/linear search
 Second derivative matrix not updated -- first step.
 ITU=  0
     Eigenvalues ---    0.00577   0.00677   0.00677   0.03850   0.03895
     Eigenvalues ---    0.05058   0.05094   0.05795   0.05796   0.05820
     Eigenvalues ---    0.05821   0.08239   0.08282   0.12101   0.12133
     Eigenvalues ---    0.16000   0.16000   0.16000   0.16000   0.16000
     Eigenvalues ---    0.16000   0.21903   0.21951   0.30927   0.31347
     Eigenvalues ---    0.31347   0.31350   0.31350   0.31681   0.31683
     Eigenvalues ---    0.31876   0.31876   0.31876   0.31878   0.31902
     Eigenvalues ---    0.31904
 RFO step:  Lambda=-1.09674324D-02 EMin= 5.77451142D-03
 Linear search not attempted -- first point.
 Iteration  1 RMS(Cart)=  0.03894480 RMS(Int)=  0.00032198
 Iteration  2 RMS(Cart)=  0.00039393 RMS(Int)=  0.00010850
 Iteration  3 RMS(Cart)=  0.00000009 RMS(Int)=  0.00010850
 Variable       Old X    -DE/DX   Delta X   Delta X   Delta X     New X
                                 (Linear)    (Quad)   (Total)
    R1        2.84728   0.01129   0.00000   0.03445   0.03445   2.88173
    R2        2.11024  -0.01628   0.00000  -0.04935  -0.04935   2.06089
    R3        2.11069  -0.01615   0.00000  -0.04898  -0.04898   2.06170
    R4        2.11072  -0.01622   0.00000  -0.04920  -0.04920   2.06152
    R5        2.86152   0.00742   0.00000   0.02316   0.02316   2.88468
    R6        2.12055  -0.01751   0.00000  -0.05397  -0.05397   2.06658
    R7        2.12055  -0.01720   0.00000  -0.05302  -0.05302   2.06753
    R8        2.84731   0.01115   0.00000   0.03401   0.03401   2.88133
    R9        2.12049  -0.01715   0.00000  -0.05286  -0.05286   2.06763
   R10        2.12050  -0.01703   0.00000  -0.05248  -0.05248   2.06803
   R11        2.11020  -0.01629   0.00000  -0.04937  -0.04937   2.06083
   R12        2.11072  -0.01620   0.00000  -0.04913  -0.04913   2.06159
   R13        2.11072  -0.01617   0.00000  -0.04905  -0.04905   2.06167
    A1        1.92623   0.00483   0.00000   0.03006   0.02989   1.95612
    A2        1.93180   0.00131   0.00000   0.00677   0.00669   1.93849
    A3        1.93172   0.00128   0.00000   0.00657   0.00648   1.93820
    A4        1.89205  -0.00294   0.00000  -0.01551  -0.01568   1.87637
    A5        1.89195  -0.00292   0.00000  -0.01530  -0.01547   1.87648
    A6        1.88889  -0.00186   0.00000  -0.01432  -0.01431   1.87458
    A7        1.94790   0.00612   0.00000   0.03451   0.03425   1.98215
    A8        1.91361  -0.00101   0.00000  -0.00052  -0.00052   1.91309
    A9        1.91020  -0.00130   0.00000   0.00150   0.00117   1.91137
   A10        1.90927  -0.00215   0.00000  -0.00998  -0.01011   1.89915
   A11        1.89327  -0.00099   0.00000   0.00310   0.00275   1.89602
   A12        1.88854  -0.00086   0.00000  -0.03061  -0.03067   1.85788
   A13        1.94788   0.00677   0.00000   0.03484   0.03472   1.98260
   A14        1.90927  -0.00232   0.00000  -0.01029  -0.01048   1.89879
   A15        1.90922  -0.00207   0.00000  -0.00771  -0.00792   1.90130
   A16        1.91365  -0.00134   0.00000  -0.00060  -0.00060   1.91304
   A17        1.91363  -0.00148   0.00000  -0.00094  -0.00099   1.91264
   A18        1.86847   0.00014   0.00000  -0.01756  -0.01768   1.85079
   A19        1.92641   0.00483   0.00000   0.03003   0.02985   1.95626
   A20        1.93165   0.00130   0.00000   0.00670   0.00662   1.93826
   A21        1.93165   0.00130   0.00000   0.00670   0.00661   1.93826
   A22        1.89212  -0.00293   0.00000  -0.01539  -0.01555   1.87656
   A23        1.89212  -0.00293   0.00000  -0.01544  -0.01561   1.87651
   A24        1.88870  -0.00186   0.00000  -0.01434  -0.01433   1.87437
    D1        3.14147   0.00037   0.00000   0.00477   0.00478  -3.13694
    D2       -1.02342   0.00101   0.00000   0.01459   0.01463  -1.00879
    D3        1.04554  -0.00142   0.00000  -0.02210  -0.02215   1.02339
    D4       -1.04714   0.00069   0.00000   0.00932   0.00938  -1.03776
    D5        1.07116   0.00132   0.00000   0.01914   0.01923   1.09039
    D6        3.14012  -0.00111   0.00000  -0.01755  -0.01755   3.12257
    D7        1.04706   0.00005   0.00000   0.00010   0.00006   1.04712
    D8       -3.11782   0.00069   0.00000   0.00991   0.00991  -3.10791
    D9       -1.04886  -0.00174   0.00000  -0.02677  -0.02687  -1.07574
   D10        3.14155  -0.00007   0.00000  -0.00210  -0.00217   3.13938
   D11       -1.02078   0.00110   0.00000   0.01298   0.01283  -1.00795
   D12        1.02074  -0.00125   0.00000  -0.01851  -0.01854   1.00220
   D13        1.02073  -0.00135   0.00000  -0.01729  -0.01723   1.00350
   D14        3.14158  -0.00017   0.00000  -0.00220  -0.00223   3.13936
   D15       -1.10008  -0.00252   0.00000  -0.03370  -0.03360  -1.13368
   D16       -1.03579   0.00146   0.00000   0.02331   0.02337  -1.01242
   D17        1.08507   0.00264   0.00000   0.03840   0.03837   1.12344
   D18        3.12659   0.00029   0.00000   0.00690   0.00700   3.13359
   D19        3.14158  -0.00008   0.00000  -0.00124  -0.00124   3.14034
   D20       -1.04693   0.00024   0.00000   0.00340   0.00345  -1.04348
   D21        1.04689  -0.00039   0.00000  -0.00582  -0.00586   1.04103
   D22        1.02326  -0.00071   0.00000  -0.01083  -0.01088   1.01238
   D23        3.11794  -0.00039   0.00000  -0.00619  -0.00619   3.11175
   D24       -1.07142  -0.00102   0.00000  -0.01540  -0.01550  -1.08693
   D25       -1.02336   0.00077   0.00000   0.01136   0.01141  -1.01195
   D26        1.07132   0.00109   0.00000   0.01601   0.01610   1.08742
   D27       -3.11804   0.00046   0.00000   0.00679   0.00679  -3.11125
         Item               Value     Threshold  Converged?
 Maximum Force            0.017510     0.000450     NO 
 RMS     Force            0.007188     0.000300     NO 
 Maximum Displacement     0.080341     0.001800     NO 
 RMS     Displacement     0.038805     0.001200     NO 
 Predicted change in Energy=-5.722527D-03
 GradGradGradGradGradGradGradGradGradGradGradGradGradGradGradGradGradGrad

                          Input orientation:                          
 ---------------------------------------------------------------------
 Center     Atomic      Atomic             Coordinates (Angstroms)
 Number     Number       Type             X           Y           Z
 ---------------------------------------------------------------------
      1          6           0       -1.430784    0.526465    0.000398
      2          6           0        0.094020    0.505748    0.003169
      3          1           0       -1.826919    1.542552   -0.001873
      4          1           0       -1.828319    0.017239   -0.878777
      5          1           0       -1.831150    0.019969    0.879746
      6          6           0        0.685337   -0.901576   -0.000118
      7          1           0        0.470070    1.048324   -0.868683
      8          1           0        0.465152    1.038824    0.883580
      9          6           0        2.209920   -0.922966   -0.000444
     10          1           0        0.310686   -1.443351    0.873533
     11          1           0        0.310680   -1.442164   -0.874762
     12          1           0        2.605738   -1.939142   -0.001542
     13          1           0        2.608834   -0.414198   -0.879184
     14          1           0        2.609197   -0.415996    0.879222
 ---------------------------------------------------------------------
                    Distance matrix (angstroms):
                    1          2          3          4          5
     1  C    0.000000
     2  C    1.524948   0.000000
     3  H    1.090578   2.182887   0.000000
     4  H    1.091006   2.170682   1.759416   0.000000
     5  H    1.090909   2.170403   1.759411   1.758527   0.000000
     6  C    2.552894   1.526508   3.505024   2.816865   2.820658
     7  H    2.154272   1.093584   2.504352   2.519093   3.067593
     8  H    2.153393   1.094090   2.508258   3.067499   2.512187
     9  C    3.918619   2.553090   4.730206   4.238257   4.241946
    10  H    2.770426   2.145569   3.775090   3.127180   2.593994
    11  H    2.770217   2.147573   3.773565   2.589438   3.131065
    12  H    4.729982   3.505172   5.636545   4.925223   4.929580
    13  H    4.239932   2.819421   4.926910   4.458078   4.795393
    14  H    4.240521   2.818368   4.928627   4.792682   4.461698
                    6          7          8          9         10
     6  C    0.000000
     7  H    2.145426   0.000000
     8  H    2.143492   1.752296   0.000000
     9  C    1.524733   2.768916   2.770259   0.000000
    10  H    1.094144   3.044530   2.486997   2.154466   0.000000
    11  H    1.094352   2.495591   3.044821   2.154324   1.748296
    12  H    2.182770   3.773322   3.772775   1.090545   2.505759
    13  H    2.170285   2.591021   3.132728   1.090945   3.068005
    14  H    2.170315   3.126542   2.591033   1.090987   2.517666
                   11         12         13         14
    11  H    0.000000
    12  H    2.505353   0.000000
    13  H    2.517588   1.759466   0.000000
    14  H    3.068007   1.759469   1.758407   0.000000
 Stoichiometry    C4H10
 Framework group  C1[X(C4H10)]
 Deg. of freedom    36
 Full point group                 C1      NOp   1
 Largest Abelian subgroup         C1      NOp   1
 Largest concise Abelian subgroup C1      NOp   1
                         Standard orientation:                         
 ---------------------------------------------------------------------
 Center     Atomic      Atomic             Coordinates (Angstroms)
 Number     Number       Type             X           Y           Z
 ---------------------------------------------------------------------
      1          6           0        1.955717    0.118669   -0.000909
      2          6           0        0.567014   -0.511384    0.000531
      3          1           0        2.746541   -0.632287   -0.005772
      4          1           0        2.098437    0.751299   -0.878237
      5          1           0        2.102884    0.744725    0.880272
      6          6           0       -0.566913    0.510593    0.000795
      7          1           0        0.457207   -1.159767   -0.873237
      8          1           0        0.458336   -1.154367    0.879050
      9          6           0       -1.955703   -0.118748   -0.000860
     10          1           0       -0.458031    1.157650    0.876358
     11          1           0       -0.458238    1.161856   -0.871933
     12          1           0       -2.746280    0.632434    0.000634
     13          1           0       -2.100589   -0.746243   -0.881439
     14          1           0       -2.100960   -0.750078    0.876963
 ---------------------------------------------------------------------
 Rotational constants (GHZ):          23.7528175           3.6213051           3.4049262
 Standard basis: CC-pVTZ (5D, 7F)
 There are   290 symmetry adapted cartesian basis functions of A   symmetry.
 There are   260 symmetry adapted basis functions of A   symmetry.
   260 basis functions,   378 primitive gaussians,   290 cartesian basis functions
    17 alpha electrons       17 beta electrons
       nuclear repulsion energy       130.7338448982 Hartrees.
 NAtoms=   14 NActive=   14 NUniq=   14 SFac= 1.00D+00 NAtFMM=   60 NAOKFM=F Big=F
 Integral buffers will be    131072 words long.
 Raffenetti 2 integral format.
 Two-electron integral symmetry is turned on.
 Nuclear repulsion after empirical dispersion term =      130.7274259473 Hartrees.
 One-electron integrals computed using PRISM.
 NBasis=   260 RedAO= T EigKep=  5.91D-04  NBF=   260
 NBsUse=   260 1.00D-06 EigRej= -1.00D+00 NBFU=   260
 Initial guess from the checkpoint file:  "/localscratch/339542/Gau-53896.chk"
 B after Tr=     0.000000    0.000000   -0.000000
         Rot=    0.999999   -0.001538   -0.000108    0.000081 Ang=  -0.18 deg.
 Initial guess <Sx>= 0.0000 <Sy>= 0.0000 <Sz>= 0.0000 <S**2>=-0.0000 S=-0.0000
 ExpMin= 1.03D-01 ExpMax= 8.24D+03 ExpMxC= 2.81D+02 IAcc=3 IRadAn=         5 AccDes= 0.00D+00
 Harris functional with IExCor=  419 and IRadAn=       5 diagonalized for initial guess.
 HarFok:  IExCor=  419 AccDes= 0.00D+00 IRadAn=         5 IDoV= 1 UseB2=F ITyADJ=14
 ICtDFT=  3500011 ScaDFX=  1.000000  1.000000  1.000000  1.000000
 FoFCou: FMM=F IPFlag=           0 FMFlag=      100000 FMFlg1=           0
         NFxFlg=           0 DoJE=T BraDBF=F KetDBF=T FulRan=T
         wScrn=  0.000000 ICntrl=       500 IOpCl=  0 I1Cent=   200000004 NGrid=           0
         NMat0=    1 NMatS0=      1 NMatT0=    0 NMatD0=    1 NMtDS0=    0 NMtDT0=    0
 Petite list used in FoFCou.
 Requested convergence on RMS density matrix=1.00D-08 within 128 cycles.
 Requested convergence on MAX density matrix=1.00D-06.
 Requested convergence on             energy=1.00D-06.
 No special actions if energy rises.
 Integral accuracy reduced to 1.0D-05 until final iterations.
 Initial convergence to 1.0D-05 achieved.  Increase integral accuracy.
 SCF Done:  E(UB2PLYPD3) =  -158.120793585     A.U. after    9 cycles
            NFock=  9  Conv=0.56D-08     -V/T= 2.0049
 <Sx>= 0.0000 <Sy>= 0.0000 <Sz>= 0.0000 <S**2>=-0.0000 S=-0.0000
 <L.S>=  0.00000000000    
 Annihilation of the first spin contaminant:
 S**2 before annihilation    -0.0000,   after    -0.0000
 DoSCS=T DFT=T ScalE2(SS,OS)=  0.270000  0.270000
 ExpMin= 1.03D-01 ExpMax= 8.24D+03 ExpMxC= 2.81D+02 IAcc=3 IRadAn=         5 AccDes= 0.00D+00
 HarFok:  IExCor=  205 AccDes= 0.00D+00 IRadAn=         5 IDoV=-2 UseB2=F ITyADJ=14
 ICtDFT= 12500011 ScaDFX=  1.000000  1.000000  1.000000  1.000000
 Range of M.O.s used for correlation:     5   260
 NBasis=   260 NAE=    17 NBE=    17 NFC=     4 NFV=     0
 NROrb=    256 NOA=    13 NOB=    13 NVA=   243 NVB=   243

 **** Warning!!: The largest alpha MO coefficient is  0.11682547D+02


 **** Warning!!: The largest beta MO coefficient is  0.11682547D+02

 DoSCS=T DFT=T ScalE2(SS,OS)=  0.270000  0.270000
 Fully direct method using O(ONN) memory.
 JobTyp=2 Pass  1:  I=   5 to  17 NPSUse= 40 ParTrn=T ParDer=T DoDerP=T.
 JobTyp=3 Pass  1:  I=   5 to  17 NPSUse= 40 ParTrn=T ParDer=T DoDerP=T.
 Spin components of T(2) and E(2):
     alpha-alpha T2 =       0.3910618905D-01 E2=     -0.2532835210D-01
     alpha-beta  T2 =       0.2545592477D+00 E2=     -0.1825476148D+00
     beta-beta   T2 =       0.3910618905D-01 E2=     -0.2532835210D-01
 (S**2,0)=  0.00000D+00           (S**2,1)=  0.00000D+00
 E(PUHF)=      -0.15812079359D+03        E(PMP2)=      -0.15835399790D+03
 E2(B2PLYPD3) =    -0.2332043190D+00 E(B2PLYPD3) =    -0.15835399790429D+03
          IDoAtm=11111111111111
          Differentiating once with respect to electric field.
                with respect to dipole field.
          Differentiating once with respect to nuclear coordinates.
 Keep R1 and R2 ints in memory in canonical form, NReq=1196157298.
          There are     1 degrees of freedom in the 1st order CPHF.  IDoFFX=0 NUNeed=     1.
 LinEq1:  Iter=  0 NonCon=     1 RMS=4.39D-04 Max=8.06D-03 NDo=     1
 AX will form     1 AO Fock derivatives at one time.
 LinEq1:  Iter=  1 NonCon=     1 RMS=1.85D-04 Max=3.11D-03 NDo=     1
 LinEq1:  Iter=  2 NonCon=     1 RMS=3.63D-05 Max=6.02D-04 NDo=     1
 LinEq1:  Iter=  3 NonCon=     1 RMS=1.07D-05 Max=2.10D-04 NDo=     1
 LinEq1:  Iter=  4 NonCon=     1 RMS=3.00D-06 Max=3.95D-05 NDo=     1
 LinEq1:  Iter=  5 NonCon=     1 RMS=6.13D-07 Max=9.36D-06 NDo=     1
 LinEq1:  Iter=  6 NonCon=     1 RMS=8.07D-08 Max=1.05D-06 NDo=     1
 LinEq1:  Iter=  7 NonCon=     1 RMS=1.89D-08 Max=3.28D-07 NDo=     1
 LinEq1:  Iter=  8 NonCon=     1 RMS=2.95D-09 Max=4.60D-08 NDo=     1
 LinEq1:  Iter=  9 NonCon=     1 RMS=1.28D-09 Max=1.84D-08 NDo=     1
 LinEq1:  Iter= 10 NonCon=     1 RMS=2.91D-10 Max=4.92D-09 NDo=     1
 LinEq1:  Iter= 11 NonCon=     0 RMS=4.81D-11 Max=6.55D-10 NDo=     1
 Linear equations converged to 1.000D-10 1.000D-09 after    11 iterations.
 End of Minotr F.D. properties file   721 does not exist.
 End of Minotr F.D. properties file   722 does not exist.
 End of Minotr F.D. properties file   788 does not exist.
 Calling FoFJK, ICntrl=  10002127 FMM=F ISym2X=0 I1Cent= 0 IOpClX= 1 NMat=1 NMatS=1 NMatT=0.
 ***** Axes restored to original set *****
 -------------------------------------------------------------------
 Center     Atomic                   Forces (Hartrees/Bohr)
 Number     Number              X              Y              Z
 -------------------------------------------------------------------
      1        6          -0.001133399   -0.001191002   -0.000099589
      2        6           0.002393280    0.001576968    0.000417266
      3        1           0.001356217   -0.000465153    0.000031209
      4        1           0.000363895    0.000000182    0.000151916
      5        1           0.000333671   -0.000056777   -0.000143398
      6        6          -0.002887923   -0.002636308   -0.000096659
      7        1          -0.000194006    0.000290911    0.000722920
      8        1          -0.000231225    0.000368976   -0.001067211
      9        6           0.001158741    0.001246407    0.000052722
     10        1           0.000448935    0.000079285   -0.000651795
     11        1           0.000423025    0.000295205    0.000701846
     12        1          -0.001350376    0.000456882   -0.000000187
     13        1          -0.000341452    0.000021372    0.000132494
     14        1          -0.000339385    0.000013052   -0.000151535
 -------------------------------------------------------------------
 Cartesian Forces:  Max     0.002887923 RMS     0.000942609

 GradGradGradGradGradGradGradGradGradGradGradGradGradGradGradGradGradGrad
 Berny optimization.
 Using GEDIIS/GDIIS optimizer.
 FormGI is forming the generalized inverse of G from B-inverse, IUseBI=4.
 Internal  Forces:  Max     0.002760322 RMS     0.000734034
 Search for a local minimum.
 Step number   2 out of a maximum of  100
 All quantities printed in internal units (Hartrees-Bohrs-Radians)
 Mixed Optimization -- En-DIIS/RFO-DIIS
 Update second derivatives using D2CorX and points    1    2
 DE= -5.49D-03 DEPred=-5.72D-03 R= 9.59D-01
 TightC=F SS=  1.41D+00  RLast= 2.08D-01 DXNew= 5.0454D-01 6.2302D-01
 Trust test= 9.59D-01 RLast= 2.08D-01 DXMaxT set to 5.05D-01
 ITU=  1  0
 Use linear search instead of GDIIS.
     Eigenvalues ---    0.00577   0.00677   0.00677   0.03640   0.03658
     Eigenvalues ---    0.04994   0.05083   0.05599   0.05600   0.05720
     Eigenvalues ---    0.05733   0.08618   0.08644   0.12377   0.12393
     Eigenvalues ---    0.15991   0.16000   0.16000   0.16000   0.16000
     Eigenvalues ---    0.16382   0.21912   0.22407   0.30374   0.31022
     Eigenvalues ---    0.31348   0.31350   0.31353   0.31649   0.31682
     Eigenvalues ---    0.31856   0.31876   0.31876   0.31877   0.31903
     Eigenvalues ---    0.32700
 RFO step:  Lambda=-1.62085004D-04 EMin= 5.77448989D-03
 Quartic linear search produced a step of -0.01339.
 Iteration  1 RMS(Cart)=  0.00776744 RMS(Int)=  0.00001749
 Iteration  2 RMS(Cart)=  0.00002578 RMS(Int)=  0.00000864
 Iteration  3 RMS(Cart)=  0.00000000 RMS(Int)=  0.00000864
 Variable       Old X    -DE/DX   Delta X   Delta X   Delta X     New X
                                 (Linear)    (Quad)   (Total)
    R1        2.88173  -0.00094  -0.00046  -0.00191  -0.00237   2.87936
    R2        2.06089  -0.00093   0.00066  -0.00433  -0.00367   2.05722
    R3        2.06170  -0.00026   0.00066  -0.00225  -0.00159   2.06011
    R4        2.06152  -0.00021   0.00066  -0.00212  -0.00146   2.06006
    R5        2.88468  -0.00063  -0.00031  -0.00133  -0.00164   2.88304
    R6        2.06658  -0.00050   0.00072  -0.00318  -0.00246   2.06412
    R7        2.06753  -0.00076   0.00071  -0.00396  -0.00325   2.06428
    R8        2.88133  -0.00090  -0.00046  -0.00178  -0.00223   2.87910
    R9        2.06763  -0.00071   0.00071  -0.00382  -0.00311   2.06452
   R10        2.06803  -0.00085   0.00070  -0.00424  -0.00354   2.06448
   R11        2.06083  -0.00092   0.00066  -0.00430  -0.00364   2.05719
   R12        2.06159  -0.00022   0.00066  -0.00215  -0.00149   2.06009
   R13        2.06167  -0.00024   0.00066  -0.00221  -0.00155   2.06012
    A1        1.95612  -0.00145  -0.00040  -0.00861  -0.00902   1.94710
    A2        1.93849  -0.00008  -0.00009  -0.00003  -0.00012   1.93837
    A3        1.93820  -0.00006  -0.00009   0.00013   0.00004   1.93824
    A4        1.87637   0.00076   0.00021   0.00363   0.00384   1.88020
    A5        1.87648   0.00075   0.00021   0.00358   0.00379   1.88027
    A6        1.87458   0.00020   0.00019   0.00192   0.00211   1.87668
    A7        1.98215  -0.00276  -0.00046  -0.01104  -0.01148   1.97067
    A8        1.91309   0.00068   0.00001   0.00104   0.00106   1.91415
    A9        1.91137   0.00069  -0.00002   0.00253   0.00255   1.91392
   A10        1.89915   0.00108   0.00014   0.00526   0.00538   1.90453
   A11        1.89602   0.00120  -0.00004   0.00802   0.00799   1.90401
   A12        1.85788  -0.00077   0.00041  -0.00547  -0.00508   1.85280
   A13        1.98260  -0.00257  -0.00046  -0.01135  -0.01182   1.97078
   A14        1.89879   0.00103   0.00014   0.00545   0.00559   1.90437
   A15        1.90130   0.00086   0.00011   0.00360   0.00370   1.90499
   A16        1.91304   0.00056   0.00001   0.00113   0.00116   1.91420
   A17        1.91264   0.00068   0.00001   0.00146   0.00148   1.91412
   A18        1.85079  -0.00043   0.00024   0.00052   0.00074   1.85153
   A19        1.95626  -0.00146  -0.00040  -0.00869  -0.00909   1.94717
   A20        1.93826  -0.00007  -0.00009   0.00008  -0.00001   1.93825
   A21        1.93826  -0.00005  -0.00009   0.00021   0.00012   1.93838
   A22        1.87656   0.00075   0.00021   0.00351   0.00371   1.88027
   A23        1.87651   0.00074   0.00021   0.00352   0.00372   1.88024
   A24        1.87437   0.00020   0.00019   0.00199   0.00218   1.87655
    D1       -3.13694   0.00004  -0.00006  -0.00072  -0.00078  -3.13772
    D2       -1.00879   0.00003  -0.00020  -0.00079  -0.00098  -1.00977
    D3        1.02339  -0.00011   0.00030  -0.00534  -0.00505   1.01834
    D4       -1.03776  -0.00004  -0.00013  -0.00198  -0.00211  -1.03987
    D5        1.09039  -0.00006  -0.00026  -0.00206  -0.00231   1.08808
    D6        3.12257  -0.00020   0.00024  -0.00661  -0.00637   3.11620
    D7        1.04712   0.00012  -0.00000   0.00050   0.00049   1.04761
    D8       -3.10791   0.00011  -0.00013   0.00042   0.00029  -3.10762
    D9       -1.07574  -0.00003   0.00036  -0.00413  -0.00377  -1.07951
   D10        3.13938  -0.00002   0.00003   0.00041   0.00044   3.13982
   D11       -1.00795  -0.00028  -0.00017  -0.00186  -0.00204  -1.00998
   D12        1.00220   0.00023   0.00025   0.00364   0.00390   1.00610
   D13        1.00350   0.00019   0.00023   0.00272   0.00297   1.00646
   D14        3.13936  -0.00007   0.00003   0.00046   0.00049   3.13985
   D15       -1.13368   0.00044   0.00045   0.00596   0.00642  -1.12726
   D16       -1.01242  -0.00012  -0.00031   0.00206   0.00174  -1.01068
   D17        1.12344  -0.00039  -0.00051  -0.00020  -0.00074   1.12270
   D18        3.13359   0.00012  -0.00009   0.00530   0.00520   3.13879
   D19        3.14034   0.00005   0.00002   0.00070   0.00072   3.14105
   D20       -1.04348  -0.00004  -0.00005  -0.00070  -0.00074  -1.04422
   D21        1.04103   0.00013   0.00008   0.00199   0.00207   1.04310
   D22        1.01238   0.00007   0.00015   0.00067   0.00082   1.01319
   D23        3.11175  -0.00002   0.00008  -0.00073  -0.00065   3.11110
   D24       -1.08693   0.00016   0.00021   0.00197   0.00217  -1.08476
   D25       -1.01195  -0.00011  -0.00015  -0.00144  -0.00159  -1.01353
   D26        1.08742  -0.00021  -0.00022  -0.00284  -0.00305   1.08437
   D27       -3.11125  -0.00003  -0.00009  -0.00015  -0.00023  -3.11149
         Item               Value     Threshold  Converged?
 Maximum Force            0.002760     0.000450     NO 
 RMS     Force            0.000734     0.000300     NO 
 Maximum Displacement     0.022474     0.001800     NO 
 RMS     Displacement     0.007783     0.001200     NO 
 Predicted change in Energy=-8.226857D-05
 GradGradGradGradGradGradGradGradGradGradGradGradGradGradGradGradGradGrad

                          Input orientation:                          
 ---------------------------------------------------------------------
 Center     Atomic      Atomic             Coordinates (Angstroms)
 Number     Number       Type             X           Y           Z
 ---------------------------------------------------------------------
      1          6           0       -1.424469    0.521200    0.000756
      2          6           0        0.099156    0.506929    0.003294
      3          1           0       -1.815026    1.537364   -0.000758
      4          1           0       -1.819537    0.012427   -0.878746
      5          1           0       -1.822315    0.013918    0.879834
      6          6           0        0.679906   -0.903848    0.000023
      7          1           0        0.473422    1.049952   -0.867416
      8          1           0        0.470247    1.044044    0.879117
      9          6           0        2.203390   -0.918284    0.000073
     10          1           0        0.306886   -1.446255    0.871917
     11          1           0        0.307068   -1.442820   -0.874052
     12          1           0        2.593901   -1.934446   -0.001738
     13          1           0        2.599892   -0.408651   -0.878276
     14          1           0        2.599940   -0.411802    0.880237
 ---------------------------------------------------------------------
                    Distance matrix (angstroms):
                    1          2          3          4          5
     1  C    0.000000
     2  C    1.523693   0.000000
     3  H    1.088634   2.173914   0.000000
     4  H    1.090162   2.168849   1.759635   0.000000
     5  H    1.090135   2.168739   1.759654   1.758582   0.000000
     6  C    2.541487   1.525638   3.490588   2.803393   2.806683
     7  H    2.152972   1.092285   2.495127   2.516792   3.065396
     8  H    2.152866   1.092368   2.498003   3.065522   2.513364
     9  C    3.903008   2.541464   4.709338   4.221668   4.224840
    10  H    2.761773   2.147693   3.763782   3.116769   2.581795
    11  H    2.760595   2.148135   3.761306   2.576862   3.119691
    12  H    4.709300   3.490572   5.611783   4.902845   4.906756
    13  H    4.222891   2.805198   4.903929   4.439444   4.777597
    14  H    4.223724   2.804820   4.905845   4.775538   4.442698
                    6          7          8          9         10
     6  C    0.000000
     7  H    2.147655   0.000000
     8  H    2.147334   1.746546   0.000000
     9  C    1.523552   2.760304   2.761744   0.000000
    10  H    1.092496   3.046976   2.495662   2.153042   0.000000
    11  H    1.092478   2.498325   3.047084   2.152967   1.745972
    12  H    2.173824   3.761976   3.762607   1.088618   2.496406
    13  H    2.168635   2.578666   3.119959   1.090155   3.065563
    14  H    2.168735   3.116584   2.579743   1.090167   2.515603
                   11         12         13         14
    11  H    0.000000
    12  H    2.496444   0.000000
    13  H    2.515267   1.759660   0.000000
    14  H    3.065581   1.759648   1.758516   0.000000
 Stoichiometry    C4H10
 Framework group  C1[X(C4H10)]
 Deg. of freedom    36
 Full point group                 C1      NOp   1
 Largest Abelian subgroup         C1      NOp   1
 Largest concise Abelian subgroup C1      NOp   1
                         Standard orientation:                         
 ---------------------------------------------------------------------
 Center     Atomic      Atomic             Coordinates (Angstroms)
 Number     Number       Type             X           Y           Z
 ---------------------------------------------------------------------
      1          6           0        1.947837    0.119868   -0.000620
      2          6           0        0.562741   -0.515072    0.000611
      3          1           0        2.733406   -0.633785   -0.004541
      4          1           0        2.088771    0.750825   -0.878392
      5          1           0        2.092538    0.745687    0.880178
      6          6           0       -0.562764    0.514885    0.000647
      7          1           0        0.454583   -1.163237   -0.871897
      8          1           0        0.455559   -1.161476    0.874648
      9          6           0       -1.947803   -0.119839   -0.000609
     10          1           0       -0.455471    1.161960    0.874335
     11          1           0       -0.454789    1.163708   -0.871636
     12          1           0       -2.733331    0.633841   -0.000014
     13          1           0       -2.090288   -0.747216   -0.880685
     14          1           0       -2.091051   -0.749354    0.877829
 ---------------------------------------------------------------------
 Rotational constants (GHZ):          23.6031603           3.6524995           3.4286986
 Standard basis: CC-pVTZ (5D, 7F)
 There are   290 symmetry adapted cartesian basis functions of A   symmetry.
 There are   260 symmetry adapted basis functions of A   symmetry.
   260 basis functions,   378 primitive gaussians,   290 cartesian basis functions
    17 alpha electrons       17 beta electrons
       nuclear repulsion energy       130.9765991963 Hartrees.
 NAtoms=   14 NActive=   14 NUniq=   14 SFac= 1.00D+00 NAtFMM=   60 NAOKFM=F Big=F
 Integral buffers will be    131072 words long.
 Raffenetti 2 integral format.
 Two-electron integral symmetry is turned on.
 Nuclear repulsion after empirical dispersion term =      130.9701644547 Hartrees.
 One-electron integrals computed using PRISM.
 NBasis=   260 RedAO= T EigKep=  5.84D-04  NBF=   260
 NBsUse=   260 1.00D-06 EigRej= -1.00D+00 NBFU=   260
 Initial guess from the checkpoint file:  "/localscratch/339542/Gau-53896.chk"
 B after Tr=    -0.000000   -0.000000   -0.000000
         Rot=    1.000000    0.000096    0.000021    0.000151 Ang=   0.02 deg.
[...]
 ! A24   A(13,9,14)            107.5713         -DE/DX =    0.0                 !
 ! D1    D(3,1,2,6)            180.0            -DE/DX =    0.0                 !
 ! D2    D(3,1,2,7)            -58.1022         -DE/DX =    0.0                 !
 ! D3    D(3,1,2,8)             58.1022         -DE/DX =    0.0                 !
 ! D4    D(4,1,2,6)            -59.7663         -DE/DX =    0.0                 !
 ! D5    D(4,1,2,7)             62.1315         -DE/DX =    0.0                 !
 ! D6    D(4,1,2,8)            178.336          -DE/DX =    0.0                 !
 ! D7    D(5,1,2,6)             59.7662         -DE/DX =    0.0                 !
 ! D8    D(5,1,2,7)           -178.336          -DE/DX =    0.0                 !
 ! D9    D(5,1,2,8)            -62.1315         -DE/DX =    0.0                 !
 ! D10   D(1,2,6,9)           -180.0            -DE/DX =    0.0                 !
 ! D11   D(1,2,6,10)           -57.7916         -DE/DX =    0.0                 !
 ! D12   D(1,2,6,11)            57.7916         -DE/DX =    0.0                 !
 ! D13   D(7,2,6,9)             57.7916         -DE/DX =    0.0                 !
 ! D14   D(7,2,6,10)          -180.0            -DE/DX =    0.0                 !
 ! D15   D(7,2,6,11)           -64.4169         -DE/DX =    0.0                 !
 ! D16   D(8,2,6,9)            -57.7916         -DE/DX =    0.0                 !
 ! D17   D(8,2,6,10)            64.4169         -DE/DX =    0.0                 !
 ! D18   D(8,2,6,11)          -180.0            -DE/DX =    0.0                 !
 ! D19   D(2,6,9,12)          -179.9999         -DE/DX =    0.0                 !
 ! D20   D(2,6,9,13)           -59.7662         -DE/DX =    0.0                 !
 ! D21   D(2,6,9,14)            59.7663         -DE/DX =    0.0                 !
 ! D22   D(10,6,9,12)           58.1023         -DE/DX =    0.0                 !
 ! D23   D(10,6,9,13)          178.336          -DE/DX =    0.0                 !
 ! D24   D(10,6,9,14)          -62.1315         -DE/DX =    0.0                 !
 ! D25   D(11,6,9,12)          -58.1021         -DE/DX =    0.0                 !
 ! D26   D(11,6,9,13)           62.1316         -DE/DX =    0.0                 !
 ! D27   D(11,6,9,14)         -178.3359         -DE/DX =    0.0                 !
 --------------------------------------------------------------------------------
 GradGradGradGradGradGradGradGradGradGradGradGradGradGradGradGradGradGrad


 ----------------------------------------------------------------------

 Electric dipole moment (input orientation):
 (Debye = 10**-18 statcoulomb cm , SI units = C m)
                  (au)            (Debye)         (10**-30 SI)
   Tot        0.187453D-04      0.476457D-04      0.158929D-03
   x          0.000000D+00      0.000000D+00      0.000000D+00
   y          0.000000D+00      0.000000D+00      0.000000D+00
   z          0.187453D-04      0.476457D-04      0.158929D-03

 Dipole polarizability, Alpha (input orientation).
 (esu units = cm**3 , SI units = C**2 m**2 J**-1)
 Alpha(0;0):
               (au)            (10**-24 esu)      (10**-40 SI)
   iso        0.505793D+02      0.749508D+01      0.833940D+01
   aniso      0.115285D+02      0.170835D+01      0.190080D+01
   xx         0.565723D+02      0.838315D+01      0.932751D+01
   yx        -0.371812D+01     -0.550969D+00     -0.613036D+00
   yy         0.494645D+02      0.732988D+01      0.815559D+01
   zx        -0.282227D-03     -0.418217D-04     -0.465330D-04
   zy         0.533239D-02      0.790179D-03      0.879193D-03
   zz         0.457011D+02      0.677220D+01      0.753509D+01

 ----------------------------------------------------------------------

 Dipole orientation:
     6         -2.67929286          1.00115198         -0.22507711
     6          0.17635990          0.94702049          0.15571663
     1         -3.42903430          2.91167998         -0.06851326
     1         -3.18863447          0.27573774         -2.08521166
     1         -3.63253005         -0.16603654          1.18016972
     6          1.28859218         -1.70456412         -0.05540335
     1          1.08576709          2.17367255         -1.23447135
     1          0.64492036          1.73058261          2.00796122
     6          4.14430550         -1.75863688          0.32490498
     1          0.37949582         -2.93105951          1.33510241
     1          0.81967964         -2.48814089         -1.90753087
     1          4.89435207         -3.66887128          0.16618863
     1          5.09711401         -0.58979328         -1.07926747
     1          4.65388004         -1.03512684          2.18571261

 Electric dipole moment (dipole orientation):
 (Debye = 10**-18 statcoulomb cm , SI units = C m)
                  (au)            (Debye)         (10**-30 SI)
   Tot        0.190826D-04      0.485030D-04      0.161789D-03
   x          0.000000D+00      0.000000D+00      0.000000D+00
   y          0.000000D+00      0.000000D+00      0.000000D+00
   z          0.190826D-04      0.485030D-04      0.161789D-03

 Dipole polarizability, Alpha (dipole orientation).
 (esu units = cm**3 , SI units = C**2 m**2 J**-1)
 Alpha(0;0):
               (au)            (10**-24 esu)      (10**-40 SI)
   iso        0.505793D+02      0.749508D+01      0.833940D+01
   aniso      0.115285D+02      0.170835D+01      0.190080D+01
   xx         0.564455D+02      0.836436D+01      0.930660D+01
   yx        -0.378183D+01     -0.560410D+00     -0.623540D+00
   yy         0.494632D+02      0.732969D+01      0.815538D+01
   zx         0.942969D+00      0.139734D+00      0.155475D+00
   zy         0.519263D-04      0.769469D-05      0.856149D-05
   zz         0.458292D+02      0.679118D+01      0.755621D+01

 ----------------------------------------------------------------------
 1\1\GINC-N68\Freq\UB2PLYPD3-FC\CC-pVTZ\C4H10\ROOT\31-May-2019\0\\#N Ge
 om=AllCheck Guess=TCheck SCRF=Check GenChk UB2PLYPD3(FC)/CC-pVTZ Freq\
 \Title Card Required\\0,1\C,-1.425712776,0.5219362247,0.0012183057\C,0
 .0990030192,0.5067892105,0.0024040156\H,-1.8168740443,1.5384995786,0.0
 017913697\H,-1.8200876948,0.0138765763,-0.8792794968\H,-1.8215191378,0
 .0123409337,0.8801776451\C,0.6799163694,-0.9039833436,-0.0002168663\H,
 0.4726010401,1.0488315719,-0.8698033175\H,0.4711631916,1.044988435,0.8
 776022871\C,2.2046295658,-0.9191337477,0.0007081612\H,0.3065029547,-1.
 445922782,0.872122881\H,0.3075798321,-1.4421804279,-0.8753285287\H,2.5
 957983306,-1.9356948954,-0.0010257614\H,2.6002788056,-0.4085932642,-0.
 8777782026\H,2.5991828238,-0.41202697,0.8816725077\\Version=ES64L-G16R
 evB.01\State=1-A\HF=-158.1208996\MP2=-158.354074\PUHF=-158.1208996\PMP
 2-0=-158.354074\S2=0.\S2-1=0.\S2A=0.\RMSD=2.236e-09\RMSF=6.014e-06\Zer
 oPoint=0.1326211\Thermal=0.1383911\Dipole=0.0000025,0.0000025,0.000018
 7\DipoleDeriv=0.0176768,0.0163051,-0.0000576,0.0468921,0.0898567,-0.00
 00743,-0.0000165,-0.0000397,0.1248893,0.0934586,0.0158063,-0.0000268,0
 .0013415,0.091347,-0.0001061,-0.0000824,-0.0001747,0.1545212,-0.032458
 2,0.0733421,0.0000511,0.1130043,-0.1372573,-0.0001191,0.0000409,-0.000
 1218,0.0664473,-0.0060238,-0.0158417,-0.0321677,-0.0601218,0.0096727,-
 0.0896917,-0.0805082,-0.0807038,-0.0858794,-0.0062815,-0.0160484,0.032
 2837,-0.0603818,0.0093594,0.0897651,0.0805439,0.080861,-0.0853468,0.09
 34523,0.0158041,-0.0000312,0.0013393,0.0913235,-0.0001394,-0.0000164,-
 0.0001377,0.1545111,-0.0333055,-0.0369932,0.0697597,-0.0205814,-0.0318
 643,0.0720013,0.0742287,0.1023794,-0.0868309,-0.0330674,-0.0365688,-0.
 0698008,-0.020149,-0.0311199,-0.071787,-0.074222,-0.1022095,-0.0878037
 ,0.0176845,0.0162972,-0.0000378,0.0468867,0.0898626,-0.0000368,0.00003
 28,-0.0000615,0.1248896,-0.0332596,-0.0369883,0.0697277,-0.0205782,-0.
 0318527,0.0719893,0.0742098,0.1023919,-0.0868465,-0.033104,-0.0365743,
 -0.069822,-0.0201531,-0.0311004,-0.0717682,-0.0742375,-0.1021857,-0.08
 77711,-0.0324623,0.0733473,0.0000839,0.113005,-0.1372611,-0.0003296,0.
 0001632,-0.0003527,0.0664477,-0.0062315,-0.0160579,0.0322465,-0.060461
 8,0.0091806,0.0898771,0.080458,0.080959,-0.0852071,-0.0060786,-0.01582
 97,-0.0322086,-0.0600417,0.0098531,-0.0895805,-0.0805942,-0.0806042,-0
 .0860206\Polar=56.5722822,-3.7181227,49.4644989,-0.0002822,0.0053324,4
 5.7010771\PG=C01 [X(C4H10)]\NImag=0\\0.47368983,-0.00367763,0.57679085
 ,-0.00009323,0.00000411,0.56849272,-0.19558925,-0.00383895,-0.00009512
 ,0.48899565,-0.00141954,-0.08049692,0.00001025,0.03884739,0.50721836,-
 0.00008995,-0.00000851,-0.08037974,-0.00000589,-0.00016070,0.59336846,
 -0.07855952,0.08504332,0.00004615,-0.01060479,0.03368099,0.00003141,0.
 08697828,0.08637332,-0.28169714,-0.00013521,-0.00200525,0.00220392,0.0
 0000300,-0.09488013,0.30480865,0.00004524,-0.00013201,-0.04801596,-0.0
 0000526,0.00002966,-0.00145072,-0.00005449,0.00014775,0.04706981,-0.07
 820265,-0.04185569,-0.07310821,-0.01341456,-0.01631534,-0.02939609,0.0
 0353039,0.00464689,0.01020865,0.08805935,-0.04241763,-0.10542131,-0.09
 920846,-0.00014627,-0.00076824,0.00023365,-0.01121508,-0.01377694,-0.0
 2579051,0.04721108,0.11048587,-0.07397732,-0.09910099,-0.22154334,0.00
 041300,0.00049379,0.00067387,0.00102730,0.00076256,0.00052014,0.081869
 77,0.11012795,0.23872301,-0.07844405,-0.04214163,0.07327441,-0.0134578
 8,-0.01638418,0.02933770,0.00354860,0.00466586,-0.01019635,0.00351144,
 0.00643023,-0.00920164,0.08832453,-0.04270006,-0.10576948,0.09934386,-
 0.00015227,-0.00077168,-0.00023952,-0.01125431,-0.01382056,0.02574863,
 0.00643632,0.00772917,-0.01325579,0.04754096,0.11087246,0.07414633,0.0
 9924651,-0.22096933,-0.00044825,-0.00052580,0.00072618,-0.00104134,-0.
 00077937,0.00054420,0.00925277,0.01331654,-0.02127317,-0.08203103,-0.1
 1027924,0.23807995,-0.01737469,0.03543422,0.00005112,-0.08994284,0.032
 85328,0.00006615,-0.00696855,0.00060853,-0.00000100,0.00171583,0.00035
 013,0.00029799,0.00170965,0.00034579,-0.00028966,0.48900005,0.00452535
 ,0.00009631,0.00000473,0.03285341,-0.17815227,-0.00018091,-0.00279696,
 0.00103308,-0.00000336,-0.00156724,0.00076439,0.00001380,-0.00156736,0
 .00076657,-0.00001547,0.03885039,0.50720027,-0.00000819,0.00002765,-0.
 00042187,0.00007390,-0.00018635,-0.08073300,-0.00001362,0.00000139,0.0
 0023988,-0.00084923,0.00098453,0.00009441,0.00084179,-0.00098066,0.000
 08820,0.00002473,-0.00016265,0.59341393,-0.01390199,-0.01666461,0.0287
 1436,-0.07552036,-0.04186099,0.06708945,0.00140106,0.00053330,-0.00002
 990,0.00156055,-0.00028663,-0.00048021,-0.00702883,0.00008771,-0.00037
 986,0.00288209,0.00672428,-0.01037538,0.08626900,0.00057448,0.00036906
 ,-0.00104626,-0.04191954,-0.10778945,0.09801511,-0.00027655,0.00039248
 ,-0.00036206,-0.00020393,-0.00020505,0.00019025,0.00045076,0.00085045,
 -0.00002230,-0.00948513,-0.01865031,0.02748395,0.04371452,0.11995764,-
 0.00072699,-0.00083393,0.00090515,0.06786990,0.09889279,-0.21524848,0.
 00056690,-0.00032959,0.00000625,0.00041786,-0.00005147,0.00077922,-0.0
 0039918,-0.00045173,0.00168484,0.00012559,-0.00020569,-0.00025845,-0.0
 7543792,-0.10998464,0.23129061,-0.01385802,-0.01655801,-0.02880221,-0.
 07529650,-0.04139809,-0.06704429,0.00139575,0.00053369,0.00003458,-0.0
 0703034,0.00009098,0.00036227,0.00156705,-0.00028793,0.00047998,0.0028
 6606,0.00667823,0.01041070,0.00344277,0.00581497,0.00880789,0.08602093
 ,0.00056102,0.00036244,0.00104090,-0.04145068,-0.10692007,-0.09760028,
 -0.00027661,0.00038542,0.00036175,0.00044547,0.00084660,0.00001783,-0.
 00020244,-0.00020244,-0.00019369,-0.00944179,-0.01853001,-0.02757779,0
 .00583305,0.00785303,0.01302901,0.04320955,0.11898924,0.00071078,0.000
 80579,0.00086819,-0.06782903,-0.09848714,-0.21633572,-0.00056559,0.000
 32975,0.00000410,0.00038939,0.00045106,0.00168745,-0.00041625,0.000047
 65,0.00078426,-0.00016292,0.00013711,-0.00036196,-0.00874021,-0.012885
 59,-0.02233977,0.07538665,0.10955907,0.23250413,0.00001944,0.00143414,
 0.00000279,-0.01737472,0.00452540,-0.00000226,-0.00018275,-0.00034905,
 -0.00000067,-0.00002696,0.00011530,0.00004608,-0.00002735,0.00011554,-
 0.00004569,-0.19559302,-0.00141931,-0.00007572,0.00122984,-0.00156797,
 -0.00002253,0.00122830,-0.00156745,0.00001728,0.47369957,0.00143424,-0
 .00676491,-0.00001178,0.03543468,0.00009673,0.00002397,0.00233086,-0.0
 0004641,0.00000026,0.00003641,0.00008089,0.00032600,0.00003939,0.00008
 207,-0.00032646,-0.00383893,-0.08049639,-0.00000523,0.00021127,0.00120
 791,-0.00025005,0.00020659,0.00120652,0.00025445,-0.00367615,0.5767825
 3,0.00000112,-0.00001377,-0.00043202,0.00006313,0.00000431,-0.00042212
 ,0.00000442,-0.00000085,0.00059332,0.00028313,0.00011299,0.00030859,-0
 .00028358,-0.00011139,0.00030659,-0.00007795,-0.00000192,-0.08038089,-
 0.00097081,0.00025246,0.00014361,0.00097305,-0.00024970,0.00014417,-0.
 00006620,0.00001255,0.56848925,0.00122894,0.00020849,-0.00096843,0.002
 88336,0.00672368,-0.01037801,0.00012169,-0.00017737,0.00007638,-0.0000
 3223,-0.00001042,-0.00006231,0.00002569,-0.00009625,0.00039547,-0.0754
 9322,-0.04183447,0.06707024,-0.00061451,0.00270469,-0.00008611,0.00016
 539,-0.00071269,0.00028736,-0.01389851,-0.01667136,0.02871511,0.086238
 02,-0.00156544,0.00120817,0.00025120,-0.00948447,-0.01864957,0.0274867
 0,-0.00016205,0.00025545,-0.00047232,0.00013600,-0.00000168,-0.0000572
 5,0.00093035,0.00039043,-0.00050884,-0.04189272,-0.10776965,0.09801770
 ,0.00270499,-0.00584975,-0.00023480,-0.00071104,0.00121903,-0.00036574
 ,0.00057072,0.00036979,-0.00104450,0.04369206,0.11993857,-0.00002322,-
 0.00024947,0.00014355,0.00012578,-0.00020620,-0.00025762,-0.00025065,-
 0.00018056,0.00025578,0.00004129,0.00005221,-0.00008511,-0.00061426,0.
 00018270,0.00017431,0.06785384,0.09889901,-0.21531019,-0.00008653,-0.0
 0023580,0.00182507,-0.00029137,0.00036633,0.00086668,-0.00072600,-0.00
 083078,0.00089986,-0.07541689,-0.10998975,0.23135257,0.00122904,0.0002
 0964,0.00097555,0.00286485,0.00667924,0.01040706,0.00012138,-0.0001772
 2,-0.00007724,0.00002501,-0.00009575,-0.00039644,-0.00003252,-0.000009
 84,0.00006159,-0.07532497,-0.04142826,-0.06707818,0.00016523,-0.000710
 67,-0.00029134,-0.00061532,0.00270357,0.00009498,-0.01386263,-0.016551
 34,-0.02880203,0.00344261,0.00581402,0.00880297,0.08605483,-0.00156991
 ,0.00120638,-0.00025094,-0.00944242,-0.01853510,-0.02757764,-0.0001639
 6,0.00025329,0.00047208,0.00092784,0.00039176,0.00051175,0.00013491,-0
 .00000146,0.00005834,-0.04148076,-0.10692627,-0.09760333,-0.00071249,0
 .00121817,0.00036656,0.00270358,-0.00585166,0.00020599,0.00056526,0.00
 036200,0.00104285,0.00583612,0.00785314,0.01302577,0.04323281,0.118998
 57,0.00001647,0.00025529,0.00014419,-0.00016341,0.00013477,-0.00036371
 ,0.00024958,0.00018093,0.00025944,0.00061961,-0.00018103,0.00017685,-0
 .00004116,-0.00005140,-0.00008375,-0.06785897,-0.09848677,-0.21631957,
 0.00028727,-0.00036592,0.00086597,0.00009461,0.00020518,0.00182707,0.0
 0071129,0.00080868,0.00087389,-0.00874582,-0.01288928,-0.02233560,0.07
 542324,0.10956186,0.23247975,-0.00018276,0.00233087,0.00000402,-0.0069
 6855,-0.00279716,-0.00001079,-0.00084669,0.00005404,-0.00000045,0.0000
 3292,-0.00004173,-0.00010128,0.00003224,-0.00004183,0.00010123,-0.0106
 0462,0.03368085,0.00006168,0.00012168,-0.00016218,-0.00025055,0.000121
 37,-0.00016363,0.00024971,-0.07856071,0.08504275,0.00014629,0.00139863
 ,-0.00027739,0.00056644,0.00139836,-0.00027574,-0.00056595,0.08697905,
 -0.00034905,-0.00004642,-0.00000171,0.00060849,0.00103317,0.00000246,0
 .00005405,-0.00001361,-0.00000003,0.00008638,0.00001116,0.00002650,0.0
 0008701,0.00001122,-0.00002628,-0.00200511,0.00220399,0.00000618,-0.00
 017730,0.00025586,-0.00018093,-0.00017728,0.00025289,0.00018053,0.0863
 7258,-0.28169191,-0.00040082,0.00053376,0.00039069,-0.00032870,0.00053
 331,0.00038712,0.00033060,-0.09487951,0.30480393,-0.00000127,-0.000000
 13,0.00059331,-0.00000256,0.00000002,0.00023995,-0.00000012,0.00000002
 ,0.00000967,0.00010516,-0.00000957,-0.00001785,-0.00010499,0.00000960,
 -0.00001805,-0.00000899,0.00002810,-0.00145070,0.00007616,-0.00047235,
 0.00025599,-0.00007747,0.00047205,0.00025915,0.00014860,-0.00040117,-0
 .04801654,-0.00003024,-0.00036139,0.00000434,0.00003430,0.00036249,0.0
 0000602,-0.00016032,0.00044239,0.04707083,-0.00002655,0.00003910,-0.00
 028395,0.00171183,-0.00156933,0.00084325,0.00003239,0.00008686,-0.0001
 0482,-0.00002135,-0.00003954,0.00001837,0.00029302,0.00005530,-0.00018
 343,-0.01345451,-0.01640712,0.02932557,0.00002584,0.00093094,-0.000614
 98,-0.00003238,0.00013533,-0.00004101,-0.07841674,-0.04220316,0.073199
 23,-0.00702923,0.00044914,-0.00039857,0.00156404,-0.00020224,-0.000417
 01,0.00354650,0.00467663,-0.01019148,0.08829558,0.00011543,0.00008232,
 -0.00011254,0.00034916,0.00076767,-0.00098129,-0.00004201,0.00001121,0
 .00000967,-0.00003926,-0.00002498,-0.00000932,0.00005556,-0.00011179,0
 .00004675,-0.00014870,-0.00076902,-0.00023952,-0.00009695,0.00039153,0
 .00018240,-0.00001009,-0.00000160,-0.00005154,-0.04276495,-0.10598157,
 0.09947297,0.00009008,0.00084955,-0.00045300,-0.00028830,-0.00020324,0
 .00004732,-0.01124867,-0.01384752,0.02573466,0.04760515,0.11110847,-0.
 00004578,-0.00032651,0.00030670,-0.00029192,-0.00001434,0.00008926,0.0
 0010128,-0.00002629,-0.00001800,-0.00001842,0.00000926,-0.00002110,-0.
 00018353,0.00004666,-0.00002321,-0.00044070,-0.00052297,0.00071702,0.0
 0039564,-0.00050941,0.00017466,0.00006188,0.00005812,-0.00008421,0.074
 06913,0.09937144,-0.22077524,-0.00037650,-0.00002157,0.00168479,0.0004
 7993,-0.00019414,0.00078182,-0.00105430,-0.00079598,0.00057365,-0.0819
 5194,-0.11042096,0.23786720,-0.00002778,0.00003673,0.00028274,0.001713
 76,-0.00156535,-0.00084775,0.00003276,0.00008653,0.00010533,0.00029258
 ,0.00005533,0.00018442,-0.00002160,-0.00003913,-0.00001812,-0.01341724
 ,-0.01629179,-0.02940830,-0.00003238,0.00013562,0.00004143,0.00002495,
 0.00092728,0.00061885,-0.07823375,-0.04179526,-0.07318491,0.00156337,-
 0.00020416,0.00041716,-0.00702991,0.00044699,0.00039024,0.00353259,0.0
 0463604,0.01021324,0.00351155,0.00642354,0.00925522,0.08809111,0.00011
 541,0.00008065,0.00011183,0.00034672,0.00076344,0.00098397,-0.00004156
 ,0.00001117,-0.00000950,0.00005507,-0.00011164,-0.00004708,-0.00003942
 ,-0.00002494,0.00000932,-0.00014922,-0.00077068,0.00023413,-0.00001015
 ,-0.00000155,0.00005206,-0.00009514,0.00039061,-0.00018137,-0.04235407
 ,-0.10520724,-0.09907521,-0.00028632,-0.00020418,-0.00005177,0.0000887
 9,0.00084731,0.00044977,-0.01122067,-0.01375056,-0.02580472,0.00644294
 ,0.00772900,0.01334669,0.04714762,0.11024863,0.00004599,0.00032596,0.0
 0030846,0.00029573,0.00001494,0.00009338,-0.00010124,0.00002649,-0.000
 01790,0.00018432,-0.00004716,-0.00002297,0.00001807,-0.00000937,-0.000
 02101,0.00042075,0.00049699,0.00068319,-0.00006207,-0.00005743,-0.0000
 8467,-0.00039628,0.00051121,0.00017646,-0.07405611,-0.09897188,-0.2217
 3247,-0.00048026,0.00018982,0.00078157,0.00036560,0.00001835,0.0016876
 2,0.00101427,0.00074580,0.00049024,-0.00919922,-0.01322559,-0.02127334
 ,0.08195044,0.10998189,0.23893143\\0.00000126,0.00000363,0.00000189,-0
 .00002267,-0.00001005,-0.00000302,-0.00000267,-0.00000169,-0.00000472,
 0.00000163,-0.00000485,0.00000173,0.00000044,0.00000519,0.00000148,0.0
 0001750,-0.00000697,-0.00000363,0.00001005,0.00000776,0.00000163,0.000
 00664,0.00000004,0.00000495,-0.00000604,-0.00000317,-0.00000023,-0.000
 00327,0.00000382,0.00000240,-0.00000729,0.00000537,-0.00000246,0.00000
 404,0.00000130,0.00000100,0.00000004,-0.00000044,-0.00000037,0.0000003
 3,0.00000006,-0.00000066\\\@


 ASKING FOR EFFICIENCY AND ADAPTABILITY IN THE SAME PROGRAM IS LIKE
 ASKING FOR A BEAUTIFUL AND MODEST WIFE ...
 WE'LL PROBABLY HAVE TO SETTLE FOR ONE OR THE OTHER.

             -- THE PSYCHOLOGY OF COMPUTER PROGRAMMING
                GERALD M. WEINBERG
 Job cpu time:       0 days 15 hours 18 minutes 53.3 seconds.
 Elapsed time:       0 days  0 hours 23 minutes 27.4 seconds.
 File lengths (MBytes):  RWF=  24979 Int=      0 D2E=      0 Chk=     13 Scr=      1
 Normal termination of Gaussian 16 at Fri May 31 23:59:47 2019.
