 Entering Gaussian System, Link 0=g16
 Initial command:
 /ichec/packages/gaussian/16b01/l1.exe "/localscratch/339543/Gau-61044.inp" -scrdir="/localscratch/339543/"
 Entering Link 1 = /ichec/packages/gaussian/16b01/l1.exe PID=     61059.
  
 Copyright (c) 1988-2017, Gaussian, Inc.  All Rights Reserved.
  
 This is part of the Gaussian(R) 16 program.  It is based on
 the Gaussian(R) 09 system (copyright 2009, Gaussian, Inc.),
 the Gaussian(R) 03 system (copyright 2003, Gaussian, Inc.),
 the Gaussian(R) 98 system (copyright 1998, Gaussian, Inc.),
 the Gaussian(R) 94 system (copyright 1995, Gaussian, Inc.),
 the Gaussian 92(TM) system (copyright 1992, Gaussian, Inc.),
 the Gaussian 90(TM) system (copyright 1990, Gaussian, Inc.),
 the Gaussian 88(TM) system (copyright 1988, Gaussian, Inc.),
 the Gaussian 86(TM) system (copyright 1986, Carnegie Mellon
 University), and the Gaussian 82(TM) system (copyright 1983,
 Carnegie Mellon University). Gaussian is a federally registered
 trademark of Gaussian, Inc.
  
 This software contains proprietary and confidential information,
 including trade secrets, belonging to Gaussian, Inc.
  
 This software is provided under written license and may be
 used, copied, transmitted, or stored only in accord with that
 written license.
  
 The following legend is applicable only to US Government
 contracts under FAR:
  
                    RESTRICTED RIGHTS LEGEND
  
 Use, reproduction and disclosure by the US Government is
 subject to restrictions as set forth in subparagraphs (a)
 and (c) of the Commercial Computer Software - Restricted
 Rights clause in FAR 52.227-19.
  
 Gaussian, Inc.
 340 Quinnipiac St., Bldg. 40, Wallingford CT 06492
  
  
 ---------------------------------------------------------------
 Warning -- This program may not be used in any manner that
 competes with the business of Gaussian, Inc. or will provide
 assistance to any competitor of Gaussian, Inc.  The licensee
 of this program is prohibited from giving any competitor of
 Gaussian, Inc. access to this program.  By using this program,
 the user acknowledges that Gaussian, Inc. is engaged in the
 business of creating and licensing software in the field of
 computational chemistry and represents and warrants to the
 licensee that it is not a competitor of Gaussian, Inc. and that
 it will not use this program in any manner prohibited above.
 ---------------------------------------------------------------
  

 Cite this work as:
 Gaussian 16, Revision B.01,
 M. J. Frisch, G. W. Trucks, H. B. Schlegel, G. E. Scuseria, 
 M. A. Robb, J. R. Cheeseman, G. Scalmani, V. Barone, 
 G. A. Petersson, H. Nakatsuji, X. Li, M. Caricato, A. V. Marenich, 
 J. Bloino, B. G. Janesko, R. Gomperts, B. Mennucci, H. P. Hratchian, 
 J. V. Ortiz, A. F. Izmaylov, J. L. Sonnenberg, D. Williams-Young, 
 F. Ding, F. Lipparini, F. Egidi, J. Goings, B. Peng, A. Petrone, 
 T. Henderson, D. Ranasinghe, V. G. Zakrzewski, J. Gao, N. Rega, 
 G. Zheng, W. Liang, M. Hada, M. Ehara, K. Toyota, R. Fukuda, 
 J. Hasegawa, M. Ishida, T. Nakajima, Y. Honda, O. Kitao, H. Nakai, 
 T. Vreven, K. Throssell, J. A. Montgomery, Jr., J. E. Peralta, 
 F. Ogliaro, M. J. Bearpark, J. J. Heyd, E. N. Brothers, K. N. Kudin, 
 V. N. Staroverov, T. A. Keith, R. Kobayashi, J. Normand, 
 K. Raghavachari, A. P. Rendell, J. C. Burant, S. S. Iyengar, 
 J. Tomasi, M. Cossi, J. M. Millam, M. Klene, C. Adamo, R. Cammi, 
 J. W. Ochterski, R. L. Martin, K. Morokuma, O. Farkas, 
 J. B. Foresman, and D. J. Fox, Gaussian, Inc., Wallingford CT, 2016.
 
 ******************************************
 Gaussian 16:  ES64L-G16RevB.01 20-Dec-2017
                 1-Jun-2019 
 ******************************************
 %mem=80GB
 %nproc=40
 Will use up to   40 processors via shared memory.
 ----------------------------------------------------------------------
 # opt=(maxcyc=500,modredundant) uB2PLYPD3/cc-pvtz scf=maxcyc=500 nosym
 m
 ----------------------------------------------------------------------
 1/6=500,18=120,19=15,38=1/1,3;
 2/9=110,12=2,15=1,17=6,18=5,40=1/2;
 3/5=16,6=1,11=2,25=1,30=1,71=1,74=-60,116=2/1,2,3;
 4//1;
 5/5=2,7=500,38=5/2;
 8/6=4,10=1/1;
 9/15=2,16=-3/6;
 10/5=1,31=1/2;
 6/7=2,8=2,9=2,10=2/1;
 7/12=2,30=1/1,2,3,16;
 1/6=500,18=20,19=15/3(2);
 2/9=110,15=1/2;
 99//99;
 2/9=110,15=1/2;
 3/5=16,6=1,11=2,25=1,30=1,71=1,74=-60,116=2/1,2,3;
 4/5=5,16=3,69=1/1;
 5/5=2,7=500,38=5/2;
 8/6=4,10=1/1;
 9/15=2,16=-3/6;
 10/5=1,31=1/2;
 7/12=2,30=1/1,2,3,16;
 1/6=500,18=20,19=15/3(-8);
 2/9=110,15=1/2;
 6/7=2,8=2,9=2,10=2/1;
 99/9=10/99;
 -------------------
 Title Card Required
 -------------------
 Symbolic Z-matrix:
 Charge =  0 Multiplicity = 1
 C                    -1.39579   0.50669   0. 
 C                     0.11092   0.50669   0. 
 H                    -1.7844    1.55359   0. 
 H                    -1.79031  -0.01594  -0.90484 
 H                    -1.79023  -0.01581   0.90498 
 C                     0.66852  -0.90116   0.00018 
 H                     0.48812   1.05673  -0.90244 
 H                     0.48452   1.03728   0.91549 
 C                     2.17525  -0.90113   0.00011 
 H                     0.29134  -1.45118   0.9026 
 H                     0.29128  -1.45138  -0.9021 
 H                     2.56405  -1.94793   0.00026 
 H                     2.56956  -0.3785   -0.90484 
 H                     2.56964  -0.37821   0.90487 
 
 The following ModRedundant input section has been read:
 D    *          1       2    *    R                                           
 D       3       1       2       7 S  36 10.000                                
 

 GradGradGradGradGradGradGradGradGradGradGradGradGradGradGradGradGradGrad
 Berny optimization.
 Initialization pass.
                           ----------------------------
                           !    Initial Parameters    !
                           ! (Angstroms and Degrees)  !
 --------------------------                            --------------------------
 ! Name  Definition              Value          Derivative Info.                !
 --------------------------------------------------------------------------------
 ! R1    R(1,2)                  1.5067         estimate D2E/DX2                !
 ! R2    R(1,3)                  1.1167         estimate D2E/DX2                !
 ! R3    R(1,4)                  1.1169         estimate D2E/DX2                !
 ! R4    R(1,5)                  1.1169         estimate D2E/DX2                !
 ! R5    R(2,6)                  1.5142         estimate D2E/DX2                !
 ! R6    R(2,7)                  1.1221         estimate D2E/DX2                !
 ! R7    R(2,8)                  1.1221         estimate D2E/DX2                !
 ! R8    R(6,9)                  1.5067         estimate D2E/DX2                !
 ! R9    R(6,10)                 1.1221         estimate D2E/DX2                !
 ! R10   R(6,11)                 1.1221         estimate D2E/DX2                !
 ! R11   R(9,12)                 1.1167         estimate D2E/DX2                !
 ! R12   R(9,13)                 1.1169         estimate D2E/DX2                !
 ! R13   R(9,14)                 1.1169         estimate D2E/DX2                !
 ! A1    A(2,1,3)              110.3651         estimate D2E/DX2                !
 ! A2    A(2,1,4)              110.684          estimate D2E/DX2                !
 ! A3    A(2,1,5)              110.6793         estimate D2E/DX2                !
 ! A4    A(3,1,4)              108.4063         estimate D2E/DX2                !
 ! A5    A(3,1,5)              108.4007         estimate D2E/DX2                !
 ! A6    A(4,1,5)              108.2253         estimate D2E/DX2                !
 ! A7    A(1,2,6)              111.6065         estimate D2E/DX2                !
 ! A8    A(1,2,7)              109.6417         estimate D2E/DX2                !
 ! A9    A(1,2,8)              109.4465         estimate D2E/DX2                !
 ! A10   A(6,2,7)              109.3929         estimate D2E/DX2                !
 ! A11   A(6,2,8)              108.4766         estimate D2E/DX2                !
 ! A12   A(7,2,8)              108.2056         estimate D2E/DX2                !
 ! A13   A(2,6,9)              111.6054         estimate D2E/DX2                !
 ! A14   A(2,6,10)             109.3931         estimate D2E/DX2                !
 ! A15   A(2,6,11)             109.3904         estimate D2E/DX2                !
 ! A16   A(9,6,10)             109.6438         estimate D2E/DX2                !
 ! A17   A(9,6,11)             109.643          estimate D2E/DX2                !
 ! A18   A(10,6,11)            107.0555         estimate D2E/DX2                !
 ! A19   A(6,9,12)             110.375          estimate D2E/DX2                !
 ! A20   A(6,9,13)             110.6752         estimate D2E/DX2                !
 ! A21   A(6,9,14)             110.6753         estimate D2E/DX2                !
 ! A22   A(12,9,13)            108.4103         estimate D2E/DX2                !
 ! A23   A(12,9,14)            108.4105         estimate D2E/DX2                !
 ! A24   A(13,9,14)            108.2146         estimate D2E/DX2                !
 ! D1    D(3,1,2,7)            -58.6375         Scan                            !
 ! D2    D(1,2,6,9)            179.9973         estimate D2E/DX2                !
 ! D3    D(1,2,6,10)           -58.4866         estimate D2E/DX2                !
 ! D4    D(1,2,6,11)            58.4842         estimate D2E/DX2                !
 ! D5    D(7,2,6,9)             58.4834         estimate D2E/DX2                !
 ! D6    D(7,2,6,10)           179.9995         estimate D2E/DX2                !
 ! D7    D(7,2,6,11)           -63.0297         estimate D2E/DX2                !
 ! D8    D(8,2,6,9)            -59.3463         estimate D2E/DX2                !
 ! D9    D(8,2,6,10)            62.1698         estimate D2E/DX2                !
 ! D10   D(8,2,6,11)           179.1406         estimate D2E/DX2                !
 ! D11   D(2,6,9,12)           179.9991         estimate D2E/DX2                !
 ! D12   D(2,6,9,13)           -59.9846         estimate D2E/DX2                !
 ! D13   D(2,6,9,14)            59.9826         estimate D2E/DX2                !
 ! D14   D(10,6,9,12)           58.6285         estimate D2E/DX2                !
 ! D15   D(10,6,9,13)          178.6448         estimate D2E/DX2                !
 ! D16   D(10,6,9,14)          -61.3881         estimate D2E/DX2                !
 ! D17   D(11,6,9,12)          -58.6342         estimate D2E/DX2                !
 ! D18   D(11,6,9,13)           61.3821         estimate D2E/DX2                !
 ! D19   D(11,6,9,14)         -178.6508         estimate D2E/DX2                !
 --------------------------------------------------------------------------------
 Trust Radius=3.00D-01 FncErr=1.00D-07 GrdErr=1.00D-07 EigMax=2.50D+02 EigMin=1.00D-04
 Number of optimizations in scan=  37
 Number of steps in this run=    100 maximum allowed number of steps=    100.
 GradGradGradGradGradGradGradGradGradGradGradGradGradGradGradGradGradGrad

                          Input orientation:                          
 ---------------------------------------------------------------------
 Center     Atomic      Atomic             Coordinates (Angstroms)
 Number     Number       Type             X           Y           Z
 ---------------------------------------------------------------------
      1          6           0       -1.395793    0.506692    0.000000
      2          6           0        0.110925    0.506692    0.000000
      3          1           0       -1.784404    1.553585    0.000000
      4          1           0       -1.790306   -0.015941   -0.904842
      5          1           0       -1.790228   -0.015807    0.904976
      6          6           0        0.668516   -0.901159    0.000178
      7          1           0        0.488119    1.056730   -0.902436
      8          1           0        0.484518    1.037277    0.915492
      9          6           0        2.175250   -0.901131    0.000113
     10          1           0        0.291341   -1.451183    0.902596
     11          1           0        0.291277   -1.451384   -0.902097
     12          1           0        2.564052   -1.947927    0.000262
     13          1           0        2.569561   -0.378505   -0.904843
     14          1           0        2.569641   -0.378214    0.904866
 ---------------------------------------------------------------------
                    Distance matrix (angstroms):
                    1          2          3          4          5
     1  C    0.000000
     2  C    1.506718   0.000000
     3  H    1.116693   2.165238   0.000000
     4  H    1.116926   2.169462   1.811680   0.000000
     5  H    1.116945   2.169417   1.811631   1.809818   0.000000
     6  C    2.498683   1.514250   3.470243   2.765588   2.765489
     7  H    2.160106   1.122144   2.495119   2.518303   3.099668
     8  H    2.157595   1.122149   2.500541   3.098017   2.506704
     9  C    3.838530   2.498680   4.658808   4.162708   4.162642
    10  H    2.737586   2.163447   3.761918   3.108055   2.528486
    11  H    2.737525   2.163416   3.761924   2.528536   3.107902
    12  H    4.658919   3.470301   5.582979   4.848940   4.848850
    13  H    4.162493   2.765358   4.848580   4.374916   4.734422
    14  H    4.162512   2.765344   4.848540   4.734493   4.374905
                    6          7          8          9         10
     6  C    0.000000
     7  H    2.163466   0.000000
     8  H    2.151555   1.818036   0.000000
     9  C    1.506734   2.737558   2.730187   0.000000
    10  H    1.122117   3.096206   2.495980   2.160126   0.000000
    11  H    1.122122   2.515826   3.087783   2.160119   1.804693
    12  H    2.165359   3.761958   3.751473   1.116669   2.495231
    13  H    2.169378   2.528301   3.108933   1.116944   3.099639
    14  H    2.169380   3.107755   2.520211   1.116944   2.518317
                   11         12         13         14
    11  H    0.000000
    12  H    2.495258   0.000000
    13  H    2.518264   1.811720   0.000000
    14  H    3.099637   1.811723   1.809709   0.000000
 Symmetry turned off by external request.
 Stoichiometry    C4H10
 Framework group  C1[X(C4H10)]
 Deg. of freedom    36
 Full point group                 C1      NOp   1
 Rotational constants (GHZ):          22.7871265           3.7567484           3.5220777
 Standard basis: CC-pVTZ (5D, 7F)
   260 basis functions,   378 primitive gaussians,   290 cartesian basis functions
    17 alpha electrons       17 beta electrons
       nuclear repulsion energy       131.0328090280 Hartrees.
 NAtoms=   14 NActive=   14 NUniq=   14 SFac= 1.00D+00 NAtFMM=   60 NAOKFM=F Big=F
 Integral buffers will be    131072 words long.
 Raffenetti 2 integral format.
 Two-electron integral symmetry is turned off.
 Nuclear repulsion after empirical dispersion term =      131.0263389239 Hartrees.
 One-electron integrals computed using PRISM.
 NBasis=   260 RedAO= T EigKep=  5.45D-04  NBF=   260
 NBsUse=   260 1.00D-06 EigRej= -1.00D+00 NBFU=   260
 ExpMin= 1.03D-01 ExpMax= 8.24D+03 ExpMxC= 2.81D+02 IAcc=3 IRadAn=         5 AccDes= 0.00D+00
 Harris functional with IExCor=  419 and IRadAn=       5 diagonalized for initial guess.
 HarFok:  IExCor=  419 AccDes= 0.00D+00 IRadAn=         5 IDoV= 1 UseB2=F ITyADJ=14
 ICtDFT=  3500011 ScaDFX=  1.000000  1.000000  1.000000  1.000000
 FoFCou: FMM=F IPFlag=           0 FMFlag=      100000 FMFlg1=           0
         NFxFlg=           0 DoJE=T BraDBF=F KetDBF=T FulRan=T
         wScrn=  0.000000 ICntrl=       500 IOpCl=  0 I1Cent=   200000004 NGrid=           0
         NMat0=    1 NMatS0=      1 NMatT0=    0 NMatD0=    1 NMtDS0=    0 NMtDT0=    0
 Symmetry not used in FoFCou.
 Initial guess <Sx>= 0.0000 <Sy>= 0.0000 <Sz>= 0.0000 <S**2>=-0.0000 S=-0.0000
 Requested convergence on RMS density matrix=1.00D-08 within 500 cycles.
 Requested convergence on MAX density matrix=1.00D-06.
 Requested convergence on             energy=1.00D-06.
 No special actions if energy rises.
 Integral accuracy reduced to 1.0D-05 until final iterations.
 Initial convergence to 1.0D-05 achieved.  Increase integral accuracy.
 SCF Done:  E(UB2PLYPD3) =  -158.114086563     A.U. after   10 cycles
            NFock= 10  Conv=0.86D-08     -V/T= 2.0065
 <Sx>= 0.0000 <Sy>= 0.0000 <Sz>= 0.0000 <S**2>=-0.0000 S=-0.0000
 <L.S>=  0.00000000000    
 Annihilation of the first spin contaminant:
 S**2 before annihilation    -0.0000,   after    -0.0000
 DoSCS=T DFT=T ScalE2(SS,OS)=  0.270000  0.270000
 ExpMin= 1.03D-01 ExpMax= 8.24D+03 ExpMxC= 2.81D+02 IAcc=3 IRadAn=         5 AccDes= 0.00D+00
 HarFok:  IExCor=  205 AccDes= 0.00D+00 IRadAn=         5 IDoV=-2 UseB2=F ITyADJ=14
 ICtDFT= 12500011 ScaDFX=  1.000000  1.000000  1.000000  1.000000
 Range of M.O.s used for correlation:     5   260
 NBasis=   260 NAE=    17 NBE=    17 NFC=     4 NFV=     0
 NROrb=    256 NOA=    13 NOB=    13 NVA=   243 NVB=   243

 **** Warning!!: The largest alpha MO coefficient is  0.12830516D+02


 **** Warning!!: The largest beta MO coefficient is  0.12830516D+02

 DoSCS=T DFT=T ScalE2(SS,OS)=  0.270000  0.270000
 Fully direct method using O(ONN) memory.
 JobTyp=2 Pass  1:  I=   5 to  17 NPSUse= 40 ParTrn=T ParDer=T DoDerP=T.
 JobTyp=3 Pass  1:  I=   5 to  17 NPSUse= 40 ParTrn=T ParDer=T DoDerP=T.
 Spin components of T(2) and E(2):
     alpha-alpha T2 =       0.3971358313D-01 E2=     -0.2544394769D-01
     alpha-beta  T2 =       0.2603661769D+00 E2=     -0.1835352141D+00
     beta-beta   T2 =       0.3971358313D-01 E2=     -0.2544394769D-01
 (S**2,0)=  0.00000D+00           (S**2,1)=  0.00000D+00
 E(PUHF)=      -0.15811408656D+03        E(PMP2)=      -0.15834850967D+03
 E2(B2PLYPD3) =    -0.2344231095D+00 E(B2PLYPD3) =    -0.15834850967215D+03
          IDoAtm=11111111111111
          Differentiating once with respect to electric field.
                with respect to dipole field.
          Differentiating once with respect to nuclear coordinates.
 Keep R1 and R2 ints in memory in canonical form, NReq=1196156648.
          There are     1 degrees of freedom in the 1st order CPHF.  IDoFFX=0 NUNeed=     1.
 LinEq1:  Iter=  0 NonCon=     1 RMS=4.54D-04 Max=8.08D-03 NDo=     1
 AX will form     1 AO Fock derivatives at one time.
 LinEq1:  Iter=  1 NonCon=     1 RMS=2.02D-04 Max=3.55D-03 NDo=     1
 LinEq1:  Iter=  2 NonCon=     1 RMS=3.87D-05 Max=6.64D-04 NDo=     1
 LinEq1:  Iter=  3 NonCon=     1 RMS=1.20D-05 Max=2.33D-04 NDo=     1
 LinEq1:  Iter=  4 NonCon=     1 RMS=3.27D-06 Max=4.58D-05 NDo=     1
 LinEq1:  Iter=  5 NonCon=     1 RMS=6.83D-07 Max=1.11D-05 NDo=     1
 LinEq1:  Iter=  6 NonCon=     1 RMS=9.47D-08 Max=1.27D-06 NDo=     1
 LinEq1:  Iter=  7 NonCon=     1 RMS=2.26D-08 Max=3.58D-07 NDo=     1
 LinEq1:  Iter=  8 NonCon=     1 RMS=4.61D-09 Max=6.62D-08 NDo=     1
 LinEq1:  Iter=  9 NonCon=     1 RMS=2.18D-09 Max=4.72D-08 NDo=     1
 LinEq1:  Iter= 10 NonCon=     1 RMS=3.43D-10 Max=7.67D-09 NDo=     1
 LinEq1:  Iter= 11 NonCon=     0 RMS=5.31D-11 Max=7.98D-10 NDo=     1
 Linear equations converged to 1.000D-10 1.000D-09 after    11 iterations.
 End of Minotr F.D. properties file   721 does not exist.
 End of Minotr F.D. properties file   722 does not exist.
 End of Minotr F.D. properties file   788 does not exist.

 **********************************************************************

            Population analysis using the SCF Density.

 **********************************************************************

 Alpha  occ. eigenvalues --  -10.60862 -10.60813 -10.60432 -10.60432  -0.91399
 Alpha  occ. eigenvalues --   -0.82976  -0.71623  -0.65523  -0.54152  -0.49266
 Alpha  occ. eigenvalues --   -0.48428  -0.47375  -0.42587  -0.40440  -0.39181
 Alpha  occ. eigenvalues --   -0.37785  -0.37468
 Alpha virt. eigenvalues --    0.07894   0.09697   0.11233   0.11398   0.14928
 Alpha virt. eigenvalues --    0.15747   0.16716   0.17870   0.18114   0.19249
 Alpha virt. eigenvalues --    0.23433   0.24076   0.27775   0.30006   0.31962
 Alpha virt. eigenvalues --    0.33068   0.34263   0.35889   0.37302   0.42088
 Alpha virt. eigenvalues --    0.46228   0.47000   0.47238   0.47366   0.51430
 Alpha virt. eigenvalues --    0.52568   0.53196   0.53233   0.53486   0.54574
 Alpha virt. eigenvalues --    0.55432   0.56261   0.56580   0.58847   0.59271
 Alpha virt. eigenvalues --    0.65028   0.69995   0.70651   0.76456   0.79989
 Alpha virt. eigenvalues --    0.81744   0.82423   0.84802   0.86691   0.90110
 Alpha virt. eigenvalues --    0.94115   0.95602   0.96185   0.98339   1.04366
 Alpha virt. eigenvalues --    1.05713   1.06035   1.10000   1.12519   1.14240
 Alpha virt. eigenvalues --    1.15053   1.17193   1.19012   1.19438   1.20280
 Alpha virt. eigenvalues --    1.23582   1.24848   1.25244   1.25398   1.27357
 Alpha virt. eigenvalues --    1.28352   1.28714   1.32975   1.34929   1.36580
 Alpha virt. eigenvalues --    1.36655   1.40041   1.42107   1.42240   1.45368
 Alpha virt. eigenvalues --    1.46161   1.48208   1.48950   1.50006   1.54400
 Alpha virt. eigenvalues --    1.57035   1.60089   1.62304   1.63413   1.63758
 Alpha virt. eigenvalues --    1.66965   1.73185   1.74024   1.78543   2.32860
 Alpha virt. eigenvalues --    2.39944   2.40489   2.43437   2.44577   2.46810
 Alpha virt. eigenvalues --    2.49558   2.51775   2.58711   2.60229   2.61783
 Alpha virt. eigenvalues --    2.64192   2.67750   2.70368   2.70518   2.71156
 Alpha virt. eigenvalues --    2.74259   2.78223   2.78471   2.81665   2.81966
 Alpha virt. eigenvalues --    2.86914   2.88272   2.90576   2.92942   2.93027
 Alpha virt. eigenvalues --    2.95791   2.98482   3.01082   3.03601   3.07283
 Alpha virt. eigenvalues --    3.08257   3.13248   3.13920   3.15026   3.17217
 Alpha virt. eigenvalues --    3.19503   3.20432   3.20537   3.21154   3.21954
 Alpha virt. eigenvalues --    3.24310   3.24653   3.28333   3.30663   3.30879
 Alpha virt. eigenvalues --    3.31621   3.35154   3.35256   3.41738   3.42543
 Alpha virt. eigenvalues --    3.44356   3.45167   3.51884   3.52245   3.54560
 Alpha virt. eigenvalues --    3.55897   3.55978   3.58291   3.60257   3.64500
 Alpha virt. eigenvalues --    3.66475   3.67630   3.69575   3.75669   3.77545
 Alpha virt. eigenvalues --    3.78782   3.81988   3.83566   3.87273   3.87607
 Alpha virt. eigenvalues --    3.90304   3.91152   3.92713   3.93291   3.97272
 Alpha virt. eigenvalues --    3.97492   3.98705   4.01669   4.03227   4.04190
 Alpha virt. eigenvalues --    4.06621   4.08383   4.08777   4.13845   4.14182
 Alpha virt. eigenvalues --    4.14281   4.18914   4.20951   4.21851   4.22945
 Alpha virt. eigenvalues --    4.23236   4.23463   4.24111   4.29712   4.31242
 Alpha virt. eigenvalues --    4.34811   4.35803   4.36446   4.39331   4.41596
 Alpha virt. eigenvalues --    4.44863   4.45792   4.50235   4.52031   4.55246
 Alpha virt. eigenvalues --    4.57710   4.68890   4.72945   4.73375   4.76055
 Alpha virt. eigenvalues --    4.80979   4.83947   4.90144   4.93335   4.94050
 Alpha virt. eigenvalues --    4.94778   4.95112   4.95314   5.01153   5.02958
 Alpha virt. eigenvalues --    5.04379   5.06579   5.11738   5.18449   5.19831
 Alpha virt. eigenvalues --    5.23151   5.29779   5.34732   5.38452   5.39012
 Alpha virt. eigenvalues --    5.40087   5.42684   5.43204   5.45345   5.50194
 Alpha virt. eigenvalues --    5.51314   5.57073   5.59105   5.62306   5.63370
 Alpha virt. eigenvalues --    5.65369   5.75447   5.78377   5.99535   6.04273
 Alpha virt. eigenvalues --    6.04392   6.04547   6.07448   6.15374  12.16640
 Alpha virt. eigenvalues --   12.85707  13.44208  13.46919
  Beta  occ. eigenvalues --  -10.60862 -10.60813 -10.60432 -10.60432  -0.91399
  Beta  occ. eigenvalues --   -0.82976  -0.71623  -0.65523  -0.54152  -0.49266
  Beta  occ. eigenvalues --   -0.48428  -0.47375  -0.42587  -0.40440  -0.39181
  Beta  occ. eigenvalues --   -0.37785  -0.37468
  Beta virt. eigenvalues --    0.07894   0.09697   0.11233   0.11398   0.14928
  Beta virt. eigenvalues --    0.15747   0.16716   0.17870   0.18114   0.19249
  Beta virt. eigenvalues --    0.23433   0.24076   0.27775   0.30006   0.31962
  Beta virt. eigenvalues --    0.33068   0.34263   0.35889   0.37302   0.42088
  Beta virt. eigenvalues --    0.46228   0.47000   0.47238   0.47366   0.51430
  Beta virt. eigenvalues --    0.52568   0.53196   0.53233   0.53486   0.54574
  Beta virt. eigenvalues --    0.55432   0.56261   0.56580   0.58847   0.59271
  Beta virt. eigenvalues --    0.65028   0.69995   0.70651   0.76456   0.79989
  Beta virt. eigenvalues --    0.81744   0.82423   0.84802   0.86691   0.90110
  Beta virt. eigenvalues --    0.94115   0.95602   0.96185   0.98339   1.04366
  Beta virt. eigenvalues --    1.05713   1.06035   1.10000   1.12519   1.14240
  Beta virt. eigenvalues --    1.15053   1.17193   1.19012   1.19438   1.20280
  Beta virt. eigenvalues --    1.23582   1.24848   1.25244   1.25398   1.27357
  Beta virt. eigenvalues --    1.28352   1.28714   1.32975   1.34929   1.36580
  Beta virt. eigenvalues --    1.36655   1.40041   1.42107   1.42240   1.45368
  Beta virt. eigenvalues --    1.46161   1.48208   1.48950   1.50006   1.54400
  Beta virt. eigenvalues --    1.57035   1.60089   1.62304   1.63413   1.63758
  Beta virt. eigenvalues --    1.66965   1.73185   1.74024   1.78543   2.32860
  Beta virt. eigenvalues --    2.39944   2.40489   2.43437   2.44577   2.46810
  Beta virt. eigenvalues --    2.49558   2.51775   2.58711   2.60229   2.61783
  Beta virt. eigenvalues --    2.64192   2.67750   2.70368   2.70518   2.71156
  Beta virt. eigenvalues --    2.74259   2.78223   2.78471   2.81665   2.81966
  Beta virt. eigenvalues --    2.86914   2.88272   2.90576   2.92942   2.93027
  Beta virt. eigenvalues --    2.95791   2.98482   3.01082   3.03601   3.07283
  Beta virt. eigenvalues --    3.08257   3.13248   3.13920   3.15026   3.17217
  Beta virt. eigenvalues --    3.19503   3.20432   3.20537   3.21154   3.21954
  Beta virt. eigenvalues --    3.24310   3.24653   3.28333   3.30663   3.30879
  Beta virt. eigenvalues --    3.31621   3.35154   3.35256   3.41738   3.42543
  Beta virt. eigenvalues --    3.44356   3.45167   3.51884   3.52245   3.54560
  Beta virt. eigenvalues --    3.55897   3.55978   3.58291   3.60257   3.64500
  Beta virt. eigenvalues --    3.66475   3.67630   3.69575   3.75669   3.77545
  Beta virt. eigenvalues --    3.78782   3.81988   3.83566   3.87273   3.87607
  Beta virt. eigenvalues --    3.90304   3.91152   3.92713   3.93291   3.97272
  Beta virt. eigenvalues --    3.97492   3.98705   4.01669   4.03227   4.04190
  Beta virt. eigenvalues --    4.06621   4.08383   4.08777   4.13845   4.14182
  Beta virt. eigenvalues --    4.14281   4.18914   4.20951   4.21851   4.22945
  Beta virt. eigenvalues --    4.23236   4.23463   4.24111   4.29712   4.31242
  Beta virt. eigenvalues --    4.34811   4.35803   4.36446   4.39331   4.41596
  Beta virt. eigenvalues --    4.44863   4.45792   4.50235   4.52031   4.55246
  Beta virt. eigenvalues --    4.57710   4.68890   4.72945   4.73375   4.76055
  Beta virt. eigenvalues --    4.80979   4.83947   4.90144   4.93335   4.94050
  Beta virt. eigenvalues --    4.94778   4.95112   4.95314   5.01153   5.02958
  Beta virt. eigenvalues --    5.04379   5.06579   5.11738   5.18449   5.19831
  Beta virt. eigenvalues --    5.23151   5.29779   5.34732   5.38452   5.39012
  Beta virt. eigenvalues --    5.40087   5.42684   5.43204   5.45345   5.50194
  Beta virt. eigenvalues --    5.51314   5.57073   5.59105   5.62306   5.63370
  Beta virt. eigenvalues --    5.65369   5.75447   5.78377   5.99535   6.04273
  Beta virt. eigenvalues --    6.04392   6.04547   6.07448   6.15374  12.16640
  Beta virt. eigenvalues --   12.85707  13.44208  13.46919
          Condensed to atoms (all electrons):
               1          2          3          4          5          6
     1  C    4.841539   0.349068   0.410194   0.407394   0.407499  -0.055957
     2  C    0.349068   4.855177  -0.038828  -0.039483  -0.039261   0.356737
     3  H    0.410194  -0.038828   0.599239  -0.029827  -0.029756   0.008514
     4  H    0.407394  -0.039483  -0.029827   0.610455  -0.032294  -0.005506
     5  H    0.407499  -0.039261  -0.029756  -0.032294   0.610225  -0.005324
     6  C   -0.055957   0.356737   0.008514  -0.005506  -0.005324   4.858023
     7  H   -0.037325   0.410706  -0.005430  -0.005619   0.007936  -0.038995
     8  H   -0.037354   0.410335  -0.005360   0.008027  -0.005927  -0.040159
     9  C    0.007000  -0.056365  -0.000493   0.000061   0.000064   0.349340
    10  H   -0.004227  -0.038502  -0.000097  -0.000278   0.003646   0.410299
    11  H   -0.004255  -0.039022  -0.000100   0.003734  -0.000289   0.409867
    12  H   -0.000491   0.008480   0.000026  -0.000002  -0.000001  -0.038649
    13  H    0.000060  -0.005343  -0.000002   0.000020  -0.000018  -0.039436
    14  H    0.000062  -0.005330  -0.000002  -0.000017   0.000019  -0.039525
               7          8          9         10         11         12
     1  C   -0.037325  -0.037354   0.007000  -0.004227  -0.004255  -0.000491
     2  C    0.410706   0.410335  -0.056365  -0.038502  -0.039022   0.008480
     3  H   -0.005430  -0.005360  -0.000493  -0.000097  -0.000100   0.000026
     4  H   -0.005619   0.008027   0.000061  -0.000278   0.003734  -0.000002
     5  H    0.007936  -0.005927   0.000064   0.003646  -0.000289  -0.000001
     6  C   -0.038995  -0.040159   0.349340   0.410299   0.409867  -0.038649
     7  H    0.624694  -0.034220  -0.004190   0.008106  -0.006081  -0.000091
     8  H   -0.034220   0.627400  -0.004282  -0.006462   0.008314  -0.000101
     9  C   -0.004190  -0.004282   4.841058  -0.037066  -0.037115   0.410030
    10  H    0.008106  -0.006462  -0.037066   0.626916  -0.035868  -0.005353
    11  H   -0.006081   0.008314  -0.037115  -0.035868   0.627774  -0.005381
    12  H   -0.000091  -0.000101   0.410030  -0.005353  -0.005381   0.599202
    13  H    0.003645  -0.000284   0.407522   0.007987  -0.005872  -0.029749
    14  H   -0.000273   0.003711   0.407521  -0.005871   0.008006  -0.029780
              13         14
     1  C    0.000060   0.000062
     2  C   -0.005343  -0.005330
     3  H   -0.000002  -0.000002
     4  H    0.000020  -0.000017
     5  H   -0.000018   0.000019
     6  C   -0.039436  -0.039525
     7  H    0.003645  -0.000273
     8  H   -0.000284   0.003711
     9  C    0.407522   0.407521
    10  H    0.007987  -0.005871
    11  H   -0.005872   0.008006
    12  H   -0.029749  -0.029780
    13  H    0.610451  -0.032402
    14  H   -0.032402   0.610563
          Atomic-Atomic Spin Densities.
               1          2          3          4          5          6
     1  C   -0.000000   0.000000   0.000000   0.000000  -0.000000   0.000000
     2  C    0.000000  -0.000000  -0.000000  -0.000000   0.000000  -0.000000
     3  H    0.000000  -0.000000  -0.000000   0.000000   0.000000   0.000000
     4  H    0.000000  -0.000000   0.000000  -0.000000  -0.000000   0.000000
     5  H   -0.000000   0.000000   0.000000  -0.000000   0.000000  -0.000000
     6  C    0.000000  -0.000000   0.000000   0.000000  -0.000000   0.000000
     7  H   -0.000000   0.000000   0.000000  -0.000000  -0.000000  -0.000000
     8  H    0.000000  -0.000000  -0.000000  -0.000000  -0.000000   0.000000
     9  C    0.000000   0.000000   0.000000  -0.000000   0.000000   0.000000
    10  H   -0.000000   0.000000   0.000000   0.000000  -0.000000  -0.000000
    11  H    0.000000  -0.000000   0.000000   0.000000   0.000000   0.000000
    12  H    0.000000  -0.000000  -0.000000  -0.000000  -0.000000   0.000000
    13  H    0.000000   0.000000  -0.000000  -0.000000   0.000000   0.000000
    14  H    0.000000  -0.000000  -0.000000   0.000000  -0.000000   0.000000
               7          8          9         10         11         12
     1  C   -0.000000   0.000000   0.000000  -0.000000   0.000000   0.000000
     2  C    0.000000  -0.000000   0.000000   0.000000  -0.000000  -0.000000
     3  H    0.000000  -0.000000   0.000000   0.000000   0.000000  -0.000000
     4  H   -0.000000  -0.000000  -0.000000   0.000000   0.000000  -0.000000
     5  H   -0.000000  -0.000000   0.000000  -0.000000   0.000000  -0.000000
     6  C   -0.000000   0.000000   0.000000  -0.000000   0.000000   0.000000
     7  H   -0.000000   0.000000   0.000000  -0.000000  -0.000000   0.000000
     8  H    0.000000  -0.000000  -0.000000   0.000000  -0.000000   0.000000
     9  C    0.000000  -0.000000  -0.000000   0.000000  -0.000000   0.000000
    10  H   -0.000000   0.000000   0.000000   0.000000   0.000000  -0.000000
    11  H   -0.000000  -0.000000  -0.000000   0.000000  -0.000000  -0.000000
    12  H    0.000000   0.000000   0.000000  -0.000000  -0.000000   0.000000
    13  H   -0.000000  -0.000000   0.000000  -0.000000   0.000000   0.000000
    14  H   -0.000000  -0.000000  -0.000000  -0.000000  -0.000000  -0.000000
              13         14
     1  C    0.000000   0.000000
     2  C    0.000000  -0.000000
     3  H   -0.000000  -0.000000
     4  H   -0.000000   0.000000
     5  H    0.000000  -0.000000
     6  C    0.000000   0.000000
     7  H   -0.000000  -0.000000
     8  H   -0.000000  -0.000000
     9  C    0.000000  -0.000000
    10  H   -0.000000  -0.000000
    11  H    0.000000  -0.000000
    12  H    0.000000  -0.000000
    13  H   -0.000000   0.000000
    14  H    0.000000   0.000000
 Mulliken charges and spin densities:
               1          2
     1  C   -0.283207   0.000000
     2  C   -0.128369  -0.000000
     3  H    0.091920  -0.000000
     4  H    0.083335  -0.000000
     5  H    0.083482   0.000000
     6  C   -0.129230   0.000000
     7  H    0.077135  -0.000000
     8  H    0.076363  -0.000000
     9  C   -0.283085  -0.000000
    10  H    0.076770   0.000000
    11  H    0.076288   0.000000
    12  H    0.091861   0.000000
    13  H    0.083419   0.000000
    14  H    0.083319   0.000000
 Sum of Mulliken charges =  -0.00000   0.00000
 Mulliken charges and spin densities with hydrogens summed into heavy atoms:
               1          2
     1  C   -0.024471   0.000000
     2  C    0.025129  -0.000000
     6  C    0.023828   0.000000
     9  C   -0.024486  -0.000000
 Electronic spatial extent (au):  <R**2>=            440.4802
 Charge=             -0.0000 electrons
 Dipole moment (field-independent basis, Debye):
    X=             -0.0021    Y=             -0.0026    Z=              0.0017  Tot=              0.0038
 Quadrupole moment (field-independent basis, Debye-Ang):
   XX=            -30.3473   YY=            -28.9660   ZZ=            -28.1688
   XY=              0.1687   XZ=             -0.0033   YZ=             -0.0188
 Traceless Quadrupole moment (field-independent basis, Debye-Ang):
   XX=             -1.1866   YY=              0.1947   ZZ=              0.9919
   XY=              0.1687   XZ=             -0.0033   YZ=             -0.0188
 Octapole moment (field-independent basis, Debye-Ang**2):
  XXX=            -35.4674  YYY=             17.1240  ZZZ=             -0.0219  XYY=            -11.3649
  XXY=              6.1264  XXZ=             -0.0134  XZZ=            -10.9759  YZZ=              5.6038
  YYZ=             -0.0335  XYZ=             -0.0103
 Hexadecapole moment (field-independent basis, Debye-Ang**3):
 XXXX=           -425.3774 YYYY=           -159.3888 ZZZZ=            -61.4420 XXXY=             77.6128
 XXXZ=             -0.0396 YYYX=             69.2794 YYYZ=             -0.0662 ZZZX=             -0.0184
 ZZZY=             -0.0016 XXYY=            -94.1682 XXZZ=            -76.4187 YYZZ=            -37.2150
 XXYZ=             -0.0031 YYXZ=             -0.0217 ZZXY=             26.8489
 N-N= 1.310263389239D+02 E-N=-6.276053355855D+02  KE= 1.570905199622D+02
                          Isotropic Fermi Contact Couplings
        Atom                 a.u.       MegaHertz       Gauss      10(-4) cm-1
     1  C(13)              0.00000       0.00000       0.00000       0.00000
     2  C(13)              0.00000       0.00000       0.00000       0.00000
     3  H(1)               0.00000       0.00000       0.00000       0.00000
     4  H(1)               0.00000       0.00000       0.00000       0.00000
     5  H(1)               0.00000       0.00000       0.00000       0.00000
     6  C(13)              0.00000       0.00000       0.00000       0.00000
     7  H(1)              -0.00000      -0.00000      -0.00000      -0.00000
     8  H(1)               0.00000       0.00000       0.00000       0.00000
     9  C(13)              0.00000       0.00000       0.00000       0.00000
    10  H(1)              -0.00000      -0.00000      -0.00000      -0.00000
    11  H(1)              -0.00000      -0.00000      -0.00000      -0.00000
    12  H(1)              -0.00000      -0.00000      -0.00000      -0.00000
    13  H(1)               0.00000       0.00000       0.00000       0.00000
    14  H(1)              -0.00000      -0.00000      -0.00000      -0.00000
 --------------------------------------------------------
       Center         ----  Spin Dipole Couplings  ----
                      3XX-RR        3YY-RR        3ZZ-RR
 --------------------------------------------------------
     1   Atom        0.000000      0.000000      0.000000
     2   Atom        0.000000      0.000000      0.000000
     3   Atom        0.000000      0.000000      0.000000
     4   Atom        0.000000      0.000000      0.000000
     5   Atom        0.000000      0.000000      0.000000
     6   Atom        0.000000      0.000000      0.000000
     7   Atom        0.000000      0.000000      0.000000
     8   Atom        0.000000      0.000000      0.000000
     9   Atom        0.000000      0.000000      0.000000
    10   Atom        0.000000      0.000000      0.000000
    11   Atom        0.000000      0.000000      0.000000
    12   Atom        0.000000      0.000000      0.000000
    13   Atom        0.000000      0.000000      0.000000
    14   Atom        0.000000      0.000000      0.000000
 --------------------------------------------------------
                        XY            XZ            YZ
 --------------------------------------------------------
     1   Atom        0.000000      0.000000      0.000000
     2   Atom        0.000000      0.000000      0.000000
     3   Atom        0.000000      0.000000      0.000000
     4   Atom        0.000000      0.000000      0.000000
     5   Atom        0.000000      0.000000      0.000000
     6   Atom        0.000000      0.000000      0.000000
     7   Atom        0.000000      0.000000      0.000000
     8   Atom        0.000000      0.000000      0.000000
     9   Atom        0.000000      0.000000      0.000000
    10   Atom        0.000000      0.000000      0.000000
    11   Atom        0.000000      0.000000      0.000000
    12   Atom        0.000000      0.000000      0.000000
    13   Atom        0.000000      0.000000      0.000000
    14   Atom        0.000000      0.000000      0.000000
 --------------------------------------------------------


 ---------------------------------------------------------------------------------
              Anisotropic Spin Dipole Couplings in Principal Axis System
 ---------------------------------------------------------------------------------

       Atom             a.u.   MegaHertz   Gauss  10(-4) cm-1        Axes

              Baa     0.0000     0.000     0.000     0.000  1.0000  0.0000  0.0000
     1 C(13)  Bbb     0.0000     0.000     0.000     0.000 -0.0000  1.0000  0.0000
              Bcc     0.0000     0.000     0.000     0.000  0.0000  0.0000  1.0000
 
              Baa     0.0000     0.000     0.000     0.000  1.0000  0.0000  0.0000
     2 C(13)  Bbb     0.0000     0.000     0.000     0.000 -0.0000  1.0000  0.0000
              Bcc     0.0000     0.000     0.000     0.000  0.0000  0.0000  1.0000
 
              Baa     0.0000     0.000     0.000     0.000  1.0000  0.0000  0.0000
     3 H(1)   Bbb     0.0000     0.000     0.000     0.000 -0.0000  1.0000  0.0000
              Bcc     0.0000     0.000     0.000     0.000  0.0000  0.0000  1.0000
 
              Baa     0.0000     0.000     0.000     0.000  1.0000  0.0000  0.0000
     4 H(1)   Bbb     0.0000     0.000     0.000     0.000 -0.0000  1.0000  0.0000
              Bcc     0.0000     0.000     0.000     0.000  0.0000  0.0000  1.0000
 
              Baa     0.0000     0.000     0.000     0.000  1.0000  0.0000  0.0000
     5 H(1)   Bbb     0.0000     0.000     0.000     0.000 -0.0000  1.0000  0.0000
              Bcc     0.0000     0.000     0.000     0.000  0.0000  0.0000  1.0000
 
              Baa     0.0000     0.000     0.000     0.000  1.0000  0.0000  0.0000
     6 C(13)  Bbb     0.0000     0.000     0.000     0.000 -0.0000  1.0000  0.0000
              Bcc     0.0000     0.000     0.000     0.000  0.0000  0.0000  1.0000
 
              Baa     0.0000     0.000     0.000     0.000  1.0000  0.0000  0.0000
     7 H(1)   Bbb     0.0000     0.000     0.000     0.000 -0.0000  1.0000  0.0000
              Bcc     0.0000     0.000     0.000     0.000  0.0000  0.0000  1.0000
 
              Baa     0.0000     0.000     0.000     0.000  1.0000  0.0000  0.0000
     8 H(1)   Bbb     0.0000     0.000     0.000     0.000 -0.0000  1.0000  0.0000
              Bcc     0.0000     0.000     0.000     0.000  0.0000  0.0000  1.0000
 
              Baa     0.0000     0.000     0.000     0.000  1.0000  0.0000  0.0000
     9 C(13)  Bbb     0.0000     0.000     0.000     0.000 -0.0000  1.0000  0.0000
              Bcc     0.0000     0.000     0.000     0.000  0.0000  0.0000  1.0000
 
              Baa     0.0000     0.000     0.000     0.000  1.0000  0.0000  0.0000
    10 H(1)   Bbb     0.0000     0.000     0.000     0.000 -0.0000  1.0000  0.0000
              Bcc     0.0000     0.000     0.000     0.000  0.0000  0.0000  1.0000
 
              Baa     0.0000     0.000     0.000     0.000  1.0000  0.0000  0.0000
    11 H(1)   Bbb     0.0000     0.000     0.000     0.000 -0.0000  1.0000  0.0000
              Bcc     0.0000     0.000     0.000     0.000  0.0000  0.0000  1.0000
 
              Baa     0.0000     0.000     0.000     0.000  1.0000  0.0000  0.0000
    12 H(1)   Bbb     0.0000     0.000     0.000     0.000 -0.0000  1.0000  0.0000
              Bcc     0.0000     0.000     0.000     0.000  0.0000  0.0000  1.0000
 
              Baa     0.0000     0.000     0.000     0.000  1.0000  0.0000  0.0000
    13 H(1)   Bbb     0.0000     0.000     0.000     0.000 -0.0000  1.0000  0.0000
              Bcc     0.0000     0.000     0.000     0.000  0.0000  0.0000  1.0000
 
              Baa     0.0000     0.000     0.000     0.000  1.0000  0.0000  0.0000
    14 H(1)   Bbb     0.0000     0.000     0.000     0.000 -0.0000  1.0000  0.0000
              Bcc     0.0000     0.000     0.000     0.000  0.0000  0.0000  1.0000
 

 ---------------------------------------------------------------------------------

 Calling FoFJK, ICntrl=  10002127 FMM=F ISym2X=0 I1Cent= 0 IOpClX= 1 NMat=1 NMatS=1 NMatT=0.
 -------------------------------------------------------------------
 Center     Atomic                   Forces (Hartrees/Bohr)
 Number     Number              X              Y              Z
 -------------------------------------------------------------------
      1        6          -0.021539976    0.005673071   -0.000146998
      2        6           0.009777746    0.012068967    0.001580423
      3        1           0.002164625   -0.016566575    0.000010172
      4        1           0.004016460    0.007865440    0.013642504
      5        1           0.004064168    0.007833533   -0.013726870
      6        6          -0.010425132   -0.014599844   -0.000908881
      7        1          -0.004024398   -0.007132844    0.015744565
      8        1          -0.004136755   -0.005600614   -0.016152579
      9        6           0.021393621   -0.005694140   -0.000008867
     10        1           0.004417868    0.007759771   -0.014752487
     11        1           0.004534305    0.007524692    0.014691999
     12        1          -0.002171960    0.016571979    0.000007333
     13        1          -0.004040100   -0.007858588    0.013694736
     14        1          -0.004030472   -0.007844849   -0.013675051
 -------------------------------------------------------------------
 Cartesian Forces:  Max     0.021539976 RMS     0.010219955

 GradGradGradGradGradGradGradGradGradGradGradGradGradGradGradGradGradGrad
 Berny optimization.
 FormGI is forming the generalized inverse of G from B-inverse, IUseBI=4.
 Internal  Forces:  Max     0.017511019 RMS     0.007716420
 Search for a local minimum.
 Step number   1 out of a maximum of  100 on scan point     1 out of    37
 All quantities printed in internal units (Hartrees-Bohrs-Radians)
 Mixed Optimization -- RFO/linear search
 Second derivative matrix not updated -- first step.
 ITU=  0
     Eigenvalues ---    0.00577   0.00677   0.03850   0.05058   0.05691
     Eigenvalues ---    0.05796   0.05820   0.06298   0.08282   0.12133
     Eigenvalues ---    0.16000   0.16000   0.16000   0.16000   0.16000
     Eigenvalues ---    0.16000   0.16000   0.16000   0.16000   0.16000
     Eigenvalues ---    0.21903   0.22426   0.30927   0.31347   0.31347
     Eigenvalues ---    0.31350   0.31350   0.31681   0.31683   0.31876
     Eigenvalues ---    0.31876   0.31876   0.31878   0.31902   0.31904
     Eigenvalues --- 1000.000001000.000001000.000001000.000001000.00000
     Eigenvalues --- 1000.000001000.000001000.000001000.000001000.00000
     Eigenvalues --- 1000.000001000.000001000.000001000.000001000.00000
     Eigenvalues --- 1000.000001000.000001000.000001000.000001000.00000
     Eigenvalues --- 1000.00000
 RFO step:  Lambda=-1.10188498D-02 EMin= 5.77451142D-03
 Linear search not attempted -- first point.
 Iteration  1 RMS(Cart)=  0.04264404 RMS(Int)=  0.00036464
 Iteration  2 RMS(Cart)=  0.00049830 RMS(Int)=  0.00012529
 Iteration  3 RMS(Cart)=  0.00000016 RMS(Int)=  0.00012529
 Iteration  1 RMS(Cart)=  0.00000000 RMS(Int)=  0.00000000
 Variable       Old X    -DE/DX   Delta X   Delta X   Delta X     New X
                                 (Linear)    (Quad)   (Total)
    R1        2.84728   0.01130   0.00000   0.03445   0.03445   2.88174
    R2        2.11024  -0.01628   0.00000  -0.04934  -0.04934   2.06090
    R3        2.11069  -0.01615   0.00000  -0.04897  -0.04897   2.06171
    R4        2.11072  -0.01622   0.00000  -0.04919  -0.04919   2.06153
    R5        2.86152   0.00741   0.00000   0.02314   0.02314   2.88466
    R6        2.12055  -0.01751   0.00000  -0.05396  -0.05396   2.06658
    R7        2.12055  -0.01720   0.00000  -0.05302  -0.05302   2.06754
    R8        2.84731   0.01115   0.00000   0.03402   0.03402   2.88133
    R9        2.12049  -0.01715   0.00000  -0.05286  -0.05286   2.06764
   R10        2.12050  -0.01703   0.00000  -0.05247  -0.05247   2.06803
   R11        2.11020  -0.01629   0.00000  -0.04936  -0.04936   2.06084
   R12        2.11072  -0.01620   0.00000  -0.04912  -0.04912   2.06160
   R13        2.11072  -0.01617   0.00000  -0.04904  -0.04904   2.06168
    A1        1.92623   0.00525   0.00000   0.03069   0.03057   1.95681
    A2        1.93180   0.00107   0.00000   0.00626   0.00614   1.93794
    A3        1.93172   0.00110   0.00000   0.00644   0.00633   1.93804
    A4        1.89205  -0.00261   0.00000  -0.01529  -0.01540   1.87665
    A5        1.89195  -0.00245   0.00000  -0.01432  -0.01443   1.87752
    A6        1.88889  -0.00265   0.00000  -0.01552  -0.01563   1.87326
    A7        1.94790   0.00720   0.00000   0.03613   0.03582   1.98372
    A8        1.91361  -0.00215   0.00000  -0.00208  -0.00216   1.91145
    A9        1.91020  -0.00247   0.00000   0.00064   0.00014   1.91034
   A10        1.90927  -0.00097   0.00000  -0.00817  -0.00825   1.90101
   A11        1.89327   0.00119   0.00000   0.00661   0.00628   1.89956
   A12        1.88854  -0.00306   0.00000  -0.03527  -0.03536   1.85319
   A13        1.94788   0.00677   0.00000   0.03481   0.03469   1.98257
   A14        1.90927  -0.00231   0.00000  -0.01029  -0.01048   1.89879
   A15        1.90922  -0.00207   0.00000  -0.00771  -0.00793   1.90129
   A16        1.91365  -0.00134   0.00000  -0.00059  -0.00059   1.91305
   A17        1.91363  -0.00147   0.00000  -0.00094  -0.00099   1.91264
   A18        1.86847   0.00014   0.00000  -0.01754  -0.01767   1.85080
   A19        1.92641   0.00483   0.00000   0.03003   0.02986   1.95626
   A20        1.93165   0.00130   0.00000   0.00670   0.00661   1.93826
   A21        1.93165   0.00130   0.00000   0.00669   0.00661   1.93826
   A22        1.89212  -0.00293   0.00000  -0.01539  -0.01555   1.87656
   A23        1.89212  -0.00293   0.00000  -0.01544  -0.01560   1.87652
   A24        1.88870  -0.00186   0.00000  -0.01434  -0.01433   1.87437
    D1       -1.02342  -0.00015   0.00000   0.00000   0.00000  -1.02342
    D2        3.14155  -0.00027   0.00000  -0.00275  -0.00284   3.13871
    D3       -1.02078   0.00091   0.00000   0.01233   0.01216  -1.00863
    D4        1.02074  -0.00144   0.00000  -0.01914  -0.01920   1.00154
    D5        1.02073  -0.00162   0.00000  -0.01825  -0.01823   1.00250
    D6        3.14158  -0.00044   0.00000  -0.00317  -0.00323   3.13835
    D7       -1.10008  -0.00279   0.00000  -0.03465  -0.03459  -1.13467
    D8       -1.03579   0.00193   0.00000   0.02491   0.02503  -1.01076
    D9        1.08507   0.00310   0.00000   0.03999   0.04002   1.12509
   D10        3.12659   0.00075   0.00000   0.00851   0.00866   3.13526
   D11        3.14158  -0.00008   0.00000  -0.00124  -0.00124   3.14034
   D12       -1.04693   0.00024   0.00000   0.00340   0.00345  -1.04348
   D13        1.04689  -0.00039   0.00000  -0.00582  -0.00586   1.04103
   D14        1.02326  -0.00071   0.00000  -0.01081  -0.01087   1.01239
   D15        3.11794  -0.00039   0.00000  -0.00617  -0.00618   3.11176
   D16       -1.07142  -0.00102   0.00000  -0.01539  -0.01549  -1.08691
   D17       -1.02336   0.00077   0.00000   0.01135   0.01140  -1.01196
   D18        1.07132   0.00109   0.00000   0.01599   0.01609   1.08741
   D19       -3.11804   0.00046   0.00000   0.00678   0.00678  -3.11126
         Item               Value     Threshold  Converged?
 Maximum Force            0.017511     0.000450     NO 
 RMS     Force            0.007786     0.000300     NO 
 Maximum Displacement     0.087394     0.001800     NO 
 RMS     Displacement     0.042419     0.001200     NO 
 Predicted change in Energy=-5.741143D-03
 GradGradGradGradGradGradGradGradGradGradGradGradGradGradGradGradGradGrad

                          Input orientation:                          
 ---------------------------------------------------------------------
 Center     Atomic      Atomic             Coordinates (Angstroms)
 Number     Number       Type             X           Y           Z
 ---------------------------------------------------------------------
      1          6           0       -1.430957    0.527118   -0.000116
      2          6           0        0.093825    0.504562    0.001821
      3          1           0       -1.826585    1.543336    0.012083
      4          1           0       -1.828843    0.030306   -0.886215
      5          1           0       -1.831489    0.007236    0.871315
      6          6           0        0.685649   -0.902540    0.002141
      7          1           0        0.468362    1.046573   -0.871036
      8          1           0        0.465132    1.044156    0.878182
      9          6           0        2.210241   -0.923336    0.000047
     10          1           0        0.312252   -1.441768    0.877906
     11          1           0        0.310146   -1.445942   -0.870398
     12          1           0        2.606461   -1.939359    0.001587
     13          1           0        2.607896   -0.417103   -0.880732
     14          1           0        2.610373   -0.413512    0.877680
 ---------------------------------------------------------------------
                    Distance matrix (angstroms):
                    1          2          3          4          5
     1  C    0.000000
     2  C    1.524950   0.000000
     3  H    1.090582   2.183376   0.000000
     4  H    1.091011   2.170295   1.759603   0.000000
     5  H    1.090915   2.170297   1.760087   1.757684   0.000000
     6  C    2.554202   1.526496   3.506241   2.825252   2.814096
     7  H    2.153079   1.093588   2.508676   2.512008   3.066810
     8  H    2.152647   1.094093   2.500254   3.066482   2.519865
     9  C    3.919456   2.553059   4.730811   4.243712   4.238001
    10  H    2.772402   2.145562   3.772945   3.140607   2.587524
    11  H    2.771605   2.147562   3.778911   2.599006   3.119598
    12  H    4.731200   3.505152   5.637479   4.933528   4.923521
    13  H    4.240209   2.819382   4.930016   4.459244   4.791437
    14  H    4.241186   2.818333   4.925962   4.797389   4.461749
                    6          7          8          9         10
     6  C    0.000000
     7  H    2.146787   0.000000
     8  H    2.146089   1.749223   0.000000
     9  C    1.524735   2.770103   2.772643   0.000000
    10  H    1.094147   3.045490   2.490621   2.154477   0.000000
    11  H    1.094355   2.497531   3.046661   2.154333   1.748310
    12  H    2.182777   3.774749   3.775589   1.090549   2.505779
    13  H    2.170287   2.592305   3.133767   1.090951   3.068017
    14  H    2.170317   3.126990   2.593618   1.090993   2.517671
                   11         12         13         14
    11  H    0.000000
    12  H    2.505371   0.000000
    13  H    2.517592   1.759475   0.000000
    14  H    3.068018   1.759478   1.758418   0.000000
 Symmetry turned off by external request.
 Stoichiometry    C4H10
 Framework group  C1[X(C4H10)]
 Deg. of freedom    36
 Full point group                 C1      NOp   1
 Rotational constants (GHZ):          23.7573700           3.6198976           3.4034612
 Standard basis: CC-pVTZ (5D, 7F)
   260 basis functions,   378 primitive gaussians,   290 cartesian basis functions
    17 alpha electrons       17 beta electrons
       nuclear repulsion energy       130.7221767582 Hartrees.
 NAtoms=   14 NActive=   14 NUniq=   14 SFac= 1.00D+00 NAtFMM=   60 NAOKFM=F Big=F
 Integral buffers will be    131072 words long.
 Raffenetti 2 integral format.
 Two-electron integral symmetry is turned off.
 Nuclear repulsion after empirical dispersion term =      130.7157590099 Hartrees.
 One-electron integrals computed using PRISM.
 NBasis=   260 RedAO= T EigKep=  5.91D-04  NBF=   260
 NBsUse=   260 1.00D-06 EigRej= -1.00D+00 NBFU=   260
 Initial guess from the checkpoint file:  "/localscratch/339543/Gau-61059.chk"
 B after Tr=     0.000010   -0.001375    0.000992
         Rot=    1.000000    0.000010    0.000000    0.000065 Ang=   0.01 deg.
 Initial guess <Sx>= 0.0000 <Sy>= 0.0000 <Sz>= 0.0000 <S**2>= 0.0000 S= 0.0000
 ExpMin= 1.03D-01 ExpMax= 8.24D+03 ExpMxC= 2.81D+02 IAcc=3 IRadAn=         5 AccDes= 0.00D+00
 Harris functional with IExCor=  419 and IRadAn=       5 diagonalized for initial guess.
 HarFok:  IExCor=  419 AccDes= 0.00D+00 IRadAn=         5 IDoV= 1 UseB2=F ITyADJ=14
 ICtDFT=  3500011 ScaDFX=  1.000000  1.000000  1.000000  1.000000
 FoFCou: FMM=F IPFlag=           0 FMFlag=      100000 FMFlg1=           0
         NFxFlg=           0 DoJE=T BraDBF=F KetDBF=T FulRan=T
         wScrn=  0.000000 ICntrl=       500 IOpCl=  0 I1Cent=   200000004 NGrid=           0
         NMat0=    1 NMatS0=      1 NMatT0=    0 NMatD0=    1 NMtDS0=    0 NMtDT0=    0
 Symmetry not used in FoFCou.
 Requested convergence on RMS density matrix=1.00D-08 within 500 cycles.
 Requested convergence on MAX density matrix=1.00D-06.
 Requested convergence on             energy=1.00D-06.
 No special actions if energy rises.
 Integral accuracy reduced to 1.0D-05 until final iterations.
 Initial convergence to 1.0D-05 achieved.  Increase integral accuracy.
 SCF Done:  E(UB2PLYPD3) =  -158.120795762     A.U. after    9 cycles
            NFock=  9  Conv=0.56D-08     -V/T= 2.0049
 <Sx>= 0.0000 <Sy>= 0.0000 <Sz>= 0.0000 <S**2>=-0.0000 S=-0.0000
 <L.S>=  0.00000000000    
 Annihilation of the first spin contaminant:
 S**2 before annihilation    -0.0000,   after    -0.0000
 DoSCS=T DFT=T ScalE2(SS,OS)=  0.270000  0.270000
 ExpMin= 1.03D-01 ExpMax= 8.24D+03 ExpMxC= 2.81D+02 IAcc=3 IRadAn=         5 AccDes= 0.00D+00
 HarFok:  IExCor=  205 AccDes= 0.00D+00 IRadAn=         5 IDoV=-2 UseB2=F ITyADJ=14
 ICtDFT= 12500011 ScaDFX=  1.000000  1.000000  1.000000  1.000000
 Range of M.O.s used for correlation:     5   260
 NBasis=   260 NAE=    17 NBE=    17 NFC=     4 NFV=     0
 NROrb=    256 NOA=    13 NOB=    13 NVA=   243 NVB=   243

 **** Warning!!: The largest alpha MO coefficient is  0.11611850D+02


 **** Warning!!: The largest beta MO coefficient is  0.11611850D+02

 DoSCS=T DFT=T ScalE2(SS,OS)=  0.270000  0.270000
 Fully direct method using O(ONN) memory.
 JobTyp=2 Pass  1:  I=   5 to  17 NPSUse= 40 ParTrn=T ParDer=T DoDerP=T.
 JobTyp=3 Pass  1:  I=   5 to  17 NPSUse= 40 ParTrn=T ParDer=T DoDerP=T.
 Spin components of T(2) and E(2):
     alpha-alpha T2 =       0.3910511534D-01 E2=     -0.2532756602D-01
     alpha-beta  T2 =       0.2545590445D+00 E2=     -0.1825459915D+00
     beta-beta   T2 =       0.3910511534D-01 E2=     -0.2532756602D-01
 (S**2,0)=  0.00000D+00           (S**2,1)=  0.00000D+00
 E(PUHF)=      -0.15812079576D+03        E(PMP2)=      -0.15835399689D+03
 E2(B2PLYPD3) =    -0.2332011236D+00 E(B2PLYPD3) =    -0.15835399688588D+03
          IDoAtm=11111111111111
          Differentiating once with respect to electric field.
                with respect to dipole field.
          Differentiating once with respect to nuclear coordinates.
 Keep R1 and R2 ints in memory in canonical form, NReq=1196156648.
          There are     1 degrees of freedom in the 1st order CPHF.  IDoFFX=0 NUNeed=     1.
 LinEq1:  Iter=  0 NonCon=     1 RMS=4.39D-04 Max=8.06D-03 NDo=     1
 AX will form     1 AO Fock derivatives at one time.
 LinEq1:  Iter=  1 NonCon=     1 RMS=1.85D-04 Max=3.11D-03 NDo=     1
 LinEq1:  Iter=  2 NonCon=     1 RMS=3.63D-05 Max=6.03D-04 NDo=     1
 LinEq1:  Iter=  3 NonCon=     1 RMS=1.07D-05 Max=2.10D-04 NDo=     1
 LinEq1:  Iter=  4 NonCon=     1 RMS=3.00D-06 Max=3.95D-05 NDo=     1
 LinEq1:  Iter=  5 NonCon=     1 RMS=6.12D-07 Max=9.32D-06 NDo=     1
 LinEq1:  Iter=  6 NonCon=     1 RMS=8.04D-08 Max=1.04D-06 NDo=     1
 LinEq1:  Iter=  7 NonCon=     1 RMS=1.88D-08 Max=3.25D-07 NDo=     1
 LinEq1:  Iter=  8 NonCon=     1 RMS=2.80D-09 Max=4.62D-08 NDo=     1
 LinEq1:  Iter=  9 NonCon=     1 RMS=1.10D-09 Max=1.51D-08 NDo=     1
 LinEq1:  Iter= 10 NonCon=     1 RMS=2.87D-10 Max=4.83D-09 NDo=     1
 LinEq1:  Iter= 11 NonCon=     0 RMS=4.78D-11 Max=6.48D-10 NDo=     1
 Linear equations converged to 1.000D-10 1.000D-09 after    11 iterations.
 End of Minotr F.D. properties file   721 does not exist.
 End of Minotr F.D. properties file   722 does not exist.
 End of Minotr F.D. properties file   788 does not exist.
 Calling FoFJK, ICntrl=  10002127 FMM=F ISym2X=0 I1Cent= 0 IOpClX= 1 NMat=1 NMatS=1 NMatT=0.
 -------------------------------------------------------------------
 Center     Atomic                   Forces (Hartrees/Bohr)
 Number     Number              X              Y              Z
 -------------------------------------------------------------------
      1        6          -0.001169934   -0.001620341   -0.000214156
      2        6           0.002346289    0.002357174    0.000338312
      3        1           0.001405071   -0.000501021    0.000004583
      4        1           0.000324053    0.000011976    0.000137201
      5        1           0.000311968    0.000103578   -0.000022338
      6        6          -0.002931507   -0.002436792   -0.000047962
      7        1          -0.000122488    0.000039963    0.000494943
      8        1          -0.000142166   -0.000107364   -0.000751609
      9        6           0.001175258    0.001257286    0.000035424
     10        1           0.000443427    0.000100207   -0.000660108
     11        1           0.000408356    0.000313626    0.000704779
     12        1          -0.001355988    0.000456937   -0.000000840
     13        1          -0.000343681    0.000015736    0.000139036
     14        1          -0.000348658    0.000009035   -0.000157265
 -------------------------------------------------------------------
 Cartesian Forces:  Max     0.002931507 RMS     0.000973029

 GradGradGradGradGradGradGradGradGradGradGradGradGradGradGradGradGradGrad
 Berny optimization.
 Using GEDIIS/GDIIS optimizer.
 FormGI is forming the generalized inverse of G from B-inverse, IUseBI=4.
 Internal  Forces:  Max     0.002986195 RMS     0.000800391
 Search for a local minimum.
 Step number   2 out of a maximum of  100 on scan point     1 out of    37
 All quantities printed in internal units (Hartrees-Bohrs-Radians)
 Mixed Optimization -- En-DIIS/RFO-DIIS
 Update second derivatives using D2CorX and points    1    2
 DE= -5.49D-03 DEPred=-5.74D-03 R= 9.56D-01
 TightC=F SS=  1.41D+00  RLast= 2.04D-01 DXNew= 5.0454D-01 6.1195D-01
 Trust test= 9.56D-01 RLast= 2.04D-01 DXMaxT set to 5.05D-01
 ITU=  1  0
 Use linear search instead of GDIIS.
     Eigenvalues ---    0.00577   0.00677   0.03640   0.05031   0.05402
     Eigenvalues ---    0.05599   0.05726   0.06383   0.08642   0.12393
     Eigenvalues ---    0.15969   0.16000   0.16000   0.16000   0.16000
     Eigenvalues ---    0.16000   0.16000   0.16000   0.16000   0.16409
     Eigenvalues ---    0.22051   0.22729   0.30329   0.31077   0.31347
     Eigenvalues ---    0.31350   0.31356   0.31647   0.31682   0.31852
     Eigenvalues ---    0.31876   0.31876   0.31877   0.31903   0.32727
     Eigenvalues --- 1000.000001000.000001000.000001000.000001000.00000
     Eigenvalues --- 1000.000001000.000001000.000001000.000001000.00000
     Eigenvalues --- 1000.000001000.000001000.000001000.000001000.00000
     Eigenvalues --- 1000.000001000.000001000.000001000.000001000.00000
     Eigenvalues --- 1000.00000
 RFO step:  Lambda=-1.61638196D-04 EMin= 5.77452777D-03
 Quartic linear search produced a step of -0.01772.
 Iteration  1 RMS(Cart)=  0.00871025 RMS(Int)=  0.00001867
 Iteration  2 RMS(Cart)=  0.00002833 RMS(Int)=  0.00000669
 Iteration  3 RMS(Cart)=  0.00000000 RMS(Int)=  0.00000669
 Iteration  1 RMS(Cart)=  0.00000000 RMS(Int)=  0.00000000
 Variable       Old X    -DE/DX   Delta X   Delta X   Delta X     New X
                                 (Linear)    (Quad)   (Total)
    R1        2.88174  -0.00090  -0.00061  -0.00159  -0.00220   2.87954
    R2        2.06090  -0.00098   0.00087  -0.00473  -0.00385   2.05705
    R3        2.06171  -0.00023   0.00087  -0.00243  -0.00156   2.06015
    R4        2.06153  -0.00018   0.00087  -0.00227  -0.00140   2.06013
    R5        2.88466  -0.00088  -0.00041  -0.00200  -0.00241   2.88225
    R6        2.06658  -0.00042   0.00096  -0.00319  -0.00223   2.06435
    R7        2.06754  -0.00070   0.00094  -0.00405  -0.00311   2.06442
    R8        2.88133  -0.00090  -0.00060  -0.00159  -0.00219   2.87914
    R9        2.06764  -0.00073   0.00094  -0.00413  -0.00319   2.06445
   R10        2.06803  -0.00086   0.00093  -0.00452  -0.00359   2.06444
   R11        2.06084  -0.00092   0.00087  -0.00455  -0.00367   2.05716
   R12        2.06160  -0.00023   0.00087  -0.00242  -0.00155   2.06005
   R13        2.06168  -0.00025   0.00087  -0.00248  -0.00161   2.06007
    A1        1.95681  -0.00172  -0.00054  -0.00948  -0.01003   1.94678
    A2        1.93794   0.00017  -0.00011   0.00125   0.00114   1.93908
    A3        1.93804  -0.00002  -0.00011   0.00009  -0.00003   1.93801
    A4        1.87665   0.00072   0.00027   0.00388   0.00414   1.88079
    A5        1.87752   0.00039   0.00026   0.00189   0.00214   1.87966
    A6        1.87326   0.00058   0.00028   0.00300   0.00327   1.87653
    A7        1.98372  -0.00299  -0.00063  -0.01230  -0.01293   1.97080
    A8        1.91145   0.00095   0.00004   0.00236   0.00239   1.91384
    A9        1.91034   0.00101  -0.00000   0.00416   0.00418   1.91452
   A10        1.90101   0.00067   0.00015   0.00275   0.00288   1.90390
   A11        1.89956   0.00083  -0.00011   0.00506   0.00495   1.90451
   A12        1.85319  -0.00031   0.00063  -0.00131  -0.00070   1.85249
   A13        1.98257  -0.00256  -0.00061  -0.01108  -0.01169   1.97088
   A14        1.89879   0.00102   0.00019   0.00525   0.00543   1.90421
   A15        1.90129   0.00085   0.00014   0.00338   0.00351   1.90480
   A16        1.91305   0.00057   0.00001   0.00128   0.00130   1.91435
   A17        1.91264   0.00069   0.00002   0.00154   0.00156   1.91420
   A18        1.85080  -0.00043   0.00031   0.00043   0.00073   1.85153
   A19        1.95626  -0.00146  -0.00053  -0.00851  -0.00904   1.94722
   A20        1.93826  -0.00006  -0.00012   0.00014   0.00002   1.93828
   A21        1.93826  -0.00006  -0.00012   0.00019   0.00007   1.93833
   A22        1.87656   0.00075   0.00028   0.00342   0.00369   1.88025
   A23        1.87652   0.00075   0.00028   0.00345   0.00372   1.88024
   A24        1.87437   0.00020   0.00025   0.00192   0.00217   1.87654
    D1       -1.02342   0.00024   0.00000   0.00000   0.00000  -1.02342
    D2        3.13871  -0.00005   0.00005  -0.00042  -0.00036   3.13835
    D3       -1.00863  -0.00031  -0.00022  -0.00246  -0.00268  -1.01130
    D4        1.00154   0.00019   0.00034   0.00270   0.00305   1.00459
    D5        1.00250   0.00026   0.00032   0.00293   0.00326   1.00576
    D6        3.13835   0.00001   0.00006   0.00089   0.00094   3.13929
    D7       -1.13467   0.00051   0.00061   0.00605   0.00667  -1.12800
    D8       -1.01076  -0.00018  -0.00044   0.00027  -0.00017  -1.01094
    D9        1.12509  -0.00043  -0.00071  -0.00177  -0.00249   1.12260
   D10        3.13526   0.00006  -0.00015   0.00339   0.00323   3.13849
   D11        3.14034   0.00005   0.00002   0.00067   0.00070   3.14104
   D12       -1.04348  -0.00004  -0.00006  -0.00068  -0.00074  -1.04421
   D13        1.04103   0.00013   0.00010   0.00195   0.00205   1.04308
   D14        1.01239   0.00008   0.00019   0.00062   0.00081   1.01320
   D15        3.11176  -0.00001   0.00011  -0.00074  -0.00063   3.11113
   D16       -1.08691   0.00016   0.00027   0.00189   0.00216  -1.08475
   D17       -1.01196  -0.00012  -0.00020  -0.00150  -0.00170  -1.01366
   D18        1.08741  -0.00021  -0.00029  -0.00286  -0.00314   1.08427
   D19       -3.11126  -0.00004  -0.00012  -0.00023  -0.00035  -3.11162
         Item               Value     Threshold  Converged?
 Maximum Force            0.002986     0.000450     NO 
 RMS     Force            0.000807     0.000300     NO 
 Maximum Displacement     0.023723     0.001800     NO 
 RMS     Displacement     0.008730     0.001200     NO 
 Predicted change in Energy=-8.294144D-05
 GradGradGradGradGradGradGradGradGradGradGradGradGradGradGradGradGradGrad

                          Input orientation:                          
 ---------------------------------------------------------------------
 Center     Atomic      Atomic             Coordinates (Angstroms)
 Number     Number       Type             X           Y           Z
 ---------------------------------------------------------------------
      1          6           0       -1.424505    0.521036   -0.000268
      2          6           0        0.099212    0.506660    0.002623
      3          1           0       -1.814655    1.537216    0.009245
      4          1           0       -1.820042    0.021209   -0.884703
      5          1           0       -1.822444    0.005083    0.873754
      6          6           0        0.679887   -0.903699    0.001902
      7          1           0        0.473423    1.047454   -0.869649
      8          1           0        0.470808    1.046181    0.876850
      9          6           0        2.203391   -0.918199    0.000243
     10          1           0        0.307696   -1.444036    0.875387
     11          1           0        0.305950   -1.444520   -0.870535
     12          1           0        2.593907   -1.934348    0.000316
     13          1           0        2.598927   -0.410592   -0.879683
     14          1           0        2.600907   -0.409717    0.878784
 ---------------------------------------------------------------------
                    Distance matrix (angstroms):
                    1          2          3          4          5
     1  C    0.000000
     2  C    1.523787   0.000000
     3  H    1.088544   2.173700   0.000000
     4  H    1.090185   2.169457   1.759957   0.000000
     5  H    1.090173   2.168689   1.759223   1.758533   0.000000
     6  C    2.541327   1.525220   3.490108   2.809122   2.801370
     7  H    2.152921   1.092406   2.499524   2.512645   3.065452
     8  H    2.153444   1.092446   2.493430   3.066208   2.518511
     9  C    3.902951   2.541220   4.708910   4.225356   4.221709
    10  H    2.762029   2.147183   3.760643   3.126041   2.576325
    11  H    2.759575   2.147615   3.763207   2.582325   3.110299
    12  H    4.709198   3.490276   5.611350   4.908198   4.901882
    13  H    4.222477   2.805066   4.905492   4.440019   4.774501
    14  H    4.224095   2.804619   4.903451   4.779161   4.442761
                    6          7          8          9         10
     6  C    0.000000
     7  H    2.146911   0.000000
     8  H    2.147389   1.746501   0.000000
     9  C    1.523574   2.759220   2.762078   0.000000
    10  H    1.092458   3.046332   2.495553   2.153146   0.000000
    11  H    1.092457   2.497596   3.046986   2.153033   1.745923
    12  H    2.173871   3.760909   3.762899   1.088605   2.496581
    13  H    2.168655   2.577551   3.120335   1.090131   3.065618
    14  H    2.168700   3.115535   2.580110   1.090141   2.515679
                   11         12         13         14
    11  H    0.000000
    12  H    2.496610   0.000000
    13  H    2.515320   1.759618   0.000000
    14  H    3.065577   1.759617   1.758469   0.000000
 Symmetry turned off by external request.
 Stoichiometry    C4H10
 Framework group  C1[X(C4H10)]
 Deg. of freedom    36
 Full point group                 C1      NOp   1
 Rotational constants (GHZ):          23.6076605           3.6527229           3.4289779
 Standard basis: CC-pVTZ (5D, 7F)
   260 basis functions,   378 primitive gaussians,   290 cartesian basis functions
    17 alpha electrons       17 beta electrons
       nuclear repulsion energy       130.9816340740 Hartrees.
 NAtoms=   14 NActive=   14 NUniq=   14 SFac= 1.00D+00 NAtFMM=   60 NAOKFM=F Big=F
 Integral buffers will be    131072 words long.
 Raffenetti 2 integral format.
 Two-electron integral symmetry is turned off.
 Nuclear repulsion after empirical dispersion term =      130.9751991380 Hartrees.
 One-electron integrals computed using PRISM.
 NBasis=   260 RedAO= T EigKep=  5.83D-04  NBF=   260
 NBsUse=   260 1.00D-06 EigRej= -1.00D+00 NBFU=   260
 Initial guess from the checkpoint file:  "/localscratch/339543/Gau-61059.chk"
 B after Tr=    -0.000254   -0.000078    0.000169
         Rot=    1.000000   -0.000071    0.000036   -0.000052 Ang=  -0.01 deg.
 Initial guess <Sx>= 0.0000 <Sy>= 0.0000 <Sz>= 0.0000 <S**2>=-0.0000 S=-0.0000
 ExpMin= 1.03D-01 ExpMax= 8.24D+03 ExpMxC= 2.81D+02 IAcc=3 IRadAn=         5 AccDes= 0.00D+00
 Harris functional with IExCor=  419 and IRadAn=       5 diagonalized for initial guess.
 HarFok:  IExCor=  419 AccDes= 0.00D+00 IRadAn=         5 IDoV= 1 UseB2=F ITyADJ=14
 ICtDFT=  3500011 ScaDFX=  1.000000  1.000000  1.000000  1.000000
 FoFCou: FMM=F IPFlag=           0 FMFlag=      100000 FMFlg1=           0
         NFxFlg=           0 DoJE=T BraDBF=F KetDBF=T FulRan=T
         wScrn=  0.000000 ICntrl=       500 IOpCl=  0 I1Cent=   200000004 NGrid=           0
         NMat0=    1 NMatS0=      1 NMatT0=    0 NMatD0=    1 NMtDS0=    0 NMtDT0=    0
 Symmetry not used in FoFCou.
 Requested convergence on RMS density matrix=1.00D-08 within 500 cycles.
 Requested convergence on MAX density matrix=1.00D-06.
 Requested convergence on             energy=1.00D-06.
 No special actions if energy rises.
 Integral accuracy reduced to 1.0D-05 until final iterations.
 Initial convergence to 1.0D-05 achieved.  Increase integral accuracy.
 SCF Done:  E(UB2PLYPD3) =  -158.120917039     A.U. after    8 cycles
            NFock=  8  Conv=0.21D-08     -V/T= 2.0047
 <Sx>= 0.0000 <Sy>= 0.0000 <Sz>= 0.0000 <S**2>=-0.0000 S=-0.0000
 <L.S>=  0.00000000000    
 Annihilation of the first spin contaminant:
 S**2 before annihilation    -0.0000,   after    -0.0000
 DoSCS=T DFT=T ScalE2(SS,OS)=  0.270000  0.270000
 ExpMin= 1.03D-01 ExpMax= 8.24D+03 ExpMxC= 2.81D+02 IAcc=3 IRadAn=         5 AccDes= 0.00D+00
 HarFok:  IExCor=  205 AccDes= 0.00D+00 IRadAn=         5 IDoV=-2 UseB2=F ITyADJ=14
 ICtDFT= 12500011 ScaDFX=  1.000000  1.000000  1.000000  1.000000
 Range of M.O.s used for correlation:     5   260
 NBasis=   260 NAE=    17 NBE=    17 NFC=     4 NFV=     0
 NROrb=    256 NOA=    13 NOB=    13 NVA=   243 NVB=   243

 **** Warning!!: The largest alpha MO coefficient is  0.11778485D+02


 **** Warning!!: The largest beta MO coefficient is  0.11778485D+02

 DoSCS=T DFT=T ScalE2(SS,OS)=  0.270000  0.270000
 Fully direct method using O(ONN) memory.
 JobTyp=2 Pass  1:  I=   5 to  17 NPSUse= 40 ParTrn=T ParDer=T DoDerP=T.
 JobTyp=3 Pass  1:  I=   5 to  17 NPSUse= 40 ParTrn=T ParDer=T DoDerP=T.
 Spin components of T(2) and E(2):
     alpha-alpha T2 =       0.3905577528D-01 E2=     -0.2533152421D-01
     alpha-beta  T2 =       0.2540647608D+00 E2=     -0.1824887828D+00
     beta-beta   T2 =       0.3905577528D-01 E2=     -0.2533152421D-01
 (S**2,0)=  0.00000D+00           (S**2,1)=  0.00000D+00
 E(PUHF)=      -0.15812091704D+03        E(PMP2)=      -0.15835406887D+03
 E2(B2PLYPD3) =    -0.2331518313D+00 E(B2PLYPD3) =    -0.15835406887027D+03
          IDoAtm=11111111111111
          Differentiating once with respect to electric field.
                with respect to dipole field.
          Differentiating once with respect to nuclear coordinates.
 Keep R1 and R2 ints in memory in canonical form, NReq=1196156648.
          There are     1 degrees of freedom in the 1st order CPHF.  IDoFFX=0 NUNeed=     1.
 LinEq1:  Iter=  0 NonCon=     1 RMS=4.38D-04 Max=8.00D-03 NDo=     1
 AX will form     1 AO Fock derivatives at one time.
 LinEq1:  Iter=  1 NonCon=     1 RMS=1.84D-04 Max=3.30D-03 NDo=     1
 LinEq1:  Iter=  2 NonCon=     1 RMS=3.61D-05 Max=6.05D-04 NDo=     1
 LinEq1:  Iter=  3 NonCon=     1 RMS=1.07D-05 Max=2.12D-04 NDo=     1
 LinEq1:  Iter=  4 NonCon=     1 RMS=2.99D-06 Max=4.42D-05 NDo=     1
 LinEq1:  Iter=  5 NonCon=     1 RMS=6.10D-07 Max=9.38D-06 NDo=     1
 LinEq1:  Iter=  6 NonCon=     1 RMS=8.03D-08 Max=1.09D-06 NDo=     1
 LinEq1:  Iter=  7 NonCon=     1 RMS=1.88D-08 Max=3.06D-07 NDo=     1
 LinEq1:  Iter=  8 NonCon=     1 RMS=2.51D-09 Max=4.62D-08 NDo=     1
 LinEq1:  Iter=  9 NonCon=     1 RMS=4.35D-10 Max=7.82D-09 NDo=     1
 LinEq1:  Iter= 10 NonCon=     1 RMS=1.87D-10 Max=2.59D-09 NDo=     1
 LinEq1:  Iter= 11 NonCon=     0 RMS=4.67D-11 Max=6.08D-10 NDo=     1
 Linear equations converged to 1.000D-10 1.000D-09 after    11 iterations.
 End of Minotr F.D. properties file   721 does not exist.
 End of Minotr F.D. properties file   722 does not exist.
 End of Minotr F.D. properties file   788 does not exist.
 Calling FoFJK, ICntrl=  10002127 FMM=F ISym2X=0 I1Cent= 0 IOpClX= 1 NMat=1 NMatS=1 NMatT=0.
 -------------------------------------------------------------------
 Center     Atomic                   Forces (Hartrees/Bohr)
 Number     Number              X              Y              Z
 -------------------------------------------------------------------
      1        6          -0.000474088    0.000103748    0.000150955
      2        6           0.000078640   -0.000267324   -0.000143738
      3        1          -0.000255305    0.000445955   -0.000088179
      4        1           0.000150368   -0.000095920   -0.000154010
      5        1           0.000086626   -0.000122692    0.000188236
      6        6          -0.000220782    0.000097667    0.000043971
      7        1           0.000053703    0.000123635   -0.000201792
      8        1           0.000012836    0.000021954    0.000212304
      9        6           0.000550373   -0.000108077    0.000012104
     10        1          -0.000005996   -0.000032835    0.000239002
     11        1          -0.000026088    0.000009976   -0.000257796
     12        1           0.000215594   -0.000412701    0.000000589
     13        1          -0.000082338    0.000118704   -0.000192467
     14        1          -0.000083544    0.000117910    0.000190821
 -------------------------------------------------------------------
 Cartesian Forces:  Max     0.000550373 RMS     0.000199942

 GradGradGradGradGradGradGradGradGradGradGradGradGradGradGradGradGradGrad
 Berny optimization.
 Using GEDIIS/GDIIS optimizer.
 FormGI is forming the generalized inverse of G from B-inverse, IUseBI=4.
 Internal  Forces:  Max     0.000603627 RMS     0.000196564
 Search for a local minimum.
 Step number   3 out of a maximum of  100 on scan point     1 out of    37
 All quantities printed in internal units (Hartrees-Bohrs-Radians)
 Mixed Optimization -- En-DIIS/RFO-DIIS
 Swapping is turned off.
 Update second derivatives using D2CorX and points    1    2    3
 DE= -7.20D-05 DEPred=-8.29D-05 R= 8.68D-01
 TightC=F SS=  1.41D+00  RLast= 2.93D-02 DXNew= 8.4853D-01 8.7912D-02
 Trust test= 8.68D-01 RLast= 2.93D-02 DXMaxT set to 5.05D-01
 ITU=  1  1  0
     Eigenvalues ---    0.00577   0.00677   0.03696   0.05010   0.05475
     Eigenvalues ---    0.05657   0.05749   0.06351   0.08529   0.12303
     Eigenvalues ---    0.15431   0.16000   0.16000   0.16000   0.16000
     Eigenvalues ---    0.16000   0.16000   0.16000   0.16034   0.16754
     Eigenvalues ---    0.22087   0.23363   0.30995   0.31114   0.31348
     Eigenvalues ---    0.31350   0.31377   0.31681   0.31844   0.31874
     Eigenvalues ---    0.31876   0.31876   0.31903   0.32063   0.35748
     Eigenvalues --- 1000.000001000.000001000.000001000.000001000.00000
     Eigenvalues --- 1000.000001000.000001000.000001000.000001000.00000
     Eigenvalues --- 1000.000001000.000001000.000001000.000001000.00000
     Eigenvalues --- 1000.000001000.000001000.000001000.000001000.00000
     Eigenvalues --- 1000.00000
 En-DIIS/RFO-DIIS/Sim-DIIS IScMMF=       -3 using points:     3    2
 RFO step:  Lambda=-7.24207030D-06.
 DidBck=F Rises=F RFO-DIIS coefs:    0.94599    0.05401
 Iteration  1 RMS(Cart)=  0.00113650 RMS(Int)=  0.00000088
 Iteration  2 RMS(Cart)=  0.00000089 RMS(Int)=  0.00000048
 Iteration  1 RMS(Cart)=  0.00000000 RMS(Int)=  0.00000000
 Variable       Old X    -DE/DX   Delta X   Delta X   Delta X     New X
                                 (Linear)    (Quad)   (Total)
    R1        2.87954   0.00050   0.00012   0.00116   0.00128   2.88082
    R2        2.05705   0.00051   0.00021   0.00116   0.00137   2.05842
    R3        2.06015   0.00011   0.00008   0.00026   0.00034   2.06049
    R4        2.06013   0.00018   0.00008   0.00044   0.00052   2.06065
    R5        2.88225   0.00032   0.00013   0.00071   0.00084   2.88309
    R6        2.06435   0.00024   0.00012   0.00057   0.00069   2.06504
    R7        2.06442   0.00018   0.00017   0.00035   0.00051   2.06494
    R8        2.87914   0.00060   0.00012   0.00146   0.00158   2.88072
    R9        2.06445   0.00021   0.00017   0.00041   0.00058   2.06503
   R10        2.06444   0.00021   0.00019   0.00038   0.00057   2.06502
   R11        2.05716   0.00046   0.00020   0.00105   0.00125   2.05841
[...]
  Beta virt. eigenvalues --    4.62616   4.70199   4.77685   4.79429   4.81134
  Beta virt. eigenvalues --    4.84119   4.87887   4.97426   4.99576   4.99684
  Beta virt. eigenvalues --    5.00879   5.02245   5.02477   5.07710   5.08279
  Beta virt. eigenvalues --    5.13176   5.13216   5.15050   5.22594   5.23632
  Beta virt. eigenvalues --    5.26296   5.36387   5.39898   5.43268   5.49086
  Beta virt. eigenvalues --    5.49253   5.51466   5.53856   5.54622   5.56216
  Beta virt. eigenvalues --    5.61154   5.65155   5.65288   5.66071   5.67825
  Beta virt. eigenvalues --    5.71047   5.75634   5.80773   6.03985   6.07240
  Beta virt. eigenvalues --    6.08751   6.08898   6.11145   6.18888  12.68239
  Beta virt. eigenvalues --   13.08104  13.65107  13.77941
          Condensed to atoms (all electrons):
               1          2          3          4          5          6
     1  C    4.849489   0.348640   0.413615   0.409461   0.409353  -0.050827
     2  C    0.348640   4.860747  -0.035166  -0.037383  -0.037516   0.354384
     3  H    0.413615  -0.035166   0.585878  -0.031209  -0.031303   0.007499
     4  H    0.409461  -0.037383  -0.031209   0.600819  -0.033873  -0.004469
     5  H    0.409353  -0.037516  -0.031303  -0.033873   0.601255  -0.004585
     6  C   -0.050827   0.354384   0.007499  -0.004469  -0.004585   4.860811
     7  H   -0.035849   0.413432  -0.004870  -0.005630   0.007720  -0.038303
     8  H   -0.035803   0.413485  -0.005052   0.007701  -0.005446  -0.038268
     9  C    0.005971  -0.050869  -0.000390   0.000014   0.000024   0.348631
    10  H   -0.003760  -0.038227  -0.000116  -0.000287   0.003455   0.413475
    11  H   -0.003630  -0.038279  -0.000114   0.003411  -0.000298   0.413424
    12  H   -0.000390   0.007506   0.000021  -0.000001  -0.000002  -0.035183
    13  H    0.000019  -0.004545  -0.000001   0.000013  -0.000010  -0.037492
    14  H    0.000020  -0.004527  -0.000001  -0.000010   0.000013  -0.037495
               7          8          9         10         11         12
     1  C   -0.035849  -0.035803   0.005971  -0.003760  -0.003630  -0.000390
     2  C    0.413432   0.413485  -0.050869  -0.038227  -0.038279   0.007506
     3  H   -0.004870  -0.005052  -0.000390  -0.000116  -0.000114   0.000021
     4  H   -0.005630   0.007701   0.000014  -0.000287   0.003411  -0.000001
     5  H    0.007720  -0.005446   0.000024   0.003455  -0.000298  -0.000002
     6  C   -0.038303  -0.038268   0.348631   0.413475   0.413424  -0.035183
     7  H    0.614145  -0.038856  -0.003695   0.008236  -0.006396  -0.000114
     8  H   -0.038856   0.613993  -0.003704  -0.006411   0.008241  -0.000116
     9  C   -0.003695  -0.003704   4.849491  -0.035823  -0.035885   0.413627
    10  H    0.008236  -0.006411  -0.035823   0.614074  -0.038882  -0.004970
    11  H   -0.006396   0.008241  -0.035885  -0.038882   0.614202  -0.004963
    12  H   -0.000114  -0.000116   0.413627  -0.004970  -0.004963   0.585880
    13  H    0.003440  -0.000292   0.409432   0.007721  -0.005552  -0.031248
    14  H   -0.000296   0.003439   0.409402  -0.005550   0.007724  -0.031246
              13         14
     1  C    0.000019   0.000020
     2  C   -0.004545  -0.004527
     3  H   -0.000001  -0.000001
     4  H    0.000013  -0.000010
     5  H   -0.000010   0.000013
     6  C   -0.037492  -0.037495
     7  H    0.003440  -0.000296
     8  H   -0.000292   0.003439
     9  C    0.409432   0.409402
    10  H    0.007721  -0.005550
    11  H   -0.005552   0.007724
    12  H   -0.031248  -0.031246
    13  H    0.601103  -0.033870
    14  H   -0.033870   0.601117
          Atomic-Atomic Spin Densities.
               1          2          3          4          5          6
     1  C    0.000000  -0.000000  -0.000000  -0.000000  -0.000000  -0.000000
     2  C   -0.000000   0.000000  -0.000000   0.000000   0.000000  -0.000000
     3  H   -0.000000  -0.000000   0.000000  -0.000000  -0.000000   0.000000
     4  H   -0.000000   0.000000  -0.000000  -0.000000   0.000000   0.000000
     5  H   -0.000000   0.000000  -0.000000   0.000000  -0.000000  -0.000000
     6  C   -0.000000  -0.000000   0.000000   0.000000  -0.000000   0.000000
     7  H   -0.000000   0.000000   0.000000  -0.000000  -0.000000  -0.000000
     8  H   -0.000000  -0.000000  -0.000000   0.000000  -0.000000  -0.000000
     9  C    0.000000   0.000000  -0.000000   0.000000  -0.000000  -0.000000
    10  H    0.000000  -0.000000   0.000000  -0.000000   0.000000   0.000000
    11  H    0.000000  -0.000000  -0.000000  -0.000000   0.000000  -0.000000
    12  H   -0.000000   0.000000   0.000000   0.000000  -0.000000  -0.000000
    13  H    0.000000  -0.000000  -0.000000   0.000000  -0.000000   0.000000
    14  H    0.000000  -0.000000  -0.000000  -0.000000   0.000000  -0.000000
               7          8          9         10         11         12
     1  C   -0.000000  -0.000000   0.000000   0.000000   0.000000  -0.000000
     2  C    0.000000  -0.000000   0.000000  -0.000000  -0.000000   0.000000
     3  H    0.000000  -0.000000  -0.000000   0.000000  -0.000000   0.000000
     4  H   -0.000000   0.000000   0.000000  -0.000000  -0.000000   0.000000
     5  H   -0.000000  -0.000000  -0.000000   0.000000   0.000000  -0.000000
     6  C   -0.000000  -0.000000  -0.000000   0.000000  -0.000000  -0.000000
     7  H   -0.000000  -0.000000   0.000000   0.000000  -0.000000   0.000000
     8  H   -0.000000   0.000000   0.000000  -0.000000   0.000000  -0.000000
     9  C    0.000000   0.000000   0.000000  -0.000000   0.000000   0.000000
    10  H    0.000000  -0.000000  -0.000000   0.000000  -0.000000   0.000000
    11  H   -0.000000   0.000000   0.000000  -0.000000   0.000000   0.000000
    12  H    0.000000  -0.000000   0.000000   0.000000   0.000000   0.000000
    13  H    0.000000   0.000000   0.000000   0.000000  -0.000000  -0.000000
    14  H   -0.000000   0.000000  -0.000000  -0.000000   0.000000   0.000000
              13         14
     1  C    0.000000   0.000000
     2  C   -0.000000  -0.000000
     3  H   -0.000000  -0.000000
     4  H    0.000000  -0.000000
     5  H   -0.000000   0.000000
     6  C    0.000000  -0.000000
     7  H    0.000000  -0.000000
     8  H    0.000000   0.000000
     9  C    0.000000  -0.000000
    10  H    0.000000  -0.000000
    11  H   -0.000000   0.000000
    12  H   -0.000000   0.000000
    13  H    0.000000  -0.000000
    14  H   -0.000000  -0.000000
 Mulliken charges and spin densities:
               1          2
     1  C   -0.306308  -0.000000
     2  C   -0.151682   0.000000
     3  H    0.101211   0.000000
     4  H    0.091444  -0.000000
     5  H    0.091213  -0.000000
     6  C   -0.151602  -0.000000
     7  H    0.087034  -0.000000
     8  H    0.087089  -0.000000
     9  C   -0.306227   0.000000
    10  H    0.087065   0.000000
    11  H    0.087000  -0.000000
    12  H    0.101200   0.000000
    13  H    0.091282   0.000000
    14  H    0.091281  -0.000000
 Sum of Mulliken charges =  -0.00000  -0.00000
 Mulliken charges and spin densities with hydrogens summed into heavy atoms:
               1          2
     1  C   -0.022440  -0.000000
     2  C    0.022441   0.000000
     6  C    0.022463  -0.000000
     9  C   -0.022464   0.000000
 Electronic spatial extent (au):  <R**2>=            446.8752
 Charge=              0.0000 electrons
 Dipole moment (field-independent basis, Debye):
    X=             -0.0001    Y=             -0.0002    Z=             -0.0001  Tot=              0.0002
 Quadrupole moment (field-independent basis, Debye-Ang):
   XX=            -29.5623   YY=            -28.2662   ZZ=            -28.6353
   XY=              0.3126   XZ=             -0.2532   YZ=             -0.1466
 Traceless Quadrupole moment (field-independent basis, Debye-Ang):
   XX=             -0.7411   YY=              0.5551   ZZ=              0.1860
   XY=              0.3126   XZ=             -0.2532   YZ=             -0.1466
 Octapole moment (field-independent basis, Debye-Ang**2):
  XXX=            -34.5484  YYY=             16.8422  ZZZ=             -0.0781  XYY=            -11.1255
  XXY=              6.1149  XXZ=             -0.2267  XZZ=            -11.1581  YZZ=              5.6819
  YYZ=              0.0157  XYZ=             -0.0051
 Hexadecapole moment (field-independent basis, Debye-Ang**3):
 XXXX=           -441.2060 YYYY=           -112.0506 ZZZZ=            -93.0727 XXXY=             69.0047
 XXXZ=             20.2863 YYYX=             66.8412 YYYZ=            -13.3739 ZZZX=             21.3437
 ZZZY=            -14.6657 XXYY=            -89.0559 XXZZ=            -85.7698 YYZZ=            -32.5793
 XXYZ=             -2.4296 YYXZ=              7.7518 ZZXY=             19.6036
 N-N= 1.309086146998D+02 E-N=-6.276061265425D+02  KE= 1.573670985484D+02
                          Isotropic Fermi Contact Couplings
        Atom                 a.u.       MegaHertz       Gauss      10(-4) cm-1
     1  C(13)              0.00000       0.00000       0.00000       0.00000
     2  C(13)              0.00000       0.00000       0.00000       0.00000
     3  H(1)               0.00000       0.00000       0.00000       0.00000
     4  H(1)               0.00000       0.00000       0.00000       0.00000
     5  H(1)               0.00000       0.00000       0.00000       0.00000
     6  C(13)             -0.00000      -0.00000      -0.00000      -0.00000
     7  H(1)              -0.00000      -0.00000      -0.00000      -0.00000
     8  H(1)               0.00000       0.00000       0.00000       0.00000
     9  C(13)             -0.00000      -0.00000      -0.00000      -0.00000
    10  H(1)               0.00000       0.00000       0.00000       0.00000
    11  H(1)               0.00000       0.00000       0.00000       0.00000
    12  H(1)              -0.00000      -0.00000      -0.00000      -0.00000
    13  H(1)              -0.00000      -0.00000      -0.00000      -0.00000
    14  H(1)              -0.00000      -0.00000      -0.00000      -0.00000
 --------------------------------------------------------
       Center         ----  Spin Dipole Couplings  ----
                      3XX-RR        3YY-RR        3ZZ-RR
 --------------------------------------------------------
     1   Atom        0.000000      0.000000      0.000000
     2   Atom        0.000000      0.000000      0.000000
     3   Atom        0.000000      0.000000      0.000000
     4   Atom        0.000000      0.000000      0.000000
     5   Atom        0.000000      0.000000      0.000000
     6   Atom        0.000000      0.000000      0.000000
     7   Atom        0.000000      0.000000      0.000000
     8   Atom        0.000000      0.000000      0.000000
     9   Atom        0.000000      0.000000      0.000000
    10   Atom        0.000000      0.000000      0.000000
    11   Atom        0.000000      0.000000      0.000000
    12   Atom        0.000000      0.000000      0.000000
    13   Atom        0.000000      0.000000      0.000000
    14   Atom        0.000000      0.000000      0.000000
 --------------------------------------------------------
                        XY            XZ            YZ
 --------------------------------------------------------
     1   Atom        0.000000      0.000000      0.000000
     2   Atom        0.000000      0.000000      0.000000
     3   Atom        0.000000      0.000000      0.000000
     4   Atom        0.000000      0.000000      0.000000
     5   Atom        0.000000      0.000000      0.000000
     6   Atom        0.000000      0.000000      0.000000
     7   Atom        0.000000      0.000000      0.000000
     8   Atom        0.000000      0.000000      0.000000
     9   Atom        0.000000      0.000000      0.000000
    10   Atom        0.000000      0.000000      0.000000
    11   Atom        0.000000      0.000000      0.000000
    12   Atom        0.000000      0.000000      0.000000
    13   Atom        0.000000      0.000000      0.000000
    14   Atom        0.000000      0.000000      0.000000
 --------------------------------------------------------


 ---------------------------------------------------------------------------------
              Anisotropic Spin Dipole Couplings in Principal Axis System
 ---------------------------------------------------------------------------------

       Atom             a.u.   MegaHertz   Gauss  10(-4) cm-1        Axes

              Baa     0.0000     0.000     0.000     0.000  1.0000  0.0000  0.0000
     1 C(13)  Bbb     0.0000     0.000     0.000     0.000 -0.0000  1.0000  0.0000
              Bcc     0.0000     0.000     0.000     0.000  0.0000  0.0000  1.0000
 
              Baa     0.0000     0.000     0.000     0.000  1.0000  0.0000  0.0000
     2 C(13)  Bbb     0.0000     0.000     0.000     0.000 -0.0000  1.0000  0.0000
              Bcc     0.0000     0.000     0.000     0.000  0.0000  0.0000  1.0000
 
              Baa     0.0000     0.000     0.000     0.000  1.0000  0.0000  0.0000
     3 H(1)   Bbb     0.0000     0.000     0.000     0.000 -0.0000  1.0000  0.0000
              Bcc     0.0000     0.000     0.000     0.000  0.0000  0.0000  1.0000
 
              Baa     0.0000     0.000     0.000     0.000  1.0000  0.0000  0.0000
     4 H(1)   Bbb     0.0000     0.000     0.000     0.000 -0.0000  1.0000  0.0000
              Bcc     0.0000     0.000     0.000     0.000  0.0000  0.0000  1.0000
 
              Baa     0.0000     0.000     0.000     0.000  1.0000  0.0000  0.0000
     5 H(1)   Bbb     0.0000     0.000     0.000     0.000 -0.0000  1.0000  0.0000
              Bcc     0.0000     0.000     0.000     0.000  0.0000  0.0000  1.0000
 
              Baa     0.0000     0.000     0.000     0.000  1.0000  0.0000  0.0000
     6 C(13)  Bbb     0.0000     0.000     0.000     0.000 -0.0000  1.0000  0.0000
              Bcc     0.0000     0.000     0.000     0.000  0.0000  0.0000  1.0000
 
              Baa     0.0000     0.000     0.000     0.000  1.0000  0.0000  0.0000
     7 H(1)   Bbb     0.0000     0.000     0.000     0.000 -0.0000  1.0000  0.0000
              Bcc     0.0000     0.000     0.000     0.000  0.0000  0.0000  1.0000
 
              Baa     0.0000     0.000     0.000     0.000  1.0000  0.0000  0.0000
     8 H(1)   Bbb     0.0000     0.000     0.000     0.000 -0.0000  1.0000  0.0000
              Bcc     0.0000     0.000     0.000     0.000  0.0000  0.0000  1.0000
 
              Baa     0.0000     0.000     0.000     0.000  1.0000  0.0000  0.0000
     9 C(13)  Bbb     0.0000     0.000     0.000     0.000 -0.0000  1.0000  0.0000
              Bcc     0.0000     0.000     0.000     0.000  0.0000  0.0000  1.0000
 
              Baa     0.0000     0.000     0.000     0.000  1.0000  0.0000  0.0000
    10 H(1)   Bbb     0.0000     0.000     0.000     0.000 -0.0000  1.0000  0.0000
              Bcc     0.0000     0.000     0.000     0.000  0.0000  0.0000  1.0000
 
              Baa     0.0000     0.000     0.000     0.000  1.0000  0.0000  0.0000
    11 H(1)   Bbb     0.0000     0.000     0.000     0.000 -0.0000  1.0000  0.0000
              Bcc     0.0000     0.000     0.000     0.000  0.0000  0.0000  1.0000
 
              Baa     0.0000     0.000     0.000     0.000  1.0000  0.0000  0.0000
    12 H(1)   Bbb     0.0000     0.000     0.000     0.000 -0.0000  1.0000  0.0000
              Bcc     0.0000     0.000     0.000     0.000  0.0000  0.0000  1.0000
 
              Baa     0.0000     0.000     0.000     0.000  1.0000  0.0000  0.0000
    13 H(1)   Bbb     0.0000     0.000     0.000     0.000 -0.0000  1.0000  0.0000
              Bcc     0.0000     0.000     0.000     0.000  0.0000  0.0000  1.0000
 
              Baa     0.0000     0.000     0.000     0.000  1.0000  0.0000  0.0000
    14 H(1)   Bbb     0.0000     0.000     0.000     0.000 -0.0000  1.0000  0.0000
              Bcc     0.0000     0.000     0.000     0.000  0.0000  0.0000  1.0000
 

 ---------------------------------------------------------------------------------

 1\1\GINC-N69\Scan\UB2PLYPD3-FC\CC-pVTZ\C4H10\ROOT\01-Jun-2019\0\\# opt
 =(maxcyc=500,modredundant) uB2PLYPD3/cc-pvtz scf=maxcyc=500 nosymm\\Ti
 tle Card Required\\0,1\C,-1.4586997727,0.4087119812,0.1759733419\C,-0.
 0049927574,0.1462824629,0.555321155\H,-2.0030212041,0.894081991,0.9849
 89219\H,-1.523331334,1.0518561017,-0.7020584948\H,-1.974314111,-0.5226
 951641,-0.0597136292\C,0.7837781467,-0.5447303212,-0.5528676792\H,0.48
 51716553,1.0898677979,0.8072007141\H,0.0340757667,-0.4679589365,1.4581
 913453\C,2.2377442458,-0.8047613648,-0.1742692489\H,0.2949702382,-1.48
 92155163,-0.804076414\H,0.7434614959,0.0686346157,-1.4563534713\H,2.77
 99303033,-1.2984151086,-0.9797255056\H,2.7546539405,0.1282144897,0.052
 2083147\H,2.3030356669,-1.4401459285,0.7094453529\\Version=ES64L-G16Re
 vB.01\HF=-158.1209003,-158.1206488,-158.1198753,-158.1187414,-158.1175
 164,-158.1165372,-158.1161227,-158.1164242,-158.1173312,-158.1185443,-
 158.1197178,-158.1205635,-158.1208979,-158.1206549,-158.1198813,-158.1
 1874,-158.1175054,-158.1165256,-158.1161213,-158.1164387,-158.1173623,
 -158.1185847,-158.1197527,-158.1205829,-158.1209002,-158.1206398,-158.
 1198517,-158.1187031,-158.1174725,-158.116507,-158.1161208,-158.116447
 5,-158.1173686,-158.1185818,-158.119744,-158.1205762,-158.1209\MP2=-15
 8.354073,-158.3538268,-158.3530761,-158.3519737,-158.3507766,-158.3498
 154,-158.3494088,-158.3497107,-158.3506073,-158.3517955,-158.3529354,-
 158.3537517,-158.3540724,-158.3538356,-158.3530843,-158.3519714,-158.3
 507619,-158.3497996,-158.3494073,-158.3497306,-158.3506491,-158.351849
 7,-158.3529841,-158.3537797,-158.3540743,-158.3538121,-158.353041,-158
 .35192,-158.350718,-158.349776,-158.3494069,-158.3497432,-158.3506593,
 -158.351848,-158.3529734,-158.3537699,-158.3540741\PUHF=-158.1209003,-
 158.1206488,-158.1198753,-158.1187414,-158.1175164,-158.1165372,-158.1
 161227,-158.1164242,-158.1173312,-158.1185443,-158.1197178,-158.120563
 5,-158.1208979,-158.1206549,-158.1198813,-158.11874,-158.1175054,-158.
 1165256,-158.1161213,-158.1164387,-158.1173623,-158.1185847,-158.11975
 27,-158.1205829,-158.1209002,-158.1206398,-158.1198517,-158.1187031,-1
 58.1174725,-158.116507,-158.1161208,-158.1164475,-158.1173686,-158.118
 5818,-158.119744,-158.1205762,-158.1209\PMP2-0=-158.354073,-158.353826
 8,-158.3530761,-158.3519737,-158.3507766,-158.3498154,-158.3494088,-15
 8.3497107,-158.3506073,-158.3517955,-158.3529354,-158.3537517,-158.354
 0724,-158.3538356,-158.3530843,-158.3519714,-158.3507619,-158.3497996,
 -158.3494073,-158.3497306,-158.3506491,-158.3518497,-158.3529841,-158.
 3537797,-158.3540743,-158.3538121,-158.353041,-158.35192,-158.350718,-
 158.349776,-158.3494069,-158.3497432,-158.3506593,-158.351848,-158.352
 9734,-158.3537699,-158.3540741\S2=0.,0.,0.,0.,0.,0.,0.,0.,0.,0.,0.,0.,
 0.,0.,0.,0.,0.,0.,0.,0.,0.,0.,0.,0.,0.,0.,0.,0.,0.,0.,0.,0.,0.,0.,0.,0
 .,0.\S2-1=0.,0.,0.,0.,0.,0.,0.,0.,0.,0.,0.,0.,0.,0.,0.,0.,0.,0.,0.,0.,
 0.,0.,0.,0.,0.,0.,0.,0.,0.,0.,0.,0.,0.,0.,0.,0.,0.\S2A=0.,0.,0.,0.,0.,
 0.,0.,0.,0.,0.,0.,0.,0.,0.,0.,0.,0.,0.,0.,0.,0.,0.,0.,0.,0.,0.,0.,0.,0
 .,0.,0.,0.,0.,0.,0.,0.,0.\RMSD=4.557e-09,9.704e-09,7.473e-09,4.703e-09
 ,3.282e-09,2.024e-09,3.204e-09,2.943e-09,5.477e-09,4.653e-09,4.992e-09
 ,6.985e-09,9.924e-09,9.811e-09,1.608e-09,4.668e-09,7.973e-09,9.827e-09
 ,6.981e-09,8.294e-09,5.109e-09,1.862e-09,7.343e-09,7.232e-09,9.218e-09
 ,1.490e-09,1.659e-09,4.437e-09,3.750e-09,8.850e-09,8.631e-09,1.620e-09
 ,1.984e-09,4.105e-09,8.611e-09,8.173e-09,8.705e-09\PG=C01 [X(C4H10)]\\
 @


      SCIENCE SANS CONSCIENCE N'EST QUE RUINE DE L'AME.

                                                  -- RABELAIS
 Job cpu time:       4 days  6 hours 25 minutes  5.3 seconds.
 Elapsed time:       0 days  3 hours 13 minutes 22.4 seconds.
 File lengths (MBytes):  RWF=     82 Int=      0 D2E=      0 Chk=     14 Scr=      1
 Normal termination of Gaussian 16 at Sat Jun  1 05:57:58 2019.
