 Entering Gaussian System, Link 0=g16
 Initial command:
 /ichec/packages/gaussian/16b01/l1.exe "/localscratch/339543/Gau-25345.inp" -scrdir="/localscratch/339543/"
 Entering Link 1 = /ichec/packages/gaussian/16b01/l1.exe PID=     25381.
  
 Copyright (c) 1988-2017, Gaussian, Inc.  All Rights Reserved.
  
 This is part of the Gaussian(R) 16 program.  It is based on
 the Gaussian(R) 09 system (copyright 2009, Gaussian, Inc.),
 the Gaussian(R) 03 system (copyright 2003, Gaussian, Inc.),
 the Gaussian(R) 98 system (copyright 1998, Gaussian, Inc.),
 the Gaussian(R) 94 system (copyright 1995, Gaussian, Inc.),
 the Gaussian 92(TM) system (copyright 1992, Gaussian, Inc.),
 the Gaussian 90(TM) system (copyright 1990, Gaussian, Inc.),
 the Gaussian 88(TM) system (copyright 1988, Gaussian, Inc.),
 the Gaussian 86(TM) system (copyright 1986, Carnegie Mellon
 University), and the Gaussian 82(TM) system (copyright 1983,
 Carnegie Mellon University). Gaussian is a federally registered
 trademark of Gaussian, Inc.
  
 This software contains proprietary and confidential information,
 including trade secrets, belonging to Gaussian, Inc.
  
 This software is provided under written license and may be
 used, copied, transmitted, or stored only in accord with that
 written license.
  
 The following legend is applicable only to US Government
 contracts under FAR:
  
                    RESTRICTED RIGHTS LEGEND
  
 Use, reproduction and disclosure by the US Government is
 subject to restrictions as set forth in subparagraphs (a)
 and (c) of the Commercial Computer Software - Restricted
 Rights clause in FAR 52.227-19.
  
 Gaussian, Inc.
 340 Quinnipiac St., Bldg. 40, Wallingford CT 06492
  
  
 ---------------------------------------------------------------
 Warning -- This program may not be used in any manner that
 competes with the business of Gaussian, Inc. or will provide
 assistance to any competitor of Gaussian, Inc.  The licensee
 of this program is prohibited from giving any competitor of
 Gaussian, Inc. access to this program.  By using this program,
 the user acknowledges that Gaussian, Inc. is engaged in the
 business of creating and licensing software in the field of
 computational chemistry and represents and warrants to the
 licensee that it is not a competitor of Gaussian, Inc. and that
 it will not use this program in any manner prohibited above.
 ---------------------------------------------------------------
  

 Cite this work as:
 Gaussian 16, Revision B.01,
 M. J. Frisch, G. W. Trucks, H. B. Schlegel, G. E. Scuseria, 
 M. A. Robb, J. R. Cheeseman, G. Scalmani, V. Barone, 
 G. A. Petersson, H. Nakatsuji, X. Li, M. Caricato, A. V. Marenich, 
 J. Bloino, B. G. Janesko, R. Gomperts, B. Mennucci, H. P. Hratchian, 
 J. V. Ortiz, A. F. Izmaylov, J. L. Sonnenberg, D. Williams-Young, 
 F. Ding, F. Lipparini, F. Egidi, J. Goings, B. Peng, A. Petrone, 
 T. Henderson, D. Ranasinghe, V. G. Zakrzewski, J. Gao, N. Rega, 
 G. Zheng, W. Liang, M. Hada, M. Ehara, K. Toyota, R. Fukuda, 
 J. Hasegawa, M. Ishida, T. Nakajima, Y. Honda, O. Kitao, H. Nakai, 
 T. Vreven, K. Throssell, J. A. Montgomery, Jr., J. E. Peralta, 
 F. Ogliaro, M. J. Bearpark, J. J. Heyd, E. N. Brothers, K. N. Kudin, 
 V. N. Staroverov, T. A. Keith, R. Kobayashi, J. Normand, 
 K. Raghavachari, A. P. Rendell, J. C. Burant, S. S. Iyengar, 
 J. Tomasi, M. Cossi, J. M. Millam, M. Klene, C. Adamo, R. Cammi, 
 J. W. Ochterski, R. L. Martin, K. Morokuma, O. Farkas, 
 J. B. Foresman, and D. J. Fox, Gaussian, Inc., Wallingford CT, 2016.
 
 ******************************************
 Gaussian 16:  ES64L-G16RevB.01 20-Dec-2017
                 1-Jun-2019 
 ******************************************
 %mem=80GB
 %nproc=40
 Will use up to   40 processors via shared memory.
 ----------------------------------------------------------------------
 # opt=(maxcyc=500,modredundant) uB2PLYPD3/cc-pvtz scf=maxcyc=500 nosym
 m
 ----------------------------------------------------------------------
 1/6=500,18=120,19=15,38=1/1,3;
 2/9=110,12=2,15=1,17=6,18=5,40=1/2;
 3/5=16,6=1,11=2,25=1,30=1,71=1,74=-60,116=2/1,2,3;
 4//1;
 5/5=2,7=500,38=5/2;
 8/6=4,10=1/1;
 9/15=2,16=-3/6;
 10/5=1,31=1/2;
 6/7=2,8=2,9=2,10=2/1;
 7/12=2,30=1/1,2,3,16;
 1/6=500,18=20,19=15/3(2);
 2/9=110,15=1/2;
 99//99;
 2/9=110,15=1/2;
 3/5=16,6=1,11=2,25=1,30=1,71=1,74=-60,116=2/1,2,3;
 4/5=5,16=3,69=1/1;
 5/5=2,7=500,38=5/2;
 8/6=4,10=1/1;
 9/15=2,16=-3/6;
 10/5=1,31=1/2;
 7/12=2,30=1/1,2,3,16;
 1/6=500,18=20,19=15/3(-8);
 2/9=110,15=1/2;
 6/7=2,8=2,9=2,10=2/1;
 99/9=10/99;
 -------------------
 Title Card Required
 -------------------
 Symbolic Z-matrix:
 Charge =  0 Multiplicity = 1
 C                    -1.39579   0.50669   0. 
 C                     0.11092   0.50669   0. 
 H                    -1.7844    1.55359   0. 
 H                    -1.79031  -0.01594  -0.90484 
 H                    -1.79023  -0.01581   0.90498 
 C                     0.66852  -0.90116   0.00018 
 H                     0.48812   1.05673  -0.90244 
 H                     0.48452   1.03728   0.91549 
 C                     2.17525  -0.90113   0.00011 
 H                     0.29134  -1.45118   0.9026 
 H                     0.29128  -1.45138  -0.9021 
 H                     2.56405  -1.94793   0.00026 
 H                     2.56956  -0.3785   -0.90484 
 H                     2.56964  -0.37821   0.90487 
 
 The following ModRedundant input section has been read:
 D    *          2       6    *    R                                           
 D       1       2       6       9 S  36 10.000                                
 

 GradGradGradGradGradGradGradGradGradGradGradGradGradGradGradGradGradGrad
 Berny optimization.
 Initialization pass.
                           ----------------------------
                           !    Initial Parameters    !
                           ! (Angstroms and Degrees)  !
 --------------------------                            --------------------------
 ! Name  Definition              Value          Derivative Info.                !
 --------------------------------------------------------------------------------
 ! R1    R(1,2)                  1.5067         estimate D2E/DX2                !
 ! R2    R(1,3)                  1.1167         estimate D2E/DX2                !
 ! R3    R(1,4)                  1.1169         estimate D2E/DX2                !
 ! R4    R(1,5)                  1.1169         estimate D2E/DX2                !
 ! R5    R(2,6)                  1.5142         estimate D2E/DX2                !
 ! R6    R(2,7)                  1.1221         estimate D2E/DX2                !
 ! R7    R(2,8)                  1.1221         estimate D2E/DX2                !
 ! R8    R(6,9)                  1.5067         estimate D2E/DX2                !
 ! R9    R(6,10)                 1.1221         estimate D2E/DX2                !
 ! R10   R(6,11)                 1.1221         estimate D2E/DX2                !
 ! R11   R(9,12)                 1.1167         estimate D2E/DX2                !
 ! R12   R(9,13)                 1.1169         estimate D2E/DX2                !
 ! R13   R(9,14)                 1.1169         estimate D2E/DX2                !
 ! A1    A(2,1,3)              110.3651         estimate D2E/DX2                !
 ! A2    A(2,1,4)              110.684          estimate D2E/DX2                !
 ! A3    A(2,1,5)              110.6793         estimate D2E/DX2                !
 ! A4    A(3,1,4)              108.4063         estimate D2E/DX2                !
 ! A5    A(3,1,5)              108.4007         estimate D2E/DX2                !
 ! A6    A(4,1,5)              108.2253         estimate D2E/DX2                !
 ! A7    A(1,2,6)              111.6065         estimate D2E/DX2                !
 ! A8    A(1,2,7)              109.6417         estimate D2E/DX2                !
 ! A9    A(1,2,8)              109.4465         estimate D2E/DX2                !
 ! A10   A(6,2,7)              109.3929         estimate D2E/DX2                !
 ! A11   A(6,2,8)              108.4766         estimate D2E/DX2                !
 ! A12   A(7,2,8)              108.2056         estimate D2E/DX2                !
 ! A13   A(2,6,9)              111.6054         estimate D2E/DX2                !
 ! A14   A(2,6,10)             109.3931         estimate D2E/DX2                !
 ! A15   A(2,6,11)             109.3904         estimate D2E/DX2                !
 ! A16   A(9,6,10)             109.6438         estimate D2E/DX2                !
 ! A17   A(9,6,11)             109.643          estimate D2E/DX2                !
 ! A18   A(10,6,11)            107.0555         estimate D2E/DX2                !
 ! A19   A(6,9,12)             110.375          estimate D2E/DX2                !
 ! A20   A(6,9,13)             110.6752         estimate D2E/DX2                !
 ! A21   A(6,9,14)             110.6753         estimate D2E/DX2                !
 ! A22   A(12,9,13)            108.4103         estimate D2E/DX2                !
 ! A23   A(12,9,14)            108.4105         estimate D2E/DX2                !
 ! A24   A(13,9,14)            108.2146         estimate D2E/DX2                !
 ! D1    D(3,1,2,6)            179.9928         estimate D2E/DX2                !
 ! D2    D(3,1,2,7)            -58.6375         estimate D2E/DX2                !
 ! D3    D(3,1,2,8)             59.905          estimate D2E/DX2                !
 ! D4    D(4,1,2,6)            -59.9967         estimate D2E/DX2                !
 ! D5    D(4,1,2,7)             61.373          estimate D2E/DX2                !
 ! D6    D(4,1,2,8)            179.9156         estimate D2E/DX2                !
 ! D7    D(5,1,2,6)             59.9922         estimate D2E/DX2                !
 ! D8    D(5,1,2,7)           -178.6381         estimate D2E/DX2                !
 ! D9    D(5,1,2,8)            -60.0955         estimate D2E/DX2                !
 ! D10   D(1,2,6,9)            179.9973         Scan                            !
 ! D11   D(2,6,9,12)           179.9991         estimate D2E/DX2                !
 ! D12   D(2,6,9,13)           -59.9846         estimate D2E/DX2                !
 ! D13   D(2,6,9,14)            59.9826         estimate D2E/DX2                !
 ! D14   D(10,6,9,12)           58.6285         estimate D2E/DX2                !
 ! D15   D(10,6,9,13)          178.6448         estimate D2E/DX2                !
 ! D16   D(10,6,9,14)          -61.3881         estimate D2E/DX2                !
 ! D17   D(11,6,9,12)          -58.6342         estimate D2E/DX2                !
 ! D18   D(11,6,9,13)           61.3821         estimate D2E/DX2                !
 ! D19   D(11,6,9,14)         -178.6508         estimate D2E/DX2                !
 --------------------------------------------------------------------------------
 Trust Radius=3.00D-01 FncErr=1.00D-07 GrdErr=1.00D-07 EigMax=2.50D+02 EigMin=1.00D-04
 Number of optimizations in scan=  37
 Number of steps in this run=    100 maximum allowed number of steps=    100.
 GradGradGradGradGradGradGradGradGradGradGradGradGradGradGradGradGradGrad

                          Input orientation:                          
 ---------------------------------------------------------------------
 Center     Atomic      Atomic             Coordinates (Angstroms)
 Number     Number       Type             X           Y           Z
 ---------------------------------------------------------------------
      1          6           0       -1.395793    0.506692    0.000000
      2          6           0        0.110925    0.506692    0.000000
      3          1           0       -1.784404    1.553585    0.000000
      4          1           0       -1.790306   -0.015941   -0.904842
      5          1           0       -1.790228   -0.015807    0.904976
      6          6           0        0.668516   -0.901159    0.000178
      7          1           0        0.488119    1.056730   -0.902436
      8          1           0        0.484518    1.037277    0.915492
      9          6           0        2.175250   -0.901131    0.000113
     10          1           0        0.291341   -1.451183    0.902596
     11          1           0        0.291277   -1.451384   -0.902097
     12          1           0        2.564052   -1.947927    0.000262
     13          1           0        2.569561   -0.378505   -0.904843
     14          1           0        2.569641   -0.378214    0.904866
 ---------------------------------------------------------------------
                    Distance matrix (angstroms):
                    1          2          3          4          5
     1  C    0.000000
     2  C    1.506718   0.000000
     3  H    1.116693   2.165238   0.000000
     4  H    1.116926   2.169462   1.811680   0.000000
     5  H    1.116945   2.169417   1.811631   1.809818   0.000000
     6  C    2.498683   1.514250   3.470243   2.765588   2.765489
     7  H    2.160106   1.122144   2.495119   2.518303   3.099668
     8  H    2.157595   1.122149   2.500541   3.098017   2.506704
     9  C    3.838530   2.498680   4.658808   4.162708   4.162642
    10  H    2.737586   2.163447   3.761918   3.108055   2.528486
    11  H    2.737525   2.163416   3.761924   2.528536   3.107902
    12  H    4.658919   3.470301   5.582979   4.848940   4.848850
    13  H    4.162493   2.765358   4.848580   4.374916   4.734422
    14  H    4.162512   2.765344   4.848540   4.734493   4.374905
                    6          7          8          9         10
     6  C    0.000000
     7  H    2.163466   0.000000
     8  H    2.151555   1.818036   0.000000
     9  C    1.506734   2.737558   2.730187   0.000000
    10  H    1.122117   3.096206   2.495980   2.160126   0.000000
    11  H    1.122122   2.515826   3.087783   2.160119   1.804693
    12  H    2.165359   3.761958   3.751473   1.116669   2.495231
    13  H    2.169378   2.528301   3.108933   1.116944   3.099639
    14  H    2.169380   3.107755   2.520211   1.116944   2.518317
                   11         12         13         14
    11  H    0.000000
    12  H    2.495258   0.000000
    13  H    2.518264   1.811720   0.000000
    14  H    3.099637   1.811723   1.809709   0.000000
 Symmetry turned off by external request.
 Stoichiometry    C4H10
 Framework group  C1[X(C4H10)]
 Deg. of freedom    36
 Full point group                 C1      NOp   1
 Rotational constants (GHZ):          22.7871265           3.7567484           3.5220777
 Standard basis: CC-pVTZ (5D, 7F)
   260 basis functions,   378 primitive gaussians,   290 cartesian basis functions
    17 alpha electrons       17 beta electrons
       nuclear repulsion energy       131.0328090280 Hartrees.
 NAtoms=   14 NActive=   14 NUniq=   14 SFac= 1.00D+00 NAtFMM=   60 NAOKFM=F Big=F
 Integral buffers will be    131072 words long.
 Raffenetti 2 integral format.
 Two-electron integral symmetry is turned off.
 Nuclear repulsion after empirical dispersion term =      131.0263389239 Hartrees.
 One-electron integrals computed using PRISM.
 NBasis=   260 RedAO= T EigKep=  5.45D-04  NBF=   260
 NBsUse=   260 1.00D-06 EigRej= -1.00D+00 NBFU=   260
 ExpMin= 1.03D-01 ExpMax= 8.24D+03 ExpMxC= 2.81D+02 IAcc=3 IRadAn=         5 AccDes= 0.00D+00
 Harris functional with IExCor=  419 and IRadAn=       5 diagonalized for initial guess.
 HarFok:  IExCor=  419 AccDes= 0.00D+00 IRadAn=         5 IDoV= 1 UseB2=F ITyADJ=14
 ICtDFT=  3500011 ScaDFX=  1.000000  1.000000  1.000000  1.000000
 FoFCou: FMM=F IPFlag=           0 FMFlag=      100000 FMFlg1=           0
         NFxFlg=           0 DoJE=T BraDBF=F KetDBF=T FulRan=T
         wScrn=  0.000000 ICntrl=       500 IOpCl=  0 I1Cent=   200000004 NGrid=           0
         NMat0=    1 NMatS0=      1 NMatT0=    0 NMatD0=    1 NMtDS0=    0 NMtDT0=    0
 Symmetry not used in FoFCou.
 Initial guess <Sx>= 0.0000 <Sy>= 0.0000 <Sz>= 0.0000 <S**2>=-0.0000 S=-0.0000
 Requested convergence on RMS density matrix=1.00D-08 within 500 cycles.
 Requested convergence on MAX density matrix=1.00D-06.
 Requested convergence on             energy=1.00D-06.
 No special actions if energy rises.
 Integral accuracy reduced to 1.0D-05 until final iterations.
 Initial convergence to 1.0D-05 achieved.  Increase integral accuracy.
 SCF Done:  E(UB2PLYPD3) =  -158.114086563     A.U. after   10 cycles
            NFock= 10  Conv=0.86D-08     -V/T= 2.0065
 <Sx>= 0.0000 <Sy>= 0.0000 <Sz>= 0.0000 <S**2>=-0.0000 S=-0.0000
 <L.S>=  0.00000000000    
 Annihilation of the first spin contaminant:
 S**2 before annihilation    -0.0000,   after     0.0000
 DoSCS=T DFT=T ScalE2(SS,OS)=  0.270000  0.270000
 ExpMin= 1.03D-01 ExpMax= 8.24D+03 ExpMxC= 2.81D+02 IAcc=3 IRadAn=         5 AccDes= 0.00D+00
 HarFok:  IExCor=  205 AccDes= 0.00D+00 IRadAn=         5 IDoV=-2 UseB2=F ITyADJ=14
 ICtDFT= 12500011 ScaDFX=  1.000000  1.000000  1.000000  1.000000
 Range of M.O.s used for correlation:     5   260
 NBasis=   260 NAE=    17 NBE=    17 NFC=     4 NFV=     0
 NROrb=    256 NOA=    13 NOB=    13 NVA=   243 NVB=   243

 **** Warning!!: The largest alpha MO coefficient is  0.12830516D+02


 **** Warning!!: The largest beta MO coefficient is  0.12830516D+02

 DoSCS=T DFT=T ScalE2(SS,OS)=  0.270000  0.270000
 Fully direct method using O(ONN) memory.
 JobTyp=2 Pass  1:  I=   5 to  17 NPSUse= 40 ParTrn=T ParDer=T DoDerP=T.
 JobTyp=3 Pass  1:  I=   5 to  17 NPSUse= 40 ParTrn=T ParDer=T DoDerP=T.
 Spin components of T(2) and E(2):
     alpha-alpha T2 =       0.3971358313D-01 E2=     -0.2544394769D-01
     alpha-beta  T2 =       0.2603661769D+00 E2=     -0.1835352141D+00
     beta-beta   T2 =       0.3971358313D-01 E2=     -0.2544394769D-01
 (S**2,0)=  0.00000D+00           (S**2,1)=  0.00000D+00
 E(PUHF)=      -0.15811408656D+03        E(PMP2)=      -0.15834850967D+03
 E2(B2PLYPD3) =    -0.2344231095D+00 E(B2PLYPD3) =    -0.15834850967215D+03
          IDoAtm=11111111111111
          Differentiating once with respect to electric field.
                with respect to dipole field.
          Differentiating once with respect to nuclear coordinates.
 Keep R1 and R2 ints in memory in canonical form, NReq=1196156648.
          There are     1 degrees of freedom in the 1st order CPHF.  IDoFFX=0 NUNeed=     1.
 LinEq1:  Iter=  0 NonCon=     1 RMS=4.54D-04 Max=8.08D-03 NDo=     1
 AX will form     1 AO Fock derivatives at one time.
 LinEq1:  Iter=  1 NonCon=     1 RMS=2.02D-04 Max=3.55D-03 NDo=     1
 LinEq1:  Iter=  2 NonCon=     1 RMS=3.87D-05 Max=6.64D-04 NDo=     1
 LinEq1:  Iter=  3 NonCon=     1 RMS=1.20D-05 Max=2.33D-04 NDo=     1
 LinEq1:  Iter=  4 NonCon=     1 RMS=3.27D-06 Max=4.58D-05 NDo=     1
 LinEq1:  Iter=  5 NonCon=     1 RMS=6.83D-07 Max=1.11D-05 NDo=     1
 LinEq1:  Iter=  6 NonCon=     1 RMS=9.47D-08 Max=1.27D-06 NDo=     1
 LinEq1:  Iter=  7 NonCon=     1 RMS=2.26D-08 Max=3.58D-07 NDo=     1
 LinEq1:  Iter=  8 NonCon=     1 RMS=4.61D-09 Max=6.62D-08 NDo=     1
 LinEq1:  Iter=  9 NonCon=     1 RMS=2.18D-09 Max=4.72D-08 NDo=     1
 LinEq1:  Iter= 10 NonCon=     1 RMS=3.43D-10 Max=7.67D-09 NDo=     1
 LinEq1:  Iter= 11 NonCon=     0 RMS=5.31D-11 Max=7.98D-10 NDo=     1
 Linear equations converged to 1.000D-10 1.000D-09 after    11 iterations.
 End of Minotr F.D. properties file   721 does not exist.
 End of Minotr F.D. properties file   722 does not exist.
 End of Minotr F.D. properties file   788 does not exist.

 **********************************************************************

            Population analysis using the SCF Density.

 **********************************************************************

 Alpha  occ. eigenvalues --  -10.60862 -10.60813 -10.60432 -10.60432  -0.91399
 Alpha  occ. eigenvalues --   -0.82976  -0.71623  -0.65523  -0.54152  -0.49266
 Alpha  occ. eigenvalues --   -0.48428  -0.47375  -0.42587  -0.40440  -0.39181
 Alpha  occ. eigenvalues --   -0.37785  -0.37468
 Alpha virt. eigenvalues --    0.07894   0.09697   0.11233   0.11398   0.14928
 Alpha virt. eigenvalues --    0.15747   0.16716   0.17870   0.18114   0.19249
 Alpha virt. eigenvalues --    0.23433   0.24076   0.27775   0.30006   0.31962
 Alpha virt. eigenvalues --    0.33068   0.34263   0.35889   0.37302   0.42088
 Alpha virt. eigenvalues --    0.46228   0.47000   0.47238   0.47366   0.51430
 Alpha virt. eigenvalues --    0.52568   0.53196   0.53233   0.53486   0.54574
 Alpha virt. eigenvalues --    0.55432   0.56261   0.56580   0.58847   0.59271
 Alpha virt. eigenvalues --    0.65028   0.69995   0.70651   0.76456   0.79989
 Alpha virt. eigenvalues --    0.81744   0.82423   0.84802   0.86691   0.90110
 Alpha virt. eigenvalues --    0.94115   0.95602   0.96185   0.98339   1.04366
 Alpha virt. eigenvalues --    1.05713   1.06035   1.10000   1.12519   1.14240
 Alpha virt. eigenvalues --    1.15053   1.17193   1.19012   1.19438   1.20280
 Alpha virt. eigenvalues --    1.23582   1.24848   1.25244   1.25398   1.27357
 Alpha virt. eigenvalues --    1.28352   1.28714   1.32975   1.34929   1.36580
 Alpha virt. eigenvalues --    1.36655   1.40041   1.42107   1.42240   1.45368
 Alpha virt. eigenvalues --    1.46161   1.48208   1.48950   1.50006   1.54400
 Alpha virt. eigenvalues --    1.57035   1.60089   1.62304   1.63413   1.63758
 Alpha virt. eigenvalues --    1.66965   1.73185   1.74024   1.78543   2.32860
 Alpha virt. eigenvalues --    2.39944   2.40489   2.43437   2.44577   2.46810
 Alpha virt. eigenvalues --    2.49558   2.51775   2.58711   2.60229   2.61783
 Alpha virt. eigenvalues --    2.64192   2.67750   2.70368   2.70518   2.71156
 Alpha virt. eigenvalues --    2.74259   2.78223   2.78471   2.81665   2.81966
 Alpha virt. eigenvalues --    2.86914   2.88272   2.90576   2.92942   2.93027
 Alpha virt. eigenvalues --    2.95791   2.98482   3.01082   3.03601   3.07283
 Alpha virt. eigenvalues --    3.08257   3.13248   3.13920   3.15026   3.17217
 Alpha virt. eigenvalues --    3.19503   3.20432   3.20537   3.21154   3.21954
 Alpha virt. eigenvalues --    3.24310   3.24653   3.28333   3.30663   3.30879
 Alpha virt. eigenvalues --    3.31621   3.35154   3.35256   3.41738   3.42543
 Alpha virt. eigenvalues --    3.44356   3.45167   3.51884   3.52245   3.54560
 Alpha virt. eigenvalues --    3.55897   3.55978   3.58291   3.60257   3.64500
 Alpha virt. eigenvalues --    3.66475   3.67630   3.69575   3.75669   3.77545
 Alpha virt. eigenvalues --    3.78782   3.81988   3.83566   3.87273   3.87607
 Alpha virt. eigenvalues --    3.90304   3.91152   3.92713   3.93291   3.97272
 Alpha virt. eigenvalues --    3.97492   3.98705   4.01669   4.03227   4.04190
 Alpha virt. eigenvalues --    4.06621   4.08383   4.08777   4.13845   4.14182
 Alpha virt. eigenvalues --    4.14281   4.18914   4.20951   4.21851   4.22945
 Alpha virt. eigenvalues --    4.23236   4.23463   4.24111   4.29712   4.31242
 Alpha virt. eigenvalues --    4.34811   4.35803   4.36446   4.39331   4.41596
 Alpha virt. eigenvalues --    4.44863   4.45792   4.50235   4.52031   4.55246
 Alpha virt. eigenvalues --    4.57710   4.68890   4.72945   4.73375   4.76055
 Alpha virt. eigenvalues --    4.80979   4.83947   4.90144   4.93335   4.94050
 Alpha virt. eigenvalues --    4.94778   4.95112   4.95314   5.01153   5.02958
 Alpha virt. eigenvalues --    5.04379   5.06579   5.11738   5.18449   5.19831
 Alpha virt. eigenvalues --    5.23151   5.29779   5.34732   5.38452   5.39012
 Alpha virt. eigenvalues --    5.40087   5.42684   5.43204   5.45345   5.50194
 Alpha virt. eigenvalues --    5.51314   5.57073   5.59105   5.62306   5.63370
 Alpha virt. eigenvalues --    5.65369   5.75447   5.78377   5.99535   6.04273
 Alpha virt. eigenvalues --    6.04392   6.04547   6.07448   6.15374  12.16640
 Alpha virt. eigenvalues --   12.85707  13.44208  13.46919
  Beta  occ. eigenvalues --  -10.60862 -10.60813 -10.60432 -10.60432  -0.91399
  Beta  occ. eigenvalues --   -0.82976  -0.71623  -0.65523  -0.54152  -0.49266
  Beta  occ. eigenvalues --   -0.48428  -0.47375  -0.42587  -0.40440  -0.39181
  Beta  occ. eigenvalues --   -0.37785  -0.37468
  Beta virt. eigenvalues --    0.07894   0.09697   0.11233   0.11398   0.14928
  Beta virt. eigenvalues --    0.15747   0.16716   0.17870   0.18114   0.19249
  Beta virt. eigenvalues --    0.23433   0.24076   0.27775   0.30006   0.31962
  Beta virt. eigenvalues --    0.33068   0.34263   0.35889   0.37302   0.42088
  Beta virt. eigenvalues --    0.46228   0.47000   0.47238   0.47366   0.51430
  Beta virt. eigenvalues --    0.52568   0.53196   0.53233   0.53486   0.54574
  Beta virt. eigenvalues --    0.55432   0.56261   0.56580   0.58847   0.59271
  Beta virt. eigenvalues --    0.65028   0.69995   0.70651   0.76456   0.79989
  Beta virt. eigenvalues --    0.81744   0.82423   0.84802   0.86691   0.90110
  Beta virt. eigenvalues --    0.94115   0.95602   0.96185   0.98339   1.04366
  Beta virt. eigenvalues --    1.05713   1.06035   1.10000   1.12519   1.14240
  Beta virt. eigenvalues --    1.15053   1.17193   1.19012   1.19438   1.20280
  Beta virt. eigenvalues --    1.23582   1.24848   1.25244   1.25398   1.27357
  Beta virt. eigenvalues --    1.28352   1.28714   1.32975   1.34929   1.36580
  Beta virt. eigenvalues --    1.36655   1.40041   1.42107   1.42240   1.45368
  Beta virt. eigenvalues --    1.46161   1.48208   1.48950   1.50006   1.54400
  Beta virt. eigenvalues --    1.57035   1.60089   1.62304   1.63413   1.63758
  Beta virt. eigenvalues --    1.66965   1.73185   1.74024   1.78543   2.32860
  Beta virt. eigenvalues --    2.39944   2.40489   2.43437   2.44577   2.46810
  Beta virt. eigenvalues --    2.49558   2.51775   2.58711   2.60229   2.61783
  Beta virt. eigenvalues --    2.64192   2.67750   2.70368   2.70518   2.71156
  Beta virt. eigenvalues --    2.74259   2.78223   2.78471   2.81665   2.81966
  Beta virt. eigenvalues --    2.86914   2.88272   2.90576   2.92942   2.93027
  Beta virt. eigenvalues --    2.95791   2.98482   3.01082   3.03601   3.07283
  Beta virt. eigenvalues --    3.08257   3.13248   3.13920   3.15026   3.17217
  Beta virt. eigenvalues --    3.19503   3.20432   3.20537   3.21154   3.21954
  Beta virt. eigenvalues --    3.24310   3.24653   3.28333   3.30663   3.30879
  Beta virt. eigenvalues --    3.31621   3.35154   3.35256   3.41738   3.42543
  Beta virt. eigenvalues --    3.44356   3.45167   3.51884   3.52245   3.54560
  Beta virt. eigenvalues --    3.55897   3.55978   3.58291   3.60257   3.64500
  Beta virt. eigenvalues --    3.66475   3.67630   3.69575   3.75669   3.77545
  Beta virt. eigenvalues --    3.78782   3.81988   3.83566   3.87273   3.87607
  Beta virt. eigenvalues --    3.90304   3.91152   3.92713   3.93291   3.97272
  Beta virt. eigenvalues --    3.97492   3.98705   4.01669   4.03227   4.04190
  Beta virt. eigenvalues --    4.06621   4.08383   4.08777   4.13845   4.14182
  Beta virt. eigenvalues --    4.14281   4.18914   4.20951   4.21851   4.22945
  Beta virt. eigenvalues --    4.23236   4.23463   4.24111   4.29712   4.31242
  Beta virt. eigenvalues --    4.34811   4.35803   4.36446   4.39331   4.41596
  Beta virt. eigenvalues --    4.44863   4.45792   4.50235   4.52031   4.55246
  Beta virt. eigenvalues --    4.57710   4.68890   4.72945   4.73375   4.76055
  Beta virt. eigenvalues --    4.80979   4.83947   4.90144   4.93335   4.94050
  Beta virt. eigenvalues --    4.94778   4.95112   4.95314   5.01153   5.02958
  Beta virt. eigenvalues --    5.04379   5.06579   5.11738   5.18449   5.19831
  Beta virt. eigenvalues --    5.23151   5.29779   5.34732   5.38452   5.39012
  Beta virt. eigenvalues --    5.40087   5.42684   5.43204   5.45345   5.50194
  Beta virt. eigenvalues --    5.51314   5.57073   5.59105   5.62306   5.63370
  Beta virt. eigenvalues --    5.65369   5.75447   5.78377   5.99535   6.04273
  Beta virt. eigenvalues --    6.04392   6.04547   6.07448   6.15374  12.16640
  Beta virt. eigenvalues --   12.85707  13.44208  13.46919
          Condensed to atoms (all electrons):
               1          2          3          4          5          6
     1  C    4.841539   0.349068   0.410194   0.407394   0.407499  -0.055957
     2  C    0.349068   4.855177  -0.038828  -0.039483  -0.039261   0.356737
     3  H    0.410194  -0.038828   0.599239  -0.029827  -0.029756   0.008514
     4  H    0.407394  -0.039483  -0.029827   0.610455  -0.032294  -0.005506
     5  H    0.407499  -0.039261  -0.029756  -0.032294   0.610225  -0.005324
     6  C   -0.055957   0.356737   0.008514  -0.005506  -0.005324   4.858023
     7  H   -0.037325   0.410706  -0.005430  -0.005619   0.007936  -0.038995
     8  H   -0.037354   0.410335  -0.005360   0.008027  -0.005927  -0.040159
     9  C    0.007000  -0.056365  -0.000493   0.000061   0.000064   0.349340
    10  H   -0.004227  -0.038502  -0.000097  -0.000278   0.003646   0.410299
    11  H   -0.004255  -0.039022  -0.000100   0.003734  -0.000289   0.409867
    12  H   -0.000491   0.008480   0.000026  -0.000002  -0.000001  -0.038649
    13  H    0.000060  -0.005343  -0.000002   0.000020  -0.000018  -0.039436
    14  H    0.000062  -0.005330  -0.000002  -0.000017   0.000019  -0.039525
               7          8          9         10         11         12
     1  C   -0.037325  -0.037354   0.007000  -0.004227  -0.004255  -0.000491
     2  C    0.410706   0.410335  -0.056365  -0.038502  -0.039022   0.008480
     3  H   -0.005430  -0.005360  -0.000493  -0.000097  -0.000100   0.000026
     4  H   -0.005619   0.008027   0.000061  -0.000278   0.003734  -0.000002
     5  H    0.007936  -0.005927   0.000064   0.003646  -0.000289  -0.000001
     6  C   -0.038995  -0.040159   0.349340   0.410299   0.409867  -0.038649
     7  H    0.624694  -0.034220  -0.004190   0.008106  -0.006081  -0.000091
     8  H   -0.034220   0.627400  -0.004282  -0.006462   0.008314  -0.000101
     9  C   -0.004190  -0.004282   4.841058  -0.037066  -0.037115   0.410030
    10  H    0.008106  -0.006462  -0.037066   0.626916  -0.035868  -0.005353
    11  H   -0.006081   0.008314  -0.037115  -0.035868   0.627774  -0.005381
    12  H   -0.000091  -0.000101   0.410030  -0.005353  -0.005381   0.599202
    13  H    0.003645  -0.000284   0.407522   0.007987  -0.005872  -0.029749
    14  H   -0.000273   0.003711   0.407521  -0.005871   0.008006  -0.029780
              13         14
     1  C    0.000060   0.000062
     2  C   -0.005343  -0.005330
     3  H   -0.000002  -0.000002
     4  H    0.000020  -0.000017
     5  H   -0.000018   0.000019
     6  C   -0.039436  -0.039525
     7  H    0.003645  -0.000273
     8  H   -0.000284   0.003711
     9  C    0.407522   0.407521
    10  H    0.007987  -0.005871
    11  H   -0.005872   0.008006
    12  H   -0.029749  -0.029780
    13  H    0.610451  -0.032402
    14  H   -0.032402   0.610563
          Atomic-Atomic Spin Densities.
               1          2          3          4          5          6
     1  C   -0.000000   0.000000  -0.000000  -0.000000   0.000000  -0.000000
     2  C    0.000000   0.000000   0.000000   0.000000   0.000000  -0.000000
     3  H   -0.000000   0.000000   0.000000   0.000000   0.000000   0.000000
     4  H   -0.000000   0.000000   0.000000   0.000000   0.000000  -0.000000
     5  H    0.000000   0.000000   0.000000   0.000000  -0.000000   0.000000
     6  C   -0.000000  -0.000000   0.000000  -0.000000   0.000000   0.000000
     7  H   -0.000000  -0.000000   0.000000  -0.000000  -0.000000  -0.000000
     8  H   -0.000000  -0.000000   0.000000  -0.000000   0.000000  -0.000000
     9  C    0.000000   0.000000  -0.000000   0.000000  -0.000000  -0.000000
    10  H    0.000000  -0.000000  -0.000000  -0.000000   0.000000   0.000000
    11  H    0.000000  -0.000000  -0.000000   0.000000  -0.000000   0.000000
    12  H   -0.000000   0.000000  -0.000000   0.000000   0.000000  -0.000000
    13  H    0.000000   0.000000   0.000000  -0.000000   0.000000   0.000000
    14  H    0.000000  -0.000000   0.000000  -0.000000  -0.000000   0.000000
               7          8          9         10         11         12
     1  C   -0.000000  -0.000000   0.000000   0.000000   0.000000  -0.000000
     2  C   -0.000000  -0.000000   0.000000  -0.000000  -0.000000   0.000000
     3  H    0.000000   0.000000  -0.000000  -0.000000  -0.000000  -0.000000
     4  H   -0.000000  -0.000000   0.000000  -0.000000   0.000000   0.000000
     5  H   -0.000000   0.000000  -0.000000   0.000000  -0.000000   0.000000
     6  C   -0.000000  -0.000000  -0.000000   0.000000   0.000000  -0.000000
     7  H   -0.000000  -0.000000  -0.000000   0.000000   0.000000  -0.000000
     8  H   -0.000000   0.000000  -0.000000   0.000000   0.000000  -0.000000
     9  C   -0.000000  -0.000000  -0.000000  -0.000000  -0.000000   0.000000
    10  H    0.000000   0.000000  -0.000000   0.000000  -0.000000   0.000000
    11  H    0.000000   0.000000  -0.000000  -0.000000   0.000000   0.000000
    12  H   -0.000000  -0.000000   0.000000   0.000000   0.000000  -0.000000
    13  H    0.000000   0.000000  -0.000000  -0.000000   0.000000   0.000000
    14  H   -0.000000  -0.000000  -0.000000  -0.000000  -0.000000   0.000000
              13         14
     1  C    0.000000   0.000000
     2  C    0.000000  -0.000000
     3  H    0.000000   0.000000
     4  H   -0.000000  -0.000000
     5  H    0.000000  -0.000000
     6  C    0.000000   0.000000
     7  H    0.000000  -0.000000
     8  H    0.000000  -0.000000
     9  C   -0.000000  -0.000000
    10  H   -0.000000  -0.000000
    11  H    0.000000  -0.000000
    12  H    0.000000   0.000000
    13  H    0.000000  -0.000000
    14  H   -0.000000   0.000000
 Mulliken charges and spin densities:
               1          2
     1  C   -0.283207  -0.000000
     2  C   -0.128369   0.000000
     3  H    0.091920   0.000000
     4  H    0.083335   0.000000
     5  H    0.083482   0.000000
     6  C   -0.129230   0.000000
     7  H    0.077135  -0.000000
     8  H    0.076363  -0.000000
     9  C   -0.283085  -0.000000
    10  H    0.076770  -0.000000
    11  H    0.076288   0.000000
    12  H    0.091861  -0.000000
    13  H    0.083419   0.000000
    14  H    0.083319  -0.000000
 Sum of Mulliken charges =  -0.00000   0.00000
 Mulliken charges and spin densities with hydrogens summed into heavy atoms:
               1          2
     1  C   -0.024471  -0.000000
     2  C    0.025129   0.000000
     6  C    0.023828   0.000000
     9  C   -0.024486  -0.000000
 Electronic spatial extent (au):  <R**2>=            440.4802
 Charge=             -0.0000 electrons
 Dipole moment (field-independent basis, Debye):
    X=             -0.0021    Y=             -0.0026    Z=              0.0017  Tot=              0.0038
 Quadrupole moment (field-independent basis, Debye-Ang):
   XX=            -30.3473   YY=            -28.9660   ZZ=            -28.1688
   XY=              0.1687   XZ=             -0.0033   YZ=             -0.0188
 Traceless Quadrupole moment (field-independent basis, Debye-Ang):
   XX=             -1.1866   YY=              0.1947   ZZ=              0.9919
   XY=              0.1687   XZ=             -0.0033   YZ=             -0.0188
 Octapole moment (field-independent basis, Debye-Ang**2):
  XXX=            -35.4674  YYY=             17.1240  ZZZ=             -0.0219  XYY=            -11.3649
  XXY=              6.1264  XXZ=             -0.0134  XZZ=            -10.9759  YZZ=              5.6038
  YYZ=             -0.0335  XYZ=             -0.0103
 Hexadecapole moment (field-independent basis, Debye-Ang**3):
 XXXX=           -425.3774 YYYY=           -159.3888 ZZZZ=            -61.4420 XXXY=             77.6128
 XXXZ=             -0.0396 YYYX=             69.2794 YYYZ=             -0.0662 ZZZX=             -0.0184
 ZZZY=             -0.0016 XXYY=            -94.1682 XXZZ=            -76.4187 YYZZ=            -37.2150
 XXYZ=             -0.0031 YYXZ=             -0.0217 ZZXY=             26.8489
 N-N= 1.310263389239D+02 E-N=-6.276053355855D+02  KE= 1.570905199622D+02
                          Isotropic Fermi Contact Couplings
        Atom                 a.u.       MegaHertz       Gauss      10(-4) cm-1
     1  C(13)             -0.00000      -0.00000      -0.00000      -0.00000
     2  C(13)              0.00000       0.00000       0.00000       0.00000
     3  H(1)              -0.00000      -0.00000      -0.00000      -0.00000
     4  H(1)              -0.00000      -0.00000      -0.00000      -0.00000
     5  H(1)              -0.00000      -0.00000      -0.00000      -0.00000
     6  C(13)             -0.00000      -0.00000      -0.00000      -0.00000
     7  H(1)              -0.00000      -0.00000      -0.00000      -0.00000
     8  H(1)               0.00000       0.00000       0.00000       0.00000
     9  C(13)              0.00000       0.00000       0.00000       0.00000
    10  H(1)               0.00000       0.00000       0.00000       0.00000
    11  H(1)               0.00000       0.00000       0.00000       0.00000
    12  H(1)               0.00000       0.00000       0.00000       0.00000
    13  H(1)              -0.00000      -0.00000      -0.00000      -0.00000
    14  H(1)              -0.00000      -0.00000      -0.00000      -0.00000
 --------------------------------------------------------
       Center         ----  Spin Dipole Couplings  ----
                      3XX-RR        3YY-RR        3ZZ-RR
 --------------------------------------------------------
     1   Atom        0.000000      0.000000      0.000000
     2   Atom        0.000000      0.000000      0.000000
     3   Atom        0.000000      0.000000      0.000000
     4   Atom        0.000000      0.000000      0.000000
     5   Atom        0.000000      0.000000      0.000000
     6   Atom        0.000000      0.000000      0.000000
     7   Atom        0.000000      0.000000      0.000000
     8   Atom        0.000000      0.000000      0.000000
     9   Atom        0.000000      0.000000      0.000000
    10   Atom        0.000000      0.000000      0.000000
    11   Atom        0.000000      0.000000      0.000000
    12   Atom        0.000000      0.000000      0.000000
    13   Atom        0.000000      0.000000      0.000000
    14   Atom        0.000000      0.000000      0.000000
 --------------------------------------------------------
                        XY            XZ            YZ
 --------------------------------------------------------
     1   Atom        0.000000      0.000000      0.000000
     2   Atom        0.000000      0.000000      0.000000
     3   Atom        0.000000      0.000000      0.000000
     4   Atom        0.000000      0.000000      0.000000
     5   Atom        0.000000      0.000000      0.000000
     6   Atom        0.000000      0.000000      0.000000
     7   Atom        0.000000      0.000000      0.000000
     8   Atom        0.000000      0.000000      0.000000
     9   Atom        0.000000      0.000000      0.000000
    10   Atom        0.000000      0.000000      0.000000
    11   Atom        0.000000      0.000000      0.000000
    12   Atom        0.000000      0.000000      0.000000
    13   Atom        0.000000      0.000000      0.000000
    14   Atom        0.000000      0.000000      0.000000
 --------------------------------------------------------


 ---------------------------------------------------------------------------------
              Anisotropic Spin Dipole Couplings in Principal Axis System
 ---------------------------------------------------------------------------------

       Atom             a.u.   MegaHertz   Gauss  10(-4) cm-1        Axes

              Baa     0.0000     0.000     0.000     0.000  1.0000  0.0000  0.0000
     1 C(13)  Bbb     0.0000     0.000     0.000     0.000 -0.0000  1.0000  0.0000
              Bcc     0.0000     0.000     0.000     0.000  0.0000  0.0000  1.0000
 
              Baa     0.0000     0.000     0.000     0.000  1.0000  0.0000  0.0000
     2 C(13)  Bbb     0.0000     0.000     0.000     0.000 -0.0000  1.0000  0.0000
              Bcc     0.0000     0.000     0.000     0.000  0.0000  0.0000  1.0000
 
              Baa     0.0000     0.000     0.000     0.000  1.0000  0.0000  0.0000
     3 H(1)   Bbb     0.0000     0.000     0.000     0.000 -0.0000  1.0000  0.0000
              Bcc     0.0000     0.000     0.000     0.000  0.0000  0.0000  1.0000
 
              Baa     0.0000     0.000     0.000     0.000  1.0000  0.0000  0.0000
     4 H(1)   Bbb     0.0000     0.000     0.000     0.000 -0.0000  1.0000  0.0000
              Bcc     0.0000     0.000     0.000     0.000  0.0000  0.0000  1.0000
 
              Baa     0.0000     0.000     0.000     0.000  1.0000  0.0000  0.0000
     5 H(1)   Bbb     0.0000     0.000     0.000     0.000 -0.0000  1.0000  0.0000
              Bcc     0.0000     0.000     0.000     0.000  0.0000  0.0000  1.0000
 
              Baa     0.0000     0.000     0.000     0.000  1.0000  0.0000  0.0000
     6 C(13)  Bbb     0.0000     0.000     0.000     0.000 -0.0000  1.0000  0.0000
              Bcc     0.0000     0.000     0.000     0.000  0.0000  0.0000  1.0000
 
              Baa     0.0000     0.000     0.000     0.000  1.0000  0.0000  0.0000
     7 H(1)   Bbb     0.0000     0.000     0.000     0.000 -0.0000  1.0000  0.0000
              Bcc     0.0000     0.000     0.000     0.000  0.0000  0.0000  1.0000
 
              Baa     0.0000     0.000     0.000     0.000  1.0000  0.0000  0.0000
     8 H(1)   Bbb     0.0000     0.000     0.000     0.000 -0.0000  1.0000  0.0000
              Bcc     0.0000     0.000     0.000     0.000  0.0000  0.0000  1.0000
 
              Baa     0.0000     0.000     0.000     0.000  1.0000  0.0000  0.0000
     9 C(13)  Bbb     0.0000     0.000     0.000     0.000 -0.0000  1.0000  0.0000
              Bcc     0.0000     0.000     0.000     0.000  0.0000  0.0000  1.0000
 
              Baa     0.0000     0.000     0.000     0.000  1.0000  0.0000  0.0000
    10 H(1)   Bbb     0.0000     0.000     0.000     0.000 -0.0000  1.0000  0.0000
              Bcc     0.0000     0.000     0.000     0.000  0.0000  0.0000  1.0000
 
              Baa     0.0000     0.000     0.000     0.000  1.0000  0.0000  0.0000
    11 H(1)   Bbb     0.0000     0.000     0.000     0.000 -0.0000  1.0000  0.0000
              Bcc     0.0000     0.000     0.000     0.000  0.0000  0.0000  1.0000
 
              Baa     0.0000     0.000     0.000     0.000  1.0000  0.0000  0.0000
    12 H(1)   Bbb     0.0000     0.000     0.000     0.000 -0.0000  1.0000  0.0000
              Bcc     0.0000     0.000     0.000     0.000  0.0000  0.0000  1.0000
 
              Baa     0.0000     0.000     0.000     0.000  1.0000  0.0000  0.0000
    13 H(1)   Bbb     0.0000     0.000     0.000     0.000 -0.0000  1.0000  0.0000
              Bcc     0.0000     0.000     0.000     0.000  0.0000  0.0000  1.0000
 
              Baa     0.0000     0.000     0.000     0.000  1.0000  0.0000  0.0000
    14 H(1)   Bbb     0.0000     0.000     0.000     0.000 -0.0000  1.0000  0.0000
              Bcc     0.0000     0.000     0.000     0.000  0.0000  0.0000  1.0000
 

 ---------------------------------------------------------------------------------

 Calling FoFJK, ICntrl=  10002127 FMM=F ISym2X=0 I1Cent= 0 IOpClX= 1 NMat=1 NMatS=1 NMatT=0.
 -------------------------------------------------------------------
 Center     Atomic                   Forces (Hartrees/Bohr)
 Number     Number              X              Y              Z
 -------------------------------------------------------------------
      1        6          -0.021539976    0.005673071   -0.000146998
      2        6           0.009777746    0.012068967    0.001580423
      3        1           0.002164625   -0.016566575    0.000010172
      4        1           0.004016460    0.007865440    0.013642504
      5        1           0.004064168    0.007833533   -0.013726870
      6        6          -0.010425132   -0.014599844   -0.000908881
      7        1          -0.004024398   -0.007132844    0.015744565
      8        1          -0.004136755   -0.005600614   -0.016152579
      9        6           0.021393621   -0.005694140   -0.000008867
     10        1           0.004417868    0.007759771   -0.014752487
     11        1           0.004534305    0.007524692    0.014691999
     12        1          -0.002171960    0.016571979    0.000007333
     13        1          -0.004040100   -0.007858588    0.013694736
     14        1          -0.004030472   -0.007844849   -0.013675051
 -------------------------------------------------------------------
 Cartesian Forces:  Max     0.021539976 RMS     0.010219955

 GradGradGradGradGradGradGradGradGradGradGradGradGradGradGradGradGradGrad
 Berny optimization.
 FormGI is forming the generalized inverse of G from B-inverse, IUseBI=4.
 Internal  Forces:  Max     0.017511019 RMS     0.007745106
 Search for a local minimum.
 Step number   1 out of a maximum of  100 on scan point     1 out of    37
 All quantities printed in internal units (Hartrees-Bohrs-Radians)
 Mixed Optimization -- RFO/linear search
 Second derivative matrix not updated -- first step.
 ITU=  0
     Eigenvalues ---    0.00677   0.00677   0.05691   0.05735   0.05795
     Eigenvalues ---    0.05796   0.05820   0.05821   0.06251   0.06267
     Eigenvalues ---    0.16000   0.16000   0.16000   0.16000   0.16000
     Eigenvalues ---    0.16000   0.16000   0.16000   0.16000   0.16000
     Eigenvalues ---    0.22343   0.22382   0.30927   0.31347   0.31347
     Eigenvalues ---    0.31350   0.31350   0.31681   0.31683   0.31876
     Eigenvalues ---    0.31876   0.31876   0.31878   0.31902   0.31904
     Eigenvalues --- 1000.000001000.000001000.000001000.000001000.00000
     Eigenvalues --- 1000.000001000.000001000.000001000.000001000.00000
     Eigenvalues --- 1000.000001000.000001000.000001000.000001000.00000
     Eigenvalues --- 1000.000001000.000001000.000001000.000001000.00000
     Eigenvalues --- 1000.00000
 RFO step:  Lambda=-1.10435179D-02 EMin= 6.76869594D-03
 Linear search not attempted -- first point.
 Iteration  1 RMS(Cart)=  0.04219364 RMS(Int)=  0.00035601
 Iteration  2 RMS(Cart)=  0.00047419 RMS(Int)=  0.00012686
 Iteration  3 RMS(Cart)=  0.00000010 RMS(Int)=  0.00012686
 Iteration  1 RMS(Cart)=  0.00000000 RMS(Int)=  0.00000000
 Variable       Old X    -DE/DX   Delta X   Delta X   Delta X     New X
                                 (Linear)    (Quad)   (Total)
    R1        2.84728   0.01130   0.00000   0.03445   0.03445   2.88174
    R2        2.11024  -0.01628   0.00000  -0.04934  -0.04934   2.06091
    R3        2.11069  -0.01615   0.00000  -0.04897  -0.04897   2.06172
    R4        2.11072  -0.01622   0.00000  -0.04919  -0.04919   2.06153
    R5        2.86152   0.00741   0.00000   0.02314   0.02314   2.88466
    R6        2.12055  -0.01751   0.00000  -0.05396  -0.05396   2.06659
    R7        2.12055  -0.01720   0.00000  -0.05301  -0.05301   2.06754
    R8        2.84731   0.01115   0.00000   0.03401   0.03401   2.88133
    R9        2.12049  -0.01715   0.00000  -0.05285  -0.05285   2.06764
   R10        2.12050  -0.01703   0.00000  -0.05247  -0.05247   2.06804
   R11        2.11020  -0.01629   0.00000  -0.04936  -0.04936   2.06084
   R12        2.11072  -0.01620   0.00000  -0.04912  -0.04912   2.06160
   R13        2.11072  -0.01617   0.00000  -0.04904  -0.04904   2.06168
    A1        1.92623   0.00483   0.00000   0.03006   0.02988   1.95612
    A2        1.93180   0.00131   0.00000   0.00677   0.00669   1.93849
    A3        1.93172   0.00127   0.00000   0.00656   0.00648   1.93820
    A4        1.89205  -0.00295   0.00000  -0.01551  -0.01568   1.87637
    A5        1.89195  -0.00292   0.00000  -0.01530  -0.01547   1.87648
    A6        1.88889  -0.00186   0.00000  -0.01432  -0.01431   1.87458
    A7        1.94790   0.00728   0.00000   0.03600   0.03566   1.98356
    A8        1.91361   0.00070   0.00000   0.00114   0.00104   1.91465
    A9        1.91020   0.00072   0.00000   0.00488   0.00461   1.91481
   A10        1.90927  -0.00342   0.00000  -0.01145  -0.01162   1.89765
   A11        1.89327  -0.00227   0.00000   0.00229   0.00183   1.89510
   A12        1.88854  -0.00336   0.00000  -0.03508  -0.03510   1.85344
   A13        1.94788   0.00775   0.00000   0.03601   0.03580   1.98368
   A14        1.90927  -0.00340   0.00000  -0.01109  -0.01129   1.89798
   A15        1.90922  -0.00315   0.00000  -0.00870  -0.00891   1.90031
   A16        1.91365   0.00026   0.00000   0.00158   0.00146   1.91511
   A17        1.91363   0.00004   0.00000   0.00080   0.00067   1.91430
   A18        1.86847  -0.00194   0.00000  -0.02106  -0.02106   1.84741
   A19        1.92641   0.00483   0.00000   0.03003   0.02985   1.95626
   A20        1.93165   0.00130   0.00000   0.00670   0.00661   1.93826
   A21        1.93165   0.00130   0.00000   0.00669   0.00661   1.93826
   A22        1.89212  -0.00293   0.00000  -0.01538  -0.01555   1.87657
   A23        1.89212  -0.00293   0.00000  -0.01544  -0.01560   1.87652
   A24        1.88870  -0.00186   0.00000  -0.01434  -0.01433   1.87437
    D1        3.14147   0.00042   0.00000   0.00541   0.00549  -3.13623
    D2       -1.02342   0.00139   0.00000   0.01548   0.01552  -1.00790
    D3        1.04554  -0.00185   0.00000  -0.02363  -0.02375   1.02179
    D4       -1.04714   0.00074   0.00000   0.00996   0.01009  -1.03705
    D5        1.07116   0.00170   0.00000   0.02004   0.02012   1.09128
    D6        3.14012  -0.00154   0.00000  -0.01908  -0.01915   3.12097
    D7        1.04706   0.00010   0.00000   0.00074   0.00077   1.04783
    D8       -3.11782   0.00106   0.00000   0.01081   0.01080  -3.10702
    D9       -1.04886  -0.00217   0.00000  -0.02830  -0.02846  -1.07733
   D10        3.14155   0.00013   0.00000   0.00000   0.00000   3.14155
   D11        3.14158  -0.00006   0.00000  -0.00106  -0.00106   3.14051
   D12       -1.04693   0.00026   0.00000   0.00358   0.00362  -1.04330
   D13        1.04689  -0.00038   0.00000  -0.00563  -0.00568   1.04121
   D14        1.02326  -0.00107   0.00000  -0.01189  -0.01194   1.01132
   D15        3.11794  -0.00075   0.00000  -0.00725  -0.00725   3.11069
   D16       -1.07142  -0.00138   0.00000  -0.01647  -0.01656  -1.08798
   D17       -1.02336   0.00111   0.00000   0.01225   0.01230  -1.01106
   D18        1.07132   0.00143   0.00000   0.01689   0.01699   1.08831
   D19       -3.11804   0.00080   0.00000   0.00768   0.00768  -3.11036
         Item               Value     Threshold  Converged?
 Maximum Force            0.017511     0.000450     NO 
 RMS     Force            0.007815     0.000300     NO 
 Maximum Displacement     0.081527     0.001800     NO 
 RMS     Displacement     0.041982     0.001200     NO 
 Predicted change in Energy=-5.748331D-03
 GradGradGradGradGradGradGradGradGradGradGradGradGradGradGradGradGradGrad

                          Input orientation:                          
 ---------------------------------------------------------------------
 Center     Atomic      Atomic             Coordinates (Angstroms)
 Number     Number       Type             X           Y           Z
 ---------------------------------------------------------------------
      1          6           0       -1.431694    0.526378    0.001188
      2          6           0        0.093108    0.505239    0.002612
      3          1           0       -1.827547    1.542580   -0.001599
      4          1           0       -1.830155    0.016506   -0.877203
      5          1           0       -1.831411    0.020744    0.881335
      6          6           0        0.686009   -0.901403   -0.000986
      7          1           0        0.470139    1.047415   -0.869071
      8          1           0        0.468737    1.039658    0.880305
      9          6           0        2.210593   -0.922721    0.000373
     10          1           0        0.308274   -1.444448    0.870553
     11          1           0        0.310628   -1.441679   -0.875520
     12          1           0        2.606460   -1.938884   -0.001168
     13          1           0        2.610461   -0.413165   -0.877486
     14          1           0        2.608860   -0.416494    0.880933
 ---------------------------------------------------------------------
                    Distance matrix (angstroms):
                    1          2          3          4          5
     1  C    0.000000
     2  C    1.524949   0.000000
     3  H    1.090584   2.182890   0.000000
     4  H    1.091013   2.170685   1.759429   0.000000
     5  H    1.090917   2.170406   1.759424   1.758543   0.000000
     6  C    2.554061   1.526495   3.505855   2.818047   2.822455
     7  H    2.155411   1.093590   2.505405   2.520752   3.068405
     8  H    2.155908   1.094095   2.510698   3.069295   2.515724
     9  C    3.919967   2.553981   4.731203   4.240274   4.243114
    10  H    2.769014   2.144970   3.774217   3.124406   2.593291
    11  H    2.770839   2.146840   3.773769   2.590223   3.132659
    12  H    4.731195   3.505808   5.637465   4.926920   4.930888
    13  H    4.241913   2.820480   4.928289   4.461355   4.797079
    14  H    4.241348   2.819583   4.929355   4.794099   4.461747
                    6          7          8          9         10
     6  C    0.000000
     7  H    2.144310   0.000000
     8  H    2.142802   1.749393   0.000000
     9  C    1.524734   2.768853   2.767539   0.000000
    10  H    1.094149   3.043332   2.489302   2.155975   0.000000
    11  H    1.094357   2.494208   3.043838   2.155544   1.746077
    12  H    2.182773   3.772944   3.770751   1.090551   2.507194
    13  H    2.170287   2.591206   3.128499   1.090953   3.069080
    14  H    2.170317   3.127246   2.588534   1.090995   2.519820
                   11         12         13         14
    11  H    0.000000
    12  H    2.506502   0.000000
    13  H    2.519341   1.759479   0.000000
    14  H    3.068877   1.759482   1.758423   0.000000
 Symmetry turned off by external request.
 Stoichiometry    C4H10
 Framework group  C1[X(C4H10)]
 Deg. of freedom    36
 Full point group                 C1      NOp   1
 Rotational constants (GHZ):          23.7668451           3.6192267           3.4029634
 Standard basis: CC-pVTZ (5D, 7F)
   260 basis functions,   378 primitive gaussians,   290 cartesian basis functions
    17 alpha electrons       17 beta electrons
       nuclear repulsion energy       130.7211546134 Hartrees.
 NAtoms=   14 NActive=   14 NUniq=   14 SFac= 1.00D+00 NAtFMM=   60 NAOKFM=F Big=F
 Integral buffers will be    131072 words long.
 Raffenetti 2 integral format.
 Two-electron integral symmetry is turned off.
 Nuclear repulsion after empirical dispersion term =      130.7147364746 Hartrees.
 One-electron integrals computed using PRISM.
 NBasis=   260 RedAO= T EigKep=  5.92D-04  NBF=   260
 NBsUse=   260 1.00D-06 EigRej= -1.00D+00 NBFU=   260
 Initial guess from the checkpoint file:  "/localscratch/339543/Gau-25381.chk"
 B after Tr=    -0.000278   -0.001065    0.000999
         Rot=    1.000000   -0.000275    0.000008   -0.000044 Ang=  -0.03 deg.
 Initial guess <Sx>= 0.0000 <Sy>= 0.0000 <Sz>= 0.0000 <S**2>=-0.0000 S=-0.0000
 ExpMin= 1.03D-01 ExpMax= 8.24D+03 ExpMxC= 2.81D+02 IAcc=3 IRadAn=         5 AccDes= 0.00D+00
 Harris functional with IExCor=  419 and IRadAn=       5 diagonalized for initial guess.
 HarFok:  IExCor=  419 AccDes= 0.00D+00 IRadAn=         5 IDoV= 1 UseB2=F ITyADJ=14
 ICtDFT=  3500011 ScaDFX=  1.000000  1.000000  1.000000  1.000000
 FoFCou: FMM=F IPFlag=           0 FMFlag=      100000 FMFlg1=           0
         NFxFlg=           0 DoJE=T BraDBF=F KetDBF=T FulRan=T
         wScrn=  0.000000 ICntrl=       500 IOpCl=  0 I1Cent=   200000004 NGrid=           0
         NMat0=    1 NMatS0=      1 NMatT0=    0 NMatD0=    1 NMtDS0=    0 NMtDT0=    0
 Symmetry not used in FoFCou.
 Requested convergence on RMS density matrix=1.00D-08 within 500 cycles.
 Requested convergence on MAX density matrix=1.00D-06.
 Requested convergence on             energy=1.00D-06.
 No special actions if energy rises.
 Integral accuracy reduced to 1.0D-05 until final iterations.
 Initial convergence to 1.0D-05 achieved.  Increase integral accuracy.
 SCF Done:  E(UB2PLYPD3) =  -158.120781400     A.U. after    9 cycles
            NFock=  9  Conv=0.56D-08     -V/T= 2.0049
 <Sx>= 0.0000 <Sy>= 0.0000 <Sz>= 0.0000 <S**2>=-0.0000 S=-0.0000
 <L.S>=  0.00000000000    
 Annihilation of the first spin contaminant:
 S**2 before annihilation    -0.0000,   after     0.0000
 DoSCS=T DFT=T ScalE2(SS,OS)=  0.270000  0.270000
 ExpMin= 1.03D-01 ExpMax= 8.24D+03 ExpMxC= 2.81D+02 IAcc=3 IRadAn=         5 AccDes= 0.00D+00
 HarFok:  IExCor=  205 AccDes= 0.00D+00 IRadAn=         5 IDoV=-2 UseB2=F ITyADJ=14
 ICtDFT= 12500011 ScaDFX=  1.000000  1.000000  1.000000  1.000000
 Range of M.O.s used for correlation:     5   260
 NBasis=   260 NAE=    17 NBE=    17 NFC=     4 NFV=     0
 NROrb=    256 NOA=    13 NOB=    13 NVA=   243 NVB=   243

 **** Warning!!: The largest alpha MO coefficient is  0.11619819D+02


 **** Warning!!: The largest beta MO coefficient is  0.11619819D+02

 DoSCS=T DFT=T ScalE2(SS,OS)=  0.270000  0.270000
 Fully direct method using O(ONN) memory.
 JobTyp=2 Pass  1:  I=   5 to  17 NPSUse= 40 ParTrn=T ParDer=T DoDerP=T.
 JobTyp=3 Pass  1:  I=   5 to  17 NPSUse= 40 ParTrn=T ParDer=T DoDerP=T.
 Spin components of T(2) and E(2):
     alpha-alpha T2 =       0.3910793008D-01 E2=     -0.2532866868D-01
     alpha-beta  T2 =       0.2545663706D+00 E2=     -0.1825477184D+00
     beta-beta   T2 =       0.3910793008D-01 E2=     -0.2532866868D-01
 (S**2,0)=  0.00000D+00           (S**2,1)=  0.00000D+00
 E(PUHF)=      -0.15812078140D+03        E(PMP2)=      -0.15835398646D+03
 E2(B2PLYPD3) =    -0.2332050557D+00 E(B2PLYPD3) =    -0.15835398645594D+03
          IDoAtm=11111111111111
          Differentiating once with respect to electric field.
                with respect to dipole field.
          Differentiating once with respect to nuclear coordinates.
 Keep R1 and R2 ints in memory in canonical form, NReq=1196156648.
          There are     1 degrees of freedom in the 1st order CPHF.  IDoFFX=0 NUNeed=     1.
 LinEq1:  Iter=  0 NonCon=     1 RMS=4.39D-04 Max=8.06D-03 NDo=     1
 AX will form     1 AO Fock derivatives at one time.
 LinEq1:  Iter=  1 NonCon=     1 RMS=1.85D-04 Max=3.11D-03 NDo=     1
 LinEq1:  Iter=  2 NonCon=     1 RMS=3.63D-05 Max=6.02D-04 NDo=     1
 LinEq1:  Iter=  3 NonCon=     1 RMS=1.07D-05 Max=2.10D-04 NDo=     1
 LinEq1:  Iter=  4 NonCon=     1 RMS=3.00D-06 Max=3.93D-05 NDo=     1
 LinEq1:  Iter=  5 NonCon=     1 RMS=6.12D-07 Max=9.36D-06 NDo=     1
 LinEq1:  Iter=  6 NonCon=     1 RMS=8.06D-08 Max=1.05D-06 NDo=     1
 LinEq1:  Iter=  7 NonCon=     1 RMS=1.89D-08 Max=3.28D-07 NDo=     1
 LinEq1:  Iter=  8 NonCon=     1 RMS=2.87D-09 Max=4.62D-08 NDo=     1
 LinEq1:  Iter=  9 NonCon=     1 RMS=1.19D-09 Max=1.67D-08 NDo=     1
 LinEq1:  Iter= 10 NonCon=     1 RMS=2.89D-10 Max=4.84D-09 NDo=     1
 LinEq1:  Iter= 11 NonCon=     0 RMS=4.60D-11 Max=6.47D-10 NDo=     1
 Linear equations converged to 1.000D-10 1.000D-09 after    11 iterations.
 End of Minotr F.D. properties file   721 does not exist.
 End of Minotr F.D. properties file   722 does not exist.
 End of Minotr F.D. properties file   788 does not exist.
 Calling FoFJK, ICntrl=  10002127 FMM=F ISym2X=0 I1Cent= 0 IOpClX= 1 NMat=1 NMatS=1 NMatT=0.
 -------------------------------------------------------------------
 Center     Atomic                   Forces (Hartrees/Bohr)
 Number     Number              X              Y              Z
 -------------------------------------------------------------------
      1        6          -0.000945671   -0.001156675    0.000003162
      2        6           0.003139103    0.001848027    0.000237000
      3        1           0.001367989   -0.000477555    0.000029474
      4        1           0.000399014    0.000001727    0.000156509
      5        1           0.000339445   -0.000054820   -0.000147325
      6        6          -0.003517282   -0.002890260   -0.000105588
      7        1          -0.000455669    0.000265776    0.000486919
      8        1          -0.000643000    0.000296840   -0.000783831
      9        6           0.001009713    0.001230688    0.000067414
     10        1           0.000725101    0.000114767   -0.000437786
     11        1           0.000654532    0.000322280    0.000517081
     12        1          -0.001362779    0.000468289   -0.000003054
     13        1          -0.000357853    0.000020629    0.000134996
     14        1          -0.000352644    0.000010286   -0.000154970
 -------------------------------------------------------------------
 Cartesian Forces:  Max     0.003517282 RMS     0.001055478

 GradGradGradGradGradGradGradGradGradGradGradGradGradGradGradGradGradGrad
 Berny optimization.
 Using GEDIIS/GDIIS optimizer.
 FormGI is forming the generalized inverse of G from B-inverse, IUseBI=4.
 Internal  Forces:  Max     0.003121160 RMS     0.000860891
 Search for a local minimum.
 Step number   2 out of a maximum of  100 on scan point     1 out of    37
 All quantities printed in internal units (Hartrees-Bohrs-Radians)
 Mixed Optimization -- En-DIIS/RFO-DIIS
 Update second derivatives using D2CorX and points    1    2
 DE= -5.48D-03 DEPred=-5.75D-03 R= 9.53D-01
 TightC=F SS=  1.41D+00  RLast= 2.01D-01 DXNew= 5.0454D-01 6.0179D-01
 Trust test= 9.53D-01 RLast= 2.01D-01 DXMaxT set to 5.05D-01
 ITU=  1  0
 Use linear search instead of GDIIS.
     Eigenvalues ---    0.00677   0.00677   0.05425   0.05440   0.05599
     Eigenvalues ---    0.05600   0.05720   0.05730   0.06240   0.06293
     Eigenvalues ---    0.15989   0.16000   0.16000   0.16000   0.16000
     Eigenvalues ---    0.16000   0.16000   0.16000   0.16000   0.16475
     Eigenvalues ---    0.22270   0.22877   0.30421   0.31002   0.31348
     Eigenvalues ---    0.31350   0.31353   0.31634   0.31682   0.31864
     Eigenvalues ---    0.31876   0.31876   0.31877   0.31903   0.32915
     Eigenvalues --- 1000.000001000.000001000.000001000.000001000.00000
     Eigenvalues --- 1000.000001000.000001000.000001000.000001000.00000
     Eigenvalues --- 1000.000001000.000001000.000001000.000001000.00000
     Eigenvalues --- 1000.000001000.000001000.000001000.000001000.00000
     Eigenvalues --- 1000.00000
 RFO step:  Lambda=-1.81598089D-04 EMin= 6.76870201D-03
 Quartic linear search produced a step of -0.02127.
 Iteration  1 RMS(Cart)=  0.00865239 RMS(Int)=  0.00001679
 Iteration  2 RMS(Cart)=  0.00003314 RMS(Int)=  0.00000462
 Iteration  3 RMS(Cart)=  0.00000000 RMS(Int)=  0.00000462
 Iteration  1 RMS(Cart)=  0.00000000 RMS(Int)=  0.00000000
 Variable       Old X    -DE/DX   Delta X   Delta X   Delta X     New X
                                 (Linear)    (Quad)   (Total)
    R1        2.88174  -0.00118  -0.00073  -0.00227  -0.00300   2.87873
    R2        2.06091  -0.00094   0.00105  -0.00487  -0.00382   2.05708
    R3        2.06172  -0.00027   0.00104  -0.00280  -0.00176   2.05996
    R4        2.06153  -0.00022   0.00105  -0.00264  -0.00160   2.05994
    R5        2.88466  -0.00058  -0.00049  -0.00090  -0.00139   2.88327
    R6        2.06659  -0.00041   0.00115  -0.00346  -0.00231   2.06427
    R7        2.06754  -0.00070   0.00113  -0.00433  -0.00320   2.06434
    R8        2.88133  -0.00109  -0.00072  -0.00199  -0.00271   2.87862
    R9        2.06764  -0.00066   0.00112  -0.00417  -0.00305   2.06459
   R10        2.06804  -0.00080   0.00112  -0.00460  -0.00348   2.06456
   R11        2.06084  -0.00093   0.00105  -0.00484  -0.00379   2.05705
   R12        2.06160  -0.00023   0.00104  -0.00268  -0.00163   2.05997
   R13        2.06168  -0.00025   0.00104  -0.00273  -0.00169   2.05999
    A1        1.95612  -0.00145  -0.00064  -0.00818  -0.00882   1.94730
    A2        1.93849  -0.00013  -0.00014  -0.00026  -0.00040   1.93808
    A3        1.93820  -0.00005  -0.00014   0.00023   0.00009   1.93829
    A4        1.87637   0.00078   0.00033   0.00352   0.00385   1.88022
    A5        1.87648   0.00075   0.00033   0.00347   0.00380   1.88028
    A6        1.87458   0.00022   0.00030   0.00180   0.00211   1.87669
    A7        1.98356  -0.00312  -0.00076  -0.01186  -0.01262   1.97094
    A8        1.91465   0.00015  -0.00002  -0.00051  -0.00053   1.91411
    A9        1.91481   0.00004  -0.00010  -0.00048  -0.00057   1.91424
   A10        1.89765   0.00151   0.00025   0.00662   0.00686   1.90451
   A11        1.89510   0.00166  -0.00004   0.00912   0.00908   1.90418
   A12        1.85344  -0.00002   0.00075  -0.00216  -0.00141   1.85203
   A13        1.98368  -0.00297  -0.00076  -0.01204  -0.01282   1.97086
   A14        1.89798   0.00151   0.00024   0.00642   0.00665   1.90463
   A15        1.90031   0.00132   0.00019   0.00455   0.00472   1.90503
   A16        1.91511  -0.00007  -0.00003  -0.00075  -0.00079   1.91432
   A17        1.91430   0.00009  -0.00001  -0.00030  -0.00033   1.91398
   A18        1.84741   0.00036   0.00045   0.00329   0.00373   1.85114
   A19        1.95626  -0.00146  -0.00063  -0.00828  -0.00892   1.94734
   A20        1.93826  -0.00008  -0.00014   0.00004  -0.00011   1.93815
   A21        1.93826  -0.00006  -0.00014   0.00021   0.00006   1.93832
   A22        1.87657   0.00076   0.00033   0.00337   0.00370   1.88027
   A23        1.87652   0.00075   0.00033   0.00339   0.00372   1.88024
   A24        1.87437   0.00021   0.00030   0.00186   0.00217   1.87654
    D1       -3.13623   0.00003  -0.00012  -0.00108  -0.00120  -3.13743
    D2       -1.00790  -0.00008  -0.00033  -0.00112  -0.00145  -1.00934
    D3        1.02179   0.00001   0.00050  -0.00430  -0.00379   1.01800
    D4       -1.03705  -0.00005  -0.00021  -0.00234  -0.00256  -1.03961
    D5        1.09128  -0.00016  -0.00043  -0.00238  -0.00281   1.08847
    D6        3.12097  -0.00007   0.00041  -0.00556  -0.00515   3.11582
    D7        1.04783   0.00010  -0.00002  -0.00009  -0.00011   1.04772
    D8       -3.10702  -0.00000  -0.00023  -0.00013  -0.00036  -3.10738
    D9       -1.07733   0.00009   0.00061  -0.00331  -0.00270  -1.08003
   D10        3.14155   0.00003   0.00000   0.00000   0.00000   3.14155
   D11        3.14051   0.00004   0.00002   0.00079   0.00081   3.14133
   D12       -1.04330  -0.00005  -0.00008  -0.00053  -0.00061  -1.04391
   D13        1.04121   0.00013   0.00012   0.00197   0.00209   1.04330
   D14        1.01132   0.00021   0.00025   0.00142   0.00167   1.01299
   D15        3.11069   0.00012   0.00015   0.00010   0.00025   3.11094
   D16       -1.08798   0.00029   0.00035   0.00260   0.00295  -1.08503
   D17       -1.01106  -0.00024  -0.00026  -0.00194  -0.00219  -1.01325
   D18        1.08831  -0.00033  -0.00036  -0.00326  -0.00362   1.08469
   D19       -3.11036  -0.00016  -0.00016  -0.00076  -0.00092  -3.11128
         Item               Value     Threshold  Converged?
 Maximum Force            0.003121     0.000450     NO 
 RMS     Force            0.000869     0.000300     NO 
 Maximum Displacement     0.023811     0.001800     NO 
 RMS     Displacement     0.008676     0.001200     NO 
 Predicted change in Energy=-9.362485D-05
 GradGradGradGradGradGradGradGradGradGradGradGradGradGradGradGradGradGrad

                          Input orientation:                          
 ---------------------------------------------------------------------
 Center     Atomic      Atomic             Coordinates (Angstroms)
 Number     Number       Type             X           Y           Z
 ---------------------------------------------------------------------
      1          6           0       -1.424332    0.521284    0.001369
      2          6           0        0.098959    0.506841    0.002674
      3          1           0       -1.814946    1.537347   -0.000465
      4          1           0       -1.819857    0.012014   -0.877540
      5          1           0       -1.821548    0.014476    0.880928
      6          6           0        0.679972   -0.903958   -0.000597
      7          1           0        0.472571    1.049692   -0.868527
      8          1           0        0.471171    1.044714    0.877597
      9          6           0        2.203203   -0.918279    0.000643
     10          1           0        0.306170   -1.447085    0.870563
     11          1           0        0.307988   -1.442728   -0.875209
     12          1           0        2.593935   -1.934279   -0.001469
     13          1           0        2.600235   -0.408067   -0.877049
     14          1           0        2.598941   -0.412246    0.881348
 ---------------------------------------------------------------------
                    Distance matrix (angstroms):
                    1          2          3          4          5
     1  C    0.000000
     2  C    1.523360   0.000000
     3  H    1.088562   2.173704   0.000000
     4  H    1.090082   2.168291   1.759525   0.000000
     5  H    1.090072   2.168432   1.759555   1.758471   0.000000
     6  C    2.541538   1.525759   3.490643   2.803066   2.806815
     7  H    2.152714   1.092366   2.494810   2.516364   3.065167
     8  H    2.152832   1.092401   2.498002   3.065255   2.513555
     9  C    3.902737   2.541419   4.709100   4.221571   4.224163
    10  H    2.761270   2.148021   3.763597   3.115257   2.581366
    11  H    2.761642   2.148299   3.762031   2.577596   3.121279
    12  H    4.709169   3.490557   5.611633   4.902766   4.906400
    13  H    4.222849   2.804880   4.903760   4.440009   4.777153
    14  H    4.222862   2.804763   4.905192   4.774878   4.441037
                    6          7          8          9         10
     6  C    0.000000
     7  H    2.147805   0.000000
     8  H    2.147590   1.746132   0.000000
     9  C    1.523298   2.761060   2.760855   0.000000
    10  H    1.092536   3.047297   2.497266   2.152936   0.000000
    11  H    1.092516   2.497857   3.047347   2.152673   1.745778
    12  H    2.173664   3.762454   3.762085   1.088546   2.496331
    13  H    2.168290   2.579164   3.118055   1.090088   3.065361
    14  H    2.168420   3.117815   2.578789   1.090100   2.515513
                   11         12         13         14
    11  H    0.000000
    12  H    2.496117   0.000000
    13  H    2.514939   1.759546   0.000000
    14  H    3.065265   1.759538   1.758402   0.000000
 Symmetry turned off by external request.
 Stoichiometry    C4H10
 Framework group  C1[X(C4H10)]
 Deg. of freedom    36
 Full point group                 C1      NOp   1
 Rotational constants (GHZ):          23.6052796           3.6528814           3.4290103
 Standard basis: CC-pVTZ (5D, 7F)
   260 basis functions,   378 primitive gaussians,   290 cartesian basis functions
    17 alpha electrons       17 beta electrons
       nuclear repulsion energy       130.9832610050 Hartrees.
 NAtoms=   14 NActive=   14 NUniq=   14 SFac= 1.00D+00 NAtFMM=   60 NAOKFM=F Big=F
 Integral buffers will be    131072 words long.
 Raffenetti 2 integral format.
 Two-electron integral symmetry is turned off.
 Nuclear repulsion after empirical dispersion term =      130.9768261043 Hartrees.
 One-electron integrals computed using PRISM.
 NBasis=   260 RedAO= T EigKep=  5.83D-04  NBF=   260
 NBsUse=   260 1.00D-06 EigRej= -1.00D+00 NBFU=   260
 Initial guess from the checkpoint file:  "/localscratch/339543/Gau-25381.chk"
 B after Tr=    -0.000002   -0.000333    0.000234
         Rot=    1.000000    0.000026   -0.000002    0.000077 Ang=   0.01 deg.
 Initial guess <Sx>= 0.0000 <Sy>= 0.0000 <Sz>= 0.0000 <S**2>= 0.0000 S= 0.0000
 ExpMin= 1.03D-01 ExpMax= 8.24D+03 ExpMxC= 2.81D+02 IAcc=3 IRadAn=         5 AccDes= 0.00D+00
 Harris functional with IExCor=  419 and IRadAn=       5 diagonalized for initial guess.
 HarFok:  IExCor=  419 AccDes= 0.00D+00 IRadAn=         5 IDoV= 1 UseB2=F ITyADJ=14
 ICtDFT=  3500011 ScaDFX=  1.000000  1.000000  1.000000  1.000000
 FoFCou: FMM=F IPFlag=           0 FMFlag=      100000 FMFlg1=           0
         NFxFlg=           0 DoJE=T BraDBF=F KetDBF=T FulRan=T
         wScrn=  0.000000 ICntrl=       500 IOpCl=  0 I1Cent=   200000004 NGrid=           0
         NMat0=    1 NMatS0=      1 NMatT0=    0 NMatD0=    1 NMtDS0=    0 NMtDT0=    0
 Symmetry not used in FoFCou.
 Requested convergence on RMS density matrix=1.00D-08 within 500 cycles.
 Requested convergence on MAX density matrix=1.00D-06.
 Requested convergence on             energy=1.00D-06.
 No special actions if energy rises.
 Integral accuracy reduced to 1.0D-05 until final iterations.
 Initial convergence to 1.0D-05 achieved.  Increase integral accuracy.
 SCF Done:  E(UB2PLYPD3) =  -158.120919184     A.U. after    8 cycles
            NFock=  8  Conv=0.25D-08     -V/T= 2.0047
 <Sx>= 0.0000 <Sy>= 0.0000 <Sz>= 0.0000 <S**2>=-0.0000 S=-0.0000
 <L.S>=  0.00000000000    
 Annihilation of the first spin contaminant:
 S**2 before annihilation    -0.0000,   after     0.0000
 DoSCS=T DFT=T ScalE2(SS,OS)=  0.270000  0.270000
 ExpMin= 1.03D-01 ExpMax= 8.24D+03 ExpMxC= 2.81D+02 IAcc=3 IRadAn=         5 AccDes= 0.00D+00
 HarFok:  IExCor=  205 AccDes= 0.00D+00 IRadAn=         5 IDoV=-2 UseB2=F ITyADJ=14
 ICtDFT= 12500011 ScaDFX=  1.000000  1.000000  1.000000  1.000000
 Range of M.O.s used for correlation:     5   260
 NBasis=   260 NAE=    17 NBE=    17 NFC=     4 NFV=     0
 NROrb=    256 NOA=    13 NOB=    13 NVA=   243 NVB=   243

 **** Warning!!: The largest alpha MO coefficient is  0.11779156D+02


 **** Warning!!: The largest beta MO coefficient is  0.11779156D+02

 DoSCS=T DFT=T ScalE2(SS,OS)=  0.270000  0.270000
 Fully direct method using O(ONN) memory.
 JobTyp=2 Pass  1:  I=   5 to  17 NPSUse= 40 ParTrn=T ParDer=T DoDerP=T.
 JobTyp=3 Pass  1:  I=   5 to  17 NPSUse= 40 ParTrn=T ParDer=T DoDerP=T.
 Spin components of T(2) and E(2):
     alpha-alpha T2 =       0.3905433075D-01 E2=     -0.2533145021D-01
     alpha-beta  T2 =       0.2540524041D+00 E2=     -0.1824868840D+00
     beta-beta   T2 =       0.3905433075D-01 E2=     -0.2533145021D-01
 (S**2,0)=  0.00000D+00           (S**2,1)=  0.00000D+00
 E(PUHF)=      -0.15812091918D+03        E(PMP2)=      -0.15835406897D+03
 E2(B2PLYPD3) =    -0.2331497844D+00 E(B2PLYPD3) =    -0.15835406896880D+03
          IDoAtm=11111111111111
          Differentiating once with respect to electric field.
                with respect to dipole field.
          Differentiating once with respect to nuclear coordinates.
 Keep R1 and R2 ints in memory in canonical form, NReq=1196156648.
          There are     1 degrees of freedom in the 1st order CPHF.  IDoFFX=0 NUNeed=     1.
 LinEq1:  Iter=  0 NonCon=     1 RMS=4.38D-04 Max=8.01D-03 NDo=     1
 AX will form     1 AO Fock derivatives at one time.
 LinEq1:  Iter=  1 NonCon=     1 RMS=1.84D-04 Max=3.30D-03 NDo=     1
 LinEq1:  Iter=  2 NonCon=     1 RMS=3.61D-05 Max=6.05D-04 NDo=     1
 LinEq1:  Iter=  3 NonCon=     1 RMS=1.07D-05 Max=2.12D-04 NDo=     1
 LinEq1:  Iter=  4 NonCon=     1 RMS=2.99D-06 Max=4.41D-05 NDo=     1
 LinEq1:  Iter=  5 NonCon=     1 RMS=6.10D-07 Max=9.39D-06 NDo=     1
 LinEq1:  Iter=  6 NonCon=     1 RMS=8.03D-08 Max=1.09D-06 NDo=     1
 LinEq1:  Iter=  7 NonCon=     1 RMS=1.88D-08 Max=3.07D-07 NDo=     1
 LinEq1:  Iter=  8 NonCon=     1 RMS=2.51D-09 Max=4.63D-08 NDo=     1
 LinEq1:  Iter=  9 NonCon=     1 RMS=4.42D-10 Max=7.79D-09 NDo=     1
 LinEq1:  Iter= 10 NonCon=     1 RMS=2.00D-10 Max=2.86D-09 NDo=     1
 LinEq1:  Iter= 11 NonCon=     0 RMS=4.45D-11 Max=6.28D-10 NDo=     1
 Linear equations converged to 1.000D-10 1.000D-09 after    11 iterations.
 End of Minotr F.D. properties file   721 does not exist.
 End of Minotr F.D. properties file   722 does not exist.
 End of Minotr F.D. properties file   788 does not exist.
 Calling FoFJK, ICntrl=  10002127 FMM=F ISym2X=0 I1Cent= 0 IOpClX= 1 NMat=1 NMatS=1 NMatT=0.
 -------------------------------------------------------------------
 Center     Atomic                   Forces (Hartrees/Bohr)
 Number     Number              X              Y              Z
 -------------------------------------------------------------------
      1        6          -0.000602405    0.000082816    0.000001956
      2        6           0.000339210   -0.000426300    0.000001553
      3        1          -0.000221979    0.000442035    0.000018236
      4        1           0.000048231   -0.000125949   -0.000218918
      5        1           0.000051965   -0.000149944    0.000205358
      6        6          -0.000433510    0.000227156    0.000021322
      7        1           0.000076478    0.000024568   -0.000272714
      8        1           0.000052547    0.000051458    0.000239400
      9        6           0.000643930   -0.000059452    0.000017516
     10        1          -0.000012919    0.000049672    0.000232652
     11        1          -0.000050001    0.000076249   -0.000240822
     12        1           0.000225582   -0.000450693   -0.000002673
     13        1          -0.000054098    0.000131237   -0.000213056
     14        1          -0.000063031    0.000127146    0.000210192
 -------------------------------------------------------------------
 Cartesian Forces:  Max     0.000643930 RMS     0.000236744

 GradGradGradGradGradGradGradGradGradGradGradGradGradGradGradGradGradGrad
 Berny optimization.
 Using GEDIIS/GDIIS optimizer.
 FormGI is forming the generalized inverse of G from B-inverse, IUseBI=4.
 Internal  Forces:  Max     0.000755597 RMS     0.000210203
 Search for a local minimum.
 Step number   3 out of a maximum of  100 on scan point     1 out of    37
 All quantities printed in internal units (Hartrees-Bohrs-Radians)
 Mixed Optimization -- En-DIIS/RFO-DIIS
 Swapping is turned off.
 Update second derivatives using D2CorX and points    1    2    3
 DE= -8.25D-05 DEPred=-9.36D-05 R= 8.81D-01
 TightC=F SS=  1.41D+00  RLast= 3.10D-02 DXNew= 8.4853D-01 9.2851D-02
 Trust test= 8.81D-01 RLast= 3.10D-02 DXMaxT set to 5.05D-01
 ITU=  1  1  0
     Eigenvalues ---    0.00676   0.00677   0.05507   0.05515   0.05656
     Eigenvalues ---    0.05657   0.05725   0.05766   0.06213   0.06328
     Eigenvalues ---    0.15536   0.15999   0.16000   0.16000   0.16000
     Eigenvalues ---    0.16000   0.16000   0.16000   0.16006   0.16474
     Eigenvalues ---    0.22261   0.23355   0.30836   0.31188   0.31348
     Eigenvalues ---    0.31350   0.31383   0.31681   0.31851   0.31876
     Eigenvalues ---    0.31876   0.31877   0.31903   0.32124   0.36398
     Eigenvalues --- 1000.000001000.000001000.000001000.000001000.00000
     Eigenvalues --- 1000.000001000.000001000.000001000.000001000.00000
     Eigenvalues --- 1000.000001000.000001000.000001000.000001000.00000
     Eigenvalues --- 1000.000001000.000001000.000001000.000001000.00000
     Eigenvalues --- 1000.00000
 En-DIIS/RFO-DIIS/Sim-DIIS IScMMF=       -3 using points:     3    2
 RFO step:  Lambda=-8.10023282D-06.
 DidBck=F Rises=F RFO-DIIS coefs:    0.96662    0.03338
 Iteration  1 RMS(Cart)=  0.00112500 RMS(Int)=  0.00000082
 Iteration  2 RMS(Cart)=  0.00000077 RMS(Int)=  0.00000043
 Iteration  1 RMS(Cart)=  0.00000000 RMS(Int)=  0.00000000
 Variable       Old X    -DE/DX   Delta X   Delta X   Delta X     New X
                                 (Linear)    (Quad)   (Total)
    R1        2.87873   0.00073   0.00010   0.00182   0.00192   2.88065
    R2        2.05708   0.00049   0.00013   0.00120   0.00133   2.05842
    R3        2.05996   0.00022   0.00006   0.00056   0.00062   2.06058
    R4        2.05994   0.00022   0.00005   0.00057   0.00062   2.06056
    R5        2.88327   0.00000   0.00005  -0.00010  -0.00006   2.88321
    R6        2.06427   0.00026   0.00008   0.00066   0.00073   2.06501
    R7        2.06434   0.00023   0.00011   0.00054   0.00065   2.06499
    R8        2.87862   0.00076   0.00009   0.00191   0.00200   2.88062
    R9        2.06459   0.00017   0.00010   0.00036   0.00046   2.06505
   R10        2.06456   0.00017   0.00012   0.00035   0.00047   2.06502
   R11        2.05705   0.00050   0.00013   0.00123   0.00136   2.05841
[...]
  Beta virt. eigenvalues --    4.84121   4.87865   4.97435   4.99601   4.99669
  Beta virt. eigenvalues --    5.00871   5.02250   5.02486   5.07722   5.08285
  Beta virt. eigenvalues --    5.13170   5.13207   5.15051   5.22609   5.23644
  Beta virt. eigenvalues --    5.26301   5.36399   5.39905   5.43282   5.49096
  Beta virt. eigenvalues --    5.49245   5.51481   5.53853   5.54617   5.56213
  Beta virt. eigenvalues --    5.61155   5.65192   5.65278   5.66084   5.67840
  Beta virt. eigenvalues --    5.71049   5.75660   5.80779   6.03980   6.07240
  Beta virt. eigenvalues --    6.08757   6.08894   6.11158   6.18897  12.68247
  Beta virt. eigenvalues --   13.08157  13.65211  13.78013
          Condensed to atoms (all electrons):
               1          2          3          4          5          6
     1  C    4.849477   0.348628   0.413629   0.409420   0.409417  -0.050866
     2  C    0.348628   4.860780  -0.035184  -0.037487  -0.037490   0.354399
     3  H    0.413629  -0.035184   0.585885  -0.031248  -0.031251   0.007506
     4  H    0.409420  -0.037487  -0.031248   0.601094  -0.033868  -0.004534
     5  H    0.409417  -0.037490  -0.031251  -0.033868   0.601109  -0.004538
     6  C   -0.050866   0.354399   0.007506  -0.004534  -0.004538   4.860790
     7  H   -0.035850   0.413454  -0.004963  -0.005553   0.007721  -0.038265
     8  H   -0.035848   0.413459  -0.004971   0.007721  -0.005547  -0.038268
     9  C    0.005974  -0.050866  -0.000390   0.000019   0.000020   0.348626
    10  H   -0.003701  -0.038267  -0.000115  -0.000294   0.003439   0.413458
    11  H   -0.003694  -0.038265  -0.000115   0.003437  -0.000294   0.413454
    12  H   -0.000390   0.007506   0.000021  -0.000001  -0.000001  -0.035184
    13  H    0.000019  -0.004534  -0.000001   0.000013  -0.000010  -0.037486
    14  H    0.000020  -0.004537  -0.000001  -0.000010   0.000013  -0.037490
               7          8          9         10         11         12
     1  C   -0.035850  -0.035848   0.005974  -0.003701  -0.003694  -0.000390
     2  C    0.413454   0.413459  -0.050866  -0.038267  -0.038265   0.007506
     3  H   -0.004963  -0.004971  -0.000390  -0.000115  -0.000115   0.000021
     4  H   -0.005553   0.007721   0.000019  -0.000294   0.003437  -0.000001
     5  H    0.007721  -0.005547   0.000020   0.003439  -0.000294  -0.000001
     6  C   -0.038265  -0.038268   0.348626   0.413458   0.413454  -0.035184
     7  H    0.614139  -0.038880  -0.003695   0.008238  -0.006402  -0.000115
     8  H   -0.038880   0.614141  -0.003701  -0.006406   0.008238  -0.000115
     9  C   -0.003695  -0.003701   4.849477  -0.035848  -0.035850   0.413629
    10  H    0.008238  -0.006406  -0.035848   0.614140  -0.038880  -0.004970
    11  H   -0.006402   0.008238  -0.035850  -0.038880   0.614136  -0.004964
    12  H   -0.000115  -0.000115   0.413629  -0.004970  -0.004964   0.585883
    13  H    0.003437  -0.000294   0.409420   0.007721  -0.005552  -0.031247
    14  H   -0.000294   0.003439   0.409417  -0.005547   0.007721  -0.031250
              13         14
     1  C    0.000019   0.000020
     2  C   -0.004534  -0.004537
     3  H   -0.000001  -0.000001
     4  H    0.000013  -0.000010
     5  H   -0.000010   0.000013
     6  C   -0.037486  -0.037490
     7  H    0.003437  -0.000294
     8  H   -0.000294   0.003439
     9  C    0.409420   0.409417
    10  H    0.007721  -0.005547
    11  H   -0.005552   0.007721
    12  H   -0.031247  -0.031250
    13  H    0.601089  -0.033867
    14  H   -0.033867   0.601105
          Atomic-Atomic Spin Densities.
               1          2          3          4          5          6
     1  C   -0.000000   0.000000  -0.000000   0.000000   0.000000   0.000000
     2  C    0.000000   0.000000   0.000000  -0.000000   0.000000  -0.000000
     3  H   -0.000000   0.000000   0.000000   0.000000  -0.000000  -0.000000
     4  H    0.000000  -0.000000   0.000000   0.000000  -0.000000   0.000000
     5  H    0.000000   0.000000  -0.000000  -0.000000   0.000000  -0.000000
     6  C    0.000000  -0.000000  -0.000000   0.000000  -0.000000  -0.000000
     7  H    0.000000   0.000000  -0.000000   0.000000  -0.000000  -0.000000
     8  H    0.000000  -0.000000  -0.000000   0.000000  -0.000000   0.000000
     9  C    0.000000   0.000000   0.000000   0.000000  -0.000000   0.000000
    10  H   -0.000000   0.000000   0.000000   0.000000  -0.000000   0.000000
    11  H    0.000000   0.000000  -0.000000  -0.000000   0.000000  -0.000000
    12  H    0.000000  -0.000000   0.000000   0.000000  -0.000000  -0.000000
    13  H   -0.000000   0.000000   0.000000  -0.000000   0.000000   0.000000
    14  H   -0.000000   0.000000  -0.000000   0.000000   0.000000  -0.000000
               7          8          9         10         11         12
     1  C    0.000000   0.000000   0.000000  -0.000000   0.000000   0.000000
     2  C    0.000000  -0.000000   0.000000   0.000000   0.000000  -0.000000
     3  H   -0.000000  -0.000000   0.000000   0.000000  -0.000000   0.000000
     4  H    0.000000   0.000000   0.000000   0.000000  -0.000000   0.000000
     5  H   -0.000000  -0.000000  -0.000000  -0.000000   0.000000  -0.000000
     6  C   -0.000000   0.000000   0.000000   0.000000  -0.000000  -0.000000
     7  H    0.000000  -0.000000  -0.000000  -0.000000  -0.000000   0.000000
     8  H   -0.000000  -0.000000  -0.000000  -0.000000   0.000000  -0.000000
     9  C   -0.000000  -0.000000  -0.000000  -0.000000   0.000000   0.000000
    10  H   -0.000000  -0.000000  -0.000000   0.000000  -0.000000  -0.000000
    11  H   -0.000000   0.000000   0.000000  -0.000000  -0.000000   0.000000
    12  H    0.000000  -0.000000   0.000000  -0.000000   0.000000   0.000000
    13  H    0.000000  -0.000000  -0.000000   0.000000  -0.000000  -0.000000
    14  H    0.000000  -0.000000   0.000000   0.000000   0.000000  -0.000000
              13         14
     1  C   -0.000000  -0.000000
     2  C    0.000000   0.000000
     3  H    0.000000  -0.000000
     4  H   -0.000000   0.000000
     5  H    0.000000   0.000000
     6  C    0.000000  -0.000000
     7  H    0.000000   0.000000
     8  H   -0.000000  -0.000000
     9  C   -0.000000   0.000000
    10  H    0.000000   0.000000
    11  H   -0.000000   0.000000
    12  H   -0.000000  -0.000000
    13  H   -0.000000   0.000000
    14  H    0.000000  -0.000000
 Mulliken charges and spin densities:
               1          2
     1  C   -0.306233  -0.000000
     2  C   -0.151596   0.000000
     3  H    0.101199   0.000000
     4  H    0.091291   0.000000
     5  H    0.091281   0.000000
     6  C   -0.151602  -0.000000
     7  H    0.087029   0.000000
     8  H    0.087031  -0.000000
     9  C   -0.306232   0.000000
    10  H    0.087031   0.000000
    11  H    0.087030  -0.000000
    12  H    0.101199   0.000000
    13  H    0.091291  -0.000000
    14  H    0.091282   0.000000
 Sum of Mulliken charges =  -0.00000  -0.00000
 Mulliken charges and spin densities with hydrogens summed into heavy atoms:
               1          2
     1  C   -0.022463  -0.000000
     2  C    0.022464   0.000000
     6  C    0.022459  -0.000000
     9  C   -0.022460   0.000000
 Electronic spatial extent (au):  <R**2>=            446.8230
 Charge=             -0.0000 electrons
 Dipole moment (field-independent basis, Debye):
    X=              0.0000    Y=              0.0000    Z=             -0.0000  Tot=              0.0000
 Quadrupole moment (field-independent basis, Debye-Ang):
   XX=            -28.6998   YY=            -29.6509   ZZ=            -28.1141
   XY=              0.1699   XZ=             -0.0001   YZ=             -0.0028
 Traceless Quadrupole moment (field-independent basis, Debye-Ang):
   XX=              0.1218   YY=             -0.8293   ZZ=              0.7075
   XY=              0.1699   XZ=             -0.0001   YZ=             -0.0028
 Octapole moment (field-independent basis, Debye-Ang**2):
  XXX=            -33.5321  YYY=             17.6657  ZZZ=             -0.0857  XYY=            -11.6155
  XXY=              5.8319  XXZ=             -0.0304  XZZ=            -10.9493  YZZ=              5.5831
  YYZ=             -0.0293  XYZ=             -0.0008
 Hexadecapole moment (field-independent basis, Debye-Ang**3):
 XXXX=           -210.5218 YYYY=           -371.3716 ZZZZ=            -58.7784 XXXY=             83.3203
 XXXZ=              0.0704 YYYX=             91.1334 YYYZ=             -0.2364 ZZZX=              0.0858
 ZZZY=             -0.1918 XXYY=            -96.1479 XXZZ=            -46.0610 YYZZ=            -67.7714
 XXYZ=             -0.0734 YYXZ=              0.0230 ZZXY=             30.9912
 N-N= 1.309152740187D+02 E-N=-6.276197644737D+02  KE= 1.573675505604D+02
                          Isotropic Fermi Contact Couplings
        Atom                 a.u.       MegaHertz       Gauss      10(-4) cm-1
     1  C(13)              0.00000       0.00000       0.00000       0.00000
     2  C(13)             -0.00000      -0.00000      -0.00000      -0.00000
     3  H(1)              -0.00000      -0.00000      -0.00000      -0.00000
     4  H(1)              -0.00000      -0.00000      -0.00000      -0.00000
     5  H(1)              -0.00000      -0.00000      -0.00000      -0.00000
     6  C(13)             -0.00000      -0.00000      -0.00000      -0.00000
     7  H(1)               0.00000       0.00000       0.00000       0.00000
     8  H(1)               0.00000       0.00000       0.00000       0.00000
     9  C(13)              0.00000       0.00000       0.00000       0.00000
    10  H(1)              -0.00000      -0.00000      -0.00000      -0.00000
    11  H(1)              -0.00000      -0.00000      -0.00000      -0.00000
    12  H(1)              -0.00000      -0.00000      -0.00000      -0.00000
    13  H(1)               0.00000       0.00000       0.00000       0.00000
    14  H(1)               0.00000       0.00000       0.00000       0.00000
 --------------------------------------------------------
       Center         ----  Spin Dipole Couplings  ----
                      3XX-RR        3YY-RR        3ZZ-RR
 --------------------------------------------------------
     1   Atom        0.000000      0.000000      0.000000
     2   Atom        0.000000      0.000000      0.000000
     3   Atom        0.000000      0.000000      0.000000
     4   Atom        0.000000      0.000000      0.000000
     5   Atom        0.000000      0.000000      0.000000
     6   Atom        0.000000      0.000000      0.000000
     7   Atom        0.000000      0.000000      0.000000
     8   Atom        0.000000      0.000000      0.000000
     9   Atom        0.000000      0.000000      0.000000
    10   Atom        0.000000      0.000000      0.000000
    11   Atom        0.000000      0.000000      0.000000
    12   Atom        0.000000      0.000000      0.000000
    13   Atom        0.000000      0.000000      0.000000
    14   Atom        0.000000      0.000000      0.000000
 --------------------------------------------------------
                        XY            XZ            YZ
 --------------------------------------------------------
     1   Atom        0.000000      0.000000      0.000000
     2   Atom        0.000000      0.000000      0.000000
     3   Atom        0.000000      0.000000      0.000000
     4   Atom        0.000000      0.000000      0.000000
     5   Atom        0.000000      0.000000      0.000000
     6   Atom        0.000000      0.000000      0.000000
     7   Atom        0.000000      0.000000      0.000000
     8   Atom        0.000000      0.000000      0.000000
     9   Atom        0.000000      0.000000      0.000000
    10   Atom        0.000000      0.000000      0.000000
    11   Atom        0.000000      0.000000      0.000000
    12   Atom        0.000000      0.000000      0.000000
    13   Atom        0.000000      0.000000      0.000000
    14   Atom        0.000000      0.000000      0.000000
 --------------------------------------------------------


 ---------------------------------------------------------------------------------
              Anisotropic Spin Dipole Couplings in Principal Axis System
 ---------------------------------------------------------------------------------

       Atom             a.u.   MegaHertz   Gauss  10(-4) cm-1        Axes

              Baa     0.0000     0.000     0.000     0.000  1.0000  0.0000  0.0000
     1 C(13)  Bbb     0.0000     0.000     0.000     0.000 -0.0000  1.0000  0.0000
              Bcc     0.0000     0.000     0.000     0.000  0.0000  0.0000  1.0000
 
              Baa     0.0000     0.000     0.000     0.000  1.0000  0.0000  0.0000
     2 C(13)  Bbb     0.0000     0.000     0.000     0.000 -0.0000  1.0000  0.0000
              Bcc     0.0000     0.000     0.000     0.000  0.0000  0.0000  1.0000
 
              Baa     0.0000     0.000     0.000     0.000  1.0000  0.0000  0.0000
     3 H(1)   Bbb     0.0000     0.000     0.000     0.000 -0.0000  1.0000  0.0000
              Bcc     0.0000     0.000     0.000     0.000  0.0000  0.0000  1.0000
 
              Baa     0.0000     0.000     0.000     0.000  1.0000  0.0000  0.0000
     4 H(1)   Bbb     0.0000     0.000     0.000     0.000 -0.0000  1.0000  0.0000
              Bcc     0.0000     0.000     0.000     0.000  0.0000  0.0000  1.0000
 
              Baa     0.0000     0.000     0.000     0.000  1.0000  0.0000  0.0000
     5 H(1)   Bbb     0.0000     0.000     0.000     0.000 -0.0000  1.0000  0.0000
              Bcc     0.0000     0.000     0.000     0.000  0.0000  0.0000  1.0000
 
              Baa     0.0000     0.000     0.000     0.000  1.0000  0.0000  0.0000
     6 C(13)  Bbb     0.0000     0.000     0.000     0.000 -0.0000  1.0000  0.0000
              Bcc     0.0000     0.000     0.000     0.000  0.0000  0.0000  1.0000
 
              Baa     0.0000     0.000     0.000     0.000  1.0000  0.0000  0.0000
     7 H(1)   Bbb     0.0000     0.000     0.000     0.000 -0.0000  1.0000  0.0000
              Bcc     0.0000     0.000     0.000     0.000  0.0000  0.0000  1.0000
 
              Baa     0.0000     0.000     0.000     0.000  1.0000  0.0000  0.0000
     8 H(1)   Bbb     0.0000     0.000     0.000     0.000 -0.0000  1.0000  0.0000
              Bcc     0.0000     0.000     0.000     0.000  0.0000  0.0000  1.0000
 
              Baa     0.0000     0.000     0.000     0.000  1.0000  0.0000  0.0000
     9 C(13)  Bbb     0.0000     0.000     0.000     0.000 -0.0000  1.0000  0.0000
              Bcc     0.0000     0.000     0.000     0.000  0.0000  0.0000  1.0000
 
              Baa     0.0000     0.000     0.000     0.000  1.0000  0.0000  0.0000
    10 H(1)   Bbb     0.0000     0.000     0.000     0.000 -0.0000  1.0000  0.0000
              Bcc     0.0000     0.000     0.000     0.000  0.0000  0.0000  1.0000
 
              Baa     0.0000     0.000     0.000     0.000  1.0000  0.0000  0.0000
    11 H(1)   Bbb     0.0000     0.000     0.000     0.000 -0.0000  1.0000  0.0000
              Bcc     0.0000     0.000     0.000     0.000  0.0000  0.0000  1.0000
 
              Baa     0.0000     0.000     0.000     0.000  1.0000  0.0000  0.0000
    12 H(1)   Bbb     0.0000     0.000     0.000     0.000 -0.0000  1.0000  0.0000
              Bcc     0.0000     0.000     0.000     0.000  0.0000  0.0000  1.0000
 
              Baa     0.0000     0.000     0.000     0.000  1.0000  0.0000  0.0000
    13 H(1)   Bbb     0.0000     0.000     0.000     0.000 -0.0000  1.0000  0.0000
              Bcc     0.0000     0.000     0.000     0.000  0.0000  0.0000  1.0000
 
              Baa     0.0000     0.000     0.000     0.000  1.0000  0.0000  0.0000
    14 H(1)   Bbb     0.0000     0.000     0.000     0.000 -0.0000  1.0000  0.0000
              Bcc     0.0000     0.000     0.000     0.000  0.0000  0.0000  1.0000
 

 ---------------------------------------------------------------------------------

 1\1\GINC-N69\Scan\UB2PLYPD3-FC\CC-pVTZ\C4H10\ROOT\01-Jun-2019\0\\# opt
 =(maxcyc=500,modredundant) uB2PLYPD3/cc-pvtz scf=maxcyc=500 nosymm\\Ti
 tle Card Required\\0,1\C,-0.5339634464,1.5222467991,0.0036781303\C,-0.
 3444866796,0.0092813786,0.0009315362\H,-1.5886160194,1.7945122496,0.00
 31486667\H,-0.0745775862,1.9712998851,0.8847242423\H,-0.0728420034,1.9
 747005004,-0.8747251965\C,1.1234118302,-0.4064541324,0.0010968963\H,-0
 .83900626,-0.4245691489,0.8734788176\H,-0.8377706846,-0.421224047,-0.8
 739617928\C,1.3128772864,-1.9194409436,-0.0015845994\H,1.6178402787,0.
 0273057526,-0.8715431245\H,1.6168156657,0.024096907,0.875902395\H,2.36
 7535284,-2.1916760244,-0.00172127\H,0.8523073786,-2.3717920782,0.87715
 17976\H,0.8529372359,-2.3685599979,-0.8823114989\\Version=ES64L-G16Rev
 B.01\HF=-158.1208996,-158.1205636,-158.1196276,-158.1183094,-158.11693
 96,-158.11589,-158.1154657,-158.1157853,-158.1167225,-158.1179304,-158
 .1189814,-158.1195709,-158.1195557,-158.1188379,-158.1174419,-158.1155
 928,-158.1136905,-158.1122244,-158.1116666,-158.1122273,-158.1136927,-
 158.1155958,-158.1174436,-158.1188375,-158.1195523,-158.1195688,-158.1
 189818,-158.1179328,-158.1167237,-158.1157865,-158.1154645,-158.115889
 7,-158.1169385,-158.1183079,-158.1196262,-158.1205624,-158.1208996\MP2
 =-158.354074,-158.3537534,-158.3528544,-158.3515777,-158.3502402,-158.
 3492108,-158.3488015,-158.349139,-158.350101,-158.351337,-158.352406,-
 158.35301,-158.3530307,-158.3523701,-158.3510281,-158.3492169,-158.347
 3281,-158.3458523,-158.3452806,-158.3458546,-158.3473306,-158.3492196,
 -158.3510299,-158.3523703,-158.3530287,-158.3530074,-158.3524066,-158.
 3513385,-158.3501022,-158.3491394,-158.348801,-158.3492116,-158.350239
 6,-158.3515764,-158.3528531,-158.3537518,-158.3540736\PUHF=-158.120899
 6,-158.1205636,-158.1196276,-158.1183094,-158.1169396,-158.11589,-158.
 1154657,-158.1157853,-158.1167225,-158.1179304,-158.1189814,-158.11957
 09,-158.1195557,-158.1188379,-158.1174419,-158.1155928,-158.1136905,-1
 58.1122244,-158.1116666,-158.1122273,-158.1136927,-158.1155958,-158.11
 74436,-158.1188375,-158.1195523,-158.1195688,-158.1189818,-158.1179328
 ,-158.1167237,-158.1157865,-158.1154645,-158.1158897,-158.1169385,-158
 .1183079,-158.1196262,-158.1205624,-158.1208996\PMP2-0=-158.354074,-15
 8.3537534,-158.3528544,-158.3515777,-158.3502402,-158.3492108,-158.348
 8015,-158.349139,-158.350101,-158.351337,-158.352406,-158.35301,-158.3
 530307,-158.3523701,-158.3510281,-158.3492169,-158.3473281,-158.345852
 3,-158.3452806,-158.3458546,-158.3473306,-158.3492196,-158.3510299,-15
 8.3523703,-158.3530287,-158.3530074,-158.3524066,-158.3513385,-158.350
 1022,-158.3491394,-158.348801,-158.3492116,-158.3502396,-158.3515764,-
 158.3528531,-158.3537518,-158.3540736\S2=0.,0.,0.,0.,0.,0.,0.,0.,0.,0.
 ,0.,0.,0.,0.,0.,0.,0.,0.,0.,0.,0.,0.,0.,0.,0.,0.,0.,0.,0.,0.,0.,0.,0.,
 0.,0.,0.,0.\S2-1=0.,0.,0.,0.,0.,0.,0.,0.,0.,0.,0.,0.,0.,0.,0.,0.,0.,0.
 ,0.,0.,0.,0.,0.,0.,0.,0.,0.,0.,0.,0.,0.,0.,0.,0.,0.,0.,0.\S2A=0.,0.,0.
 ,0.,0.,0.,0.,0.,0.,0.,0.,0.,0.,0.,0.,0.,0.,0.,0.,0.,0.,0.,0.,0.,0.,0.,
 0.,0.,0.,0.,0.,0.,0.,0.,0.,0.,0.\RMSD=9.244e-09,1.993e-09,3.423e-09,3.
 298e-09,3.258e-09,9.761e-09,6.302e-09,6.502e-09,9.717e-09,9.755e-09,6.
 128e-09,5.936e-09,4.155e-09,7.444e-09,4.776e-09,6.276e-09,6.827e-09,4.
 099e-09,1.848e-09,4.026e-09,3.385e-09,6.833e-09,3.447e-09,3.209e-09,4.
 624e-09,2.175e-09,8.216e-09,7.563e-09,8.318e-09,1.589e-09,3.023e-09,2.
 726e-09,9.060e-09,3.234e-09,3.409e-09,3.072e-09,9.299e-09\PG=C01 [X(C4
 H10)]\\@


 MY DESCRIPTION OF EXPERIENCE IS NOT WHAT HAPPENS
 TO A MAN.  EXPERIENCE IS WHAT A MAN DOES WITH WHAT
 HAPPENS TO HIM.
                         - CHUCK KNOX, SEATTLE SEAHAWKS, 1985
 Job cpu time:       4 days 22 hours  7 minutes  1.6 seconds.
 Elapsed time:       0 days  3 hours 39 minutes  8.6 seconds.
 File lengths (MBytes):  RWF=     82 Int=      0 D2E=      0 Chk=     14 Scr=      1
 Normal termination of Gaussian 16 at Sat Jun  1 09:37:36 2019.
