 Entering Gaussian System, Link 0=g16
 Initial command:
 /ichec/packages/gaussian/16b01/l1.exe "/localscratch/339542/Gau-95101.inp" -scrdir="/localscratch/339542/"
 Entering Link 1 = /ichec/packages/gaussian/16b01/l1.exe PID=     95148.
  
 Copyright (c) 1988-2017, Gaussian, Inc.  All Rights Reserved.
  
 This is part of the Gaussian(R) 16 program.  It is based on
 the Gaussian(R) 09 system (copyright 2009, Gaussian, Inc.),
 the Gaussian(R) 03 system (copyright 2003, Gaussian, Inc.),
 the Gaussian(R) 98 system (copyright 1998, Gaussian, Inc.),
 the Gaussian(R) 94 system (copyright 1995, Gaussian, Inc.),
 the Gaussian 92(TM) system (copyright 1992, Gaussian, Inc.),
 the Gaussian 90(TM) system (copyright 1990, Gaussian, Inc.),
 the Gaussian 88(TM) system (copyright 1988, Gaussian, Inc.),
 the Gaussian 86(TM) system (copyright 1986, Carnegie Mellon
 University), and the Gaussian 82(TM) system (copyright 1983,
 Carnegie Mellon University). Gaussian is a federally registered
 trademark of Gaussian, Inc.
  
 This software contains proprietary and confidential information,
 including trade secrets, belonging to Gaussian, Inc.
  
 This software is provided under written license and may be
 used, copied, transmitted, or stored only in accord with that
 written license.
  
 The following legend is applicable only to US Government
 contracts under FAR:
  
                    RESTRICTED RIGHTS LEGEND
  
 Use, reproduction and disclosure by the US Government is
 subject to restrictions as set forth in subparagraphs (a)
 and (c) of the Commercial Computer Software - Restricted
 Rights clause in FAR 52.227-19.
  
 Gaussian, Inc.
 340 Quinnipiac St., Bldg. 40, Wallingford CT 06492
  
  
 ---------------------------------------------------------------
 Warning -- This program may not be used in any manner that
 competes with the business of Gaussian, Inc. or will provide
 assistance to any competitor of Gaussian, Inc.  The licensee
 of this program is prohibited from giving any competitor of
 Gaussian, Inc. access to this program.  By using this program,
 the user acknowledges that Gaussian, Inc. is engaged in the
 business of creating and licensing software in the field of
 computational chemistry and represents and warrants to the
 licensee that it is not a competitor of Gaussian, Inc. and that
 it will not use this program in any manner prohibited above.
 ---------------------------------------------------------------
  

 Cite this work as:
 Gaussian 16, Revision B.01,
 M. J. Frisch, G. W. Trucks, H. B. Schlegel, G. E. Scuseria, 
 M. A. Robb, J. R. Cheeseman, G. Scalmani, V. Barone, 
 G. A. Petersson, H. Nakatsuji, X. Li, M. Caricato, A. V. Marenich, 
 J. Bloino, B. G. Janesko, R. Gomperts, B. Mennucci, H. P. Hratchian, 
 J. V. Ortiz, A. F. Izmaylov, J. L. Sonnenberg, D. Williams-Young, 
 F. Ding, F. Lipparini, F. Egidi, J. Goings, B. Peng, A. Petrone, 
 T. Henderson, D. Ranasinghe, V. G. Zakrzewski, J. Gao, N. Rega, 
 G. Zheng, W. Liang, M. Hada, M. Ehara, K. Toyota, R. Fukuda, 
 J. Hasegawa, M. Ishida, T. Nakajima, Y. Honda, O. Kitao, H. Nakai, 
 T. Vreven, K. Throssell, J. A. Montgomery, Jr., J. E. Peralta, 
 F. Ogliaro, M. J. Bearpark, J. J. Heyd, E. N. Brothers, K. N. Kudin, 
 V. N. Staroverov, T. A. Keith, R. Kobayashi, J. Normand, 
 K. Raghavachari, A. P. Rendell, J. C. Burant, S. S. Iyengar, 
 J. Tomasi, M. Cossi, J. M. Millam, M. Klene, C. Adamo, R. Cammi, 
 J. W. Ochterski, R. L. Martin, K. Morokuma, O. Farkas, 
 J. B. Foresman, and D. J. Fox, Gaussian, Inc., Wallingford CT, 2016.
 
 ******************************************
 Gaussian 16:  ES64L-G16RevB.01 20-Dec-2017
                 1-Jun-2019 
 ******************************************
 %mem=80GB
 %nproc=40
 Will use up to   40 processors via shared memory.
 -----------------------------------------------
 # opt=maxcyc=500 freq=noraman uB2PLYPD3/cc-pvtz
 -----------------------------------------------
 1/6=500,18=20,19=15,38=1/1,3;
 2/9=110,12=2,17=6,18=5,40=1/2;
 3/5=16,6=1,11=2,25=1,30=1,71=1,74=-60,116=2/1,2,3;
 4//1;
 5/5=2,38=5/2;
 8/6=4,10=1/1;
 9/15=2,16=-3/6;
 10/5=1/2;
 6/7=2,8=2,9=2,10=2/1;
 7/12=2/1,2,3,16;
 1/6=500,18=20,19=15/3(2);
 2/9=110/2;
 99//99;
 2/9=110/2;
 3/5=16,6=1,11=2,25=1,30=1,71=1,74=-60,116=2/1,2,3;
 4/5=5,16=3,69=1/1;
 5/5=2,38=5/2;
 8/6=4,10=1/1;
 9/15=2,16=-3/6;
 10/5=1/2;
 7/12=2/1,2,3,16;
 1/6=500,18=20,19=15/3(-8);
 2/9=110/2;
 6/7=2,8=2,9=2,10=2/1;
 99/9=10/99;
 -------------------
 Title Card Required
 -------------------
 Symbolic Z-matrix:
 Charge =  0 Multiplicity = 2
 C                    -1.39579   0.50669   0. 
 C                     0.11092   0.50669   0. 
 H                    -1.7844    1.55359   0. 
 H                    -1.79031  -0.01594  -0.90484 
 H                    -1.79023  -0.01581   0.90498 
 C                     0.66852  -0.90116   0.00018 
 H                     0.48812   1.05673  -0.90244 
 H                     0.48452   1.03728   0.91549 
 C                     2.17525  -0.90113   0.00011 
 H                     0.29128  -1.45138  -0.9021 
 H                     2.53193  -1.90993   0.00064 
 H                     2.53187  -0.39719  -0.87383 
 H                     2.53194  -0.39625   0.87348 
 

 GradGradGradGradGradGradGradGradGradGradGradGradGradGradGradGradGradGrad
 Berny optimization.
 Initialization pass.
                           ----------------------------
                           !    Initial Parameters    !
                           ! (Angstroms and Degrees)  !
 --------------------------                            --------------------------
 ! Name  Definition              Value          Derivative Info.                !
 --------------------------------------------------------------------------------
 ! R1    R(1,2)                  1.5067         estimate D2E/DX2                !
 ! R2    R(1,3)                  1.1167         estimate D2E/DX2                !
 ! R3    R(1,4)                  1.1169         estimate D2E/DX2                !
 ! R4    R(1,5)                  1.1169         estimate D2E/DX2                !
 ! R5    R(2,6)                  1.5142         estimate D2E/DX2                !
 ! R6    R(2,7)                  1.1221         estimate D2E/DX2                !
 ! R7    R(2,8)                  1.1221         estimate D2E/DX2                !
 ! R8    R(6,9)                  1.5067         estimate D2E/DX2                !
 ! R9    R(6,10)                 1.1221         estimate D2E/DX2                !
 ! R10   R(9,11)                 1.07           estimate D2E/DX2                !
 ! R11   R(9,12)                 1.07           estimate D2E/DX2                !
 ! R12   R(9,13)                 1.07           estimate D2E/DX2                !
 ! A1    A(2,1,3)              110.3651         estimate D2E/DX2                !
 ! A2    A(2,1,4)              110.684          estimate D2E/DX2                !
 ! A3    A(2,1,5)              110.6793         estimate D2E/DX2                !
 ! A4    A(3,1,4)              108.4063         estimate D2E/DX2                !
 ! A5    A(3,1,5)              108.4007         estimate D2E/DX2                !
 ! A6    A(4,1,5)              108.2253         estimate D2E/DX2                !
 ! A7    A(1,2,6)              111.6065         estimate D2E/DX2                !
 ! A8    A(1,2,7)              109.6417         estimate D2E/DX2                !
 ! A9    A(1,2,8)              109.4465         estimate D2E/DX2                !
 ! A10   A(6,2,7)              109.3929         estimate D2E/DX2                !
 ! A11   A(6,2,8)              108.4766         estimate D2E/DX2                !
 ! A12   A(7,2,8)              108.2056         estimate D2E/DX2                !
 ! A13   A(2,6,9)              111.6054         estimate D2E/DX2                !
 ! A14   A(2,6,10)             109.3904         estimate D2E/DX2                !
 ! A15   A(9,6,10)             109.643          estimate D2E/DX2                !
 ! A16   A(6,9,11)             109.4712         estimate D2E/DX2                !
 ! A17   A(6,9,12)             109.4712         estimate D2E/DX2                !
 ! A18   A(6,9,13)             109.4712         estimate D2E/DX2                !
 ! A19   A(11,9,12)            109.4712         estimate D2E/DX2                !
 ! A20   A(11,9,13)            109.4712         estimate D2E/DX2                !
 ! A21   A(12,9,13)            109.4712         estimate D2E/DX2                !
 ! D1    D(3,1,2,6)            179.9928         estimate D2E/DX2                !
 ! D2    D(3,1,2,7)            -58.6375         estimate D2E/DX2                !
 ! D3    D(3,1,2,8)             59.905          estimate D2E/DX2                !
 ! D4    D(4,1,2,6)            -59.9967         estimate D2E/DX2                !
 ! D5    D(4,1,2,7)             61.373          estimate D2E/DX2                !
 ! D6    D(4,1,2,8)            179.9156         estimate D2E/DX2                !
 ! D7    D(5,1,2,6)             59.9922         estimate D2E/DX2                !
 ! D8    D(5,1,2,7)           -178.6381         estimate D2E/DX2                !
 ! D9    D(5,1,2,8)            -60.0955         estimate D2E/DX2                !
 ! D10   D(1,2,6,9)            179.9973         estimate D2E/DX2                !
 ! D11   D(1,2,6,10)            58.4842         estimate D2E/DX2                !
 ! D12   D(7,2,6,9)             58.4834         estimate D2E/DX2                !
 ! D13   D(7,2,6,10)           -63.0297         estimate D2E/DX2                !
 ! D14   D(8,2,6,9)            -59.3463         estimate D2E/DX2                !
 ! D15   D(8,2,6,10)           179.1406         estimate D2E/DX2                !
 ! D16   D(2,6,9,11)           179.9773         estimate D2E/DX2                !
 ! D17   D(2,6,9,12)           -60.0227         estimate D2E/DX2                !
 ! D18   D(2,6,9,13)            59.9773         estimate D2E/DX2                !
 ! D19   D(10,6,9,11)          -58.656          estimate D2E/DX2                !
 ! D20   D(10,6,9,12)           61.344          estimate D2E/DX2                !
 ! D21   D(10,6,9,13)         -178.656          estimate D2E/DX2                !
 --------------------------------------------------------------------------------
 Trust Radius=3.00D-01 FncErr=1.00D-07 GrdErr=1.00D-07 EigMax=2.50D+02 EigMin=1.00D-04
 Number of steps in this run=    100 maximum allowed number of steps=    100.
 GradGradGradGradGradGradGradGradGradGradGradGradGradGradGradGradGradGrad

                          Input orientation:                          
 ---------------------------------------------------------------------
 Center     Atomic      Atomic             Coordinates (Angstroms)
 Number     Number       Type             X           Y           Z
 ---------------------------------------------------------------------
      1          6           0       -1.395793    0.506692    0.000000
      2          6           0        0.110925    0.506692    0.000000
      3          1           0       -1.784404    1.553585    0.000000
      4          1           0       -1.790306   -0.015941   -0.904842
      5          1           0       -1.790228   -0.015807    0.904976
      6          6           0        0.668516   -0.901159    0.000178
      7          1           0        0.488119    1.056730   -0.902436
      8          1           0        0.484518    1.037277    0.915492
      9          6           0        2.175250   -0.901131    0.000113
     10          1           0        0.291277   -1.451384   -0.902097
     11          1           0        2.531935   -1.909930    0.000642
     12          1           0        2.531869   -0.397193   -0.873826
     13          1           0        2.531944   -0.396250    0.873477
 ---------------------------------------------------------------------
                    Distance matrix (angstroms):
                    1          2          3          4          5
     1  C    0.000000
     2  C    1.506718   0.000000
     3  H    1.116693   2.165238   0.000000
     4  H    1.116926   2.169462   1.811680   0.000000
     5  H    1.116945   2.169417   1.811631   1.809818   0.000000
     6  C    2.498683   1.514250   3.470243   2.765588   2.765489
     7  H    2.160106   1.122144   2.495119   2.518303   3.099668
     8  H    2.157595   1.122149   2.500541   3.098017   2.506704
     9  C    3.838530   2.498680   4.658808   4.162708   4.162642
    10  H    2.737525   2.163416   3.761924   2.528536   3.107902
    11  H    4.611628   3.420724   5.534141   4.805087   4.804854
    12  H    4.123968   2.727921   4.816567   4.339069   4.689362
    13  H    4.123760   2.727564   4.816190   4.689233   4.338999
                    6          7          8          9         10
     6  C    0.000000
     7  H    2.163466   0.000000
     8  H    2.151555   1.818036   0.000000
     9  C    1.506734   2.737558   2.730187   0.000000
    10  H    1.122122   2.515826   3.087783   2.160119   0.000000
    11  H    2.118950   3.714001   3.703363   1.070000   2.458811
    12  H    2.118950   2.508311   3.074249   1.070000   2.476363
    13  H    2.118950   3.072823   2.499745   1.070000   3.047386
                   11         12         13
    11  H    0.000000
    12  H    1.747303   0.000000
    13  H    1.747303   1.747303   0.000000
 Stoichiometry    C4H9(2)
 Framework group  C1[X(C4H9)]
 Deg. of freedom    33
 Full point group                 C1      NOp   1
 Largest Abelian subgroup         C1      NOp   1
 Largest concise Abelian subgroup C1      NOp   1
                         Standard orientation:                         
 ---------------------------------------------------------------------
 Center     Atomic      Atomic             Coordinates (Angstroms)
 Number     Number       Type             X           Y           Z
 ---------------------------------------------------------------------
      1          6           0       -1.900134    0.137753   -0.045787
      2          6           0       -0.532542   -0.482523    0.077299
      3          1           0       -2.692205   -0.631554    0.120923
      4          1           0       -2.033888    0.950796    0.708266
      5          1           0       -2.043873    0.577197   -1.062544
      6          6           0        0.564386    0.537592   -0.144207
      7          1           0       -0.416022   -0.939838    1.095382
      8          1           0       -0.421172   -1.296210   -0.687376
      9          6           0        1.931981   -0.082702   -0.021051
     10          1           0        0.457876    1.367487    0.603514
     11          1           0        2.679085    0.665825   -0.183665
     12          1           0        2.049015   -0.496506    0.958729
     13          1           0        2.039034   -0.857923   -0.750758
 ---------------------------------------------------------------------
 Rotational constants (GHZ):          25.6663998           3.8063624           3.5736025
 Standard basis: CC-pVTZ (5D, 7F)
 There are   275 symmetry adapted cartesian basis functions of A   symmetry.
 There are   246 symmetry adapted basis functions of A   symmetry.
   246 basis functions,   361 primitive gaussians,   275 cartesian basis functions
    17 alpha electrons       16 beta electrons
       nuclear repulsion energy       122.9191075080 Hartrees.
 NAtoms=   13 NActive=   13 NUniq=   13 SFac= 1.00D+00 NAtFMM=   60 NAOKFM=F Big=F
 Integral buffers will be    131072 words long.
 Raffenetti 2 integral format.
 Two-electron integral symmetry is turned on.
 Nuclear repulsion after empirical dispersion term =      122.9130975162 Hartrees.
 One-electron integrals computed using PRISM.
 NBasis=   246 RedAO= T EigKep=  5.69D-04  NBF=   246
 NBsUse=   246 1.00D-06 EigRej= -1.00D+00 NBFU=   246
 ExpMin= 1.03D-01 ExpMax= 8.24D+03 ExpMxC= 2.81D+02 IAcc=3 IRadAn=         5 AccDes= 0.00D+00
 Harris functional with IExCor=  419 and IRadAn=       5 diagonalized for initial guess.
 HarFok:  IExCor=  419 AccDes= 0.00D+00 IRadAn=         5 IDoV= 1 UseB2=F ITyADJ=14
 ICtDFT=  3500011 ScaDFX=  1.000000  1.000000  1.000000  1.000000
 FoFCou: FMM=F IPFlag=           0 FMFlag=      100000 FMFlg1=           0
         NFxFlg=           0 DoJE=T BraDBF=F KetDBF=T FulRan=T
         wScrn=  0.000000 ICntrl=       500 IOpCl=  0 I1Cent=   200000004 NGrid=           0
         NMat0=    1 NMatS0=      1 NMatT0=    0 NMatD0=    1 NMtDS0=    0 NMtDT0=    0
 Petite list used in FoFCou.
 Initial guess <Sx>= 0.0000 <Sy>= 0.0000 <Sz>= 0.5000 <S**2>= 0.7500 S= 0.5000
 Requested convergence on RMS density matrix=1.00D-08 within 128 cycles.
 Requested convergence on MAX density matrix=1.00D-06.
 Requested convergence on             energy=1.00D-06.
 No special actions if energy rises.
 Integral accuracy reduced to 1.0D-05 until final iterations.
 Initial convergence to 1.0D-05 achieved.  Increase integral accuracy.
 SCF Done:  E(UB2PLYPD3) =  -157.451475440     A.U. after   14 cycles
            NFock= 14  Conv=0.38D-08     -V/T= 2.0052
 <Sx>= 0.0000 <Sy>= 0.0000 <Sz>= 0.5000 <S**2>= 0.7549 S= 0.5025
 <L.S>=  0.00000000000    
 Annihilation of the first spin contaminant:
 S**2 before annihilation     0.7549,   after     0.7500
 DoSCS=T DFT=T ScalE2(SS,OS)=  0.270000  0.270000
 ExpMin= 1.03D-01 ExpMax= 8.24D+03 ExpMxC= 2.81D+02 IAcc=3 IRadAn=         5 AccDes= 0.00D+00
 HarFok:  IExCor=  205 AccDes= 0.00D+00 IRadAn=         5 IDoV=-2 UseB2=F ITyADJ=14
 ICtDFT= 12500011 ScaDFX=  1.000000  1.000000  1.000000  1.000000
 Range of M.O.s used for correlation:     5   246
 NBasis=   246 NAE=    17 NBE=    16 NFC=     4 NFV=     0
 NROrb=    242 NOA=    13 NOB=    12 NVA=   229 NVB=   230

 **** Warning!!: The largest alpha MO coefficient is  0.12636880D+02


 **** Warning!!: The largest beta MO coefficient is  0.12635947D+02

 DoSCS=T DFT=T ScalE2(SS,OS)=  0.270000  0.270000
 Fully direct method using O(ONN) memory.
 JobTyp=2 Pass  1:  I=   5 to  17 NPSUse= 40 ParTrn=T ParDer=T DoDerP=T.
 JobTyp=3 Pass  1:  I=   5 to  16 NPSUse= 40 ParTrn=T ParDer=T DoDerP=T.
 Spin components of T(2) and E(2):
     alpha-alpha T2 =       0.4100383848D-01 E2=     -0.2642917979D-01
     alpha-beta  T2 =       0.2436809996D+00 E2=     -0.1726976639D+00
     beta-beta   T2 =       0.3541424474D-01 E2=     -0.2251742394D-01
 (S**2,0)=  0.75493D+00           (S**2,1)=  0.74795D+00
 Scaling Projection term by:   0.270000
 E(PUHF)=      -0.15745333363D+03        E(PMP2)=      -0.15767326726D+03
 E2(B2PLYPD3) =    -0.2216442677D+00 E(B2PLYPD3) =    -0.15767311970775D+03
          IDoAtm=1111111111111
          Differentiating once with respect to electric field.
                with respect to dipole field.
          Differentiating once with respect to nuclear coordinates.
 Keep R1 and R2 ints in memory in canonical form, NReq=967250981.
          There are     1 degrees of freedom in the 1st order CPHF.  IDoFFX=0 NUNeed=     1.
 LinEq1:  Iter=  0 NonCon=     1 RMS=5.65D-04 Max=1.44D-02 NDo=     1
 AX will form     1 AO Fock derivatives at one time.
 LinEq1:  Iter=  1 NonCon=     1 RMS=2.07D-04 Max=2.61D-03 NDo=     1
 LinEq1:  Iter=  2 NonCon=     1 RMS=6.87D-05 Max=1.43D-03 NDo=     1
 LinEq1:  Iter=  3 NonCon=     1 RMS=1.79D-05 Max=2.31D-04 NDo=     1
 LinEq1:  Iter=  4 NonCon=     1 RMS=1.01D-05 Max=1.15D-04 NDo=     1
 LinEq1:  Iter=  5 NonCon=     1 RMS=2.81D-06 Max=3.93D-05 NDo=     1
 LinEq1:  Iter=  6 NonCon=     1 RMS=8.24D-07 Max=1.10D-05 NDo=     1
 LinEq1:  Iter=  7 NonCon=     1 RMS=2.62D-07 Max=4.23D-06 NDo=     1
 LinEq1:  Iter=  8 NonCon=     1 RMS=1.27D-07 Max=1.73D-06 NDo=     1
 LinEq1:  Iter=  9 NonCon=     1 RMS=3.51D-08 Max=4.09D-07 NDo=     1
 LinEq1:  Iter= 10 NonCon=     1 RMS=1.12D-08 Max=2.06D-07 NDo=     1
 LinEq1:  Iter= 11 NonCon=     1 RMS=2.86D-09 Max=3.93D-08 NDo=     1
 LinEq1:  Iter= 12 NonCon=     1 RMS=1.14D-09 Max=1.40D-08 NDo=     1
 LinEq1:  Iter= 13 NonCon=     1 RMS=4.65D-10 Max=7.70D-09 NDo=     1
 LinEq1:  Iter= 14 NonCon=     1 RMS=1.63D-10 Max=2.62D-09 NDo=     1
 LinEq1:  Iter= 15 NonCon=     0 RMS=5.17D-11 Max=7.20D-10 NDo=     1
 Linear equations converged to 1.000D-10 1.000D-09 after    15 iterations.
 End of Minotr F.D. properties file   721 does not exist.
 End of Minotr F.D. properties file   722 does not exist.
 End of Minotr F.D. properties file   788 does not exist.

 **********************************************************************

            Population analysis using the SCF Density.

 **********************************************************************

 Orbital symmetries:
 Alpha Orbitals:
       Occupied  (A) (A) (A) (A) (A) (A) (A) (A) (A) (A) (A) (A)
                 (A) (A) (A) (A) (A)
       Virtual   (A) (A) (A) (A) (A) (A) (A) (A) (A) (A) (A) (A)
                 (A) (A) (A) (A) (A) (A) (A) (A) (A) (A) (A) (A)
                 (A) (A) (A) (A) (A) (A) (A) (A) (A) (A) (A) (A)
                 (A) (A) (A) (A) (A) (A) (A) (A) (A) (A) (A) (A)
                 (A) (A) (A) (A) (A) (A) (A) (A) (A) (A) (A) (A)
                 (A) (A) (A) (A) (A) (A) (A) (A) (A) (A) (A) (A)
                 (A) (A) (A) (A) (A) (A) (A) (A) (A) (A) (A) (A)
                 (A) (A) (A) (A) (A) (A) (A) (A) (A) (A) (A) (A)
                 (A) (A) (A) (A) (A) (A) (A) (A) (A) (A) (A) (A)
                 (A) (A) (A) (A) (A) (A) (A) (A) (A) (A) (A) (A)
                 (A) (A) (A) (A) (A) (A) (A) (A) (A) (A) (A) (A)
                 (A) (A) (A) (A) (A) (A) (A) (A) (A) (A) (A) (A)
                 (A) (A) (A) (A) (A) (A) (A) (A) (A) (A) (A) (A)
                 (A) (A) (A) (A) (A) (A) (A) (A) (A) (A) (A) (A)
                 (A) (A) (A) (A) (A) (A) (A) (A) (A) (A) (A) (A)
                 (A) (A) (A) (A) (A) (A) (A) (A) (A) (A) (A) (A)
                 (A) (A) (A) (A) (A) (A) (A) (A) (A) (A) (A) (A)
                 (A) (A) (A) (A) (A) (A) (A) (A) (A) (A) (A) (A)
                 (A) (A) (A) (A) (A) (A) (A) (A) (A) (A) (A) (A)
                 (A)
 Beta  Orbitals:
       Occupied  (A) (A) (A) (A) (A) (A) (A) (A) (A) (A) (A) (A)
                 (A) (A) (A) (A)
       Virtual   (A) (A) (A) (A) (A) (A) (A) (A) (A) (A) (A) (A)
                 (A) (A) (A) (A) (A) (A) (A) (A) (A) (A) (A) (A)
                 (A) (A) (A) (A) (A) (A) (A) (A) (A) (A) (A) (A)
                 (A) (A) (A) (A) (A) (A) (A) (A) (A) (A) (A) (A)
                 (A) (A) (A) (A) (A) (A) (A) (A) (A) (A) (A) (A)
                 (A) (A) (A) (A) (A) (A) (A) (A) (A) (A) (A) (A)
                 (A) (A) (A) (A) (A) (A) (A) (A) (A) (A) (A) (A)
                 (A) (A) (A) (A) (A) (A) (A) (A) (A) (A) (A) (A)
                 (A) (A) (A) (A) (A) (A) (A) (A) (A) (A) (A) (A)
                 (A) (A) (A) (A) (A) (A) (A) (A) (A) (A) (A) (A)
                 (A) (A) (A) (A) (A) (A) (A) (A) (A) (A) (A) (A)
                 (A) (A) (A) (A) (A) (A) (A) (A) (A) (A) (A) (A)
                 (A) (A) (A) (A) (A) (A) (A) (A) (A) (A) (A) (A)
                 (A) (A) (A) (A) (A) (A) (A) (A) (A) (A) (A) (A)
                 (A) (A) (A) (A) (A) (A) (A) (A) (A) (A) (A) (A)
                 (A) (A) (A) (A) (A) (A) (A) (A) (A) (A) (A) (A)
                 (A) (A) (A) (A) (A) (A) (A) (A) (A) (A) (A) (A)
                 (A) (A) (A) (A) (A) (A) (A) (A) (A) (A) (A) (A)
                 (A) (A) (A) (A) (A) (A) (A) (A) (A) (A) (A) (A)
                 (A) (A)
 The electronic state is 2-A.
 Alpha  occ. eigenvalues --  -10.62710 -10.61340 -10.60485 -10.59469  -0.91825
 Alpha  occ. eigenvalues --   -0.83795  -0.72274  -0.64778  -0.53649  -0.49938
 Alpha  occ. eigenvalues --   -0.48917  -0.48169  -0.43007  -0.40735  -0.39103
 Alpha  occ. eigenvalues --   -0.38122  -0.28127
 Alpha virt. eigenvalues --    0.08164   0.09903   0.11264   0.13009   0.15281
 Alpha virt. eigenvalues --    0.16016   0.17509   0.18015   0.19087   0.22891
 Alpha virt. eigenvalues --    0.24161   0.27752   0.29419   0.32069   0.32665
 Alpha virt. eigenvalues --    0.34990   0.36277   0.38559   0.42429   0.44020
 Alpha virt. eigenvalues --    0.46414   0.47740   0.49068   0.50518   0.52276
 Alpha virt. eigenvalues --    0.53112   0.53973   0.54722   0.55103   0.55271
 Alpha virt. eigenvalues --    0.56630   0.58308   0.59478   0.60332   0.66559
 Alpha virt. eigenvalues --    0.71520   0.72527   0.78683   0.81880   0.82732
 Alpha virt. eigenvalues --    0.85169   0.87296   0.91145   0.93814   0.95394
 Alpha virt. eigenvalues --    0.96346   1.01170   1.01806   1.05769   1.06998
 Alpha virt. eigenvalues --    1.07323   1.11318   1.12759   1.16096   1.18163
 Alpha virt. eigenvalues --    1.19796   1.19830   1.20584   1.22922   1.24356
 Alpha virt. eigenvalues --    1.25213   1.27736   1.30466   1.32925   1.34720
 Alpha virt. eigenvalues --    1.36106   1.37193   1.38264   1.40017   1.42769
 Alpha virt. eigenvalues --    1.42909   1.46448   1.47154   1.47839   1.49910
 Alpha virt. eigenvalues --    1.53963   1.56008   1.57897   1.61480   1.63254
 Alpha virt. eigenvalues --    1.65425   1.69431   1.73592   1.75066   2.22427
 Alpha virt. eigenvalues --    2.31634   2.36839   2.40299   2.42191   2.45682
 Alpha virt. eigenvalues --    2.48797   2.50602   2.53575   2.57561   2.59298
 Alpha virt. eigenvalues --    2.63239   2.64721   2.66441   2.70218   2.72251
 Alpha virt. eigenvalues --    2.74269   2.76646   2.78601   2.80026   2.84310
 Alpha virt. eigenvalues --    2.85787   2.87918   2.89965   2.93105   2.95597
 Alpha virt. eigenvalues --    2.96907   2.97444   3.01220   3.03939   3.05371
 Alpha virt. eigenvalues --    3.07027   3.09032   3.11061   3.15194   3.15574
 Alpha virt. eigenvalues --    3.17395   3.20201   3.21654   3.22764   3.23398
 Alpha virt. eigenvalues --    3.24734   3.28391   3.28596   3.30112   3.33034
 Alpha virt. eigenvalues --    3.34477   3.37168   3.38439   3.44457   3.45133
 Alpha virt. eigenvalues --    3.45671   3.49751   3.53636   3.54041   3.55711
 Alpha virt. eigenvalues --    3.55964   3.58502   3.58946   3.64583   3.65919
 Alpha virt. eigenvalues --    3.69651   3.72725   3.76584   3.76999   3.79784
 Alpha virt. eigenvalues --    3.83568   3.86655   3.88203   3.89270   3.90683
 Alpha virt. eigenvalues --    3.92907   3.94981   3.96698   3.98579   3.99599
 Alpha virt. eigenvalues --    4.02184   4.04237   4.05941   4.08111   4.08908
 Alpha virt. eigenvalues --    4.09552   4.13952   4.14782   4.17265   4.20621
 Alpha virt. eigenvalues --    4.21814   4.23365   4.26108   4.27124   4.30768
 Alpha virt. eigenvalues --    4.31033   4.34914   4.36775   4.39963   4.40856
 Alpha virt. eigenvalues --    4.42629   4.45360   4.50553   4.53230   4.54325
 Alpha virt. eigenvalues --    4.57573   4.69561   4.71542   4.73421   4.76959
 Alpha virt. eigenvalues --    4.82441   4.86411   4.92861   4.94938   4.95680
 Alpha virt. eigenvalues --    4.98262   4.99633   5.01934   5.04939   5.07978
 Alpha virt. eigenvalues --    5.09687   5.14386   5.23250   5.25429   5.33703
 Alpha virt. eigenvalues --    5.36521   5.38913   5.40017   5.41924   5.43531
 Alpha virt. eigenvalues --    5.47316   5.50060   5.50481   5.54284   5.56501
 Alpha virt. eigenvalues --    5.59976   5.61369   5.64727   5.76818   5.85507
 Alpha virt. eigenvalues --    6.00679   6.03526   6.04081   6.06804   6.08932
 Alpha virt. eigenvalues --   10.56653  12.57232  13.41853  14.12096
  Beta  occ. eigenvalues --  -10.61410 -10.60884 -10.60461 -10.59525  -0.90173
  Beta  occ. eigenvalues --   -0.83230  -0.71469  -0.62447  -0.52116  -0.49297
  Beta  occ. eigenvalues --   -0.48428  -0.47181  -0.42659  -0.40134  -0.38577
  Beta  occ. eigenvalues --   -0.37477
  Beta virt. eigenvalues --    0.00899   0.08624   0.09960   0.11417   0.13170
  Beta virt. eigenvalues --    0.15400   0.16247   0.17769   0.18245   0.19288
  Beta virt. eigenvalues --    0.23489   0.24633   0.28257   0.29537   0.32391
  Beta virt. eigenvalues --    0.32759   0.35369   0.37324   0.41154   0.43745
  Beta virt. eigenvalues --    0.45546   0.46859   0.48173   0.50570   0.51450
  Beta virt. eigenvalues --    0.52595   0.53274   0.54070   0.55121   0.55334
  Beta virt. eigenvalues --    0.55533   0.56869   0.59132   0.60472   0.61780
  Beta virt. eigenvalues --    0.67168   0.72004   0.73056   0.79079   0.82080
  Beta virt. eigenvalues --    0.82973   0.85640   0.87482   0.91781   0.94196
  Beta virt. eigenvalues --    0.95815   0.96645   1.01507   1.02742   1.06115
  Beta virt. eigenvalues --    1.07424   1.07886   1.11482   1.13325   1.16351
  Beta virt. eigenvalues --    1.18604   1.20050   1.20671   1.20831   1.23395
  Beta virt. eigenvalues --    1.24554   1.25798   1.28088   1.31315   1.33810
  Beta virt. eigenvalues --    1.35460   1.36222   1.38384   1.38836   1.40941
  Beta virt. eigenvalues --    1.43021   1.43281   1.46694   1.47369   1.48416
  Beta virt. eigenvalues --    1.50220   1.54554   1.56971   1.58291   1.62117
  Beta virt. eigenvalues --    1.63545   1.65961   1.70227   1.73901   1.75876
  Beta virt. eigenvalues --    2.25792   2.32627   2.37191   2.40559   2.42817
  Beta virt. eigenvalues --    2.46360   2.50033   2.50933   2.54251   2.58323
  Beta virt. eigenvalues --    2.60125   2.63677   2.65609   2.66767   2.71108
  Beta virt. eigenvalues --    2.72996   2.75049   2.77506   2.79115   2.80364
  Beta virt. eigenvalues --    2.84846   2.86527   2.88467   2.90363   2.93279
  Beta virt. eigenvalues --    2.95697   2.97460   2.97779   3.01791   3.04448
  Beta virt. eigenvalues --    3.06481   3.08163   3.09440   3.11715   3.15388
  Beta virt. eigenvalues --    3.15885   3.17808   3.20583   3.22132   3.23294
  Beta virt. eigenvalues --    3.23801   3.26042   3.29254   3.29670   3.30512
  Beta virt. eigenvalues --    3.34357   3.35895   3.37543   3.39283   3.44808
  Beta virt. eigenvalues --    3.46065   3.47560   3.50677   3.53932   3.54555
  Beta virt. eigenvalues --    3.56068   3.56259   3.58901   3.59386   3.64899
  Beta virt. eigenvalues --    3.66577   3.70125   3.73192   3.76837   3.77191
  Beta virt. eigenvalues --    3.80387   3.84073   3.87059   3.88742   3.89628
  Beta virt. eigenvalues --    3.91106   3.93123   3.95394   3.97026   3.98855
  Beta virt. eigenvalues --    3.99976   4.02677   4.04479   4.06336   4.08490
  Beta virt. eigenvalues --    4.09366   4.10089   4.14404   4.14950   4.17525
  Beta virt. eigenvalues --    4.20832   4.22098   4.23733   4.26302   4.27655
  Beta virt. eigenvalues --    4.31312   4.31467   4.35331   4.37474   4.40430
  Beta virt. eigenvalues --    4.41095   4.42930   4.45765   4.50925   4.53559
  Beta virt. eigenvalues --    4.54650   4.58370   4.69937   4.72472   4.73602
  Beta virt. eigenvalues --    4.77420   4.83211   4.86933   4.93069   4.95078
  Beta virt. eigenvalues --    4.95915   4.98633   4.99781   5.02308   5.05315
  Beta virt. eigenvalues --    5.08292   5.10155   5.15046   5.23440   5.25647
  Beta virt. eigenvalues --    5.33836   5.36873   5.39092   5.40085   5.42104
  Beta virt. eigenvalues --    5.43789   5.47662   5.50233   5.50731   5.54512
  Beta virt. eigenvalues --    5.56724   5.60363   5.61493   5.64958   5.77084
  Beta virt. eigenvalues --    5.86252   6.00786   6.03683   6.04156   6.06953
  Beta virt. eigenvalues --    6.09110  10.58057  12.57457  13.41878  14.12172
          Condensed to atoms (all electrons):
               1          2          3          4          5          6
     1  C    4.842827   0.347688   0.408501   0.408407   0.405767  -0.061083
     2  C    0.347688   4.842656  -0.039571  -0.039127  -0.038153   0.352670
     3  H    0.408501  -0.039571   0.603306  -0.030673  -0.029120   0.008783
     4  H    0.408407  -0.039127  -0.030673   0.610259  -0.031169  -0.006265
     5  H    0.405767  -0.038153  -0.029120  -0.031169   0.602175  -0.001168
     6  C   -0.061083   0.352670   0.008783  -0.006265  -0.001168   5.282642
     7  H   -0.040539   0.409293  -0.004222  -0.006051   0.008636  -0.048250
     8  H   -0.033836   0.404964  -0.005818   0.007961  -0.006243  -0.039997
     9  C    0.006845  -0.061825  -0.000492   0.000020   0.000070   0.340828
    10  H   -0.004366  -0.050924  -0.000221   0.004058  -0.000263   0.403188
    11  H   -0.000481   0.008130   0.000026  -0.000001  -0.000012  -0.039956
    12  H   -0.000089  -0.002981   0.000035  -0.000015   0.000053  -0.047854
    13  H    0.000064  -0.005871  -0.000012  -0.000013  -0.000010  -0.040209
               7          8          9         10         11         12
     1  C   -0.040539  -0.033836   0.006845  -0.004366  -0.000481  -0.000089
     2  C    0.409293   0.404964  -0.061825  -0.050924   0.008130  -0.002981
     3  H   -0.004222  -0.005818  -0.000492  -0.000221   0.000026   0.000035
     4  H   -0.006051   0.007961   0.000020   0.004058  -0.000001  -0.000015
     5  H    0.008636  -0.006243   0.000070  -0.000263  -0.000012   0.000053
     6  C   -0.048250  -0.039997   0.340828   0.403188  -0.039956  -0.047854
     7  H    0.633396  -0.035627  -0.002478  -0.003393  -0.000118   0.005381
     8  H   -0.035627   0.625708  -0.005671   0.008073  -0.000126  -0.000368
     9  C   -0.002478  -0.005671   4.838779  -0.047713   0.416051   0.407032
    10  H   -0.003393   0.008073  -0.047713   0.614625  -0.006571  -0.003465
    11  H   -0.000118  -0.000126   0.416051  -0.006571   0.572764  -0.031592
    12  H    0.005381  -0.000368   0.407032  -0.003465  -0.031592   0.607958
    13  H   -0.000334   0.003246   0.410302   0.007914  -0.027837  -0.035242
              13
     1  C    0.000064
     2  C   -0.005871
     3  H   -0.000012
     4  H   -0.000013
     5  H   -0.000010
     6  C   -0.040209
     7  H   -0.000334
     8  H    0.003246
     9  C    0.410302
    10  H    0.007914
    11  H   -0.027837
    12  H   -0.035242
    13  H    0.589769
          Atomic-Atomic Spin Densities.
               1          2          3          4          5          6
     1  C    0.012492   0.009265  -0.001608   0.000232  -0.004124  -0.009449
     2  C    0.009265  -0.053144   0.000277   0.001013  -0.001847  -0.027017
     3  H   -0.001608   0.000277  -0.001614  -0.000030   0.001077   0.000213
     4  H    0.000232   0.001013  -0.000030  -0.000723  -0.000150  -0.000141
     5  H   -0.004124  -0.001847   0.001077  -0.000150   0.001321   0.005992
     6  C   -0.009449  -0.027017   0.000213  -0.000141   0.005992   1.106791
     7  H   -0.005116   0.005441   0.001445  -0.000946   0.001497  -0.028799
     8  H    0.003169   0.003708  -0.000388   0.000099  -0.001017  -0.005467
     9  C    0.000083   0.005682   0.000024   0.000004  -0.000138  -0.027153
    10  H    0.000578   0.006707  -0.000099   0.000249  -0.000491   0.002454
    11  H    0.000010  -0.000118  -0.000002   0.000002  -0.000014  -0.004906
    12  H   -0.000247  -0.000086   0.000032  -0.000042   0.000112  -0.029857
    13  H    0.000087   0.001315  -0.000009   0.000006  -0.000060  -0.006296
               7          8          9         10         11         12
     1  C   -0.005116   0.003169   0.000083   0.000578   0.000010  -0.000247
     2  C    0.005441   0.003708   0.005682   0.006707  -0.000118  -0.000086
     3  H    0.001445  -0.000388   0.000024  -0.000099  -0.000002   0.000032
     4  H   -0.000946   0.000099   0.000004   0.000249   0.000002  -0.000042
     5  H    0.001497  -0.001017  -0.000138  -0.000491  -0.000014   0.000112
     6  C   -0.028799  -0.005467  -0.027153   0.002454  -0.004906  -0.029857
     7  H    0.087103  -0.007931   0.000247  -0.004402  -0.000290   0.009531
     8  H   -0.007931   0.013877   0.000983   0.000300   0.000076  -0.001460
     9  C    0.000247   0.000983  -0.045597   0.007043   0.005164   0.004993
    10  H   -0.004402   0.000300   0.007043  -0.025734   0.001234  -0.004655
    11  H   -0.000290   0.000076   0.005164   0.001234   0.006762  -0.005466
    12  H    0.009531  -0.001460   0.004993  -0.004655  -0.005466   0.087727
    13  H   -0.001438   0.000901   0.005429   0.000252   0.001767  -0.008628
              13
     1  C    0.000087
     2  C    0.001315
     3  H   -0.000009
     4  H    0.000006
     5  H   -0.000060
     6  C   -0.006296
     7  H   -0.001438
     8  H    0.000901
     9  C    0.005429
    10  H    0.000252
    11  H    0.001767
    12  H   -0.008628
    13  H    0.013131
 Mulliken charges and spin densities:
               1          2
     1  C   -0.279704   0.005371
     2  C   -0.126947  -0.048805
     3  H    0.089479  -0.000680
     4  H    0.082610  -0.000428
     5  H    0.089437   0.002158
     6  C   -0.103330   0.976364
     7  H    0.084307   0.056341
     8  H    0.077734   0.006851
     9  C   -0.301747  -0.043237
    10  H    0.079058  -0.016564
    11  H    0.109724   0.004220
    12  H    0.101147   0.051952
    13  H    0.098233   0.006456
 Sum of Mulliken charges =  -0.00000   1.00000
 Mulliken charges and spin densities with hydrogens summed into heavy atoms:
               1          2
     1  C   -0.018179   0.006422
     2  C    0.035094   0.014387
     6  C   -0.024272   0.959800
     9  C    0.007357   0.019392
 Electronic spatial extent (au):  <R**2>=            404.0098
 Charge=             -0.0000 electrons
 Dipole moment (field-independent basis, Debye):
    X=              0.1509    Y=             -0.3466    Z=              0.4839  Tot=              0.6140
 Quadrupole moment (field-independent basis, Debye-Ang):
   XX=            -28.6645   YY=            -28.3758   ZZ=            -27.7448
   XY=              0.2428   XZ=              0.2193   YZ=              0.6755
 Traceless Quadrupole moment (field-independent basis, Debye-Ang):
   XX=             -0.4027   YY=             -0.1141   ZZ=              0.5169
   XY=              0.2428   XZ=              0.2193   YZ=              0.6755
 Octapole moment (field-independent basis, Debye-Ang**2):
  XXX=              2.1041  YYY=             -0.8617  ZZZ=              1.1174  XYY=              0.1859
  XXY=             -0.1196  XXZ=              0.1808  XZZ=              0.1010  YZZ=             -0.8737
  YYZ=              0.7705  XYZ=              0.2630
 Hexadecapole moment (field-independent basis, Debye-Ang**3):
 XXXX=           -445.0671 YYYY=            -87.6083 ZZZZ=            -55.3604 XXXY=              6.8064
 XXXZ=             -0.7783 YYYX=              0.8215 YYYZ=              2.8589 ZZZX=              1.7882
 ZZZY=              0.4863 XXYY=            -84.6340 XXZZ=            -81.4203 YYZZ=            -22.4610
 XXYZ=             -0.3921 YYXZ=             -0.6195 ZZXY=             -1.8813
 N-N= 1.229130975162D+02 E-N=-6.102164421911D+02  KE= 1.566333960498D+02
                          Isotropic Fermi Contact Couplings
        Atom                 a.u.       MegaHertz       Gauss      10(-4) cm-1
     1  C(13)              0.00899      10.10902       3.60715       3.37201
     2  C(13)             -0.00814      -9.15260      -3.26588      -3.05298
     3  H(1)              -0.00045      -1.99282      -0.71109      -0.66473
     4  H(1)              -0.00032      -1.43369      -0.51158      -0.47823
     5  H(1)              -0.00045      -2.00974      -0.71712      -0.67038
     6  C(13)              0.25280     284.19142     101.40657      94.79605
     7  H(1)               0.02254     100.75457      35.95174      33.60811
     8  H(1)               0.00454      20.30897       7.24675       6.77434
     9  C(13)             -0.00850      -9.55921      -3.41096      -3.18861
    10  H(1)              -0.00065      -2.91686      -1.04081      -0.97296
    11  H(1)               0.00367      16.40878       5.85506       5.47338
    12  H(1)               0.02364     105.65174      37.69917      35.24163
    13  H(1)               0.00463      20.70697       7.38876       6.90710
 --------------------------------------------------------
       Center         ----  Spin Dipole Couplings  ----
                      3XX-RR        3YY-RR        3ZZ-RR
 --------------------------------------------------------
     1   Atom        0.016308     -0.008744     -0.007564
     2   Atom        0.002728      0.008010     -0.010738
     3   Atom        0.005199     -0.002383     -0.002815
     4   Atom        0.007869     -0.004966     -0.002903
     5   Atom        0.012443     -0.006625     -0.005818
     6   Atom       -0.493928     -0.290241      0.784168
     7   Atom       -0.000792      0.000994     -0.000202
     8   Atom       -0.004820      0.013572     -0.008752
     9   Atom        0.013452     -0.007261     -0.006190
    10   Atom       -0.056350      0.031464      0.024886
    11   Atom        0.020065     -0.010815     -0.009250
    12   Atom        0.003492     -0.004463      0.000970
    13   Atom        0.003218      0.005425     -0.008642
 --------------------------------------------------------
                        XY            XZ            YZ
 --------------------------------------------------------
     1   Atom        0.002145     -0.006892     -0.000017
     2   Atom        0.024602     -0.015842     -0.015724
     3   Atom        0.002869     -0.000736     -0.000700
     4   Atom       -0.002243     -0.005665      0.000470
     5   Atom        0.000990      0.004282     -0.000829
     6   Atom       -0.058982      0.143178     -0.529018
     7   Atom        0.007110     -0.002512     -0.007828
     8   Atom        0.011092      0.002664      0.003680
     9   Atom       -0.023229      0.019442     -0.014516
    10   Atom       -0.013216     -0.002704      0.037603
    11   Atom        0.001451      0.002688     -0.000228
    12   Atom       -0.007428      0.005196     -0.006656
    13   Atom       -0.014745     -0.004358      0.003702
 --------------------------------------------------------


 ---------------------------------------------------------------------------------
              Anisotropic Spin Dipole Couplings in Principal Axis System
 ---------------------------------------------------------------------------------

       Atom             a.u.   MegaHertz   Gauss  10(-4) cm-1        Axes

              Baa    -0.0098    -1.309    -0.467    -0.437  0.2570 -0.5339  0.8055
     1 C(13)  Bbb    -0.0086    -1.149    -0.410    -0.383  0.0754  0.8421  0.5341
              Bcc     0.0183     2.458     0.877     0.820  0.9635  0.0765 -0.2567
 
              Baa    -0.0213    -2.854    -1.018    -0.952  0.6178 -0.1003  0.7799
     2 C(13)  Bbb    -0.0187    -2.503    -0.893    -0.835 -0.4861  0.7309  0.4791
              Bcc     0.0399     5.357     1.911     1.787  0.6181  0.6750 -0.4028
 
              Baa    -0.0036    -1.925    -0.687    -0.642 -0.2252  0.8244  0.5193
     3 H(1)   Bbb    -0.0026    -1.413    -0.504    -0.471  0.2501 -0.4662  0.8486
              Bcc     0.0063     3.338     1.191     1.113  0.9417  0.3209 -0.1012
 
              Baa    -0.0058    -3.073    -1.097    -1.025  0.3733  0.6831  0.6277
     4 H(1)   Bbb    -0.0049    -2.595    -0.926    -0.866 -0.1744  0.7162 -0.6757
              Bcc     0.0106     5.668     2.023     1.891  0.9112 -0.1428 -0.3865
 
              Baa    -0.0077    -4.129    -1.473    -1.377 -0.1830  0.6863  0.7039
     5 H(1)   Bbb    -0.0057    -3.035    -1.083    -1.012  0.1202  0.7262 -0.6769
              Bcc     0.0134     7.165     2.557     2.390  0.9757  0.0393  0.2154
 
              Baa    -0.5098   -68.414   -24.412   -22.821  0.9895  0.1338 -0.0548
     6 C(13)  Bbb    -0.5070   -68.029   -24.275   -22.692 -0.1025  0.9164  0.3869
              Bcc     1.0168   136.444    48.687    45.513  0.1020 -0.3772  0.9205
 
              Baa    -0.0091    -4.842    -1.728    -1.615 -0.4680  0.7242  0.5064
     7 H(1)   Bbb    -0.0030    -1.614    -0.576    -0.538  0.7387  0.0061  0.6740
              Bcc     0.0121     6.457     2.304     2.154  0.4851  0.6895 -0.5378
 
              Baa    -0.0106    -5.671    -2.024    -1.892  0.7739 -0.2674 -0.5741
     8 H(1)   Bbb    -0.0089    -4.728    -1.687    -1.577  0.4704 -0.3644  0.8037
              Bcc     0.0195    10.399     3.711     3.469  0.4241  0.8920  0.1562
 
              Baa    -0.0228    -3.063    -1.093    -1.022  0.4016  0.8690  0.2890
     9 C(13)  Bbb    -0.0181    -2.435    -0.869    -0.812 -0.5399 -0.0303  0.8412
              Bcc     0.0410     5.498     1.962     1.834  0.7398 -0.4938  0.4570
 
              Baa    -0.0584   -31.166   -11.121   -10.396  0.9859  0.1622 -0.0412
    10 H(1)   Bbb    -0.0086    -4.589    -1.638    -1.531  0.1386 -0.6531  0.7445
              Bcc     0.0670    35.755    12.758    11.927 -0.0939  0.7397  0.6663
 
              Baa    -0.0110    -5.852    -2.088    -1.952 -0.0654  0.9706  0.2315
    11 H(1)   Bbb    -0.0094    -5.019    -1.791    -1.674 -0.0767 -0.2362  0.9687
              Bcc     0.0204    10.871     3.879     3.626  0.9949  0.0456  0.0899
 
              Baa    -0.0101    -5.399    -1.927    -1.801  0.3350  0.8688  0.3646
    12 H(1)   Bbb    -0.0031    -1.642    -0.586    -0.548 -0.6600 -0.0598  0.7489
              Bcc     0.0132     7.041     2.512     2.349  0.6725 -0.4915  0.5534
 
              Baa    -0.0109    -5.797    -2.068    -1.934  0.6936  0.5128  0.5060
    13 H(1)   Bbb    -0.0094    -4.994    -1.782    -1.666 -0.2634 -0.4732  0.8407
              Bcc     0.0202    10.791     3.850     3.599 -0.6705  0.7163  0.1931
 

 ---------------------------------------------------------------------------------

 Calling FoFJK, ICntrl=  10002127 FMM=F ISym2X=0 I1Cent= 0 IOpClX= 1 NMat=1 NMatS=1 NMatT=0.
 ***** Axes restored to original set *****
 -------------------------------------------------------------------
 Center     Atomic                   Forces (Hartrees/Bohr)
 Number     Number              X              Y              Z
 -------------------------------------------------------------------
      1        6          -0.023493203    0.006154353    0.000052690
      2        6           0.005435902   -0.001949182    0.017511015
      3        1           0.002160820   -0.016355364   -0.000256781
      4        1           0.004143760    0.007868968    0.013689533
      5        1           0.004609750    0.008130771   -0.014372526
      6        6           0.011794701    0.022034637   -0.050507520
      7        1          -0.002029142   -0.007618365    0.013237435
      8        1          -0.003857896   -0.004504270   -0.016339230
      9        6          -0.021917840   -0.015321480    0.017193431
     10        1          -0.002220461   -0.001706255    0.023531335
     11        1           0.010040869   -0.010526060   -0.000664639
     12        1           0.006300106    0.007244501   -0.012475657
     13        1           0.009032635    0.006547747    0.009400916
 -------------------------------------------------------------------
 Cartesian Forces:  Max     0.050507520 RMS     0.014071849

 GradGradGradGradGradGradGradGradGradGradGradGradGradGradGradGradGradGrad
 Berny optimization.
 FormGI is forming the generalized inverse of G from B-inverse, IUseBI=4.
 Internal  Forces:  Max     0.021955517 RMS     0.008295111
 Search for a local minimum.
 Step number   1 out of a maximum of  100
 All quantities printed in internal units (Hartrees-Bohrs-Radians)
 Mixed Optimization -- RFO/linear search
 Second derivative matrix not updated -- first step.
 ITU=  0
     Eigenvalues ---    0.00577   0.00677   0.00677   0.02697   0.04384
     Eigenvalues ---    0.05602   0.05795   0.05821   0.07487   0.07487
     Eigenvalues ---    0.09216   0.10847   0.12724   0.16000   0.16000
     Eigenvalues ---    0.16000   0.16000   0.16000   0.16000   0.21982
     Eigenvalues ---    0.23396   0.30927   0.31347   0.31347   0.31350
     Eigenvalues ---    0.31681   0.31683   0.31876   0.31878   0.31902
     Eigenvalues ---    0.37230   0.37230   0.37230
 RFO step:  Lambda=-2.10681475D-02 EMin= 5.77451142D-03
 Linear search not attempted -- first point.
 Iteration  1 RMS(Cart)=  0.07588982 RMS(Int)=  0.00581365
 Iteration  2 RMS(Cart)=  0.00526559 RMS(Int)=  0.00420454
 Iteration  3 RMS(Cart)=  0.00001342 RMS(Int)=  0.00420452
 Iteration  4 RMS(Cart)=  0.00000017 RMS(Int)=  0.00420452
 Variable       Old X    -DE/DX   Delta X   Delta X   Delta X     New X
                                 (Linear)    (Quad)   (Total)
    R1        2.84728   0.01258   0.00000   0.03723   0.03723   2.88451
    R2        2.11024  -0.01609   0.00000  -0.04730  -0.04730   2.06295
    R3        2.11069  -0.01624   0.00000  -0.04777  -0.04777   2.06291
    R4        2.11072  -0.01708   0.00000  -0.05025  -0.05025   2.06047
    R5        2.86152  -0.00290   0.00000  -0.00876  -0.00876   2.85275
    R6        2.12055  -0.01506   0.00000  -0.04502  -0.04502   2.07552
    R7        2.12055  -0.01674   0.00000  -0.05005  -0.05005   2.07050
    R8        2.84731   0.00346   0.00000   0.01023   0.01023   2.85754
    R9        2.12050  -0.01734   0.00000  -0.05182  -0.05182   2.06868
   R10        2.02201   0.01327   0.00000   0.03374   0.03374   2.05574
   R11        2.02201   0.01570   0.00000   0.03992   0.03992   2.06192
   R12        2.02201   0.01377   0.00000   0.03502   0.03502   2.05702
    A1        1.92623   0.00483   0.00000   0.02835   0.02820   1.95444
    A2        1.93180   0.00119   0.00000   0.00555   0.00548   1.93728
    A3        1.93172   0.00095   0.00000   0.00466   0.00459   1.93631
    A4        1.89205  -0.00293   0.00000  -0.01500  -0.01513   1.87691
    A5        1.89195  -0.00265   0.00000  -0.01262  -0.01276   1.87919
    A6        1.88889  -0.00169   0.00000  -0.01248  -0.01246   1.87642
    A7        1.94790   0.00879   0.00000   0.04348   0.04307   1.99097
    A8        1.91361  -0.00040   0.00000   0.00052   0.00091   1.91451
    A9        1.91020  -0.00158   0.00000   0.00535   0.00461   1.91482
   A10        1.90927  -0.00515   0.00000  -0.03297  -0.03298   1.87628
   A11        1.89327  -0.00089   0.00000   0.01038   0.00954   1.90281
   A12        1.88854  -0.00106   0.00000  -0.02889  -0.02895   1.85960
   A13        1.94788   0.02196   0.00000   0.12288   0.10780   2.05568
   A14        1.90922  -0.00164   0.00000   0.08155   0.06285   1.97207
   A15        1.91363  -0.00025   0.00000   0.09314   0.07537   1.98900
   A16        1.91063   0.00779   0.00000   0.04566   0.04510   1.95574
   A17        1.91063  -0.00134   0.00000  -0.01126  -0.01116   1.89947
   A18        1.91063   0.00548   0.00000   0.03149   0.03093   1.94156
   A19        1.91063  -0.00384   0.00000  -0.02366  -0.02357   1.88706
   A20        1.91063  -0.00467   0.00000  -0.01809  -0.01919   1.89144
   A21        1.91063  -0.00342   0.00000  -0.02414  -0.02404   1.88659
    D1        3.14147   0.00156   0.00000   0.02089   0.02096  -3.12076
    D2       -1.02342   0.00060   0.00000   0.00832   0.00840  -1.01502
    D3        1.04554  -0.00188   0.00000  -0.02335  -0.02349   1.02204
    D4       -1.04714   0.00182   0.00000   0.02417   0.02428  -1.02286
    D5        1.07116   0.00086   0.00000   0.01160   0.01171   1.08287
    D6        3.14012  -0.00162   0.00000  -0.02007  -0.02018   3.11994
    D7        1.04706   0.00111   0.00000   0.01521   0.01524   1.06230
    D8       -3.11782   0.00015   0.00000   0.00264   0.00267  -3.11515
    D9       -1.04886  -0.00232   0.00000  -0.02903  -0.02922  -1.07808
   D10        3.14155   0.00605   0.00000   0.11355   0.11496  -3.02668
   D11        1.02074  -0.00692   0.00000  -0.13982  -0.14197   0.87877
   D12        1.02073   0.00428   0.00000   0.10682   0.10885   1.12958
   D13       -1.10008  -0.00868   0.00000  -0.14655  -0.14809  -1.24816
   D14       -1.03579   0.00897   0.00000   0.15413   0.15604  -0.87975
   D15        3.12659  -0.00399   0.00000  -0.09925  -0.10090   3.02570
   D16        3.14120  -0.00514   0.00000  -0.11556  -0.11760   3.02360
   D17       -1.04759  -0.00590   0.00000  -0.12347  -0.12597  -1.17356
   D18        1.04680  -0.00755   0.00000  -0.14064  -0.14361   0.90319
   D19       -1.02374   0.00709   0.00000   0.13183   0.13480  -0.88894
   D20        1.07065   0.00633   0.00000   0.12392   0.12643   1.19708
   D21       -3.11814   0.00469   0.00000   0.10674   0.10878  -3.00935
         Item               Value     Threshold  Converged?
 Maximum Force            0.021956     0.000450     NO 
 RMS     Force            0.008295     0.000300     NO 
 Maximum Displacement     0.253214     0.001800     NO 
 RMS     Displacement     0.073142     0.001200     NO 
 Predicted change in Energy=-1.396353D-02
 GradGradGradGradGradGradGradGradGradGradGradGradGradGradGradGradGradGrad

                          Input orientation:                          
 ---------------------------------------------------------------------
 Center     Atomic      Atomic             Coordinates (Angstroms)
 Number     Number       Type             X           Y           Z
 ---------------------------------------------------------------------
      1          6           0       -1.440198    0.520599    0.012641
      2          6           0        0.085748    0.533375   -0.023096
      3          1           0       -1.856522    1.529098    0.049189
      4          1           0       -1.848095    0.028171   -0.872133
      5          1           0       -1.805050   -0.019934    0.886470
      6          6           0        0.711350   -0.838184   -0.102942
      7          1           0        0.430776    1.105091   -0.895108
      8          1           0        0.471796    1.051007    0.862059
      9          6           0        2.216193   -0.934145    0.010289
     10          1           0        0.285067   -1.456889   -0.899089
     11          1           0        2.557179   -1.966012    0.059292
     12          1           0        2.665864   -0.469512   -0.868608
     13          1           0        2.579509   -0.410481    0.892714
 ---------------------------------------------------------------------
                    Distance matrix (angstroms):
                    1          2          3          4          5
     1  C    0.000000
     2  C    1.526418   0.000000
     3  H    1.091664   2.183827   0.000000
     4  H    1.091645   2.171599   1.761161   0.000000
     5  H    1.090353   2.169926   1.761587   1.759787   0.000000
     6  C    2.547314   1.509612   3.495874   2.809445   2.825019
     7  H    2.160134   1.098320   2.510619   2.520622   3.072233
     8  H    2.158371   1.095662   2.512050   3.071727   2.516255
     9  C    3.935159   2.587185   4.759841   4.268859   4.215907
    10  H    2.778174   2.183631   3.794965   2.599329   3.101879
    11  H    4.707912   3.515920   5.629978   4.924505   4.847730
    12  H    4.314703   2.894421   5.028794   4.541313   4.824054
    13  H    4.218943   2.819293   4.914455   4.786520   4.401922
                    6          7          8          9         10
     6  C    0.000000
     7  H    2.117207   0.000000
     8  H    2.134866   1.758477   0.000000
     9  C    1.512145   2.857611   2.776555   0.000000
    10  H    1.094698   2.566123   3.070188   2.197607   0.000000
    11  H    2.169194   3.855404   3.754419   1.087852   2.517974
    12  H    2.131265   2.734172   3.181371   1.091122   2.577603
    13  H    2.159694   3.179672   2.565022   1.088529   3.093540
                   11         12         13
    11  H    0.000000
    12  H    1.764178   0.000000
    13  H    1.764871   1.764425   0.000000
 Stoichiometry    C4H9(2)
 Framework group  C1[X(C4H9)]
 Deg. of freedom    33
 Full point group                 C1      NOp   1
 Largest Abelian subgroup         C1      NOp   1
 Largest concise Abelian subgroup C1      NOp   1
                         Standard orientation:                         
 ---------------------------------------------------------------------
 Center     Atomic      Atomic             Coordinates (Angstroms)
 Number     Number       Type             X           Y           Z
 ---------------------------------------------------------------------
      1          6           0       -1.944192    0.144487   -0.076324
      2          6           0       -0.563478   -0.481047    0.103363
      3          1           0       -2.744713   -0.582737    0.072142
      4          1           0       -2.101351    0.956730    0.635893
      5          1           0       -2.056324    0.560226   -1.078052
      6          6           0        0.579419    0.490954   -0.063755
      7          1           0       -0.482416   -0.916598    1.108366
      8          1           0       -0.436713   -1.306664   -0.605694
      9          6           0        1.985282   -0.065868   -0.054674
     10          1           0        0.457706    1.400707    0.532817
     11          1           0        2.726476    0.692197   -0.298378
     12          1           0        2.206253   -0.448151    0.943113
     13          1           0        2.088899   -0.886867   -0.761866
 ---------------------------------------------------------------------
 Rotational constants (GHZ):          26.7528500           3.6220401           3.4185815
 Standard basis: CC-pVTZ (5D, 7F)
 There are   275 symmetry adapted cartesian basis functions of A   symmetry.
 There are   246 symmetry adapted basis functions of A   symmetry.
   246 basis functions,   361 primitive gaussians,   275 cartesian basis functions
    17 alpha electrons       16 beta electrons
       nuclear repulsion energy       121.9451419602 Hartrees.
 NAtoms=   13 NActive=   13 NUniq=   13 SFac= 1.00D+00 NAtFMM=   60 NAOKFM=F Big=F
 Integral buffers will be    131072 words long.
 Raffenetti 2 integral format.
 Two-electron integral symmetry is turned on.
 Nuclear repulsion after empirical dispersion term =      121.9392283600 Hartrees.
 One-electron integrals computed using PRISM.
 NBasis=   246 RedAO= T EigKep=  6.09D-04  NBF=   246
 NBsUse=   246 1.00D-06 EigRej= -1.00D+00 NBFU=   246
 Initial guess from the checkpoint file:  "/localscratch/339542/Gau-95148.chk"
 B after Tr=     0.000000   -0.000000    0.000000
         Rot=    0.999947    0.010288    0.000254    0.000339 Ang=   1.18 deg.
 Initial guess <Sx>= 0.0000 <Sy>= 0.0000 <Sz>= 0.5000 <S**2>= 0.7549 S= 0.5024
 ExpMin= 1.03D-01 ExpMax= 8.24D+03 ExpMxC= 2.81D+02 IAcc=3 IRadAn=         5 AccDes= 0.00D+00
 Harris functional with IExCor=  419 and IRadAn=       5 diagonalized for initial guess.
 HarFok:  IExCor=  419 AccDes= 0.00D+00 IRadAn=         5 IDoV= 1 UseB2=F ITyADJ=14
 ICtDFT=  3500011 ScaDFX=  1.000000  1.000000  1.000000  1.000000
 FoFCou: FMM=F IPFlag=           0 FMFlag=      100000 FMFlg1=           0
         NFxFlg=           0 DoJE=T BraDBF=F KetDBF=T FulRan=T
         wScrn=  0.000000 ICntrl=       500 IOpCl=  0 I1Cent=   200000004 NGrid=           0
         NMat0=    1 NMatS0=      1 NMatT0=    0 NMatD0=    1 NMtDS0=    0 NMtDT0=    0
 Petite list used in FoFCou.
 Requested convergence on RMS density matrix=1.00D-08 within 128 cycles.
 Requested convergence on MAX density matrix=1.00D-06.
 Requested convergence on             energy=1.00D-06.
 No special actions if energy rises.
 Integral accuracy reduced to 1.0D-05 until final iterations.
 Initial convergence to 1.0D-05 achieved.  Increase integral accuracy.
 SCF Done:  E(UB2PLYPD3) =  -157.464415000     A.U. after   13 cycles
            NFock= 13  Conv=0.24D-08     -V/T= 2.0050
 <Sx>= 0.0000 <Sy>= 0.0000 <Sz>= 0.5000 <S**2>= 0.7557 S= 0.5028
 <L.S>=  0.00000000000    
 Annihilation of the first spin contaminant:
 S**2 before annihilation     0.7557,   after     0.7500
 DoSCS=T DFT=T ScalE2(SS,OS)=  0.270000  0.270000
 ExpMin= 1.03D-01 ExpMax= 8.24D+03 ExpMxC= 2.81D+02 IAcc=3 IRadAn=         5 AccDes= 0.00D+00
 HarFok:  IExCor=  205 AccDes= 0.00D+00 IRadAn=         5 IDoV=-2 UseB2=F ITyADJ=14
 ICtDFT= 12500011 ScaDFX=  1.000000  1.000000  1.000000  1.000000
 Range of M.O.s used for correlation:     5   246
 NBasis=   246 NAE=    17 NBE=    16 NFC=     4 NFV=     0
 NROrb=    242 NOA=    13 NOB=    12 NVA=   229 NVB=   230

 **** Warning!!: The largest alpha MO coefficient is  0.13080896D+02


 **** Warning!!: The largest beta MO coefficient is  0.12697476D+02

 DoSCS=T DFT=T ScalE2(SS,OS)=  0.270000  0.270000
 Fully direct method using O(ONN) memory.
 JobTyp=2 Pass  1:  I=   5 to  17 NPSUse= 40 ParTrn=T ParDer=T DoDerP=T.
 JobTyp=3 Pass  1:  I=   5 to  16 NPSUse= 40 ParTrn=T ParDer=T DoDerP=T.
 Spin components of T(2) and E(2):
     alpha-alpha T2 =       0.4080877234D-01 E2=     -0.2638547301D-01
     alpha-beta  T2 =       0.2412496284D+00 E2=     -0.1721832690D+00
     beta-beta   T2 =       0.3501502681D-01 E2=     -0.2235180187D-01
 (S**2,0)=  0.75570D+00           (S**2,1)=  0.74763D+00
 Scaling Projection term by:   0.270000
 E(PUHF)=      -0.15746655726D+03        E(PMP2)=      -0.15768550568D+03
 E2(B2PLYPD3) =    -0.2209205439D+00 E(B2PLYPD3) =    -0.15768533554432D+03
          IDoAtm=1111111111111
          Differentiating once with respect to electric field.
                with respect to dipole field.
          Differentiating once with respect to nuclear coordinates.
 Keep R1 and R2 ints in memory in canonical form, NReq=967250981.
          There are     1 degrees of freedom in the 1st order CPHF.  IDoFFX=0 NUNeed=     1.
 LinEq1:  Iter=  0 NonCon=     1 RMS=5.56D-04 Max=1.63D-02 NDo=     1
 AX will form     1 AO Fock derivatives at one time.
 LinEq1:  Iter=  1 NonCon=     1 RMS=2.00D-04 Max=2.49D-03 NDo=     1
 LinEq1:  Iter=  2 NonCon=     1 RMS=6.71D-05 Max=1.51D-03 NDo=     1
 LinEq1:  Iter=  3 NonCon=     1 RMS=1.49D-05 Max=1.74D-04 NDo=     1
 LinEq1:  Iter=  4 NonCon=     1 RMS=8.31D-06 Max=1.08D-04 NDo=     1
 LinEq1:  Iter=  5 NonCon=     1 RMS=2.48D-06 Max=3.84D-05 NDo=     1
 LinEq1:  Iter=  6 NonCon=     1 RMS=7.28D-07 Max=8.85D-06 NDo=     1
 LinEq1:  Iter=  7 NonCon=     1 RMS=2.19D-07 Max=2.64D-06 NDo=     1
 LinEq1:  Iter=  8 NonCon=     1 RMS=1.09D-07 Max=1.19D-06 NDo=     1
 LinEq1:  Iter=  9 NonCon=     1 RMS=3.35D-08 Max=3.86D-07 NDo=     1
 LinEq1:  Iter= 10 NonCon=     1 RMS=1.23D-08 Max=2.37D-07 NDo=     1
 LinEq1:  Iter= 11 NonCon=     1 RMS=3.12D-09 Max=4.17D-08 NDo=     1
 LinEq1:  Iter= 12 NonCon=     1 RMS=9.62D-10 Max=1.07D-08 NDo=     1
 LinEq1:  Iter= 13 NonCon=     1 RMS=3.08D-10 Max=4.82D-09 NDo=     1
 LinEq1:  Iter= 14 NonCon=     1 RMS=1.28D-10 Max=1.82D-09 NDo=     1
 LinEq1:  Iter= 15 NonCon=     0 RMS=4.29D-11 Max=4.93D-10 NDo=     1
 Linear equations converged to 1.000D-10 1.000D-09 after    15 iterations.
 End of Minotr F.D. properties file   721 does not exist.
 End of Minotr F.D. properties file   722 does not exist.
 End of Minotr F.D. properties file   788 does not exist.
 Calling FoFJK, ICntrl=  10002127 FMM=F ISym2X=0 I1Cent= 0 IOpClX= 1 NMat=1 NMatS=1 NMatT=0.
 ***** Axes restored to original set *****
 -------------------------------------------------------------------
 Center     Atomic                   Forces (Hartrees/Bohr)
 Number     Number              X              Y              Z
 -------------------------------------------------------------------
      1        6          -0.002074312   -0.000654670   -0.000843206
      2        6           0.002893850   -0.007831261    0.007835349
      3        1           0.001818330   -0.001021985   -0.000262943
      4        1           0.000573409    0.000231542    0.000660438
      5        1           0.000750735    0.000124302   -0.000571275
      6        6           0.007130076    0.009333479   -0.016803960
      7        1          -0.000256099    0.001704202    0.000549290
      8        1          -0.000212702    0.000548705   -0.002365799
      9        6          -0.014485791   -0.001665671    0.005718918
     10        1          -0.001108560   -0.002544459    0.008504596
     11        1           0.000148262   -0.000308542   -0.000811611
     12        1           0.003726636    0.001096672   -0.001748012
     13        1           0.001096167    0.000987687    0.000138216
 -------------------------------------------------------------------
 Cartesian Forces:  Max     0.016803960 RMS     0.004853468

 GradGradGradGradGradGradGradGradGradGradGradGradGradGradGradGradGradGrad
 Berny optimization.
 Using GEDIIS/GDIIS optimizer.
 FormGI is forming the generalized inverse of G from B-inverse, IUseBI=4.
 Internal  Forces:  Max     0.009228618 RMS     0.002331526
 Search for a local minimum.
 Step number   2 out of a maximum of  100
 All quantities printed in internal units (Hartrees-Bohrs-Radians)
 Mixed Optimization -- RFO/linear search
 Update second derivatives using D2CorX and points    1    2
 DE= -1.22D-02 DEPred=-1.40D-02 R= 8.75D-01
 TightC=F SS=  1.41D+00  RLast= 5.02D-01 DXNew= 5.0454D-01 1.5066D+00
 Trust test= 8.75D-01 RLast= 5.02D-01 DXMaxT set to 5.05D-01
 ITU=  1  0
 Use linear search instead of GDIIS.
     Eigenvalues ---    0.00577   0.00677   0.00677   0.02154   0.04090
     Eigenvalues ---    0.05482   0.05617   0.05740   0.07068   0.07426
     Eigenvalues ---    0.09709   0.12804   0.13050   0.15650   0.16000
     Eigenvalues ---    0.16000   0.16000   0.16000   0.16425   0.22135
     Eigenvalues ---    0.23502   0.27299   0.31139   0.31347   0.31384
     Eigenvalues ---    0.31587   0.31731   0.31877   0.31893   0.34641
     Eigenvalues ---    0.36743   0.37230   0.37531
 RFO step:  Lambda=-3.95535913D-03 EMin= 5.77345929D-03
 Quartic linear search produced a step of  0.33300.
 Iteration  1 RMS(Cart)=  0.05432445 RMS(Int)=  0.00506424
 Iteration  2 RMS(Cart)=  0.00485406 RMS(Int)=  0.00379127
 Iteration  3 RMS(Cart)=  0.00000784 RMS(Int)=  0.00379126
 Iteration  4 RMS(Cart)=  0.00000007 RMS(Int)=  0.00379126
 Variable       Old X    -DE/DX   Delta X   Delta X   Delta X     New X
                                 (Linear)    (Quad)   (Total)
    R1        2.88451  -0.00108   0.01240  -0.01786  -0.00547   2.87904
    R2        2.06295  -0.00165  -0.01575   0.01027  -0.00548   2.05746
    R3        2.06291  -0.00085  -0.01591   0.01369  -0.00222   2.06069
    R4        2.06047  -0.00077  -0.01673   0.01492  -0.00181   2.05866
    R5        2.85275  -0.00745  -0.00292  -0.02838  -0.03130   2.82146
    R6        2.07552   0.00037  -0.01499   0.01776   0.00276   2.07829
    R7        2.07050  -0.00173  -0.01667   0.01081  -0.00586   2.06464
    R8        2.85754  -0.00923   0.00341  -0.04181  -0.03841   2.81913
    R9        2.06868  -0.00432  -0.01726   0.00064  -0.01662   2.05206
   R10        2.05574   0.00030   0.01123  -0.01106   0.00017   2.05591
   R11        2.06192   0.00341   0.01329  -0.00233   0.01096   2.07288
   R12        2.05702   0.00095   0.01166  -0.00923   0.00243   2.05945
    A1        1.95444  -0.00167   0.00939  -0.02439  -0.01507   1.93937
    A2        1.93728   0.00002   0.00183  -0.00167   0.00013   1.93741
    A3        1.93631  -0.00035   0.00153  -0.00402  -0.00253   1.93378
    A4        1.87691   0.00080  -0.00504   0.01105   0.00595   1.88287
    A5        1.87919   0.00106  -0.00425   0.01300   0.00868   1.88787
    A6        1.87642   0.00028  -0.00415   0.00807   0.00392   1.88034
    A7        1.99097  -0.00261   0.01434  -0.02825  -0.01402   1.97695
    A8        1.91451  -0.00017   0.00030  -0.00854  -0.00806   1.90645
    A9        1.91482   0.00111   0.00154   0.00736   0.00871   1.92353
   A10        1.87628   0.00171  -0.01098   0.02568   0.01462   1.89090
   A11        1.90281   0.00121   0.00318   0.01079   0.01369   1.91650
   A12        1.85960  -0.00116  -0.00964  -0.00541  -0.01512   1.84447
   A13        2.05568   0.00088   0.03590  -0.00132   0.01951   2.07519
   A14        1.97207   0.00186   0.02093   0.06370   0.06846   2.04053
   A15        1.98900   0.00079   0.02510   0.04976   0.05849   2.04749
   A16        1.95574  -0.00072   0.01502  -0.02233  -0.00748   1.94826
   A17        1.89947   0.00340  -0.00372   0.03166   0.02794   1.92741
   A18        1.94156   0.00061   0.01030  -0.00605   0.00402   1.94558
   A19        1.88706  -0.00154  -0.00785  -0.00424  -0.01203   1.87504
   A20        1.89144   0.00012  -0.00639   0.00820   0.00145   1.89289
   A21        1.88659  -0.00201  -0.00800  -0.00698  -0.01504   1.87155
    D1       -3.12076   0.00014   0.00698   0.00037   0.00735  -3.11341
    D2       -1.01502   0.00044   0.00280   0.00801   0.01087  -1.00416
    D3        1.02204  -0.00042  -0.00782   0.00078  -0.00709   1.01496
    D4       -1.02286   0.00004   0.00809  -0.00325   0.00485  -1.01801
    D5        1.08287   0.00034   0.00390   0.00439   0.00836   1.09124
    D6        3.11994  -0.00053  -0.00672  -0.00284  -0.00959   3.11035
    D7        1.06230   0.00017   0.00508   0.00315   0.00820   1.07050
    D8       -3.11515   0.00047   0.00089   0.01079   0.01171  -3.10344
    D9       -1.07808  -0.00040  -0.00973   0.00356  -0.00624  -1.08432
   D10       -3.02668   0.00174   0.03828   0.05805   0.09757  -2.92911
   D11        0.87877  -0.00281  -0.04728  -0.09786  -0.14665   0.73211
   D12        1.12958   0.00242   0.03625   0.06871   0.10648   1.23605
   D13       -1.24816  -0.00213  -0.04931  -0.08720  -0.13774  -1.38590
   D14       -0.87975   0.00227   0.05196   0.05598   0.10931  -0.77044
   D15        3.02570  -0.00228  -0.03360  -0.09993  -0.13491   2.89079
   D16        3.02360  -0.00240  -0.03916  -0.07689  -0.11704   2.90656
   D17       -1.17356  -0.00252  -0.04195  -0.07519  -0.11834  -1.29191
   D18        0.90319  -0.00248  -0.04782  -0.06740  -0.11649   0.78670
   D19       -0.88894   0.00264   0.04489   0.08603   0.13224  -0.75671
   D20        1.19708   0.00252   0.04210   0.08773   0.13093   1.32801
   D21       -3.00935   0.00256   0.03622   0.09552   0.13278  -2.87657
         Item               Value     Threshold  Converged?
 Maximum Force            0.009229     0.000450     NO 
 RMS     Force            0.002332     0.000300     NO 
 Maximum Displacement     0.164511     0.001800     NO 
 RMS     Displacement     0.054859     0.001200     NO 
 Predicted change in Energy=-2.467770D-03
 GradGradGradGradGradGradGradGradGradGradGradGradGradGradGradGradGradGrad

                          Input orientation:                          
 ---------------------------------------------------------------------
 Center     Atomic      Atomic             Coordinates (Angstroms)
 Number     Number       Type             X           Y           Z
 ---------------------------------------------------------------------
      1          6           0       -1.425959    0.502679    0.020126
      2          6           0        0.095352    0.552712   -0.044974
      3          1           0       -1.848408    1.503189    0.097089
      4          1           0       -1.840123    0.032103   -0.872148
      5          1           0       -1.757448   -0.073309    0.883338
      6          6           0        0.724158   -0.793680   -0.189997
      7          1           0        0.401143    1.171513   -0.901185
      8          1           0        0.494687    1.054487    0.839584
      9          6           0        2.196775   -0.926750    0.008041
     10          1           0        0.249403   -1.486320   -0.878505
     11          1           0        2.495250   -1.968024    0.109434
     12          1           0        2.737755   -0.512032   -0.851369
     13          1           0        2.531031   -0.384387    0.892242
 ---------------------------------------------------------------------
                    Distance matrix (angstroms):
                    1          2          3          4          5
     1  C    0.000000
     2  C    1.523524   0.000000
     3  H    1.088763   2.168360   0.000000
     4  H    1.090471   2.168251   1.761698   0.000000
     5  H    1.089395   2.164840   1.764031   1.760590   0.000000
     6  C    2.519465   1.493051   3.460653   2.778990   2.798098
     7  H    2.152778   1.099782   2.483352   2.514433   3.064901
     8  H    2.159834   1.092561   2.498544   3.070282   2.519117
     9  C    3.894562   2.570525   4.719749   4.241542   4.138887
    10  H    2.751453   2.208203   3.780179   2.582976   3.021281
    11  H    4.635540   3.483886   5.560291   4.874369   4.719567
    12  H    4.373289   2.960786   5.098390   4.610150   4.838237
    13  H    4.147920   2.772916   4.834738   4.732179   4.299755
                    6          7          8          9         10
     6  C    0.000000
     7  H    2.114736   0.000000
     8  H    2.128008   1.747204   0.000000
     9  C    1.491820   2.907523   2.741144   0.000000
    10  H    1.085904   2.662257   3.076962   2.211637   0.000000
    11  H    2.146045   3.906830   3.697424   1.087943   2.500378
    12  H    2.138062   2.880375   3.216312   1.096920   2.672428
    13  H    2.145589   3.189612   2.493959   1.089815   3.091218
                   11         12         13
    11  H    0.000000
    12  H    1.761210   0.000000
    13  H    1.766911   1.760456   0.000000
 Stoichiometry    C4H9(2)
 Framework group  C1[X(C4H9)]
 Deg. of freedom    33
 Full point group                 C1      NOp   1
 Largest Abelian subgroup         C1      NOp   1
 Largest concise Abelian subgroup C1      NOp   1
                         Standard orientation:                         
 ---------------------------------------------------------------------
 Center     Atomic      Atomic             Coordinates (Angstroms)
 Number     Number       Type             X           Y           Z
 ---------------------------------------------------------------------
      1          6           0       -1.923472    0.154756   -0.096861
      2          6           0       -0.560864   -0.492448    0.116572
      3          1           0       -2.725392   -0.572980    0.015967
      4          1           0       -2.093482    0.954813    0.624341
      5          1           0       -1.994579    0.586608   -1.094473
      6          6           0        0.573582    0.472421    0.010454
      7          1           0       -0.531040   -0.953242    1.114720
      8          1           0       -0.417249   -1.312062   -0.591452
      9          6           0        1.965234   -0.057821   -0.077138
     10          1           0        0.438727    1.443039    0.478323
     11          1           0        2.669418    0.712828   -0.383480
     12          1           0        2.293932   -0.433848    0.899487
     13          1           0        2.032784   -0.886603   -0.781591
 ---------------------------------------------------------------------
 Rotational constants (GHZ):          26.4480132           3.6880871           3.4746469
 Standard basis: CC-pVTZ (5D, 7F)
 There are   275 symmetry adapted cartesian basis functions of A   symmetry.
 There are   246 symmetry adapted basis functions of A   symmetry.
   246 basis functions,   361 primitive gaussians,   275 cartesian basis functions
    17 alpha electrons       16 beta electrons
       nuclear repulsion energy       122.5863836106 Hartrees.
 NAtoms=   13 NActive=   13 NUniq=   13 SFac= 1.00D+00 NAtFMM=   60 NAOKFM=F Big=F
 Integral buffers will be    131072 words long.
 Raffenetti 2 integral format.
 Two-electron integral symmetry is turned on.
 Nuclear repulsion after empirical dispersion term =      122.5804537314 Hartrees.
 One-electron integrals computed using PRISM.
 NBasis=   246 RedAO= T EigKep=  5.68D-04  NBF=   246
 NBsUse=   246 1.00D-06 EigRej= -1.00D+00 NBFU=   246
 Initial guess from the checkpoint file:  "/localscratch/339542/Gau-95148.chk"
 B after Tr=     0.000000    0.000000   -0.000000
         Rot=    0.999994   -0.003344   -0.000077   -0.000029 Ang=  -0.38 deg.
 Initial guess <Sx>= 0.0000 <Sy>= 0.0000 <Sz>= 0.5000 <S**2>= 0.7557 S= 0.5028
 ExpMin= 1.03D-01 ExpMax= 8.24D+03 ExpMxC= 2.81D+02 IAcc=3 IRadAn=         5 AccDes= 0.00D+00
 Harris functional with IExCor=  419 and IRadAn=       5 diagonalized for initial guess.
 HarFok:  IExCor=  419 AccDes= 0.00D+00 IRadAn=         5 IDoV= 1 UseB2=F ITyADJ=14
 ICtDFT=  3500011 ScaDFX=  1.000000  1.000000  1.000000  1.000000
 FoFCou: FMM=F IPFlag=           0 FMFlag=      100000 FMFlg1=           0
         NFxFlg=           0 DoJE=T BraDBF=F KetDBF=T FulRan=T
         wScrn=  0.000000 ICntrl=       500 IOpCl=  0 I1Cent=   200000004 NGrid=           0
         NMat0=    1 NMatS0=      1 NMatT0=    0 NMatD0=    1 NMtDS0=    0 NMtDT0=    0
 Petite list used in FoFCou.
 Requested convergence on RMS density matrix=1.00D-08 within 128 cycles.
 Requested convergence on MAX density matrix=1.00D-06.
 Requested convergence on             energy=1.00D-06.
 No special actions if energy rises.
 Integral accuracy reduced to 1.0D-05 until final iterations.
 Initial convergence to 1.0D-05 achieved.  Increase integral accuracy.
 SCF Done:  E(UB2PLYPD3) =  -157.467333788     A.U. after   11 cycles
            NFock= 11  Conv=0.96D-08     -V/T= 2.0046
 <Sx>= 0.0000 <Sy>= 0.0000 <Sz>= 0.5000 <S**2>= 0.7564 S= 0.5032
 <L.S>=  0.00000000000    
 Annihilation of the first spin contaminant:
 S**2 before annihilation     0.7564,   after     0.7500
 DoSCS=T DFT=T ScalE2(SS,OS)=  0.270000  0.270000
 ExpMin= 1.03D-01 ExpMax= 8.24D+03 ExpMxC= 2.81D+02 IAcc=3 IRadAn=         5 AccDes= 0.00D+00
 HarFok:  IExCor=  205 AccDes= 0.00D+00 IRadAn=         5 IDoV=-2 UseB2=F ITyADJ=14
 ICtDFT= 12500011 ScaDFX=  1.000000  1.000000  1.000000  1.000000
 Range of M.O.s used for correlation:     5   246
 NBasis=   246 NAE=    17 NBE=    16 NFC=     4 NFV=     0
 NROrb=    242 NOA=    13 NOB=    12 NVA=   229 NVB=   230

 **** Warning!!: The largest alpha MO coefficient is  0.12785364D+02


 **** Warning!!: The largest beta MO coefficient is  0.12225165D+02

 DoSCS=T DFT=T ScalE2(SS,OS)=  0.270000  0.270000
 Fully direct method using O(ONN) memory.
 JobTyp=2 Pass  1:  I=   5 to  17 NPSUse= 40 ParTrn=T ParDer=T DoDerP=T.
 JobTyp=3 Pass  1:  I=   5 to  16 NPSUse= 40 ParTrn=T ParDer=T DoDerP=T.
 Spin components of T(2) and E(2):
     alpha-alpha T2 =       0.4075721145D-01 E2=     -0.2646578299D-01
     alpha-beta  T2 =       0.2400418769D+00 E2=     -0.1721118890D+00
     beta-beta   T2 =       0.3486562021D-01 E2=     -0.2236290616D-01
 (S**2,0)=  0.75639D+00           (S**2,1)=  0.74732D+00
 Scaling Projection term by:   0.270000
 E(PUHF)=      -0.15746972842D+03        E(PMP2)=      -0.15768846359D+03
 E2(B2PLYPD3) =    -0.2209405782D+00 E(B2PLYPD3) =    -0.15768827436630D+03
          IDoAtm=1111111111111
          Differentiating once with respect to electric field.
                with respect to dipole field.
          Differentiating once with respect to nuclear coordinates.
 Keep R1 and R2 ints in memory in canonical form, NReq=967250981.
          There are     1 degrees of freedom in the 1st order CPHF.  IDoFFX=0 NUNeed=     1.
 LinEq1:  Iter=  0 NonCon=     1 RMS=5.57D-04 Max=1.71D-02 NDo=     1
 AX will form     1 AO Fock derivatives at one time.
 LinEq1:  Iter=  1 NonCon=     1 RMS=2.00D-04 Max=2.91D-03 NDo=     1
 LinEq1:  Iter=  2 NonCon=     1 RMS=6.84D-05 Max=1.54D-03 NDo=     1
 LinEq1:  Iter=  3 NonCon=     1 RMS=1.48D-05 Max=1.68D-04 NDo=     1
 LinEq1:  Iter=  4 NonCon=     1 RMS=8.09D-06 Max=9.87D-05 NDo=     1
 LinEq1:  Iter=  5 NonCon=     1 RMS=2.42D-06 Max=3.97D-05 NDo=     1
 LinEq1:  Iter=  6 NonCon=     1 RMS=7.24D-07 Max=8.99D-06 NDo=     1
 LinEq1:  Iter=  7 NonCon=     1 RMS=2.27D-07 Max=3.32D-06 NDo=     1
 LinEq1:  Iter=  8 NonCon=     1 RMS=1.09D-07 Max=1.15D-06 NDo=     1
 LinEq1:  Iter=  9 NonCon=     1 RMS=3.64D-08 Max=4.46D-07 NDo=     1
 LinEq1:  Iter= 10 NonCon=     1 RMS=1.41D-08 Max=2.75D-07 NDo=     1
 LinEq1:  Iter= 11 NonCon=     1 RMS=3.29D-09 Max=5.21D-08 NDo=     1
 LinEq1:  Iter= 12 NonCon=     1 RMS=1.04D-09 Max=1.17D-08 NDo=     1
 LinEq1:  Iter= 13 NonCon=     1 RMS=4.13D-10 Max=6.26D-09 NDo=     1
 LinEq1:  Iter= 14 NonCon=     1 RMS=1.62D-10 Max=2.87D-09 NDo=     1
 LinEq1:  Iter= 15 NonCon=     0 RMS=4.09D-11 Max=5.52D-10 NDo=     1
 Linear equations converged to 1.000D-10 1.000D-09 after    15 iterations.
 End of Minotr F.D. properties file   721 does not exist.
 End of Minotr F.D. properties file   722 does not exist.
 End of Minotr F.D. properties file   788 does not exist.
[...]
 ! R4    R(1,5)                  1.0893         -DE/DX =    0.0                 !
 ! R5    R(2,6)                  1.4877         -DE/DX =    0.0                 !
 ! R6    R(2,7)                  1.1005         -DE/DX =    0.0                 !
 ! R7    R(2,8)                  1.0951         -DE/DX =    0.0                 !
 ! R8    R(6,9)                  1.4862         -DE/DX =    0.0                 !
 ! R9    R(6,10)                 1.0817         -DE/DX =    0.0                 !
 ! R10   R(9,11)                 1.0884         -DE/DX =    0.0                 !
 ! R11   R(9,12)                 1.0985         -DE/DX =    0.0                 !
 ! R12   R(9,13)                 1.0926         -DE/DX =    0.0                 !
 ! A1    A(2,1,3)              111.4144         -DE/DX =    0.0                 !
 ! A2    A(2,1,4)              110.7623         -DE/DX =    0.0                 !
 ! A3    A(2,1,5)              110.8243         -DE/DX =    0.0                 !
 ! A4    A(3,1,4)              107.8489         -DE/DX =    0.0                 !
 ! A5    A(3,1,5)              108.0987         -DE/DX =    0.0                 !
 ! A6    A(4,1,5)              107.7492         -DE/DX =    0.0                 !
 ! A7    A(1,2,6)              113.5945         -DE/DX =    0.0                 !
 ! A8    A(1,2,7)              109.0336         -DE/DX =    0.0                 !
 ! A9    A(1,2,8)              109.9282         -DE/DX =    0.0                 !
 ! A10   A(6,2,7)              109.7814         -DE/DX =    0.0                 !
 ! A11   A(6,2,8)              109.3748         -DE/DX =    0.0                 !
 ! A12   A(7,2,8)              104.7545         -DE/DX =    0.0                 !
 ! A13   A(2,6,9)              120.8855         -DE/DX =    0.0                 !
 ! A14   A(2,6,10)             118.3966         -DE/DX =    0.0                 !
 ! A15   A(9,6,10)             119.0843         -DE/DX =    0.0                 !
 ! A16   A(6,9,11)             112.0336         -DE/DX =    0.0                 !
 ! A17   A(6,9,12)             111.7842         -DE/DX =    0.0                 !
 ! A18   A(6,9,13)             111.3293         -DE/DX =    0.0                 !
 ! A19   A(11,9,12)            107.0761         -DE/DX =    0.0                 !
 ! A20   A(11,9,13)            108.1865         -DE/DX =    0.0                 !
 ! A21   A(12,9,13)            106.1349         -DE/DX =    0.0                 !
 ! D1    D(3,1,2,6)           -179.2687         -DE/DX =    0.0                 !
 ! D2    D(3,1,2,7)            -56.4935         -DE/DX =    0.0                 !
 ! D3    D(3,1,2,8)             57.8145         -DE/DX =    0.0                 !
 ! D4    D(4,1,2,6)            -59.2168         -DE/DX =    0.0                 !
 ! D5    D(4,1,2,7)             63.5585         -DE/DX =    0.0                 !
 ! D6    D(4,1,2,8)            177.8664         -DE/DX =    0.0                 !
 ! D7    D(5,1,2,6)             60.3215         -DE/DX =    0.0                 !
 ! D8    D(5,1,2,7)           -176.9033         -DE/DX =    0.0                 !
 ! D9    D(5,1,2,8)            -62.5953         -DE/DX =    0.0                 !
 ! D10   D(1,2,6,9)           -170.3701         -DE/DX =    0.0                 !
 ! D11   D(1,2,6,10)            24.3315         -DE/DX =    0.0                 !
 ! D12   D(7,2,6,9)             67.2671         -DE/DX =    0.0                 !
 ! D13   D(7,2,6,10)           -98.0313         -DE/DX =    0.0                 !
 ! D14   D(8,2,6,9)            -47.1497         -DE/DX =    0.0                 !
 ! D15   D(8,2,6,10)           147.5518         -DE/DX =    0.0                 !
 ! D16   D(2,6,9,11)           168.7939         -DE/DX =    0.0                 !
 ! D17   D(2,6,9,12)           -71.0153         -DE/DX =    0.0                 !
 ! D18   D(2,6,9,13)            47.496          -DE/DX =    0.0                 !
 ! D19   D(10,6,9,11)          -26.0069         -DE/DX =    0.0                 !
 ! D20   D(10,6,9,12)           94.1839         -DE/DX =    0.0                 !
 ! D21   D(10,6,9,13)         -147.3049         -DE/DX =    0.0                 !
 --------------------------------------------------------------------------------
 GradGradGradGradGradGradGradGradGradGradGradGradGradGradGradGradGradGrad


 ----------------------------------------------------------------------

 Electric dipole moment (input orientation):
 (Debye = 10**-18 statcoulomb cm , SI units = C m)
                  (au)            (Debye)         (10**-30 SI)
   Tot        0.918092D-01      0.233356D+00      0.778391D+00
   x          0.526735D-01      0.133883D+00      0.446584D+00
   y          0.570817D-01      0.145087D+00      0.483958D+00
   z         -0.489502D-01     -0.124419D+00     -0.415017D+00

 Dipole polarizability, Alpha (input orientation).
 (esu units = cm**3 , SI units = C**2 m**2 J**-1)
 Alpha(0;0):
               (au)            (10**-24 esu)      (10**-40 SI)
   iso        0.494277D+02      0.732442D+01      0.814952D+01
   aniso      0.146507D+02      0.217100D+01      0.241557D+01
   xx         0.569838D+02      0.844413D+01      0.939537D+01
   yx        -0.409642D+01     -0.607027D+00     -0.675408D+00
   yy         0.489696D+02      0.725655D+01      0.807400D+01
   zx         0.324756D+00      0.481239D-01      0.535451D-01
   zy         0.903461D+00      0.133879D+00      0.148961D+00
   zz         0.423295D+02      0.627258D+01      0.697919D+01

 ----------------------------------------------------------------------

 Dipole orientation:
     6         -2.35458260         -1.32895933         -0.94421647
     6         -0.15148124         -0.70688366          0.81058689
     1         -3.33321741         -3.03696738         -0.34499539
     1         -3.72515271          0.20832449         -0.96863529
     1         -1.69570071         -1.61296892         -2.87363700
     6          1.23228016          1.63281474          0.09349613
     1         -0.86257066         -0.53534124          2.75734241
     1          1.17254076         -2.29629166          0.87122493
     6          3.65852701          2.31061752          1.33505517
     1          0.24358390          3.05153715         -0.99668340
     1          4.61680578          3.85147863          0.36661665
     1          3.37622521          2.90914005          3.30261516
     1          4.94306419          0.69567581          1.40524990

 Electric dipole moment (dipole orientation):
 (Debye = 10**-18 statcoulomb cm , SI units = C m)
                  (au)            (Debye)         (10**-30 SI)
   Tot        0.918092D-01      0.233356D+00      0.778391D+00
   x          0.000000D+00      0.000000D+00      0.000000D+00
   y          0.000000D+00      0.000000D+00      0.000000D+00
   z          0.918092D-01      0.233356D+00      0.778391D+00

 Dipole polarizability, Alpha (dipole orientation).
 (esu units = cm**3 , SI units = C**2 m**2 J**-1)
 Alpha(0;0):
               (au)            (10**-24 esu)      (10**-40 SI)
   iso        0.494277D+02      0.732442D+01      0.814952D+01
   aniso      0.146507D+02      0.217100D+01      0.241557D+01
   xx         0.532747D+02      0.789450D+01      0.878381D+01
   yx         0.608831D+01      0.902195D+00      0.100383D+01
   yy         0.490084D+02      0.726230D+01      0.808039D+01
   zx         0.459398D+01      0.680757D+00      0.757445D+00
   zy        -0.111454D+00     -0.165157D-01     -0.183762D-01
   zz         0.459999D+02      0.681648D+01      0.758435D+01

 ----------------------------------------------------------------------
 1\1\GINC-N68\Freq\UB2PLYPD3-FC\CC-pVTZ\C4H9(2)\ROOT\01-Jun-2019\0\\#N 
 Geom=AllCheck Guess=TCheck SCRF=Check GenChk UB2PLYPD3(FC)/CC-pVTZ Fre
 q\\Title Card Required\\0,2\C,-1.4287723232,0.5051773656,-0.0112123625
 \C,0.0961155951,0.5650951105,-0.0421184357\H,-1.8638227226,1.498768340
 3,0.0845595764\H,-1.8164788461,0.0575004841,-0.9262173511\H,-1.7757094
 922,-0.0983479889,0.8266412721\C,0.7415104256,-0.767149374,-0.18947002
 77\H,0.4127731755,1.2252609824,-0.8637103749\H,0.4690571026,1.05104787
 69,0.8656848601\C,2.2101682842,-0.9256228491,-0.0261549961\H,0.1743317
 063,-1.5655690426,-0.6488318733\H,2.5040846591,-1.9720354229,0.0310582
 853\H,2.7639011972,-0.4803832495,-0.8639168356\H,2.5664589984,-0.42155
 94028,0.8753651029\\Version=ES64L-G16RevB.01\State=2-A\HF=-157.4680454
 \MP2=-157.6890888\PUHF=-157.470653\PMP2-0=-157.6892974\S2=0.757043\S2-
 1=0.7471\S2A=0.750036\RMSD=7.675e-10\RMSF=8.313e-06\ZeroPoint=0.117362
 6\Thermal=0.1236807\Dipole=0.0526735,0.0570817,-0.0489502\DipoleDeriv=
 0.0433536,-0.0039246,0.0026072,0.0378969,0.099917,0.0000775,0.0103518,
 0.0014305,0.1203809,0.0700568,0.0015536,-0.0199135,0.0465627,0.0845893
 ,-0.0415151,-0.048045,-0.0252397,0.1965784,-0.0342631,0.0686301,0.0075
 92,0.1149041,-0.1263549,-0.0192585,0.0101589,-0.0172644,0.065386,-0.00
 25686,-0.0149798,-0.0311824,-0.0559361,0.0217965,-0.0799151,-0.0819551
 ,-0.0735804,-0.094099,0.0005244,-0.0162312,0.0253342,-0.0693323,-0.001
 9121,0.0954074,0.0701028,0.0834864,-0.0644471,0.1232546,-0.0487089,0.0
 959577,-0.0647936,0.0879782,0.1177393,0.098791,0.1327347,-0.1988337,-0
 .0395584,-0.0297794,0.0637377,-0.0005814,-0.0781314,0.0891459,0.061700
 2,0.1273374,-0.0699546,-0.0408967,-0.0260434,-0.0727657,-0.0178484,-0.
 0100847,-0.0686085,-0.0665905,-0.1028008,-0.0933295,0.007655,0.0554484
 ,-0.0326976,0.0286517,0.068814,-0.0248578,0.0086545,-0.046232,0.148100
 4,-0.0652952,-0.0309397,-0.0628857,-0.0096918,-0.0505478,-0.0675739,-0
 .071018,-0.0900421,0.0712843,-0.0021207,0.0514234,-0.004041,0.0932714,
 -0.1309942,0.012176,-0.0146294,0.013983,0.0723362,-0.0664866,-0.002189
 3,0.0605061,-0.0634286,0.0232153,0.0812137,0.1091044,0.0698074,-0.0685
 923,0.0063448,-0.0042592,-0.0322489,-0.0396746,0.0117148,-0.0940308,-0
 .0866257,-0.0736199,-0.0848101\Polar=56.983844,-4.09642,48.9696421,0.3
 247563,0.9034609,42.3294813\PG=C01 [X(C4H9)]\NImag=0\\0.47314098,-0.00
 840956,0.57937152,0.00052743,0.00001498,0.57091741,-0.19375041,-0.0090
 1048,0.00216978,0.48822798,-0.00887144,-0.07970449,-0.00201229,0.01823
 055,0.49730090,0.00309244,-0.00314525,-0.07911269,0.01690131,0.0190140
 1,0.52569726,-0.08695159,0.09307147,0.00916383,-0.01220904,0.03241411,
 0.00364360,0.09625651,0.09506949,-0.27262816,-0.02164048,-0.00299765,0
 .00374884,0.00062289,-0.10385640,0.29453697,0.00932897,-0.02126422,-0.
 05030839,-0.00027500,-0.00059160,-0.00095947,-0.01022771,0.02379243,0.
 04930485,-0.07702373,-0.03611588,-0.07501898,-0.01381178,-0.01425949,-
 0.03025731,0.00409195,0.00449007,0.01177115,0.08700435,-0.03693064,-0.
 09273663,-0.09102544,-0.00070485,-0.00129699,-0.00120122,-0.01102294,-
 0.01178900,-0.02607728,0.04135469,0.09644258,-0.07632145,-0.09110786,-
 0.23655422,0.00092151,0.00099502,0.00154760,0.00000441,-0.00029935,-0.
 00188803,0.08391439,0.10105330,0.25498161,-0.07091425,-0.04370684,0.06
 142374,-0.01222044,-0.01888559,0.02737610,0.00352309,0.00639334,-0.010
 95120,0.00290713,0.00728534,-0.00851276,0.08008819,-0.04476868,-0.1300
 7534,0.11354524,-0.00034331,-0.00075152,0.00033647,-0.00962913,-0.0158
 6318,0.02387687,0.00517616,0.00819427,-0.01134386,0.04990490,0.1373124
 7,0.06266829,0.11336764,-0.20749334,-0.00049944,-0.00074603,0.00056279
 ,-0.00204323,-0.00258796,0.00306775,0.00848440,0.01618265,-0.02095195,
 -0.06883189,-0.12550704,0.22252050,-0.02064977,0.03525051,0.00294990,-
 0.11050558,0.04974914,-0.00247902,-0.00688789,0.00001917,0.00030626,0.
 00172510,0.00071228,0.00024111,0.00196113,0.00056191,-0.00017914,0.533
 65043,0.00520035,0.00084473,0.00077770,0.05531337,-0.19724436,-0.02208
 953,-0.00265705,0.00047570,-0.00010422,-0.00198384,0.00078611,-0.00027
 489,-0.00146528,0.00073958,0.00016107,0.01968027,0.53715098,0.00018093
 ,0.00092369,-0.00050040,-0.00091751,-0.02493937,-0.05560066,-0.0007704
 5,-0.00007694,0.00072068,-0.00036074,0.00080198,0.00022237,-0.00035479
 ,-0.00042753,0.00037337,0.10231553,0.13986368,0.16349498,-0.01298928,-
 0.02037315,0.02718843,-0.06298990,-0.03449912,0.04633437,0.00157383,0.
 00054519,0.00011554,0.00163478,-0.00019007,-0.00054462,-0.00717529,-0.
 00038061,-0.00020265,0.00420199,0.00821027,-0.00951800,0.07258895,-0.0
 0029597,-0.00020539,0.00088898,-0.04308553,-0.12205366,0.10977369,-0.0
 0025066,0.00047358,-0.00029335,-0.00008194,-0.00036125,0.00002764,0.00
 006006,0.00080453,-0.00015104,-0.00311902,-0.02841758,0.01810451,0.041
 94374,0.14141728,-0.00038913,0.00000369,-0.00038465,0.05208509,0.09949
 682,-0.17852796,0.00047343,-0.00026728,-0.00019368,0.00023771,-0.00012
 537,0.00080945,0.00007421,-0.00038388,0.00150755,-0.00321830,0.0011869
 1,0.00651764,-0.05608356,-0.11691050,0.19636760,-0.01270869,-0.0142705
 2,-0.02911765,-0.07602985,-0.03303015,-0.06636942,0.00128945,0.0005703
 3,-0.00003400,-0.00697025,-0.00033854,0.00056896,0.00161420,-0.0002877
 6,0.00046056,0.00540952,0.00493237,0.00976357,0.00299748,0.00314891,0.
 00758103,0.08403684,0.00013249,-0.00060006,-0.00021540,-0.03585748,-0.
 08896792,-0.09240047,-0.00006417,0.00031807,0.00039687,0.00007323,0.00
 072224,0.00001537,-0.00013878,-0.00039075,-0.00020834,-0.00987076,-0.0
 2162179,-0.02369037,0.00572206,0.00809336,0.01623349,0.03781257,0.1045
 0150,0.00095749,0.00152696,0.00204951,-0.06983270,-0.09048314,-0.21986
 394,-0.00063811,0.00033234,0.00001545,0.00068246,0.00040527,0.00161812
 ,-0.00033220,-0.00003415,0.00074276,-0.00111005,-0.00335550,0.00028671
 ,-0.00825087,-0.00970493,-0.02477181,0.07659299,0.10029636,0.23997122,
 0.00025210,0.00121095,-0.00024283,-0.01115933,0.00262526,-0.00032167,-
 0.00009567,-0.00029096,-0.00004506,-0.00008224,0.00001831,0.00006390,-
 0.00006043,0.00003716,-0.00000811,-0.22735315,0.01585629,-0.02577233,0
 .00060264,-0.00096768,-0.00026191,0.00086894,-0.00143720,-0.00017910,0
 .47623483,0.00082921,-0.00559446,-0.00059833,0.03167990,0.00165258,0.0
 0103850,0.00197378,0.00031645,-0.00003001,0.00023622,0.00002604,0.0003
 6439,0.00012406,0.00004877,-0.00026994,0.01889522,-0.08849043,-0.00884
 036,-0.00094142,0.00127101,0.00021279,-0.00007382,0.00099989,0.0003367
 5,-0.01377230,0.56966780,0.00044643,-0.00075515,0.00006976,0.00056735,
 0.00028354,0.00092012,0.00031749,-0.00018012,0.00036571,0.00006939,0.0
 0013857,0.00024673,-0.00010581,-0.00004200,0.00004889,-0.02410736,-0.0
 0877399,-0.05462297,0.00047705,-0.00073863,0.00057999,0.00127488,-0.00
 006411,0.00042163,0.01452789,0.01902125,0.50272461,0.00177611,0.000320
 32,0.00083183,0.00692294,0.01081414,0.00471294,0.00009673,-0.00012157,
 -0.00002218,0.00024539,-0.00014777,-0.00041010,0.00002827,-0.00015845,
 0.00019095,-0.13033425,-0.10694450,-0.07032132,-0.00010891,0.00085341,
 0.00002126,-0.00049878,0.00278065,0.00105942,-0.01036029,-0.02018096,-
 0.01444373,0.13682179,-0.00184985,0.00138784,0.00002188,-0.01365795,-0
 .01445994,-0.01397282,-0.00001207,0.00039973,0.00031675,0.00099168,0.0
 0010866,0.00059168,0.00041094,0.00003528,-0.00022878,-0.10667120,-0.20
 661513,-0.09915666,0.00009499,-0.00107217,0.00027010,0.00172637,-0.003
 87348,0.00070860,0.00500425,0.00503521,0.00094989,0.11254344,0.2167807
 8,-0.00066624,0.00020408,0.00034450,-0.00155047,-0.00020012,0.00382719
 ,0.00015016,0.00029286,-0.00008643,0.00020603,-0.00010632,0.00002066,0
 .00032046,-0.00002655,-0.00033801,-0.07469785,-0.10525621,-0.06804282,
 0.00002751,-0.00041039,-0.00149561,-0.00009381,-0.00158398,-0.00068288
 ,0.00054579,-0.00084900,0.00405159,0.07740912,0.10889897,0.06481050,-0
 .00013294,0.00177212,0.00013715,-0.00571253,-0.00185835,-0.00146784,-0
 .00066571,-0.00004323,0.00003304,-0.00001156,-0.00002315,-0.00009465,0
 .00000066,-0.00004862,0.00008760,-0.00933340,0.03499513,0.00098468,0.0
 0011482,0.00011183,-0.00024381,0.00011338,-0.00025810,0.00017648,-0.06
 372590,0.06498030,-0.00618975,0.00155888,-0.00080275,0.00015727,0.0721
 7855,-0.00028098,-0.00027103,0.00007148,0.00078276,0.00125157,0.000622
 98,0.00012284,0.00000107,-0.00001459,0.00007902,0.00000946,0.00002585,
 0.00005716,0.00001798,-0.00002971,-0.00026843,-0.00109788,-0.00069505,
 -0.00016516,0.00007431,0.00000291,-0.00010535,0.00027208,0.00020863,0.
 06685592,-0.29691924,0.01217117,0.00037215,0.00103499,-0.00012704,-0.0
 7328417,0.32153035,0.00003909,0.00018733,0.00050489,-0.00033259,-0.000
 59868,0.00062070,-0.00007492,-0.00000893,-0.00000479,0.00009698,-0.000
 01304,-0.00003392,-0.00005966,0.00000490,-0.00000832,0.00052032,0.0029
 6484,-0.00118203,0.00017430,-0.00042634,0.00007520,-0.00006555,0.00045
 495,0.00033232,-0.00652535,0.01241393,-0.04783372,0.00027993,0.0003503
 4,-0.00021331,0.00445932,-0.01446426,0.04672587,-0.00006212,0.00027668
 ,-0.00032993,0.00159893,-0.00103667,-0.00059984,-0.00006507,0.00015033
 ,-0.00006374,0.00003702,-0.00005910,0.00001311,0.00024188,-0.00001380,
 -0.00008819,-0.02591524,-0.01234641,0.01994744,-0.00040220,0.00145692,
 -0.00042834,-0.00020173,0.00014316,0.00012329,-0.09713140,-0.04951202,
 0.09667812,-0.00123949,0.00053378,-0.00035002,0.00396212,0.00279142,-0
 .00648054,0.11415419,0.00005245,0.00012070,0.00005636,-0.00044674,0.00
 013146,0.00016627,-0.00004150,0.00000600,-0.00000145,-0.00000875,-0.00
 001393,-0.00000702,0.00000391,-0.00006201,0.00001731,-0.00183818,0.002
 24054,-0.00430847,-0.00015988,0.00005696,0.00028346,0.00011582,0.00014
 367,0.00001100,-0.04305891,-0.08475097,0.07631165,-0.00031191,0.000237
 70,-0.00025746,-0.01552117,-0.01315285,0.02553004,0.05378089,0.0891110
 7,0.00003656,-0.00024887,0.00011184,0.00028933,-0.00007332,0.00050390,
 0.00008509,-0.00001194,-0.00002010,-0.00002377,0.00000523,0.00000098,-
 0.00009471,0.00002355,-0.00001291,0.00205883,-0.00326141,0.00764090,0.
 00038880,-0.00028978,-0.00022177,-0.00007099,0.00015196,-0.00025163,0.
 08543058,0.07680179,-0.18597528,0.00025125,0.00011590,-0.00150278,0.00
 005259,0.00046912,-0.00168056,-0.10153722,-0.08551343,0.20510869,0.000
 01358,-0.00001561,0.00031729,0.00163900,-0.00139238,-0.00056567,0.0000
 4342,0.00007191,0.00006393,0.00025385,0.00004643,0.00015619,0.00000585
 ,-0.00004976,-0.00003914,-0.01596889,-0.01879100,-0.02517701,-0.000048
 89,0.00022591,0.00015234,0.00007949,0.00096231,0.00075091,-0.06799009,
 -0.03423817,-0.06951195,-0.00490839,0.00168836,-0.00145796,0.00165363,
 0.00304283,0.00796868,0.00502311,0.00743399,0.01313366,0.08020435,0.00
 012313,0.00009077,0.00011533,0.00009740,0.00039355,0.00123447,-0.00004
 827,0.00000394,-0.00000621,0.00004883,-0.00009156,-0.00004027,-0.00004
 324,-0.00001008,0.00000016,-0.00310090,0.00124953,0.00244089,0.0001931
 6,-0.00008097,-0.00000315,-0.00020022,0.00040320,-0.00024821,-0.032081
 08,-0.10326265,-0.09832205,0.00018105,0.00100055,-0.00057882,-0.010019
 85,-0.01275081,-0.02639507,0.00383481,0.00593165,0.01183120,0.04101517
 ,0.10712288,0.00009920,0.00029296,0.00035579,0.00047334,-0.00014483,0.
 00038517,-0.00008360,0.00003249,-0.00001356,0.00019827,-0.00003832,-0.
 00001941,0.00004852,-0.00002202,-0.00001908,-0.00260024,-0.00183847,0.
 00069223,-0.00010629,0.00013016,-0.00026195,-0.00049057,0.00061368,0.0
 0013253,-0.06721178,-0.09960176,-0.22099706,0.00044062,0.00113416,-0.0
 0069260,0.00190794,0.00175849,0.00269768,-0.00688412,-0.01228826,-0.02
 370127,0.07420872,0.10997173,0.24144153\\0.00001234,-0.00000360,0.0000
 0035,-0.00001218,-0.00001266,-0.00001436,-0.00000385,0.00000887,0.0000
 0282,-0.00000055,-0.00000035,-0.00000684,-0.00000191,-0.00000580,0.000
 00560,0.00001098,0.00000922,0.00002752,0.00000230,0.00000713,-0.000004
 02,0.00000074,0.00000798,0.00000760,0.00000853,-0.00001099,-0.00001174
 ,-0.00000483,-0.00000636,-0.00001022,-0.00000778,0.00000568,0.00000095
 ,-0.00000305,0.00000093,0.00000528,-0.00000072,-0.00000004,-0.00000294
 \\\@


 OPTIMIST - A PESSIMIST WHO LACKS EXPERIENCE
 Job cpu time:       0 days 12 hours 22 minutes 19.6 seconds.
 Elapsed time:       0 days  0 hours 19 minutes  6.3 seconds.
 File lengths (MBytes):  RWF=  20900 Int=      0 D2E=      0 Chk=     11 Scr=      1
 Normal termination of Gaussian 16 at Sat Jun  1 01:18:41 2019.
