 Entering Gaussian System, Link 0=g16
 Initial command:
 /ichec/packages/gaussian/16b01/l1.exe "/localscratch/339542/Gau-6825.inp" -scrdir="/localscratch/339542/"
 Entering Link 1 = /ichec/packages/gaussian/16b01/l1.exe PID=      6829.
  
 Copyright (c) 1988-2017, Gaussian, Inc.  All Rights Reserved.
  
 This is part of the Gaussian(R) 16 program.  It is based on
 the Gaussian(R) 09 system (copyright 2009, Gaussian, Inc.),
 the Gaussian(R) 03 system (copyright 2003, Gaussian, Inc.),
 the Gaussian(R) 98 system (copyright 1998, Gaussian, Inc.),
 the Gaussian(R) 94 system (copyright 1995, Gaussian, Inc.),
 the Gaussian 92(TM) system (copyright 1992, Gaussian, Inc.),
 the Gaussian 90(TM) system (copyright 1990, Gaussian, Inc.),
 the Gaussian 88(TM) system (copyright 1988, Gaussian, Inc.),
 the Gaussian 86(TM) system (copyright 1986, Carnegie Mellon
 University), and the Gaussian 82(TM) system (copyright 1983,
 Carnegie Mellon University). Gaussian is a federally registered
 trademark of Gaussian, Inc.
  
 This software contains proprietary and confidential information,
 including trade secrets, belonging to Gaussian, Inc.
  
 This software is provided under written license and may be
 used, copied, transmitted, or stored only in accord with that
 written license.
  
 The following legend is applicable only to US Government
 contracts under FAR:
  
                    RESTRICTED RIGHTS LEGEND
  
 Use, reproduction and disclosure by the US Government is
 subject to restrictions as set forth in subparagraphs (a)
 and (c) of the Commercial Computer Software - Restricted
 Rights clause in FAR 52.227-19.
  
 Gaussian, Inc.
 340 Quinnipiac St., Bldg. 40, Wallingford CT 06492
  
  
 ---------------------------------------------------------------
 Warning -- This program may not be used in any manner that
 competes with the business of Gaussian, Inc. or will provide
 assistance to any competitor of Gaussian, Inc.  The licensee
 of this program is prohibited from giving any competitor of
 Gaussian, Inc. access to this program.  By using this program,
 the user acknowledges that Gaussian, Inc. is engaged in the
 business of creating and licensing software in the field of
 computational chemistry and represents and warrants to the
 licensee that it is not a competitor of Gaussian, Inc. and that
 it will not use this program in any manner prohibited above.
 ---------------------------------------------------------------
  

 Cite this work as:
 Gaussian 16, Revision B.01,
 M. J. Frisch, G. W. Trucks, H. B. Schlegel, G. E. Scuseria, 
 M. A. Robb, J. R. Cheeseman, G. Scalmani, V. Barone, 
 G. A. Petersson, H. Nakatsuji, X. Li, M. Caricato, A. V. Marenich, 
 J. Bloino, B. G. Janesko, R. Gomperts, B. Mennucci, H. P. Hratchian, 
 J. V. Ortiz, A. F. Izmaylov, J. L. Sonnenberg, D. Williams-Young, 
 F. Ding, F. Lipparini, F. Egidi, J. Goings, B. Peng, A. Petrone, 
 T. Henderson, D. Ranasinghe, V. G. Zakrzewski, J. Gao, N. Rega, 
 G. Zheng, W. Liang, M. Hada, M. Ehara, K. Toyota, R. Fukuda, 
 J. Hasegawa, M. Ishida, T. Nakajima, Y. Honda, O. Kitao, H. Nakai, 
 T. Vreven, K. Throssell, J. A. Montgomery, Jr., J. E. Peralta, 
 F. Ogliaro, M. J. Bearpark, J. J. Heyd, E. N. Brothers, K. N. Kudin, 
 V. N. Staroverov, T. A. Keith, R. Kobayashi, J. Normand, 
 K. Raghavachari, A. P. Rendell, J. C. Burant, S. S. Iyengar, 
 J. Tomasi, M. Cossi, J. M. Millam, M. Klene, C. Adamo, R. Cammi, 
 J. W. Ochterski, R. L. Martin, K. Morokuma, O. Farkas, 
 J. B. Foresman, and D. J. Fox, Gaussian, Inc., Wallingford CT, 2016.
 
 ******************************************
 Gaussian 16:  ES64L-G16RevB.01 20-Dec-2017
                31-May-2019 
 ******************************************
 %mem=80GB
 %nproc=40
 Will use up to   40 processors via shared memory.
 -----------------------------------------------
 # opt=maxcyc=500 freq=noraman uB2PLYPD3/cc-pvtz
 -----------------------------------------------
 1/6=500,18=20,19=15,38=1/1,3;
 2/9=110,12=2,17=6,18=5,40=1/2;
 3/5=16,6=1,11=2,25=1,30=1,71=1,74=-60,116=2/1,2,3;
 4//1;
 5/5=2,38=5/2;
 8/6=4,10=1/1;
 9/15=2,16=-3/6;
 10/5=1/2;
 6/7=2,8=2,9=2,10=2/1;
 7/12=2/1,2,3,16;
 1/6=500,18=20,19=15/3(2);
 2/9=110/2;
 99//99;
 2/9=110/2;
 3/5=16,6=1,11=2,25=1,30=1,71=1,74=-60,116=2/1,2,3;
 4/5=5,16=3,69=1/1;
 5/5=2,38=5/2;
 8/6=4,10=1/1;
 9/15=2,16=-3/6;
 10/5=1/2;
 7/12=2/1,2,3,16;
 1/6=500,18=20,19=15/3(-8);
 2/9=110/2;
 6/7=2,8=2,9=2,10=2/1;
 99/9=10/99;
 -------------------
 Title Card Required
 -------------------
 Symbolic Z-matrix:
 Charge =  0 Multiplicity = 2
 C                    -1.39579   0.50669   0. 
 C                     0.11092   0.50669   0. 
 H                    -1.7844    1.55359   0. 
 H                    -1.79031  -0.01594  -0.90484 
 H                    -1.79023  -0.01581   0.90498 
 C                     0.66852  -0.90116   0.00018 
 H                     0.48812   1.05673  -0.90244 
 H                     0.48452   1.03728   0.91549 
 C                     2.17525  -0.90113   0.00011 
 H                     0.29134  -1.45118   0.9026 
 H                     0.29128  -1.45138  -0.9021 
 H                     2.56405  -1.94793   0.00026 
 H                     2.56956  -0.3785   -0.90484 
 

 GradGradGradGradGradGradGradGradGradGradGradGradGradGradGradGradGradGrad
 Berny optimization.
 Initialization pass.
                           ----------------------------
                           !    Initial Parameters    !
                           ! (Angstroms and Degrees)  !
 --------------------------                            --------------------------
 ! Name  Definition              Value          Derivative Info.                !
 --------------------------------------------------------------------------------
 ! R1    R(1,2)                  1.5067         estimate D2E/DX2                !
 ! R2    R(1,3)                  1.1167         estimate D2E/DX2                !
 ! R3    R(1,4)                  1.1169         estimate D2E/DX2                !
 ! R4    R(1,5)                  1.1169         estimate D2E/DX2                !
 ! R5    R(2,6)                  1.5142         estimate D2E/DX2                !
 ! R6    R(2,7)                  1.1221         estimate D2E/DX2                !
 ! R7    R(2,8)                  1.1221         estimate D2E/DX2                !
 ! R8    R(6,9)                  1.5067         estimate D2E/DX2                !
 ! R9    R(6,10)                 1.1221         estimate D2E/DX2                !
 ! R10   R(6,11)                 1.1221         estimate D2E/DX2                !
 ! R11   R(9,12)                 1.1167         estimate D2E/DX2                !
 ! R12   R(9,13)                 1.1169         estimate D2E/DX2                !
 ! A1    A(2,1,3)              110.3651         estimate D2E/DX2                !
 ! A2    A(2,1,4)              110.684          estimate D2E/DX2                !
 ! A3    A(2,1,5)              110.6793         estimate D2E/DX2                !
 ! A4    A(3,1,4)              108.4063         estimate D2E/DX2                !
 ! A5    A(3,1,5)              108.4007         estimate D2E/DX2                !
 ! A6    A(4,1,5)              108.2253         estimate D2E/DX2                !
 ! A7    A(1,2,6)              111.6065         estimate D2E/DX2                !
 ! A8    A(1,2,7)              109.6417         estimate D2E/DX2                !
 ! A9    A(1,2,8)              109.4465         estimate D2E/DX2                !
 ! A10   A(6,2,7)              109.3929         estimate D2E/DX2                !
 ! A11   A(6,2,8)              108.4766         estimate D2E/DX2                !
 ! A12   A(7,2,8)              108.2056         estimate D2E/DX2                !
 ! A13   A(2,6,9)              111.6054         estimate D2E/DX2                !
 ! A14   A(2,6,10)             109.3931         estimate D2E/DX2                !
 ! A15   A(2,6,11)             109.3904         estimate D2E/DX2                !
 ! A16   A(9,6,10)             109.6438         estimate D2E/DX2                !
 ! A17   A(9,6,11)             109.643          estimate D2E/DX2                !
 ! A18   A(10,6,11)            107.0555         estimate D2E/DX2                !
 ! A19   A(6,9,12)             110.375          estimate D2E/DX2                !
 ! A20   A(6,9,13)             110.6752         estimate D2E/DX2                !
 ! A21   A(12,9,13)            108.4103         estimate D2E/DX2                !
 ! D1    D(3,1,2,6)            179.9928         estimate D2E/DX2                !
 ! D2    D(3,1,2,7)            -58.6375         estimate D2E/DX2                !
 ! D3    D(3,1,2,8)             59.905          estimate D2E/DX2                !
 ! D4    D(4,1,2,6)            -59.9967         estimate D2E/DX2                !
 ! D5    D(4,1,2,7)             61.373          estimate D2E/DX2                !
 ! D6    D(4,1,2,8)            179.9156         estimate D2E/DX2                !
 ! D7    D(5,1,2,6)             59.9922         estimate D2E/DX2                !
 ! D8    D(5,1,2,7)           -178.6381         estimate D2E/DX2                !
 ! D9    D(5,1,2,8)            -60.0955         estimate D2E/DX2                !
 ! D10   D(1,2,6,9)            179.9973         estimate D2E/DX2                !
 ! D11   D(1,2,6,10)           -58.4866         estimate D2E/DX2                !
 ! D12   D(1,2,6,11)            58.4842         estimate D2E/DX2                !
 ! D13   D(7,2,6,9)             58.4834         estimate D2E/DX2                !
 ! D14   D(7,2,6,10)           179.9995         estimate D2E/DX2                !
 ! D15   D(7,2,6,11)           -63.0297         estimate D2E/DX2                !
 ! D16   D(8,2,6,9)            -59.3463         estimate D2E/DX2                !
 ! D17   D(8,2,6,10)            62.1698         estimate D2E/DX2                !
 ! D18   D(8,2,6,11)           179.1406         estimate D2E/DX2                !
 ! D19   D(2,6,9,12)           179.9991         estimate D2E/DX2                !
 ! D20   D(2,6,9,13)           -59.9846         estimate D2E/DX2                !
 ! D21   D(10,6,9,12)           58.6285         estimate D2E/DX2                !
 ! D22   D(10,6,9,13)          178.6448         estimate D2E/DX2                !
 ! D23   D(11,6,9,12)          -58.6342         estimate D2E/DX2                !
 ! D24   D(11,6,9,13)           61.3821         estimate D2E/DX2                !
 --------------------------------------------------------------------------------
 Trust Radius=3.00D-01 FncErr=1.00D-07 GrdErr=1.00D-07 EigMax=2.50D+02 EigMin=1.00D-04
 Number of steps in this run=    100 maximum allowed number of steps=    100.
 GradGradGradGradGradGradGradGradGradGradGradGradGradGradGradGradGradGrad

                          Input orientation:                          
 ---------------------------------------------------------------------
 Center     Atomic      Atomic             Coordinates (Angstroms)
 Number     Number       Type             X           Y           Z
 ---------------------------------------------------------------------
      1          6           0       -1.395793    0.506692    0.000000
      2          6           0        0.110925    0.506692    0.000000
      3          1           0       -1.784404    1.553585    0.000000
      4          1           0       -1.790306   -0.015941   -0.904842
      5          1           0       -1.790228   -0.015807    0.904976
      6          6           0        0.668516   -0.901159    0.000178
      7          1           0        0.488119    1.056730   -0.902436
      8          1           0        0.484518    1.037277    0.915492
      9          6           0        2.175250   -0.901131    0.000113
     10          1           0        0.291341   -1.451183    0.902596
     11          1           0        0.291277   -1.451384   -0.902097
     12          1           0        2.564052   -1.947927    0.000262
     13          1           0        2.569561   -0.378505   -0.904843
 ---------------------------------------------------------------------
                    Distance matrix (angstroms):
                    1          2          3          4          5
     1  C    0.000000
     2  C    1.506718   0.000000
     3  H    1.116693   2.165238   0.000000
     4  H    1.116926   2.169462   1.811680   0.000000
     5  H    1.116945   2.169417   1.811631   1.809818   0.000000
     6  C    2.498683   1.514250   3.470243   2.765588   2.765489
     7  H    2.160106   1.122144   2.495119   2.518303   3.099668
     8  H    2.157595   1.122149   2.500541   3.098017   2.506704
     9  C    3.838530   2.498680   4.658808   4.162708   4.162642
    10  H    2.737586   2.163447   3.761918   3.108055   2.528486
    11  H    2.737525   2.163416   3.761924   2.528536   3.107902
    12  H    4.658919   3.470301   5.582979   4.848940   4.848850
    13  H    4.162493   2.765358   4.848580   4.374916   4.734422
                    6          7          8          9         10
     6  C    0.000000
     7  H    2.163466   0.000000
     8  H    2.151555   1.818036   0.000000
     9  C    1.506734   2.737558   2.730187   0.000000
    10  H    1.122117   3.096206   2.495980   2.160126   0.000000
    11  H    1.122122   2.515826   3.087783   2.160119   1.804693
    12  H    2.165359   3.761958   3.751473   1.116669   2.495231
    13  H    2.169378   2.528301   3.108933   1.116944   3.099639
                   11         12         13
    11  H    0.000000
    12  H    2.495258   0.000000
    13  H    2.518264   1.811720   0.000000
 Stoichiometry    C4H9(2)
 Framework group  C1[X(C4H9)]
 Deg. of freedom    33
 Full point group                 C1      NOp   1
 Largest Abelian subgroup         C1      NOp   1
 Largest concise Abelian subgroup C1      NOp   1
                         Standard orientation:                         
 ---------------------------------------------------------------------
 Center     Atomic      Atomic             Coordinates (Angstroms)
 Number     Number       Type             X           Y           Z
 ---------------------------------------------------------------------
      1          6           0        1.850382   -0.140973    0.041417
      2          6           0        0.503741    0.523644   -0.081227
      3          1           0        2.666440    0.617504   -0.034518
      4          1           0        1.944568   -0.663147    1.024264
      5          1           0        1.993383   -0.895153   -0.769958
      6          6           0       -0.624954   -0.480935    0.017866
      7          1           0        0.388548    1.294355    0.726203
      8          1           0        0.432101    1.042287   -1.073746
      9          6           0       -1.971598    0.183722   -0.104718
     10          1           0       -0.509772   -1.251623   -0.789550
     11          1           0       -0.558492   -1.020327    0.999597
     12          1           0       -2.787779   -0.574603   -0.028956
     13          1           0       -2.114431    0.937958    0.706634
 ---------------------------------------------------------------------
 Rotational constants (GHZ):          24.4519914           3.9068018           3.6444113
 Standard basis: CC-pVTZ (5D, 7F)
 There are   275 symmetry adapted cartesian basis functions of A   symmetry.
 There are   246 symmetry adapted basis functions of A   symmetry.
   246 basis functions,   361 primitive gaussians,   275 cartesian basis functions
    17 alpha electrons       16 beta electrons
       nuclear repulsion energy       123.1281880244 Hartrees.
 NAtoms=   13 NActive=   13 NUniq=   13 SFac= 1.00D+00 NAtFMM=   60 NAOKFM=F Big=F
 Integral buffers will be    131072 words long.
 Raffenetti 2 integral format.
 Two-electron integral symmetry is turned on.
 Nuclear repulsion after empirical dispersion term =      123.1221048659 Hartrees.
 One-electron integrals computed using PRISM.
 NBasis=   246 RedAO= T EigKep=  5.82D-04  NBF=   246
 NBsUse=   246 1.00D-06 EigRej= -1.00D+00 NBFU=   246
 ExpMin= 1.03D-01 ExpMax= 8.24D+03 ExpMxC= 2.81D+02 IAcc=3 IRadAn=         5 AccDes= 0.00D+00
 Harris functional with IExCor=  419 and IRadAn=       5 diagonalized for initial guess.
 HarFok:  IExCor=  419 AccDes= 0.00D+00 IRadAn=         5 IDoV= 1 UseB2=F ITyADJ=14
 ICtDFT=  3500011 ScaDFX=  1.000000  1.000000  1.000000  1.000000
 FoFCou: FMM=F IPFlag=           0 FMFlag=      100000 FMFlg1=           0
         NFxFlg=           0 DoJE=T BraDBF=F KetDBF=T FulRan=T
         wScrn=  0.000000 ICntrl=       500 IOpCl=  0 I1Cent=   200000004 NGrid=           0
         NMat0=    1 NMatS0=      1 NMatT0=    0 NMatD0=    1 NMtDS0=    0 NMtDT0=    0
 Petite list used in FoFCou.
 Initial guess <Sx>= 0.0000 <Sy>= 0.0000 <Sz>= 0.5000 <S**2>= 0.7500 S= 0.5000
 Requested convergence on RMS density matrix=1.00D-08 within 128 cycles.
 Requested convergence on MAX density matrix=1.00D-06.
 Requested convergence on             energy=1.00D-06.
 No special actions if energy rises.
 Integral accuracy reduced to 1.0D-05 until final iterations.
 Initial convergence to 1.0D-05 achieved.  Increase integral accuracy.
 SCF Done:  E(UB2PLYPD3) =  -157.445925086     A.U. after   13 cycles
            NFock= 13  Conv=0.93D-08     -V/T= 2.0064
 <Sx>= 0.0000 <Sy>= 0.0000 <Sz>= 0.5000 <S**2>= 0.7547 S= 0.5024
 <L.S>=  0.00000000000    
 Annihilation of the first spin contaminant:
 S**2 before annihilation     0.7547,   after     0.7500
 DoSCS=T DFT=T ScalE2(SS,OS)=  0.270000  0.270000
 ExpMin= 1.03D-01 ExpMax= 8.24D+03 ExpMxC= 2.81D+02 IAcc=3 IRadAn=         5 AccDes= 0.00D+00
 HarFok:  IExCor=  205 AccDes= 0.00D+00 IRadAn=         5 IDoV=-2 UseB2=F ITyADJ=14
 ICtDFT= 12500011 ScaDFX=  1.000000  1.000000  1.000000  1.000000
 Range of M.O.s used for correlation:     5   246
 NBasis=   246 NAE=    17 NBE=    16 NFC=     4 NFV=     0
 NROrb=    242 NOA=    13 NOB=    12 NVA=   229 NVB=   230

 **** Warning!!: The largest alpha MO coefficient is  0.13900792D+02


 **** Warning!!: The largest beta MO coefficient is  0.13518729D+02

 DoSCS=T DFT=T ScalE2(SS,OS)=  0.270000  0.270000
 Fully direct method using O(ONN) memory.
 JobTyp=2 Pass  1:  I=   5 to  17 NPSUse= 40 ParTrn=T ParDer=T DoDerP=T.
 JobTyp=3 Pass  1:  I=   5 to  16 NPSUse= 40 ParTrn=T ParDer=T DoDerP=T.
 Spin components of T(2) and E(2):
     alpha-alpha T2 =       0.4138297361D-01 E2=     -0.2647538978D-01
     alpha-beta  T2 =       0.2467862872D+00 E2=     -0.1731162128D+00
     beta-beta   T2 =       0.3533056157D-01 E2=     -0.2239710916D-01
 (S**2,0)=  0.75473D+00           (S**2,1)=  0.74814D+00
 Scaling Projection term by:   0.270000
 E(PUHF)=      -0.15744771365D+03        E(PMP2)=      -0.15766806085D+03
 E2(B2PLYPD3) =    -0.2219887117D+00 E(B2PLYPD3) =    -0.15766791379759D+03
          IDoAtm=1111111111111
          Differentiating once with respect to electric field.
                with respect to dipole field.
          Differentiating once with respect to nuclear coordinates.
 Keep R1 and R2 ints in memory in canonical form, NReq=967250981.
          There are     1 degrees of freedom in the 1st order CPHF.  IDoFFX=0 NUNeed=     1.
 LinEq1:  Iter=  0 NonCon=     1 RMS=5.41D-04 Max=1.57D-02 NDo=     1
 AX will form     1 AO Fock derivatives at one time.
 LinEq1:  Iter=  1 NonCon=     1 RMS=2.10D-04 Max=2.85D-03 NDo=     1
 LinEq1:  Iter=  2 NonCon=     1 RMS=7.06D-05 Max=1.64D-03 NDo=     1
 LinEq1:  Iter=  3 NonCon=     1 RMS=2.28D-05 Max=3.26D-04 NDo=     1
 LinEq1:  Iter=  4 NonCon=     1 RMS=1.10D-05 Max=1.40D-04 NDo=     1
 LinEq1:  Iter=  5 NonCon=     1 RMS=2.97D-06 Max=5.00D-05 NDo=     1
 LinEq1:  Iter=  6 NonCon=     1 RMS=8.70D-07 Max=1.18D-05 NDo=     1
 LinEq1:  Iter=  7 NonCon=     1 RMS=2.25D-07 Max=3.02D-06 NDo=     1
 LinEq1:  Iter=  8 NonCon=     1 RMS=8.98D-08 Max=1.11D-06 NDo=     1
 LinEq1:  Iter=  9 NonCon=     1 RMS=3.54D-08 Max=5.14D-07 NDo=     1
 LinEq1:  Iter= 10 NonCon=     1 RMS=1.36D-08 Max=1.80D-07 NDo=     1
 LinEq1:  Iter= 11 NonCon=     1 RMS=4.21D-09 Max=4.70D-08 NDo=     1
 LinEq1:  Iter= 12 NonCon=     1 RMS=1.50D-09 Max=2.03D-08 NDo=     1
 LinEq1:  Iter= 13 NonCon=     1 RMS=6.27D-10 Max=7.85D-09 NDo=     1
 LinEq1:  Iter= 14 NonCon=     1 RMS=2.57D-10 Max=3.06D-09 NDo=     1
 LinEq1:  Iter= 15 NonCon=     1 RMS=6.71D-11 Max=1.07D-09 NDo=     1
 LinEq1:  Iter= 16 NonCon=     0 RMS=1.71D-11 Max=2.39D-10 NDo=     1
 Linear equations converged to 1.000D-10 1.000D-09 after    16 iterations.
 End of Minotr F.D. properties file   721 does not exist.
 End of Minotr F.D. properties file   722 does not exist.
 End of Minotr F.D. properties file   788 does not exist.

 **********************************************************************

            Population analysis using the SCF Density.

 **********************************************************************

 Orbital symmetries:
 Alpha Orbitals:
       Occupied  (A) (A) (A) (A) (A) (A) (A) (A) (A) (A) (A) (A)
                 (A) (A) (A) (A) (A)
       Virtual   (A) (A) (A) (A) (A) (A) (A) (A) (A) (A) (A) (A)
                 (A) (A) (A) (A) (A) (A) (A) (A) (A) (A) (A) (A)
                 (A) (A) (A) (A) (A) (A) (A) (A) (A) (A) (A) (A)
                 (A) (A) (A) (A) (A) (A) (A) (A) (A) (A) (A) (A)
                 (A) (A) (A) (A) (A) (A) (A) (A) (A) (A) (A) (A)
                 (A) (A) (A) (A) (A) (A) (A) (A) (A) (A) (A) (A)
                 (A) (A) (A) (A) (A) (A) (A) (A) (A) (A) (A) (A)
                 (A) (A) (A) (A) (A) (A) (A) (A) (A) (A) (A) (A)
                 (A) (A) (A) (A) (A) (A) (A) (A) (A) (A) (A) (A)
                 (A) (A) (A) (A) (A) (A) (A) (A) (A) (A) (A) (A)
                 (A) (A) (A) (A) (A) (A) (A) (A) (A) (A) (A) (A)
                 (A) (A) (A) (A) (A) (A) (A) (A) (A) (A) (A) (A)
                 (A) (A) (A) (A) (A) (A) (A) (A) (A) (A) (A) (A)
                 (A) (A) (A) (A) (A) (A) (A) (A) (A) (A) (A) (A)
                 (A) (A) (A) (A) (A) (A) (A) (A) (A) (A) (A) (A)
                 (A) (A) (A) (A) (A) (A) (A) (A) (A) (A) (A) (A)
                 (A) (A) (A) (A) (A) (A) (A) (A) (A) (A) (A) (A)
                 (A) (A) (A) (A) (A) (A) (A) (A) (A) (A) (A) (A)
                 (A) (A) (A) (A) (A) (A) (A) (A) (A) (A) (A) (A)
                 (A)
 Beta  Orbitals:
       Occupied  (A) (A) (A) (A) (A) (A) (A) (A) (A) (A) (A) (A)
                 (A) (A) (A) (A)
       Virtual   (A) (A) (A) (A) (A) (A) (A) (A) (A) (A) (A) (A)
                 (A) (A) (A) (A) (A) (A) (A) (A) (A) (A) (A) (A)
                 (A) (A) (A) (A) (A) (A) (A) (A) (A) (A) (A) (A)
                 (A) (A) (A) (A) (A) (A) (A) (A) (A) (A) (A) (A)
                 (A) (A) (A) (A) (A) (A) (A) (A) (A) (A) (A) (A)
                 (A) (A) (A) (A) (A) (A) (A) (A) (A) (A) (A) (A)
                 (A) (A) (A) (A) (A) (A) (A) (A) (A) (A) (A) (A)
                 (A) (A) (A) (A) (A) (A) (A) (A) (A) (A) (A) (A)
                 (A) (A) (A) (A) (A) (A) (A) (A) (A) (A) (A) (A)
                 (A) (A) (A) (A) (A) (A) (A) (A) (A) (A) (A) (A)
                 (A) (A) (A) (A) (A) (A) (A) (A) (A) (A) (A) (A)
                 (A) (A) (A) (A) (A) (A) (A) (A) (A) (A) (A) (A)
                 (A) (A) (A) (A) (A) (A) (A) (A) (A) (A) (A) (A)
                 (A) (A) (A) (A) (A) (A) (A) (A) (A) (A) (A) (A)
                 (A) (A) (A) (A) (A) (A) (A) (A) (A) (A) (A) (A)
                 (A) (A) (A) (A) (A) (A) (A) (A) (A) (A) (A) (A)
                 (A) (A) (A) (A) (A) (A) (A) (A) (A) (A) (A) (A)
                 (A) (A) (A) (A) (A) (A) (A) (A) (A) (A) (A) (A)
                 (A) (A) (A) (A) (A) (A) (A) (A) (A) (A) (A) (A)
                 (A) (A)
 The electronic state is 2-A.
 Alpha  occ. eigenvalues --  -10.63050 -10.61592 -10.61108 -10.60634  -0.91836
 Alpha  occ. eigenvalues --   -0.83209  -0.71546  -0.65570  -0.54197  -0.49606
 Alpha  occ. eigenvalues --   -0.48973  -0.46462  -0.42499  -0.39889  -0.38821
 Alpha  occ. eigenvalues --   -0.38091  -0.29938
 Alpha virt. eigenvalues --    0.07896   0.09801   0.11125   0.12051   0.14759
 Alpha virt. eigenvalues --    0.15958   0.17221   0.17745   0.18640   0.23423
 Alpha virt. eigenvalues --    0.23949   0.27684   0.29641   0.32223   0.33901
 Alpha virt. eigenvalues --    0.35543   0.36353   0.37664   0.42609   0.43553
 Alpha virt. eigenvalues --    0.46586   0.47242   0.47748   0.50559   0.51729
 Alpha virt. eigenvalues --    0.53022   0.53532   0.53621   0.54001   0.55252
 Alpha virt. eigenvalues --    0.56063   0.56861   0.58956   0.60573   0.66053
 Alpha virt. eigenvalues --    0.70017   0.73922   0.77388   0.81421   0.83436
 Alpha virt. eigenvalues --    0.84950   0.86430   0.89761   0.93424   0.95701
 Alpha virt. eigenvalues --    0.96208   1.00274   1.01139   1.05061   1.07364
 Alpha virt. eigenvalues --    1.10317   1.13111   1.14382   1.15160   1.17767
 Alpha virt. eigenvalues --    1.18730   1.19936   1.21639   1.23480   1.24670
 Alpha virt. eigenvalues --    1.24966   1.26246   1.27940   1.31824   1.33280
 Alpha virt. eigenvalues --    1.34765   1.36696   1.38453   1.40211   1.41052
 Alpha virt. eigenvalues --    1.42660   1.44456   1.46969   1.47284   1.51335
 Alpha virt. eigenvalues --    1.54692   1.56971   1.59952   1.60895   1.62731
 Alpha virt. eigenvalues --    1.64256   1.69871   1.73491   1.75834   2.27734
 Alpha virt. eigenvalues --    2.34121   2.38315   2.40761   2.41984   2.44506
 Alpha virt. eigenvalues --    2.49310   2.49566   2.52442   2.58539   2.60538
 Alpha virt. eigenvalues --    2.61908   2.65629   2.67472   2.70113   2.71327
 Alpha virt. eigenvalues --    2.73440   2.75602   2.78489   2.80260   2.81231
 Alpha virt. eigenvalues --    2.82888   2.86939   2.87937   2.92109   2.93191
 Alpha virt. eigenvalues --    2.94983   2.98800   3.02150   3.03490   3.04386
 Alpha virt. eigenvalues --    3.06750   3.10014   3.14600   3.15212   3.16696
 Alpha virt. eigenvalues --    3.19207   3.20015   3.21228   3.21831   3.22412
 Alpha virt. eigenvalues --    3.25754   3.28010   3.28348   3.30042   3.31035
 Alpha virt. eigenvalues --    3.31951   3.35027   3.39032   3.40969   3.44367
 Alpha virt. eigenvalues --    3.44684   3.44783   3.48744   3.53801   3.54726
 Alpha virt. eigenvalues --    3.55575   3.59332   3.61632   3.63881   3.64786
 Alpha virt. eigenvalues --    3.69654   3.72404   3.75984   3.78639   3.80293
 Alpha virt. eigenvalues --    3.81141   3.84957   3.89241   3.89840   3.91554
 Alpha virt. eigenvalues --    3.92398   3.92905   3.96050   3.97350   3.99449
 Alpha virt. eigenvalues --    3.99638   4.03869   4.05686   4.06483   4.06823
 Alpha virt. eigenvalues --    4.11688   4.12742   4.15609   4.17661   4.18451
 Alpha virt. eigenvalues --    4.20455   4.21781   4.23176   4.24830   4.28430
 Alpha virt. eigenvalues --    4.30265   4.33144   4.34678   4.36548   4.38966
 Alpha virt. eigenvalues --    4.41746   4.44202   4.49147   4.51311   4.53589
 Alpha virt. eigenvalues --    4.55812   4.65432   4.72323   4.73212   4.78121
 Alpha virt. eigenvalues --    4.78330   4.82262   4.86684   4.92095   4.93947
 Alpha virt. eigenvalues --    4.95178   4.97202   4.97560   4.99613   5.01644
 Alpha virt. eigenvalues --    5.04615   5.07632   5.14157   5.17087   5.23474
 Alpha virt. eigenvalues --    5.26240   5.31968   5.34970   5.38277   5.39568
 Alpha virt. eigenvalues --    5.41321   5.44701   5.49064   5.50819   5.55378
 Alpha virt. eigenvalues --    5.60050   5.61359   5.63887   5.73476   5.77365
 Alpha virt. eigenvalues --    5.98828   6.01738   6.04061   6.05392   6.13929
 Alpha virt. eigenvalues --   11.51331  12.26026  12.94465  13.42772
  Beta  occ. eigenvalues --  -10.61662 -10.61210 -10.61079 -10.60636  -0.91150
  Beta  occ. eigenvalues --   -0.81552  -0.69765  -0.64319  -0.53586  -0.49016
  Beta  occ. eigenvalues --   -0.48418  -0.45286  -0.41899  -0.39393  -0.38465
  Beta  occ. eigenvalues --   -0.37713
  Beta virt. eigenvalues --    0.00078   0.08059   0.10087   0.11207   0.12187
  Beta virt. eigenvalues --    0.15003   0.16222   0.17382   0.18008   0.18796
  Beta virt. eigenvalues --    0.23568   0.24268   0.28196   0.30491   0.32478
  Beta virt. eigenvalues --    0.34066   0.35993   0.36944   0.40336   0.45012
  Beta virt. eigenvalues --    0.45208   0.46861   0.47506   0.48125   0.51129
  Beta virt. eigenvalues --    0.52101   0.53319   0.54124   0.54327   0.54663
  Beta virt. eigenvalues --    0.55642   0.56391   0.57537   0.59240   0.61612
  Beta virt. eigenvalues --    0.66795   0.70520   0.74424   0.77606   0.81700
  Beta virt. eigenvalues --    0.83866   0.85403   0.86902   0.90706   0.93724
  Beta virt. eigenvalues --    0.96278   0.96544   1.00709   1.02119   1.05176
  Beta virt. eigenvalues --    1.07792   1.10806   1.13329   1.15237   1.15980
  Beta virt. eigenvalues --    1.18452   1.18893   1.20492   1.22035   1.23656
  Beta virt. eigenvalues --    1.24935   1.25883   1.26536   1.28321   1.32380
  Beta virt. eigenvalues --    1.33356   1.35657   1.37118   1.38764   1.41022
  Beta virt. eigenvalues --    1.41474   1.42943   1.44893   1.47149   1.47803
  Beta virt. eigenvalues --    1.51736   1.54905   1.57680   1.60227   1.61833
  Beta virt. eigenvalues --    1.63057   1.64385   1.70335   1.73776   1.76403
  Beta virt. eigenvalues --    2.32511   2.34634   2.38925   2.41098   2.42713
  Beta virt. eigenvalues --    2.44792   2.49886   2.50863   2.52950   2.58751
  Beta virt. eigenvalues --    2.60989   2.62449   2.66005   2.68180   2.70389
  Beta virt. eigenvalues --    2.71917   2.74052   2.75989   2.79212   2.80808
  Beta virt. eigenvalues --    2.82124   2.83767   2.87501   2.88475   2.92591
  Beta virt. eigenvalues --    2.94200   2.95728   2.99220   3.02977   3.04003
  Beta virt. eigenvalues --    3.05927   3.07867   3.11389   3.15105   3.16876
  Beta virt. eigenvalues --    3.17505   3.19371   3.20658   3.21607   3.21932
  Beta virt. eigenvalues --    3.22915   3.26834   3.28764   3.28828   3.31339
  Beta virt. eigenvalues --    3.32225   3.33221   3.35461   3.40155   3.41353
  Beta virt. eigenvalues --    3.44626   3.45141   3.45539   3.49563   3.54016
  Beta virt. eigenvalues --    3.55034   3.55763   3.59863   3.62159   3.64104
  Beta virt. eigenvalues --    3.64960   3.69980   3.72640   3.76326   3.78907
  Beta virt. eigenvalues --    3.80554   3.81482   3.85400   3.89391   3.90275
  Beta virt. eigenvalues --    3.91864   3.92869   3.92972   3.96291   3.97604
  Beta virt. eigenvalues --    3.99713   3.99983   4.04207   4.06020   4.06705
  Beta virt. eigenvalues --    4.06978   4.12014   4.13082   4.15721   4.18068
  Beta virt. eigenvalues --    4.18558   4.20612   4.22047   4.23357   4.25175
  Beta virt. eigenvalues --    4.28802   4.30699   4.33343   4.34939   4.36678
  Beta virt. eigenvalues --    4.39170   4.41913   4.44454   4.49327   4.51735
  Beta virt. eigenvalues --    4.54119   4.56060   4.65644   4.72533   4.73542
  Beta virt. eigenvalues --    4.78585   4.78742   4.82704   4.87026   4.92567
  Beta virt. eigenvalues --    4.94197   4.95617   4.97413   4.97924   5.00061
  Beta virt. eigenvalues --    5.01876   5.05043   5.07921   5.14785   5.17894
  Beta virt. eigenvalues --    5.23832   5.26503   5.32083   5.35253   5.38623
  Beta virt. eigenvalues --    5.39658   5.41486   5.44801   5.49326   5.51196
  Beta virt. eigenvalues --    5.55552   5.60207   5.61558   5.64056   5.73752
  Beta virt. eigenvalues --    5.77561   5.99482   6.01953   6.04075   6.05505
  Beta virt. eigenvalues --    6.14045  11.52550  12.26335  12.94608  13.42775
          Condensed to atoms (all electrons):
               1          2          3          4          5          6
     1  C    4.845468   0.344617   0.410231   0.406238   0.407721  -0.055669
     2  C    0.344617   4.864040  -0.038445  -0.039462  -0.039010   0.349204
     3  H    0.410231  -0.038445   0.596728  -0.029750  -0.029337   0.008317
     4  H    0.406238  -0.039462  -0.029750   0.613306  -0.032637  -0.005225
     5  H    0.407721  -0.039010  -0.029337  -0.032637   0.608627  -0.005173
     6  C   -0.055669   0.349204   0.008317  -0.005225  -0.005173   4.845032
     7  H   -0.037370   0.411469  -0.005467  -0.005596   0.007885  -0.039039
     8  H   -0.036923   0.409795  -0.005059   0.007861  -0.005938  -0.038201
     9  C    0.006780  -0.057405  -0.000448   0.000019   0.000030   0.349860
    10  H   -0.004789  -0.036487  -0.000125  -0.000267   0.003726   0.405369
    11  H   -0.001626  -0.041915  -0.000057   0.003835  -0.000464   0.410619
    12  H   -0.000538   0.008457   0.000027  -0.000011  -0.000000  -0.047770
    13  H   -0.000038  -0.006721  -0.000008   0.000009  -0.000013  -0.049848
               7          8          9         10         11         12
     1  C   -0.037370  -0.036923   0.006780  -0.004789  -0.001626  -0.000538
     2  C    0.411469   0.409795  -0.057405  -0.036487  -0.041915   0.008457
     3  H   -0.005467  -0.005059  -0.000448  -0.000125  -0.000057   0.000027
     4  H   -0.005596   0.007861   0.000019  -0.000267   0.003835  -0.000011
     5  H    0.007885  -0.005938   0.000030   0.003726  -0.000464  -0.000000
     6  C   -0.039039  -0.038201   0.349860   0.405369   0.410619  -0.047770
     7  H    0.622639  -0.032961  -0.004527   0.007917  -0.006319  -0.000126
     8  H   -0.032961   0.616688  -0.001277  -0.006438   0.008723  -0.000029
     9  C   -0.004527  -0.001277   5.216682  -0.035106  -0.045057   0.405910
    10  H    0.007917  -0.006438  -0.035106   0.620164  -0.035116  -0.007186
    11  H   -0.006319   0.008723  -0.045057  -0.035116   0.624889  -0.002535
    12  H   -0.000126  -0.000029   0.405910  -0.007186  -0.002535   0.589342
    13  H    0.003955  -0.000213   0.403101   0.007752  -0.002813  -0.043578
              13
     1  C   -0.000038
     2  C   -0.006721
     3  H   -0.000008
     4  H    0.000009
     5  H   -0.000013
     6  C   -0.049848
     7  H    0.003955
     8  H   -0.000213
     9  C    0.403101
    10  H    0.007752
    11  H   -0.002813
    12  H   -0.043578
    13  H    0.597766
          Atomic-Atomic Spin Densities.
               1          2          3          4          5          6
     1  C    0.001542  -0.003601   0.000132  -0.000351   0.000362   0.000212
     2  C   -0.003601   0.016059   0.000267   0.000428  -0.000446   0.008024
     3  H    0.000132   0.000267  -0.000714  -0.000004   0.000006  -0.000129
     4  H   -0.000351   0.000428  -0.000004   0.000136   0.000063   0.000069
     5  H    0.000362  -0.000446   0.000006   0.000063  -0.000028   0.000062
     6  C    0.000212   0.008024  -0.000129   0.000069   0.000062  -0.041724
     7  H    0.000009   0.000270  -0.000020   0.000040  -0.000014   0.000538
     8  H    0.001403  -0.004119  -0.000049  -0.000054   0.000077  -0.001639
     9  C    0.000206  -0.007720  -0.000003   0.000036   0.000006  -0.039152
    10  H   -0.001066   0.004277  -0.000015   0.000009   0.000003   0.001364
    11  H    0.002400  -0.007148   0.000008  -0.000068  -0.000018   0.016864
    12  H   -0.000029   0.000242  -0.000002   0.000003  -0.000001   0.001849
    13  H   -0.000167   0.000981  -0.000001   0.000000   0.000000   0.002352
               7          8          9         10         11         12
     1  C    0.000009   0.001403   0.000206  -0.001066   0.002400  -0.000029
     2  C    0.000270  -0.004119  -0.007720   0.004277  -0.007148   0.000242
     3  H   -0.000020  -0.000049  -0.000003  -0.000015   0.000008  -0.000002
     4  H    0.000040  -0.000054   0.000036   0.000009  -0.000068   0.000003
     5  H   -0.000014   0.000077   0.000006   0.000003  -0.000018  -0.000001
     6  C    0.000538  -0.001639  -0.039152   0.001364   0.016864   0.001849
     7  H   -0.000654  -0.000011  -0.000035   0.000078  -0.000753   0.000043
     8  H   -0.000011   0.001110   0.005244  -0.000856   0.001250  -0.000173
     9  C   -0.000035   0.005244   1.088591  -0.004169  -0.027270   0.002848
    10  H    0.000078  -0.000856  -0.004169   0.012528  -0.006112   0.001447
    11  H   -0.000753   0.001250  -0.027270  -0.006112   0.080798  -0.003435
    12  H    0.000043  -0.000173   0.002848   0.001447  -0.003435  -0.030779
    13  H    0.000103  -0.000357   0.002658   0.000142  -0.003182   0.007464
              13
     1  C   -0.000167
     2  C    0.000981
     3  H   -0.000001
     4  H    0.000000
     5  H    0.000000
     6  C    0.002352
     7  H    0.000103
     8  H   -0.000357
     9  C    0.002658
    10  H    0.000142
    11  H   -0.003182
    12  H    0.007464
    13  H   -0.030209
 Mulliken charges and spin densities:
               1          2
     1  C   -0.284101   0.001052
     2  C   -0.128137   0.007516
     3  H    0.093392  -0.000524
     4  H    0.081680   0.000307
     5  H    0.084584   0.000072
     6  C   -0.127477  -0.051311
     7  H    0.077541  -0.000405
     8  H    0.083973   0.001827
     9  C   -0.238563   1.021239
    10  H    0.080586   0.007631
    11  H    0.087837   0.053335
    12  H    0.098037  -0.020523
    13  H    0.090647  -0.020216
 Sum of Mulliken charges =  -0.00000   1.00000
 Mulliken charges and spin densities with hydrogens summed into heavy atoms:
               1          2
     1  C   -0.024445   0.000906
     2  C    0.033377   0.008939
     6  C    0.040946   0.009655
     9  C   -0.049878   0.980500
 Electronic spatial extent (au):  <R**2>=            395.5982
 Charge=              0.0000 electrons
 Dipole moment (field-independent basis, Debye):
    X=              0.2339    Y=             -0.3124    Z=              0.4818  Tot=              0.6200
 Quadrupole moment (field-independent basis, Debye-Ang):
   XX=            -29.8147   YY=            -28.3314   ZZ=            -27.8752
   XY=              1.0657   XZ=             -1.2127   YZ=              0.5053
 Traceless Quadrupole moment (field-independent basis, Debye-Ang):
   XX=             -1.1410   YY=              0.3424   ZZ=              0.7986
   XY=              1.0657   XZ=             -1.2127   YZ=              0.5053
 Octapole moment (field-independent basis, Debye-Ang**2):
  XXX=              1.8701  YYY=             -0.5514  ZZZ=              1.0303  XYY=              0.6351
  XXY=             -1.3930  XXZ=              2.4596  XZZ=              1.4163  YZZ=             -0.5680
  YYZ=              0.4955  XYZ=             -0.9043
 Hexadecapole moment (field-independent basis, Debye-Ang**3):
 XXXX=           -436.7807 YYYY=            -91.5781 ZZZZ=            -56.7896 XXXY=             11.7628
 XXXZ=             -7.4491 YYYX=              2.4155 YYYZ=              1.8541 ZZZX=             -2.0580
 ZZZY=              0.1077 XXYY=            -84.6269 XXZZ=            -83.0942 YYZZ=            -22.5530
 XXYZ=              2.1130 YYXZ=             -1.6980 ZZXY=             -0.4761
 N-N= 1.231221048659D+02 E-N=-6.104545937856D+02  KE= 1.564503111673D+02
                          Isotropic Fermi Contact Couplings
        Atom                 a.u.       MegaHertz       Gauss      10(-4) cm-1
     1  C(13)             -0.00149      -1.66993      -0.59587      -0.55703
     2  C(13)              0.01037      11.65311       4.15812       3.88706
     3  H(1)              -0.00016      -0.69822      -0.24914      -0.23290
     4  H(1)               0.00025       1.11429       0.39761       0.37169
     5  H(1)               0.00009       0.38295       0.13665       0.12774
     6  C(13)             -0.01362     -15.31293      -5.46404      -5.10785
     7  H(1)              -0.00034      -1.51766      -0.54154      -0.50624
     8  H(1)              -0.00048      -2.13746      -0.76270      -0.71298
     9  C(13)              0.26699     300.14630     107.09966     100.11803
    10  H(1)               0.00501      22.41411       7.99791       7.47654
    11  H(1)               0.02763     123.48576      44.06279      41.19041
    12  H(1)              -0.00283     -12.64816      -4.51318      -4.21897
    13  H(1)              -0.00187      -8.34219      -2.97670      -2.78265
 --------------------------------------------------------
       Center         ----  Spin Dipole Couplings  ----
                      3XX-RR        3YY-RR        3ZZ-RR
 --------------------------------------------------------
     1   Atom        0.003898     -0.002828     -0.001070
     2   Atom        0.018315     -0.008543     -0.009772
     3   Atom        0.002758     -0.001340     -0.001418
     4   Atom        0.003742     -0.002122     -0.001620
     5   Atom        0.003345     -0.001610     -0.001734
     6   Atom        0.010561     -0.006171     -0.004390
     7   Atom        0.005826     -0.002669     -0.003156
     8   Atom        0.011128     -0.005289     -0.005839
     9   Atom       -0.504690     -0.190412      0.695102
    10   Atom        0.002125      0.005809     -0.007934
    11   Atom        0.002178     -0.002999      0.000820
    12   Atom        0.011392      0.002911     -0.014303
    13   Atom       -0.058092      0.025872      0.032220
 --------------------------------------------------------
                        XY            XZ            YZ
 --------------------------------------------------------
     1   Atom       -0.000543      0.001616     -0.001337
     2   Atom        0.007586      0.007280      0.002540
     3   Atom        0.000547      0.000205     -0.000176
     4   Atom       -0.000503      0.001196     -0.000628
     5   Atom       -0.001486     -0.000913      0.000127
     6   Atom       -0.024809      0.022695     -0.017690
     7   Atom        0.005510      0.005478      0.002243
     8   Atom        0.005085     -0.004668     -0.002666
     9   Atom       -0.037561      0.078091     -0.617300
    10   Atom       -0.013895     -0.004800      0.004641
    11   Atom       -0.006915      0.003310     -0.008174
    12   Atom        0.059899      0.008179     -0.017410
    13   Atom       -0.013375     -0.008261      0.036515
 --------------------------------------------------------


 ---------------------------------------------------------------------------------
              Anisotropic Spin Dipole Couplings in Principal Axis System
 ---------------------------------------------------------------------------------

       Atom             a.u.   MegaHertz   Gauss  10(-4) cm-1        Axes

              Baa    -0.0036    -0.478    -0.171    -0.159 -0.0439  0.8682  0.4943
     1 C(13)  Bbb    -0.0009    -0.125    -0.045    -0.042 -0.3266 -0.4801  0.8142
              Bcc     0.0045     0.603     0.215     0.201  0.9442 -0.1257  0.3046
 
              Baa    -0.0119    -1.594    -0.569    -0.532 -0.1036 -0.4426  0.8907
     2 C(13)  Bbb    -0.0103    -1.379    -0.492    -0.460 -0.3275  0.8608  0.3896
              Bcc     0.0222     2.974     1.061     0.992  0.9391  0.2514  0.2341
 
              Baa    -0.0016    -0.865    -0.308    -0.288 -0.1191  0.6853  0.7185
     3 H(1)   Bbb    -0.0012    -0.650    -0.232    -0.217 -0.0628  0.7170 -0.6942
              Bcc     0.0028     1.514     0.540     0.505  0.9909  0.1278  0.0423
 
              Baa    -0.0026    -1.366    -0.487    -0.456 -0.0496  0.8003  0.5975
     4 H(1)   Bbb    -0.0015    -0.800    -0.286    -0.267 -0.2329 -0.5911  0.7723
              Bcc     0.0041     2.166     0.773     0.723  0.9712 -0.1009  0.2157
 
              Baa    -0.0021    -1.116    -0.398    -0.372  0.3055  0.8150  0.4924
     5 H(1)   Bbb    -0.0018    -0.968    -0.345    -0.323  0.0022 -0.5177  0.8555
              Bcc     0.0039     2.083     0.743     0.695  0.9522 -0.2603 -0.1600
 
              Baa    -0.0243    -3.260    -1.163    -1.087  0.4436  0.8585  0.2573
     6 C(13)  Bbb    -0.0208    -2.791    -0.996    -0.931 -0.5629  0.0434  0.8254
              Bcc     0.0451     6.051     2.159     2.018  0.6974 -0.5109  0.5025
 
              Baa    -0.0059    -3.144    -1.122    -1.049 -0.5346  0.3934  0.7479
     7 H(1)   Bbb    -0.0051    -2.726    -0.973    -0.909 -0.1466  0.8284 -0.5405
              Bcc     0.0110     5.869     2.094     1.958  0.8323  0.3987  0.3852
 
              Baa    -0.0082    -4.399    -1.570    -1.467  0.0058  0.6642  0.7475
     8 H(1)   Bbb    -0.0057    -3.048    -1.088    -1.017 -0.3792  0.6932 -0.6129
              Bcc     0.0140     7.447     2.657     2.484  0.9253  0.2799 -0.2559
 
              Baa    -0.5110   -68.571   -24.468   -22.873  0.8517 -0.4420 -0.2814
     9 C(13)  Bbb    -0.5059   -67.893   -24.226   -22.647  0.5209  0.7725  0.3632
              Bcc     1.0169   136.464    48.694    45.519  0.0568 -0.4559  0.8882
 
              Baa    -0.0104    -5.543    -1.978    -1.849  0.7160  0.4650  0.5208
    10 H(1)   Bbb    -0.0092    -4.911    -1.752    -1.638 -0.2699 -0.5036  0.8207
              Bcc     0.0196    10.454     3.730     3.487 -0.6438  0.7282  0.2350
 
              Baa    -0.0106    -5.655    -2.018    -1.886  0.3127  0.8129  0.4913
    11 H(1)   Bbb    -0.0017    -0.890    -0.318    -0.297  0.7507  0.1054 -0.6522
              Bcc     0.0123     6.545     2.335     2.183  0.5820 -0.5727  0.5773
 
              Baa    -0.0602   -32.142   -11.469   -10.721 -0.6200  0.6907  0.3722
    12 H(1)   Bbb    -0.0074    -3.946    -1.408    -1.316  0.3072 -0.2227  0.9252
              Bcc     0.0676    36.088    12.877    12.038  0.7219  0.6880 -0.0741
 
              Baa    -0.0603   -32.150   -11.472   -10.724  0.9897  0.1396  0.0333
    13 H(1)   Bbb    -0.0073    -3.878    -1.384    -1.294 -0.0790  0.7236 -0.6857
              Bcc     0.0675    36.028    12.856    12.018 -0.1198  0.6759  0.7272
 

 ---------------------------------------------------------------------------------

 Calling FoFJK, ICntrl=  10002127 FMM=F ISym2X=0 I1Cent= 0 IOpClX= 1 NMat=1 NMatS=1 NMatT=0.
 ***** Axes restored to original set *****
 -------------------------------------------------------------------
 Center     Atomic                   Forces (Hartrees/Bohr)
 Number     Number              X              Y              Z
 -------------------------------------------------------------------
      1        6          -0.021495021    0.005485898   -0.000212657
      2        6           0.008647851    0.014486508    0.001650052
      3        1           0.002277202   -0.016676119   -0.000012723
      4        1           0.003830550    0.007767394    0.013490318
      5        1           0.004040618    0.007851398   -0.013730678
      6        6           0.002600977   -0.004884891    0.016259824
      7        1          -0.004015721   -0.007253607    0.015803838
      8        1          -0.004311750   -0.006219209   -0.016893949
      9        6          -0.006903639   -0.033434618   -0.047191446
     10        1           0.003692627    0.006883291   -0.015173892
     11        1           0.006421202    0.005207989    0.011686891
     12        1           0.003433505    0.018967546    0.012120423
     13        1           0.001781600    0.001818420    0.022204000
 -------------------------------------------------------------------
 Cartesian Forces:  Max     0.047191446 RMS     0.013820490

 GradGradGradGradGradGradGradGradGradGradGradGradGradGradGradGradGradGrad
 Berny optimization.
 FormGI is forming the generalized inverse of G from B-inverse, IUseBI=4.
 Internal  Forces:  Max     0.018978009 RMS     0.008427058
 Search for a local minimum.
 Step number   1 out of a maximum of  100
 All quantities printed in internal units (Hartrees-Bohrs-Radians)
 Mixed Optimization -- RFO/linear search
 Second derivative matrix not updated -- first step.
 ITU=  0
     Eigenvalues ---    0.00577   0.00677   0.00677   0.03895   0.04005
     Eigenvalues ---    0.04320   0.05094   0.05570   0.05795   0.05821
     Eigenvalues ---    0.08239   0.09239   0.12101   0.12754   0.16000
     Eigenvalues ---    0.16000   0.16000   0.16000   0.16000   0.21936
     Eigenvalues ---    0.21951   0.30927   0.31347   0.31347   0.31350
     Eigenvalues ---    0.31350   0.31681   0.31683   0.31876   0.31876
     Eigenvalues ---    0.31878   0.31902   0.31904
 RFO step:  Lambda=-2.22765547D-02 EMin= 5.77451142D-03
 Linear search not attempted -- first point.
 Iteration  1 RMS(Cart)=  0.06079231 RMS(Int)=  0.00886091
 Iteration  2 RMS(Cart)=  0.00660888 RMS(Int)=  0.00618841
 Iteration  3 RMS(Cart)=  0.00009029 RMS(Int)=  0.00618795
 Iteration  4 RMS(Cart)=  0.00000224 RMS(Int)=  0.00618795
 Iteration  5 RMS(Cart)=  0.00000006 RMS(Int)=  0.00618795
 Variable       Old X    -DE/DX   Delta X   Delta X   Delta X     New X
                                 (Linear)    (Quad)   (Total)
    R1        2.84728   0.01135   0.00000   0.03346   0.03346   2.88074
    R2        2.11024  -0.01643   0.00000  -0.04813  -0.04813   2.06211
    R3        2.11069  -0.01592   0.00000  -0.04667  -0.04667   2.06402
    R4        2.11072  -0.01622   0.00000  -0.04758  -0.04758   2.06314
    R5        2.86152   0.00912   0.00000   0.02751   0.02751   2.88903
    R6        2.12055  -0.01761   0.00000  -0.05246  -0.05246   2.06808
    R7        2.12055  -0.01816   0.00000  -0.05409  -0.05409   2.06647
    R8        2.84731  -0.00169   0.00000  -0.00498  -0.00498   2.84234
    R9        2.12049  -0.01682   0.00000  -0.05009  -0.05009   2.07041
   R10        2.12050  -0.01411   0.00000  -0.04202  -0.04202   2.07848
   R11        2.11020  -0.01658   0.00000  -0.04859  -0.04859   2.06161
   R12        2.11072  -0.01651   0.00000  -0.04841  -0.04841   2.06231
    A1        1.92623   0.00469   0.00000   0.02709   0.02694   1.95317
    A2        1.93180   0.00149   0.00000   0.00754   0.00746   1.93926
    A3        1.93172   0.00131   0.00000   0.00647   0.00640   1.93812
    A4        1.89205  -0.00297   0.00000  -0.01496  -0.01511   1.87694
    A5        1.89195  -0.00289   0.00000  -0.01459  -0.01472   1.87723
    A6        1.88889  -0.00193   0.00000  -0.01320  -0.01319   1.87570
    A7        1.94790   0.00571   0.00000   0.02985   0.02967   1.97757
    A8        1.91361  -0.00092   0.00000  -0.00069  -0.00066   1.91295
    A9        1.91020  -0.00100   0.00000   0.00248   0.00225   1.91246
   A10        1.90927  -0.00207   0.00000  -0.00981  -0.00991   1.89936
   A11        1.89327  -0.00102   0.00000   0.00121   0.00093   1.89420
   A12        1.88854  -0.00089   0.00000  -0.02472  -0.02477   1.86378
   A13        1.94788   0.00996   0.00000   0.04629   0.04604   1.99392
   A14        1.90927  -0.00267   0.00000  -0.00232  -0.00293   1.90634
   A15        1.90922  -0.00120   0.00000  -0.00389  -0.00352   1.90570
   A16        1.91365  -0.00135   0.00000   0.00687   0.00627   1.91992
   A17        1.91363  -0.00533   0.00000  -0.03278  -0.03274   1.88089
   A18        1.86847   0.00017   0.00000  -0.01681  -0.01693   1.85154
   A19        1.92641   0.01898   0.00000   0.15594   0.13289   2.05930
   A20        1.93165   0.01543   0.00000   0.13620   0.11303   2.04468
   A21        1.89212  -0.00336   0.00000   0.08113   0.05090   1.94302
    D1        3.14147   0.00038   0.00000   0.00480   0.00481  -3.13691
    D2       -1.02342   0.00091   0.00000   0.01164   0.01167  -1.01175
    D3        1.04554  -0.00133   0.00000  -0.01739  -0.01744   1.02810
    D4       -1.04714   0.00068   0.00000   0.00861   0.00866  -1.03848
    D5        1.07116   0.00122   0.00000   0.01545   0.01553   1.08669
    D6        3.14012  -0.00102   0.00000  -0.01358  -0.01359   3.12653
    D7        1.04706   0.00009   0.00000   0.00123   0.00121   1.04827
    D8       -3.11782   0.00062   0.00000   0.00807   0.00807  -3.10975
    D9       -1.04886  -0.00161   0.00000  -0.02096  -0.02104  -1.06991
   D10        3.14155  -0.00152   0.00000  -0.02154  -0.02163   3.11992
   D11       -1.02078   0.00149   0.00000   0.01588   0.01590  -1.00489
   D12        1.02074  -0.00052   0.00000  -0.00795  -0.00805   1.01269
   D13        1.02073  -0.00270   0.00000  -0.03357  -0.03356   0.98717
   D14        3.14158   0.00031   0.00000   0.00385   0.00396  -3.13764
   D15       -1.10008  -0.00170   0.00000  -0.01998  -0.01998  -1.12006
   D16       -1.03579   0.00012   0.00000   0.00094   0.00093  -1.03486
   D17        1.08507   0.00314   0.00000   0.03836   0.03845   1.12352
   D18        3.12659   0.00112   0.00000   0.01453   0.01450   3.14110
   D19        3.14158  -0.00861   0.00000  -0.12974  -0.13515   3.00643
   D20       -1.04693   0.00952   0.00000   0.16117   0.16727  -0.87966
   D21        1.02326  -0.01088   0.00000  -0.16201  -0.16789   0.85537
   D22        3.11794   0.00725   0.00000   0.12889   0.13453  -3.03071
   D23       -1.02336  -0.00718   0.00000  -0.12645  -0.13244  -1.15580
   D24        1.07132   0.01095   0.00000   0.16445   0.16998   1.24130
         Item               Value     Threshold  Converged?
 Maximum Force            0.018978     0.000450     NO 
 RMS     Force            0.008427     0.000300     NO 
 Maximum Displacement     0.184528     0.001800     NO 
 RMS     Displacement     0.058119     0.001200     NO 
 Predicted change in Energy=-1.442005D-02
 GradGradGradGradGradGradGradGradGradGradGradGradGradGradGradGradGradGrad

                          Input orientation:                          
 ---------------------------------------------------------------------
 Center     Atomic      Atomic             Coordinates (Angstroms)
 Number     Number       Type             X           Y           Z
 ---------------------------------------------------------------------
      1          6           0       -1.429684    0.532270    0.012162
      2          6           0        0.094281    0.501740   -0.009518
      3          1           0       -1.816496    1.552633    0.014564
      4          1           0       -1.845799    0.024538   -0.860778
      5          1           0       -1.819300    0.030270    0.899943
      6          6           0        0.670824   -0.914147   -0.019998
      7          1           0        0.459792    1.038393   -0.890471
      8          1           0        0.483794    1.029104    0.865679
      9          6           0        2.173056   -0.968916   -0.071136
     10          1           0        0.305597   -1.458897    0.857625
     11          1           0        0.285214   -1.455020   -0.896643
     12          1           0        2.654335   -1.940623    0.048631
     13          1           0        2.667208   -0.373404   -0.840661
 ---------------------------------------------------------------------
                    Distance matrix (angstroms):
                    1          2          3          4          5
     1  C    0.000000
     2  C    1.524425   0.000000
     3  H    1.091224   2.180830   0.000000
     4  H    1.092231   2.171698   1.761294   0.000000
     5  H    1.091769   2.170529   1.761106   1.760930   0.000000
     6  C    2.550547   1.528806   3.503278   2.814504   2.817611
     7  H    2.154304   1.094382   2.503002   2.518835   3.068575
     8  H    2.153307   1.093528   2.507949   3.068682   2.510595
     9  C    3.903874   2.547142   4.720389   4.214461   4.228507
    10  H    2.773221   2.154226   3.779331   3.127618   2.595110
    11  H    2.777791   2.156933   3.780669   2.594531   3.140507
    12  H    4.774489   3.538700   5.673828   4.994005   4.962113
    13  H    4.281598   2.841942   4.954254   4.530562   4.829225
                    6          7          8          9         10
     6  C    0.000000
     7  H    2.148178   0.000000
     8  H    2.143741   1.756338   0.000000
     9  C    1.504099   2.763308   2.779085   0.000000
    10  H    1.095612   3.052224   2.494387   2.142447   0.000000
    11  H    1.099885   2.499525   3.052226   2.117004   1.754390
    12  H    2.234431   3.817390   3.768036   1.090958   2.530435
    13  H    2.225183   2.620751   3.105789   1.091326   3.104783
                   11         12         13
    11  H    0.000000
    12  H    2.596553   0.000000
    13  H    2.616663   1.801994   0.000000
 Stoichiometry    C4H9(2)
 Framework group  C1[X(C4H9)]
 Deg. of freedom    33
 Full point group                 C1      NOp   1
 Largest Abelian subgroup         C1      NOp   1
 Largest concise Abelian subgroup C1      NOp   1
                         Standard orientation:                         
 ---------------------------------------------------------------------
 Center     Atomic      Atomic             Coordinates (Angstroms)
 Number     Number       Type             X           Y           Z
 ---------------------------------------------------------------------
      1          6           0        1.888926   -0.136797    0.038003
      2          6           0        0.518050    0.519020   -0.082295
      3          1           0        2.697073    0.592994   -0.033231
      4          1           0        1.995305   -0.653452    0.994413
      5          1           0        2.041132   -0.874894   -0.751937
      6          6           0       -0.639041   -0.474941    0.019843
      7          1           0        0.403306    1.276095    0.699589
      8          1           0        0.444353    1.040869   -1.040442
      9          6           0       -2.002714    0.153723   -0.066714
     10          1           0       -0.528358   -1.238602   -0.757933
     11          1           0       -0.575014   -1.006805    0.980451
     12          1           0       -2.868174   -0.507415   -0.130457
     13          1           0       -2.200951    1.005178    0.586522
 ---------------------------------------------------------------------
 Rotational constants (GHZ):          25.5388613           3.7736150           3.5259934
 Standard basis: CC-pVTZ (5D, 7F)
 There are   275 symmetry adapted cartesian basis functions of A   symmetry.
 There are   246 symmetry adapted basis functions of A   symmetry.
   246 basis functions,   361 primitive gaussians,   275 cartesian basis functions
    17 alpha electrons       16 beta electrons
       nuclear repulsion energy       122.8460697220 Hartrees.
 NAtoms=   13 NActive=   13 NUniq=   13 SFac= 1.00D+00 NAtFMM=   60 NAOKFM=F Big=F
 Integral buffers will be    131072 words long.
 Raffenetti 2 integral format.
 Two-electron integral symmetry is turned on.
 Nuclear repulsion after empirical dispersion term =      122.8400454708 Hartrees.
 One-electron integrals computed using PRISM.
 NBasis=   246 RedAO= T EigKep=  6.13D-04  NBF=   246
 NBsUse=   246 1.00D-06 EigRej= -1.00D+00 NBFU=   246
 Initial guess from the checkpoint file:  "/localscratch/339542/Gau-6829.chk"
 B after Tr=     0.000000   -0.000000    0.000000
         Rot=    0.999996    0.002658    0.000285   -0.000051 Ang=   0.31 deg.
 Initial guess <Sx>= 0.0000 <Sy>= 0.0000 <Sz>= 0.5000 <S**2>= 0.7546 S= 0.5023
 ExpMin= 1.03D-01 ExpMax= 8.24D+03 ExpMxC= 2.81D+02 IAcc=3 IRadAn=         5 AccDes= 0.00D+00
 Harris functional with IExCor=  419 and IRadAn=       5 diagonalized for initial guess.
 HarFok:  IExCor=  419 AccDes= 0.00D+00 IRadAn=         5 IDoV= 1 UseB2=F ITyADJ=14
 ICtDFT=  3500011 ScaDFX=  1.000000  1.000000  1.000000  1.000000
 FoFCou: FMM=F IPFlag=           0 FMFlag=      100000 FMFlg1=           0
         NFxFlg=           0 DoJE=T BraDBF=F KetDBF=T FulRan=T
         wScrn=  0.000000 ICntrl=       500 IOpCl=  0 I1Cent=   200000004 NGrid=           0
         NMat0=    1 NMatS0=      1 NMatT0=    0 NMatD0=    1 NMtDS0=    0 NMtDT0=    0
 Petite list used in FoFCou.
 Requested convergence on RMS density matrix=1.00D-08 within 128 cycles.
 Requested convergence on MAX density matrix=1.00D-06.
 Requested convergence on             energy=1.00D-06.
 No special actions if energy rises.
 Integral accuracy reduced to 1.0D-05 until final iterations.
 Initial convergence to 1.0D-05 achieved.  Increase integral accuracy.
 SCF Done:  E(UB2PLYPD3) =  -157.459972979     A.U. after   12 cycles
            NFock= 12  Conv=0.47D-08     -V/T= 2.0051
 <Sx>= 0.0000 <Sy>= 0.0000 <Sz>= 0.5000 <S**2>= 0.7554 S= 0.5027
 <L.S>=  0.00000000000    
 Annihilation of the first spin contaminant:
 S**2 before annihilation     0.7554,   after     0.7500
 DoSCS=T DFT=T ScalE2(SS,OS)=  0.270000  0.270000
 ExpMin= 1.03D-01 ExpMax= 8.24D+03 ExpMxC= 2.81D+02 IAcc=3 IRadAn=         5 AccDes= 0.00D+00
 HarFok:  IExCor=  205 AccDes= 0.00D+00 IRadAn=         5 IDoV=-2 UseB2=F ITyADJ=14
 ICtDFT= 12500011 ScaDFX=  1.000000  1.000000  1.000000  1.000000
 Range of M.O.s used for correlation:     5   246
 NBasis=   246 NAE=    17 NBE=    16 NFC=     4 NFV=     0
 NROrb=    242 NOA=    13 NOB=    12 NVA=   229 NVB=   230

 **** Warning!!: The largest alpha MO coefficient is  0.12444260D+02


 **** Warning!!: The largest beta MO coefficient is  0.12020001D+02

 DoSCS=T DFT=T ScalE2(SS,OS)=  0.270000  0.270000
 Fully direct method using O(ONN) memory.
 JobTyp=2 Pass  1:  I=   5 to  17 NPSUse= 40 ParTrn=T ParDer=T DoDerP=T.
 JobTyp=3 Pass  1:  I=   5 to  16 NPSUse= 40 ParTrn=T ParDer=T DoDerP=T.
 Spin components of T(2) and E(2):
     alpha-alpha T2 =       0.4093709665D-01 E2=     -0.2645214205D-01
     alpha-beta  T2 =       0.2410760658D+00 E2=     -0.1721483960D+00
     beta-beta   T2 =       0.3454775217D-01 E2=     -0.2217034334D-01
 (S**2,0)=  0.75540D+00           (S**2,1)=  0.74782D+00
 Scaling Projection term by:   0.270000
 E(PUHF)=      -0.15746203977D+03        E(PMP2)=      -0.15768091109D+03
 E2(B2PLYPD3) =    -0.2207708813D+00 E(B2PLYPD3) =    -0.15768074386076D+03
          IDoAtm=1111111111111
          Differentiating once with respect to electric field.
                with respect to dipole field.
          Differentiating once with respect to nuclear coordinates.
 Keep R1 and R2 ints in memory in canonical form, NReq=967250981.
          There are     1 degrees of freedom in the 1st order CPHF.  IDoFFX=0 NUNeed=     1.
 LinEq1:  Iter=  0 NonCon=     1 RMS=5.20D-04 Max=1.47D-02 NDo=     1
 AX will form     1 AO Fock derivatives at one time.
 LinEq1:  Iter=  1 NonCon=     1 RMS=1.92D-04 Max=3.26D-03 NDo=     1
 LinEq1:  Iter=  2 NonCon=     1 RMS=6.66D-05 Max=1.57D-03 NDo=     1
 LinEq1:  Iter=  3 NonCon=     1 RMS=2.05D-05 Max=2.86D-04 NDo=     1
 LinEq1:  Iter=  4 NonCon=     1 RMS=1.01D-05 Max=1.41D-04 NDo=     1
 LinEq1:  Iter=  5 NonCon=     1 RMS=2.58D-06 Max=5.69D-05 NDo=     1
 LinEq1:  Iter=  6 NonCon=     1 RMS=7.73D-07 Max=1.05D-05 NDo=     1
 LinEq1:  Iter=  7 NonCon=     1 RMS=2.68D-07 Max=3.28D-06 NDo=     1
 LinEq1:  Iter=  8 NonCon=     1 RMS=1.09D-07 Max=1.71D-06 NDo=     1
 LinEq1:  Iter=  9 NonCon=     1 RMS=3.38D-08 Max=4.26D-07 NDo=     1
 LinEq1:  Iter= 10 NonCon=     1 RMS=1.13D-08 Max=1.63D-07 NDo=     1
 LinEq1:  Iter= 11 NonCon=     1 RMS=3.24D-09 Max=3.70D-08 NDo=     1
 LinEq1:  Iter= 12 NonCon=     1 RMS=1.39D-09 Max=1.98D-08 NDo=     1
 LinEq1:  Iter= 13 NonCon=     1 RMS=5.74D-10 Max=9.33D-09 NDo=     1
 LinEq1:  Iter= 14 NonCon=     1 RMS=1.97D-10 Max=2.57D-09 NDo=     1
 LinEq1:  Iter= 15 NonCon=     0 RMS=5.20D-11 Max=4.90D-10 NDo=     1
 Linear equations converged to 1.000D-10 1.000D-09 after    15 iterations.
 End of Minotr F.D. properties file   721 does not exist.
 End of Minotr F.D. properties file   722 does not exist.
 End of Minotr F.D. properties file   788 does not exist.
 Calling FoFJK, ICntrl=  10002127 FMM=F ISym2X=0 I1Cent= 0 IOpClX= 1 NMat=1 NMatS=1 NMatT=0.
 ***** Axes restored to original set *****
 -------------------------------------------------------------------
 Center     Atomic                   Forces (Hartrees/Bohr)
 Number     Number              X              Y              Z
 -------------------------------------------------------------------
      1        6          -0.001823909   -0.001333266   -0.000359164
      2        6           0.002061405    0.001830658   -0.000348196
      3        1           0.001412796   -0.001036578    0.000049803
      4        1           0.000539420    0.000344687    0.000790781
      5        1           0.000426156    0.000241510   -0.000666990
      6        6           0.006363972    0.000203463    0.005123745
      7        1          -0.000130320   -0.000079881    0.001596633
      8        1          -0.000148122    0.000046068   -0.001790511
      9        6          -0.003440765   -0.009017648   -0.017150063
     10        1           0.000598442    0.000025404   -0.002016237
     11        1          -0.001275633    0.000172395    0.000718885
     12        1          -0.002645459    0.004859889    0.006716683
     13        1          -0.001937982    0.003743297    0.007334630
 -------------------------------------------------------------------
 Cartesian Forces:  Max     0.017150063 RMS     0.004024030

 GradGradGradGradGradGradGradGradGradGradGradGradGradGradGradGradGradGrad
 Berny optimization.
 Using GEDIIS/GDIIS optimizer.
 FormGI is forming the generalized inverse of G from B-inverse, IUseBI=4.
 Internal  Forces:  Max     0.007893879 RMS     0.002055576
 Search for a local minimum.
 Step number   2 out of a maximum of  100
 All quantities printed in internal units (Hartrees-Bohrs-Radians)
 Mixed Optimization -- RFO/linear search
 Update second derivatives using D2CorX and points    1    2
 DE= -1.28D-02 DEPred=-1.44D-02 R= 8.90D-01
 TightC=F SS=  1.41D+00  RLast= 4.55D-01 DXNew= 5.0454D-01 1.3662D+00
 Trust test= 8.90D-01 RLast= 4.55D-01 DXMaxT set to 5.05D-01
 ITU=  1  0
 Use linear search instead of GDIIS.
     Eigenvalues ---    0.00577   0.00677   0.00677   0.02665   0.03694
     Eigenvalues ---    0.04050   0.05051   0.05500   0.05619   0.05721
     Eigenvalues ---    0.08562   0.09698   0.12338   0.13094   0.15985
     Eigenvalues ---    0.16000   0.16000   0.16000   0.17174   0.21902
     Eigenvalues ---    0.22734   0.27287   0.30963   0.31347   0.31349
     Eigenvalues ---    0.31354   0.31571   0.31712   0.31849   0.31877
     Eigenvalues ---    0.31889   0.31896   0.33677
 RFO step:  Lambda=-3.39386239D-03 EMin= 5.77450875D-03
 Quartic linear search produced a step of  0.30027.
 Iteration  1 RMS(Cart)=  0.04154292 RMS(Int)=  0.00613753
 Iteration  2 RMS(Cart)=  0.00402156 RMS(Int)=  0.00478610
 Iteration  3 RMS(Cart)=  0.00003126 RMS(Int)=  0.00478601
 Iteration  4 RMS(Cart)=  0.00000036 RMS(Int)=  0.00478601
 Variable       Old X    -DE/DX   Delta X   Delta X   Delta X     New X
                                 (Linear)    (Quad)   (Total)
    R1        2.88074  -0.00059   0.01005  -0.01361  -0.00357   2.87718
    R2        2.06211  -0.00147  -0.01445   0.01007  -0.00438   2.05773
    R3        2.06402  -0.00100  -0.01401   0.01151  -0.00251   2.06151
    R4        2.06314  -0.00081  -0.01429   0.01260  -0.00169   2.06145
    R5        2.88903  -0.00087   0.00826  -0.01288  -0.00462   2.88441
    R6        2.06808  -0.00137  -0.01575   0.01184  -0.00391   2.06417
    R7        2.06647  -0.00146  -0.01624   0.01199  -0.00425   2.06221
    R8        2.84234  -0.00789  -0.00150  -0.03081  -0.03230   2.81003
    R9        2.07041  -0.00183  -0.01504   0.00914  -0.00590   2.06451
   R10        2.07848  -0.00021  -0.01262   0.01316   0.00055   2.07903
   R11        2.06161  -0.00476  -0.01459  -0.00321  -0.01780   2.04381
   R12        2.06231  -0.00401  -0.01454  -0.00021  -0.01475   2.04756
    A1        1.95317  -0.00131   0.00809  -0.02040  -0.01237   1.94081
    A2        1.93926   0.00003   0.00224  -0.00183   0.00038   1.93965
    A3        1.93812   0.00005   0.00192  -0.00148   0.00041   1.93853
    A4        1.87694   0.00064  -0.00454   0.00983   0.00524   1.88217
    A5        1.87723   0.00060  -0.00442   0.00900   0.00453   1.88175
    A6        1.87570   0.00008  -0.00396   0.00653   0.00257   1.87826
    A7        1.97757  -0.00278   0.00891  -0.02564  -0.01676   1.96081
    A8        1.91295   0.00083  -0.00020   0.00399   0.00381   1.91676
    A9        1.91246   0.00093   0.00068   0.00592   0.00657   1.91902
   A10        1.89936   0.00098  -0.00298   0.00904   0.00602   1.90537
   A11        1.89420   0.00105   0.00028   0.00785   0.00806   1.90226
   A12        1.86378  -0.00092  -0.00744   0.00031  -0.00718   1.85660
   A13        1.99392  -0.00216   0.01382  -0.02709  -0.01332   1.98060
   A14        1.90634   0.00146  -0.00088   0.01226   0.01122   1.91756
   A15        1.90570  -0.00037  -0.00106  -0.00566  -0.00655   1.89915
   A16        1.91992   0.00026   0.00188  -0.00094   0.00078   1.92070
   A17        1.88089   0.00167  -0.00983   0.02590   0.01605   1.89695
   A18        1.85154  -0.00080  -0.00508  -0.00284  -0.00795   1.84359
   A19        2.05930   0.00047   0.03990   0.01161   0.03168   2.09098
   A20        2.04468   0.00124   0.03394   0.02469   0.03878   2.08346
   A21        1.94302   0.00311   0.01528   0.08855   0.08201   2.02502
    D1       -3.13691   0.00003   0.00144  -0.00241  -0.00096  -3.13787
    D2       -1.01175  -0.00001   0.00350  -0.00546  -0.00194  -1.01369
    D3        1.02810  -0.00011  -0.00524   0.00066  -0.00459   1.02351
    D4       -1.03848  -0.00002   0.00260  -0.00504  -0.00242  -1.04090
    D5        1.08669  -0.00007   0.00466  -0.00809  -0.00340   1.08329
    D6        3.12653  -0.00016  -0.00408  -0.00197  -0.00605   3.12048
    D7        1.04827   0.00012   0.00036   0.00100   0.00135   1.04962
    D8       -3.10975   0.00008   0.00242  -0.00205   0.00037  -3.10939
    D9       -1.06991  -0.00002  -0.00632   0.00406  -0.00228  -1.07219
   D10        3.11992   0.00008  -0.00649   0.00408  -0.00241   3.11751
   D11       -1.00489  -0.00000   0.00477  -0.00715  -0.00237  -1.00726
   D12        1.01269  -0.00035  -0.00242  -0.00689  -0.00936   1.00333
   D13        0.98717   0.00018  -0.01008   0.00972  -0.00032   0.98685
   D14       -3.13764   0.00010   0.00119  -0.00152  -0.00029  -3.13792
   D15       -1.12006  -0.00024  -0.00600  -0.00126  -0.00727  -1.12733
   D16       -1.03486   0.00018   0.00028   0.00025   0.00053  -1.03433
   D17        1.12352   0.00010   0.01155  -0.01099   0.00057   1.12408
   D18        3.14110  -0.00025   0.00435  -0.01073  -0.00642   3.13468
   D19        3.00643  -0.00339  -0.04058  -0.09418  -0.13726   2.86917
   D20       -0.87966   0.00436   0.05023   0.10934   0.16234  -0.71732
   D21        0.85537  -0.00394  -0.05041  -0.08982  -0.14290   0.71247
   D22       -3.03071   0.00381   0.04040   0.11370   0.15670  -2.87401
   D23       -1.15580  -0.00406  -0.03977  -0.10029  -0.14280  -1.29860
   D24        1.24130   0.00369   0.05104   0.10323   0.15680   1.39810
         Item               Value     Threshold  Converged?
 Maximum Force            0.007894     0.000450     NO 
 RMS     Force            0.002056     0.000300     NO 
 Maximum Displacement     0.129321     0.001800     NO 
 RMS     Displacement     0.041419     0.001200     NO 
 Predicted change in Energy=-2.474188D-03
 GradGradGradGradGradGradGradGradGradGradGradGradGradGradGradGradGradGrad

                          Input orientation:                          
 ---------------------------------------------------------------------
 Center     Atomic      Atomic             Coordinates (Angstroms)
 Number     Number       Type             X           Y           Z
 ---------------------------------------------------------------------
      1          6           0       -1.416856    0.526307    0.019367
      2          6           0        0.104671    0.494566   -0.026091
      3          1           0       -1.789298    1.549503    0.027701
      4          1           0       -1.846847    0.021160   -0.846663
      5          1           0       -1.792999    0.026900    0.913301
      6          6           0        0.655154   -0.928964   -0.043907
      7          1           0        0.460016    1.027645   -0.910796
      8          1           0        0.514088    1.022882    0.836546
      9          6           0        2.138919   -0.989482   -0.121121
     10          1           0        0.303329   -1.474122    0.835044
     11          1           0        0.235095   -1.460979   -0.910448
     12          1           0        2.652146   -1.912505    0.112010
     13          1           0        2.665405   -0.304970   -0.775545
 ---------------------------------------------------------------------
                    Distance matrix (angstroms):
                    1          2          3          4          5
     1  C    0.000000
     2  C    1.522537   0.000000
     3  H    1.088905   2.168618   0.000000
     4  H    1.090905   2.169302   1.761720   0.000000
     5  H    1.090875   2.168483   1.761426   1.760796   0.000000
     6  C    2.532793   1.526364   3.481849   2.794129   2.797030
     7  H    2.153878   1.092312   2.492494   2.517686   3.066740
     8  H    2.154742   1.091276   2.497428   3.067679   2.514065
     9  C    3.867931   2.519840   4.679688   4.175420   4.190828
    10  H    2.761536   2.157951   3.764731   3.112437   2.579493
    11  H    2.746416   2.150175   3.747172   2.556420   3.106929
    12  H    4.744804   3.507520   5.631966   4.989895   4.915554
    13  H    4.241198   2.785372   4.891692   4.524581   4.779090
                    6          7          8          9         10
     6  C    0.000000
     7  H    2.148929   0.000000
     8  H    2.145880   1.748185   0.000000
     9  C    1.487005   2.740640   2.758045   0.000000
    10  H    1.092490   3.054726   2.505884   2.125680   0.000000
    11  H    1.100174   2.498768   3.049491   2.114211   1.746875
    12  H    2.231511   3.807368   3.703072   1.081538   2.496377
    13  H    2.228401   2.580291   2.998365   1.083520   3.088740
                   11         12         13
    11  H    0.000000
    12  H    2.662975   0.000000
    13  H    2.694617   1.836328   0.000000
 Stoichiometry    C4H9(2)
 Framework group  C1[X(C4H9)]
 Deg. of freedom    33
 Full point group                 C1      NOp   1
 Largest Abelian subgroup         C1      NOp   1
 Largest concise Abelian subgroup C1      NOp   1
                         Standard orientation:                         
 ---------------------------------------------------------------------
 Center     Atomic      Atomic             Coordinates (Angstroms)
 Number     Number       Type             X           Y           Z
 ---------------------------------------------------------------------
      1          6           0        1.874771   -0.136393    0.027980
      2          6           0        0.507205    0.524736   -0.075906
      3          1           0        2.674321    0.599223   -0.044830
      4          1           0        1.987518   -0.659587    0.978574
      5          1           0        2.019113   -0.866315   -0.769759
      6          6           0       -0.634146   -0.483352    0.028321
      7          1           0        0.397150    1.273831    0.711425
      8          1           0        0.423187    1.059617   -1.023391
      9          6           0       -1.982741    0.139658   -0.037491
     10          1           0       -0.532998   -1.240766   -0.752465
     11          1           0       -0.542542   -1.025754    0.981101
     12          1           0       -2.850904   -0.476631   -0.227767
     13          1           0       -2.165382    1.068492    0.489694
 ---------------------------------------------------------------------
 Rotational constants (GHZ):          25.3391526           3.8454690           3.5775941
 Standard basis: CC-pVTZ (5D, 7F)
 There are   275 symmetry adapted cartesian basis functions of A   symmetry.
 There are   246 symmetry adapted basis functions of A   symmetry.
   246 basis functions,   361 primitive gaussians,   275 cartesian basis functions
    17 alpha electrons       16 beta electrons
       nuclear repulsion energy       123.4431324677 Hartrees.
 NAtoms=   13 NActive=   13 NUniq=   13 SFac= 1.00D+00 NAtFMM=   60 NAOKFM=F Big=F
 Integral buffers will be    131072 words long.
 Raffenetti 2 integral format.
 Two-electron integral symmetry is turned on.
 Nuclear repulsion after empirical dispersion term =      123.4370774612 Hartrees.
 One-electron integrals computed using PRISM.
 NBasis=   246 RedAO= T EigKep=  5.67D-04  NBF=   246
 NBsUse=   246 1.00D-06 EigRej= -1.00D+00 NBFU=   246
 Initial guess from the checkpoint file:  "/localscratch/339542/Gau-6829.chk"
 B after Tr=    -0.000000    0.000000    0.000000
         Rot=    0.999999   -0.001315   -0.000908   -0.000413 Ang=  -0.19 deg.
 Initial guess <Sx>= 0.0000 <Sy>= 0.0000 <Sz>= 0.5000 <S**2>= 0.7554 S= 0.5027
 ExpMin= 1.03D-01 ExpMax= 8.24D+03 ExpMxC= 2.81D+02 IAcc=3 IRadAn=         5 AccDes= 0.00D+00
 Harris functional with IExCor=  419 and IRadAn=       5 diagonalized for initial guess.
 HarFok:  IExCor=  419 AccDes= 0.00D+00 IRadAn=         5 IDoV= 1 UseB2=F ITyADJ=14
 ICtDFT=  3500011 ScaDFX=  1.000000  1.000000  1.000000  1.000000
 FoFCou: FMM=F IPFlag=           0 FMFlag=      100000 FMFlg1=           0
         NFxFlg=           0 DoJE=T BraDBF=F KetDBF=T FulRan=T
         wScrn=  0.000000 ICntrl=       500 IOpCl=  0 I1Cent=   200000004 NGrid=           0
         NMat0=    1 NMatS0=      1 NMatT0=    0 NMatD0=    1 NMtDS0=    0 NMtDT0=    0
 Petite list used in FoFCou.
 Requested convergence on RMS density matrix=1.00D-08 within 128 cycles.
 Requested convergence on MAX density matrix=1.00D-06.
 Requested convergence on             energy=1.00D-06.
 No special actions if energy rises.
 Integral accuracy reduced to 1.0D-05 until final iterations.
 Initial convergence to 1.0D-05 achieved.  Increase integral accuracy.
 SCF Done:  E(UB2PLYPD3) =  -157.462719932     A.U. after   12 cycles
            NFock= 12  Conv=0.54D-08     -V/T= 2.0046
 <Sx>= 0.0000 <Sy>= 0.0000 <Sz>= 0.5000 <S**2>= 0.7561 S= 0.5030
 <L.S>=  0.00000000000    
 Annihilation of the first spin contaminant:
 S**2 before annihilation     0.7561,   after     0.7500
 DoSCS=T DFT=T ScalE2(SS,OS)=  0.270000  0.270000
 ExpMin= 1.03D-01 ExpMax= 8.24D+03 ExpMxC= 2.81D+02 IAcc=3 IRadAn=         5 AccDes= 0.00D+00
 HarFok:  IExCor=  205 AccDes= 0.00D+00 IRadAn=         5 IDoV=-2 UseB2=F ITyADJ=14
 ICtDFT= 12500011 ScaDFX=  1.000000  1.000000  1.000000  1.000000
 Range of M.O.s used for correlation:     5   246
 NBasis=   246 NAE=    17 NBE=    16 NFC=     4 NFV=     0
 NROrb=    242 NOA=    13 NOB=    12 NVA=   229 NVB=   230

 **** Warning!!: The largest alpha MO coefficient is  0.12508150D+02


 **** Warning!!: The largest beta MO coefficient is  0.12548934D+02

 DoSCS=T DFT=T ScalE2(SS,OS)=  0.270000  0.270000
 Fully direct method using O(ONN) memory.
 JobTyp=2 Pass  1:  I=   5 to  17 NPSUse= 40 ParTrn=T ParDer=T DoDerP=T.
 JobTyp=3 Pass  1:  I=   5 to  16 NPSUse= 40 ParTrn=T ParDer=T DoDerP=T.
 Spin components of T(2) and E(2):
     alpha-alpha T2 =       0.4092415433D-01 E2=     -0.2654241599D-01
     alpha-beta  T2 =       0.2398330025D+00 E2=     -0.1720615794D+00
     beta-beta   T2 =       0.3437893027D-01 E2=     -0.2215196941D-01
 (S**2,0)=  0.75605D+00           (S**2,1)=  0.74754D+00
 Scaling Projection term by:   0.270000
 E(PUHF)=      -0.15746502653D+03        E(PMP2)=      -0.15768366197D+03
 E2(B2PLYPD3) =    -0.2207559648D+00 E(B2PLYPD3) =    -0.15768347589636D+03
          IDoAtm=1111111111111
          Differentiating once with respect to electric field.
                with respect to dipole field.
          Differentiating once with respect to nuclear coordinates.
 Keep R1 and R2 ints in memory in canonical form, NReq=967250981.
          There are     1 degrees of freedom in the 1st order CPHF.  IDoFFX=0 NUNeed=     1.
 LinEq1:  Iter=  0 NonCon=     1 RMS=5.19D-04 Max=1.44D-02 NDo=     1
 AX will form     1 AO Fock derivatives at one time.
 LinEq1:  Iter=  1 NonCon=     1 RMS=1.90D-04 Max=3.78D-03 NDo=     1
 LinEq1:  Iter=  2 NonCon=     1 RMS=6.72D-05 Max=1.55D-03 NDo=     1
 LinEq1:  Iter=  3 NonCon=     1 RMS=2.03D-05 Max=2.98D-04 NDo=     1
 LinEq1:  Iter=  4 NonCon=     1 RMS=1.00D-05 Max=1.69D-04 NDo=     1
 LinEq1:  Iter=  5 NonCon=     1 RMS=2.54D-06 Max=5.73D-05 NDo=     1
 LinEq1:  Iter=  6 NonCon=     1 RMS=7.80D-07 Max=1.19D-05 NDo=     1
 LinEq1:  Iter=  7 NonCon=     1 RMS=2.87D-07 Max=3.17D-06 NDo=     1
[...]
 ! R9    R(6,10)                 1.0939         -DE/DX =    0.0                 !
 ! R10   R(6,11)                 1.1005         -DE/DX =    0.0                 !
 ! R11   R(9,12)                 1.0786         -DE/DX =    0.0                 !
 ! R12   R(9,13)                 1.0797         -DE/DX =    0.0                 !
 ! A1    A(2,1,3)              111.501          -DE/DX =    0.0                 !
 ! A2    A(2,1,4)              111.0044         -DE/DX =    0.0                 !
 ! A3    A(2,1,5)              110.9888         -DE/DX =    0.0                 !
 ! A4    A(3,1,4)              107.8114         -DE/DX =    0.0                 !
 ! A5    A(3,1,5)              107.762          -DE/DX =    0.0                 !
 ! A6    A(4,1,5)              107.6028         -DE/DX =    0.0                 !
 ! A7    A(1,2,6)              112.7134         -DE/DX =    0.0                 !
 ! A8    A(1,2,7)              109.7497         -DE/DX =    0.0                 !
 ! A9    A(1,2,8)              109.8903         -DE/DX =    0.0                 !
 ! A10   A(6,2,7)              108.8942         -DE/DX =    0.0                 !
 ! A11   A(6,2,8)              109.0301         -DE/DX =    0.0                 !
 ! A12   A(7,2,8)              106.3568         -DE/DX =    0.0                 !
 ! A13   A(2,6,9)              113.6801         -DE/DX =    0.0                 !
 ! A14   A(2,6,10)             109.617          -DE/DX =    0.0                 !
 ! A15   A(2,6,11)             108.2761         -DE/DX =    0.0                 !
 ! A16   A(9,6,10)             109.9695         -DE/DX =    0.0                 !
 ! A17   A(9,6,11)             109.9841         -DE/DX =    0.0                 !
 ! A18   A(10,6,11)            104.9355         -DE/DX =    0.0                 !
 ! A19   A(6,9,12)             121.1349         -DE/DX =    0.0                 !
 ! A20   A(6,9,13)             120.4623         -DE/DX =    0.0                 !
 ! A21   A(12,9,13)            117.8403         -DE/DX =    0.0                 !
 ! D1    D(3,1,2,6)           -180.0163         -DE/DX =    0.0                 !
 ! D2    D(3,1,2,7)            -58.4643         -DE/DX =    0.0                 !
 ! D3    D(3,1,2,8)             58.1574         -DE/DX =    0.0                 !
 ! D4    D(4,1,2,6)            -59.7902         -DE/DX =    0.0                 !
 ! D5    D(4,1,2,7)             61.7617         -DE/DX =    0.0                 !
 ! D6    D(4,1,2,8)            178.3835         -DE/DX =    0.0                 !
 ! D7    D(5,1,2,6)             59.8309         -DE/DX =    0.0                 !
 ! D8    D(5,1,2,7)           -178.6172         -DE/DX =    0.0                 !
 ! D9    D(5,1,2,8)            -61.9954         -DE/DX =    0.0                 !
 ! D10   D(1,2,6,9)            178.4888         -DE/DX =    0.0                 !
 ! D11   D(1,2,6,10)           -57.9927         -DE/DX =    0.0                 !
 ! D12   D(1,2,6,11)            55.9522         -DE/DX =    0.0                 !
 ! D13   D(7,2,6,9)             56.453          -DE/DX =    0.0                 !
 ! D14   D(7,2,6,10)           179.9715         -DE/DX =    0.0                 !
 ! D15   D(7,2,6,11)           -66.0836         -DE/DX =    0.0                 !
 ! D16   D(8,2,6,9)            -59.1997         -DE/DX =    0.0                 !
 ! D17   D(8,2,6,10)            64.3188         -DE/DX =    0.0                 !
 ! D18   D(8,2,6,11)           178.2636         -DE/DX =    0.0                 !
 ! D19   D(2,6,9,12)           159.7349         -DE/DX =    0.0                 !
 ! D20   D(2,6,9,13)           -29.0518         -DE/DX =    0.0                 !
 ! D21   D(10,6,9,12)           36.4086         -DE/DX =    0.0                 !
 ! D22   D(10,6,9,13)         -152.378          -DE/DX =    0.0                 !
 ! D23   D(11,6,9,12)          -78.6743         -DE/DX =    0.0                 !
 ! D24   D(11,6,9,13)           92.5391         -DE/DX =    0.0                 !
 --------------------------------------------------------------------------------
 GradGradGradGradGradGradGradGradGradGradGradGradGradGradGradGradGradGrad


 ----------------------------------------------------------------------

 Electric dipole moment (input orientation):
 (Debye = 10**-18 statcoulomb cm , SI units = C m)
                  (au)            (Debye)         (10**-30 SI)
   Tot        0.100895D+00      0.256450D+00      0.855426D+00
   x         -0.973715D-01     -0.247494D+00     -0.825550D+00
   y         -0.292074D-03     -0.742378D-03     -0.247631D-02
   z         -0.264307D-01     -0.671802D-01     -0.224089D+00

 Dipole polarizability, Alpha (input orientation).
 (esu units = cm**3 , SI units = C**2 m**2 J**-1)
 Alpha(0;0):
               (au)            (10**-24 esu)      (10**-40 SI)
   iso        0.487044D+02      0.721725D+01      0.803027D+01
   aniso      0.139131D+02      0.206171D+01      0.229397D+01
   xx         0.558956D+02      0.828287D+01      0.921593D+01
   yx        -0.397298D+01     -0.588735D+00     -0.655057D+00
   yy         0.480268D+02      0.711684D+01      0.791855D+01
   zx        -0.869782D+00     -0.128888D+00     -0.143408D+00
   zy        -0.827814D+00     -0.122669D+00     -0.136488D+00
   zz         0.421909D+02      0.625205D+01      0.695634D+01

 ----------------------------------------------------------------------

 Dipole orientation:
     6         -0.74815515         -1.01119441          2.56683938
     6          0.13271150         -0.91376419         -0.17386766
     1         -0.95953439         -2.95037013          3.22270062
     1          0.59859417         -0.06884525          3.80941315
     1         -2.56725999         -0.06990771          2.79129765
     6          0.44632576          1.78778343         -1.14957901
     1          1.93259035         -1.90614067         -0.36369651
     1         -1.21089430         -1.91216039         -1.37864342
     6          1.36824957          1.93033756         -3.79651305
     1         -1.34551473          2.80271408         -0.97050246
     1          1.75853853          2.78970303          0.11500933
     1          1.10208557          3.61275815         -4.91608162
     1          2.55366055          0.45547829         -4.55983168

 Electric dipole moment (dipole orientation):
 (Debye = 10**-18 statcoulomb cm , SI units = C m)
                  (au)            (Debye)         (10**-30 SI)
   Tot        0.100895D+00      0.256450D+00      0.855426D+00
   x          0.000000D+00      0.000000D+00      0.000000D+00
   y          0.000000D+00      0.000000D+00      0.000000D+00
   z          0.100895D+00      0.256450D+00      0.855426D+00

 Dipole polarizability, Alpha (dipole orientation).
 (esu units = cm**3 , SI units = C**2 m**2 J**-1)
 Alpha(0;0):
               (au)            (10**-24 esu)      (10**-40 SI)
   iso        0.487044D+02      0.721725D+01      0.803027D+01
   aniso      0.139131D+02      0.206171D+01      0.229397D+01
   xx         0.435723D+02      0.645675D+01      0.718411D+01
   yx         0.263983D+00      0.391183D-01      0.435250D-01
   yy         0.480492D+02      0.712015D+01      0.792224D+01
   zx        -0.422342D+01     -0.625846D+00     -0.696348D+00
   zy        -0.406047D+01     -0.601700D+00     -0.669481D+00
   zz         0.544918D+02      0.807485D+01      0.898448D+01

 ----------------------------------------------------------------------
 1\1\GINC-N68\Freq\UB2PLYPD3-FC\CC-pVTZ\C4H9(2)\ROOT\01-Jun-2019\0\\#N 
 Geom=AllCheck Guess=TCheck SCRF=Check GenChk UB2PLYPD3(FC)/CC-pVTZ Fre
 q\\Title Card Required\\0,2\C,-1.4157719841,0.5320418604,0.0247040627\
 C,0.1061203933,0.4836508461,-0.0450726193\H,-1.7822918581,1.5574455801
 ,0.0387655863\H,-1.86254759,0.0298943081,-0.8338814895\H,-1.7814773907
 ,0.0357249177,0.9240386004\C,0.651051877,-0.9448098225,-0.0658382384\H
 ,0.45141562,1.0069726394,-0.9394672756\H,0.5339628624,1.0153954381,0.8
 065819756\C,2.1307993676,-1.017270968,-0.1695126962\H,0.3123885568,-1.
 4800596305,0.82597635\H,0.1883156021,-1.4784737521,-0.9097466411\H,2.6
 676307881,-1.9055368457,0.12419253\H,2.6832255155,-0.237033621,-0.6713
 411449\\Version=ES64L-G16RevB.01\State=2-A\HF=-157.4632597\MP2=-157.68
 40904\PUHF=-157.4657267\PMP2-0=-157.6842909\S2=0.756532\S2-1=0.747378\
 S2A=0.750027\RMSD=1.188e-09\RMSF=9.596e-06\ZeroPoint=0.1174296\Thermal
 =0.1235879\Dipole=-0.0973715,-0.0002921,-0.0264307\DipoleDeriv=0.01555
 01,0.020621,0.0057237,0.0450518,0.0829156,-0.00101,0.0015178,0.0014038
 ,0.1240123,0.1135201,0.005779,-0.0001753,-0.0270443,0.1093908,0.000742
 3,0.0068873,-0.0056982,0.1512178,-0.0236242,0.0697317,0.0042719,0.1059
 061,-0.1368829,-0.0044909,0.002836,-0.0019093,0.0674229,-0.011976,-0.0
 18587,-0.0365079,-0.061937,0.0103072,-0.0866876,-0.0822948,-0.079016,-
 0.0785868,-0.0007607,-0.0121532,0.030539,-0.0539995,0.0124682,0.091162
 9,0.0773846,0.0790345,-0.089731,0.0148646,0.0348935,0.0145705,-0.00867
 ,0.059975,0.0376644,-0.0073506,0.0404938,0.1888506,-0.026578,-0.030188
 7,0.067594,-0.0151902,-0.0266588,0.0688566,0.0728439,0.0988534,-0.0910
 773,-0.0329861,-0.0387879,-0.0688568,-0.0175125,-0.0296027,-0.0675437,
 -0.0680981,-0.0955074,-0.0697989,0.091409,-0.0174202,-0.0489503,0.0228
 738,0.0154298,-0.1913569,-0.0471245,-0.1876835,-0.253949,-0.0128356,-0
 .031291,0.0627614,0.0008153,-0.0246848,0.0683402,0.0736566,0.0975798,-
 0.0761993,-0.0520217,-0.0469491,-0.0712174,-0.0206774,-0.0128793,-0.06
 53699,-0.081205,-0.0944644,-0.058407,-0.0522093,0.068517,0.0099127,0.0
 878128,-0.0416812,0.0609102,-0.0042374,0.0656186,0.1079267,-0.0223523,
 -0.004165,0.0303345,-0.0574289,-0.018097,0.0887825,0.0551842,0.0812948
 ,0.078319\Polar=55.8955584,-3.972984,48.026796,-0.8697815,-0.8278145,4
 2.1909135\PG=C01 [X(C4H9)]\NImag=0\\0.47461565,-0.00151131,0.57775769,
 0.00423341,0.00029258,0.56840513,-0.19621754,-0.00165564,0.00502467,0.
 49170742,0.00148029,-0.08036815,-0.00029793,0.04193779,0.50204819,0.00
 555840,-0.00018586,-0.08103017,0.00495914,0.00027517,0.59618658,-0.074
 66940,0.08031975,0.00098575,-0.00986223,0.03377501,0.00034568,0.082657
 47,0.08169234,-0.28617201,-0.00312768,-0.00167320,0.00139638,0.0000444
 8,-0.08977343,0.30961897,0.00096800,-0.00301189,-0.04796398,0.00035398
 ,-0.00161308,-0.00146845,-0.00141972,0.00340504,0.04708021,-0.08763971
 ,-0.04725428,-0.08151491,-0.01522404,-0.01625214,-0.02868835,0.0038622
 8,0.00430673,0.00944486,0.09850607,-0.04779656,-0.10415987,-0.09572439
 ,0.00020817,-0.00048944,0.00089346,-0.01283935,-0.01364803,-0.02536890
 ,0.05310720,0.10906160,-0.08237936,-0.09567952,-0.21341301,0.00120627,
 0.00119129,0.00203055,0.00093305,0.00060237,0.00012246,0.09078806,0.10
 630147,0.22967970,-0.07367465,-0.03782746,0.06880492,-0.01240636,-0.01
 595700,0.03005887,0.00290146,0.00418987,-0.00971905,0.00377153,0.00707
 324,-0.01071272,0.08300040,-0.03835591,-0.10294717,0.09899991,0.000158
 77,-0.00042314,-0.00099201,-0.01044601,-0.01354706,0.02658056,0.005949
 71,0.00741585,-0.01344695,0.04254143,0.10770208,0.06967630,0.09891169,
 -0.22874301,0.00019930,0.00020691,-0.00057950,-0.00112180,-0.00089072,
 0.00093966,0.00835554,0.01265256,-0.02119788,-0.07750683,-0.10990609,0
 .24670561,-0.01599332,0.03594545,0.00086414,-0.08498345,0.02629399,0.0
 0342110,-0.00704141,0.00062195,0.00029868,0.00171103,0.00035786,0.0002
 0474,0.00170554,0.00023495,-0.00039778,0.49285318,0.00468219,-0.001964
 49,0.00010346,0.03098649,-0.17553230,-0.00029844,-0.00219368,0.0011919
 9,0.00015800,-0.00137336,0.00082689,0.00017439,-0.00157878,0.00084114,
 0.00002111,0.02397969,0.48535082,0.00082170,-0.00276458,-0.00012033,0.
 00502892,-0.00005462,-0.07930113,0.00064611,-0.00002730,0.00034318,-0.
 00065374,0.00096731,0.00020691,0.00055324,-0.00098777,0.00013197,-0.01
 649755,-0.02963398,0.52919212,-0.01292777,-0.01614559,0.02945341,-0.07
 137153,-0.03777416,0.06352041,0.00142934,0.00048093,-0.00011645,0.0015
 4382,-0.00031842,-0.00049935,-0.00702112,0.00027262,0.00000173,0.00235
 445,0.00637927,-0.00989979,0.08156175,0.00080923,0.00075428,-0.0018124
 2,-0.03762193,-0.10388784,0.09756620,-0.00029777,0.00037812,-0.0003468
 4,-0.00023134,-0.00018970,0.00022759,0.00063505,0.00083257,-0.00004232
 ,-0.00837432,-0.01877229,0.02807847,0.03884314,0.11600040,-0.00011314,
 -0.00012644,-0.00035923,0.06427328,0.09871236,-0.22459365,0.00049066,-
 0.00035616,-0.00001262,0.00037163,-0.00004911,0.00078671,-0.00002673,-
 0.00045803,0.00169750,-0.00028476,-0.00063203,0.00027513,-0.07179264,-
 0.10930987,0.24130024,-0.01534896,-0.01620573,-0.02778303,-0.08552087,
 -0.04834960,-0.07716454,0.00135102,0.00052279,-0.00002573,-0.00689736,
 0.00030582,0.00078003,0.00155203,-0.00031673,0.00043518,0.00369056,0.0
 0674617,0.00994774,0.00369955,0.00541670,0.00797419,0.09685867,0.00097
 254,0.00079422,0.00172492,-0.04804228,-0.10640498,-0.09548312,-0.00028
 633,0.00038010,0.00035978,0.00064618,0.00085133,-0.00001227,-0.0002459
 9,-0.00018836,-0.00019592,-0.01001485,-0.01808361,-0.02596938,0.006460
 15,0.00760617,0.01232887,0.05022714,0.11849983,0.00153395,0.00173242,0
 .00236761,-0.07765782,-0.09667515,-0.21092094,-0.00063184,0.00030125,0
 .00003176,0.00088535,0.00045827,0.00162719,-0.00044464,0.00009030,0.00
 076295,0.00034132,0.00050234,0.00005458,-0.01039008,-0.01311304,-0.022
 15212,0.08559606,0.10676454,0.22562651,-0.00049060,0.00142080,0.000200
 70,-0.01869697,0.00737861,-0.00111480,-0.00013362,-0.00019957,0.000061
 34,0.00010938,0.00011419,0.00011716,-0.00011675,0.00012426,-0.00005126
 ,-0.23179515,0.01098498,0.01813158,0.00132747,-0.00191486,0.00034536,0
 .00113841,-0.00185032,-0.00014987,0.54284649,0.00133902,-0.00650615,0.
 00007161,0.03486261,-0.00082691,-0.00140390,0.00220226,-0.00008621,-0.
 00020728,0.00004016,-0.00001553,0.00025626,-0.00001910,0.00006542,-0.0
 0034763,0.00493252,-0.08113182,0.01738464,0.00054378,0.00104409,-0.000
 09343,0.00019493,0.00133146,0.00014204,-0.02889025,0.53634672,-0.00018
 230,0.00110754,0.00043305,-0.00226909,-0.00065663,-0.00073869,-0.00036
 406,0.00006898,0.00046771,0.00055653,0.00002235,0.00012225,-0.00030010
 ,-0.00010030,0.00023942,0.01468377,0.01678406,-0.05358230,-0.00084047,
 -0.00013604,0.00028697,0.00023995,0.00057561,0.00051249,-0.05532750,-0
 .22091223,0.16982982,0.00114263,0.00025604,-0.00100490,0.00206283,0.00
 577605,-0.00992509,0.00005885,-0.00018832,0.00006604,-0.00005184,-0.00
 001003,-0.00009202,0.00002228,-0.00007468,0.00041035,-0.06784117,-0.03
 401929,0.06511057,-0.00058343,0.00256207,-0.00001047,0.00006792,-0.000
 77921,0.00028468,-0.01528286,-0.01951912,0.02547359,0.07972553,-0.0015
 1839,0.00114728,0.00032053,-0.00867379,-0.01679823,0.02739002,-0.00015
 116,0.00024191,-0.00043906,0.00012814,-0.00001210,-0.00006541,0.000870
 86,0.00035831,-0.00052379,-0.03220930,-0.10509266,0.09827154,0.0025365
 8,-0.00592192,-0.00036571,-0.00079517,0.00118238,-0.00039101,-0.002334
 46,0.00066644,-0.00074604,0.03860605,0.11631416,-0.00014281,-0.0002216
 9,0.00017376,-0.00052895,-0.00062036,0.00069023,-0.00023086,-0.0001633
 3,0.00025086,0.00002593,0.00005460,-0.00009129,-0.00056310,0.00021709,
 0.00017289,0.06385475,0.10021404,-0.21694923,0.00003655,-0.00047298,0.
 00174174,-0.00025157,0.00029383,0.00081999,0.00028254,0.00039484,0.000
 79155,-0.06940934,-0.11036482,0.23620162,0.00118077,0.00029294,0.00098
 886,0.00381136,0.00654500,0.00835801,0.00018651,-0.00014812,0.00003900
 ,0.00013298,-0.00011205,-0.00036106,-0.00006167,-0.00004184,0.00008080
 ,-0.07948287,-0.05013981,-0.08135143,0.00007528,-0.00071045,-0.0001971
 2,-0.00061059,0.00254661,0.00020293,-0.02392857,-0.01282005,-0.0198153
 1,0.00442277,0.00393707,0.00688127,0.09564958,-0.00165180,0.00149131,-
 0.00032232,-0.01148146,-0.02002949,-0.02705175,-0.00023675,0.00025898,
 0.00046768,0.00093562,0.00035638,0.00046362,0.00013969,-0.00001396,0.0
 0006327,-0.04147428,-0.09526547,-0.08523856,-0.00073546,0.00129970,0.0
 0041525,0.00250283,-0.00609057,0.00017670,-0.00312455,0.00189310,0.001
 93142,0.00594548,0.00680781,0.01203865,0.04987360,0.10974187,-0.000122
 73,0.00040389,0.00004674,-0.00100408,-0.00028346,-0.00136487,0.0002331
 3,0.00020432,0.00024018,0.00058272,-0.00020934,0.00017168,-0.00000797,
 -0.00005620,-0.00011329,-0.06862007,-0.08663828,-0.18567409,0.00027912
 ,-0.00018757,0.00087201,0.00010155,-0.00021296,0.00159989,-0.00363638,
 0.00271705,0.00544025,-0.01104750,-0.01286207,-0.02441857,0.08407436,0
 .09754524,0.20433251,-0.00001865,0.00212360,-0.00003281,-0.00531434,-0
 .00294685,0.00011940,-0.00072903,0.00007395,0.00008422,0.00008369,-0.0
 0004866,-0.00004565,0.00005562,-0.00005825,0.00007752,-0.00646438,0.02
 576374,-0.00717008,0.00005743,0.00005340,-0.00032551,0.00009018,0.0000
 1270,0.00020639,-0.12591001,0.12005126,-0.03427591,0.00143851,-0.00037
 323,0.00048245,-0.00034997,-0.00035181,-0.00056646,0.12736139,-0.00020
 661,0.00007973,-0.00009415,0.00059398,0.00009930,0.00025781,-0.0000039
 4,-0.00000268,0.00000001,0.00001917,0.00002100,0.00001765,0.00009989,-
 0.00000106,-0.00001765,-0.00356808,0.00448417,-0.00068199,-0.00019860,
 0.00028711,-0.00023223,-0.00007597,0.00007412,0.00010188,0.12210768,-0
 .25104360,0.08671524,0.00040953,0.00026223,-0.00011632,0.00042795,-0.0
 0061009,-0.00017800,-0.13115312,0.25757038,0.00032360,-0.00013604,0.00
 023634,0.00093735,-0.00095931,0.00073101,0.00003192,-0.00005251,-0.000
 03084,-0.00005723,0.00000766,-0.00003096,-0.00007132,0.00000861,0.0000
 0039,0.00252188,-0.00017010,0.00194012,0.00001531,-0.00027123,0.000152
 09,0.00000764,0.00008571,0.00000639,-0.03341535,0.08232506,-0.04101352
 ,-0.00082912,-0.00090164,0.00061845,0.00074552,-0.00080183,0.00016198,
 0.03677481,-0.08941064,0.03721529,0.00004155,0.00024142,-0.00022020,0.
 00201571,-0.00190699,0.00055179,-0.00001124,0.00009409,-0.00003517,0.0
 0009217,-0.00004141,0.00006085,0.00027169,0.00001168,-0.00015904,-0.00
 871303,-0.02021762,0.01533272,-0.00014524,0.00083107,-0.00070475,-0.00
 007057,0.00035367,0.00022358,-0.12906722,-0.10291802,0.07242090,-0.005
 18203,-0.00002321,-0.00043687,-0.00102558,-0.00034110,-0.00026567,0.00
 969956,0.01154812,-0.00698502,0.13209423,0.00006495,0.00009332,-0.0001
 3411,0.00040048,0.00121660,-0.00101206,-0.00006858,-0.00001047,0.00001
 596,-0.00002179,-0.00001838,-0.00003051,0.00007828,-0.00009463,0.00006
 857,0.00327441,0.00314762,0.00065623,-0.00034424,0.00056929,0.00016654
 ,-0.00017318,0.00004790,-0.00009054,-0.10381650,-0.20173702,0.11534603
 ,0.00103542,0.00084441,-0.00125355,0.00034916,0.00016045,-0.00024263,-
 0.01314672,-0.01122061,0.01027627,0.11236832,0.20700153,-0.00017500,-0
 .00032211,-0.00003290,-0.00052298,0.00077481,0.00035902,0.00010199,-0.
 00000874,-0.00000012,-0.00009637,-0.00000593,-0.00001430,-0.00006458,0
 .00005089,-0.00001673,-0.00039021,-0.00058457,0.00348306,0.00023225,-0
 .00017996,0.00000523,0.00014254,-0.00025961,-0.00033631,0.07455649,0.1
 1967296,-0.08278899,0.00097322,0.00067747,-0.00000201,0.00035415,0.000
 31262,-0.00129442,0.00467164,0.00363838,0.00001325,-0.07978314,-0.1237
 6621,0.08062523\\-0.00001734,0.00000789,-0.00000142,0.00001133,-0.0000
 3608,-0.00000357,-0.00000019,-0.00000091,0.00000150,0.00000436,0.00000
 045,-0.00000044,0.00000307,-0.00000072,-0.00000056,0.00001356,0.000022
 48,0.00000346,0.00000045,0.00000419,0.00000148,0.00000277,0.00000707,-
 0.00000184,-0.00001806,0.00000864,0.00001217,0.00000622,-0.00000092,-0
 .00000182,-0.00000791,-0.00000492,-0.00000504,-0.00000027,0.00000606,-
 0.00000644,0.00000202,-0.00001325,0.00000251\\\@


 WE ARE PERHAPS NOT FAR REMOVED FROM THE TIME WHEN WE SHALL BE ABLE TO SUBMIT
 THE BULK OF CHEMICAL PHENOMENA TO CALCULATION.

            -- JOSEPH LOUIS GAY-LUSSAC
               MEMOIRES DE LA SOCIETE D'ARCUEIL, 2, 207 (1808)
 Job cpu time:       0 days 12 hours 32 minutes 47.9 seconds.
 Elapsed time:       0 days  0 hours 19 minutes 20.1 seconds.
 File lengths (MBytes):  RWF=  20900 Int=      0 D2E=      0 Chk=     11 Scr=      1
 Normal termination of Gaussian 16 at Sat Jun  1 00:37:56 2019.
