 Entering Gaussian System, Link 0=g16
 Initial command:
 /ichec/packages/gaussian/16b01/l1.exe "/localscratch/388704/Gau-40635.inp" -scrdir="/localscratch/388704/"
 Entering Link 1 = /ichec/packages/gaussian/16b01/l1.exe PID=     40640.
  
 Copyright (c) 1988-2017, Gaussian, Inc.  All Rights Reserved.
  
 This is part of the Gaussian(R) 16 program.  It is based on
 the Gaussian(R) 09 system (copyright 2009, Gaussian, Inc.),
 the Gaussian(R) 03 system (copyright 2003, Gaussian, Inc.),
 the Gaussian(R) 98 system (copyright 1998, Gaussian, Inc.),
 the Gaussian(R) 94 system (copyright 1995, Gaussian, Inc.),
 the Gaussian 92(TM) system (copyright 1992, Gaussian, Inc.),
 the Gaussian 90(TM) system (copyright 1990, Gaussian, Inc.),
 the Gaussian 88(TM) system (copyright 1988, Gaussian, Inc.),
 the Gaussian 86(TM) system (copyright 1986, Carnegie Mellon
 University), and the Gaussian 82(TM) system (copyright 1983,
 Carnegie Mellon University). Gaussian is a federally registered
 trademark of Gaussian, Inc.
  
 This software contains proprietary and confidential information,
 including trade secrets, belonging to Gaussian, Inc.
  
 This software is provided under written license and may be
 used, copied, transmitted, or stored only in accord with that
 written license.
  
 The following legend is applicable only to US Government
 contracts under FAR:
  
                    RESTRICTED RIGHTS LEGEND
  
 Use, reproduction and disclosure by the US Government is
 subject to restrictions as set forth in subparagraphs (a)
 and (c) of the Commercial Computer Software - Restricted
 Rights clause in FAR 52.227-19.
  
 Gaussian, Inc.
 340 Quinnipiac St., Bldg. 40, Wallingford CT 06492
  
  
 ---------------------------------------------------------------
 Warning -- This program may not be used in any manner that
 competes with the business of Gaussian, Inc. or will provide
 assistance to any competitor of Gaussian, Inc.  The licensee
 of this program is prohibited from giving any competitor of
 Gaussian, Inc. access to this program.  By using this program,
 the user acknowledges that Gaussian, Inc. is engaged in the
 business of creating and licensing software in the field of
 computational chemistry and represents and warrants to the
 licensee that it is not a competitor of Gaussian, Inc. and that
 it will not use this program in any manner prohibited above.
 ---------------------------------------------------------------
  

 Cite this work as:
 Gaussian 16, Revision B.01,
 M. J. Frisch, G. W. Trucks, H. B. Schlegel, G. E. Scuseria, 
 M. A. Robb, J. R. Cheeseman, G. Scalmani, V. Barone, 
 G. A. Petersson, H. Nakatsuji, X. Li, M. Caricato, A. V. Marenich, 
 J. Bloino, B. G. Janesko, R. Gomperts, B. Mennucci, H. P. Hratchian, 
 J. V. Ortiz, A. F. Izmaylov, J. L. Sonnenberg, D. Williams-Young, 
 F. Ding, F. Lipparini, F. Egidi, J. Goings, B. Peng, A. Petrone, 
 T. Henderson, D. Ranasinghe, V. G. Zakrzewski, J. Gao, N. Rega, 
 G. Zheng, W. Liang, M. Hada, M. Ehara, K. Toyota, R. Fukuda, 
 J. Hasegawa, M. Ishida, T. Nakajima, Y. Honda, O. Kitao, H. Nakai, 
 T. Vreven, K. Throssell, J. A. Montgomery, Jr., J. E. Peralta, 
 F. Ogliaro, M. J. Bearpark, J. J. Heyd, E. N. Brothers, K. N. Kudin, 
 V. N. Staroverov, T. A. Keith, R. Kobayashi, J. Normand, 
 K. Raghavachari, A. P. Rendell, J. C. Burant, S. S. Iyengar, 
 J. Tomasi, M. Cossi, J. M. Millam, M. Klene, C. Adamo, R. Cammi, 
 J. W. Ochterski, R. L. Martin, K. Morokuma, O. Farkas, 
 J. B. Foresman, and D. J. Fox, Gaussian, Inc., Wallingford CT, 2016.
 
 ******************************************
 Gaussian 16:  ES64L-G16RevB.01 20-Dec-2017
                 2-Aug-2019 
 ******************************************
 %mem=100GB
 %nproc=40
 Will use up to   40 processors via shared memory.
 -------------------------------------------------------------
 # opt=maxcyc=500 freq=noraman uB2PLYPD3/cc-pvtz int=superfine
 -------------------------------------------------------------
 1/6=500,18=20,19=15,38=1/1,3;
 2/9=110,12=2,17=6,18=5,40=1/2;
 3/5=16,6=1,11=2,25=1,30=1,71=1,74=-60,75=-7,116=2/1,2,3;
 4//1;
 5/5=2,38=5/2;
 8/6=4,10=1/1;
 9/15=2,16=-3/6;
 10/5=1/2;
 6/7=2,8=2,9=2,10=2/1;
 7/12=2/1,2,3,16;
 1/6=500,18=20,19=15/3(2);
 2/9=110/2;
 99//99;
 2/9=110/2;
 3/5=16,6=1,11=2,25=1,30=1,71=1,74=-60,75=-7,116=2/1,2,3;
 4/5=5,16=3,69=1/1;
 5/5=2,38=5/2;
 8/6=4,10=1/1;
 9/15=2,16=-3/6;
 10/5=1/2;
 7/12=2/1,2,3,16;
 1/6=500,18=20,19=15/3(-8);
 2/9=110/2;
 6/7=2,8=2,9=2,10=2/1;
 99/9=10/99;
 -------------------
 Title Card Required
 -------------------
 Symbolic Z-matrix:
 Charge =  0 Multiplicity = 2
 C                     1.0203    0.886     0.9741 
 C                     1.8788    1.9888    1.571 
 O                     3.1962    1.4725    1.7389 
 H                     1.0019    0.0158    1.6384 
 H                     1.4249    0.5693    0.0072 
 H                     1.8798    2.8664    0.9035 
 H                     1.4551    2.3134    2.5359 
 H                     3.7448    2.1751    2.1191 
 

 GradGradGradGradGradGradGradGradGradGradGradGradGradGradGradGradGradGrad
 Berny optimization.
 Initialization pass.
                           ----------------------------
                           !    Initial Parameters    !
                           ! (Angstroms and Degrees)  !
 --------------------------                            --------------------------
 ! Name  Definition              Value          Derivative Info.                !
 --------------------------------------------------------------------------------
 ! R1    R(1,2)                  1.5197         estimate D2E/DX2                !
 ! R2    R(1,4)                  1.0949         estimate D2E/DX2                !
 ! R3    R(1,5)                  1.0949         estimate D2E/DX2                !
 ! R4    R(2,3)                  1.4249         estimate D2E/DX2                !
 ! R5    R(2,6)                  1.1026         estimate D2E/DX2                !
 ! R6    R(2,7)                  1.1027         estimate D2E/DX2                !
 ! R7    R(3,8)                  0.9691         estimate D2E/DX2                !
 ! A1    A(2,1,4)              110.3603         estimate D2E/DX2                !
 ! A2    A(2,1,5)              110.3645         estimate D2E/DX2                !
 ! A3    A(4,1,5)              108.1854         estimate D2E/DX2                !
 ! A4    A(1,2,3)              107.7967         estimate D2E/DX2                !
 ! A5    A(1,2,6)              109.8962         estimate D2E/DX2                !
 ! A6    A(1,2,7)              109.892          estimate D2E/DX2                !
 ! A7    A(3,2,6)              111.0326         estimate D2E/DX2                !
 ! A8    A(3,2,7)              111.0273         estimate D2E/DX2                !
 ! A9    A(6,2,7)              107.2047         estimate D2E/DX2                !
 ! A10   A(2,3,8)              107.8735         estimate D2E/DX2                !
 ! D1    D(4,1,2,3)             59.7078         estimate D2E/DX2                !
 ! D2    D(4,1,2,6)           -179.1583         estimate D2E/DX2                !
 ! D3    D(4,1,2,7)            -61.4171         estimate D2E/DX2                !
 ! D4    D(5,1,2,3)            -59.8193         estimate D2E/DX2                !
 ! D5    D(5,1,2,6)             61.3146         estimate D2E/DX2                !
 ! D6    D(5,1,2,7)            179.0557         estimate D2E/DX2                !
 ! D7    D(1,2,3,8)            179.9705         estimate D2E/DX2                !
 ! D8    D(6,2,3,8)             59.5486         estimate D2E/DX2                !
 ! D9    D(7,2,3,8)            -59.6159         estimate D2E/DX2                !
 --------------------------------------------------------------------------------
 Trust Radius=3.00D-01 FncErr=1.00D-07 GrdErr=1.00D-07 EigMax=2.50D+02 EigMin=1.00D-04
 Number of steps in this run=    100 maximum allowed number of steps=    100.
 GradGradGradGradGradGradGradGradGradGradGradGradGradGradGradGradGradGrad

                          Input orientation:                          
 ---------------------------------------------------------------------
 Center     Atomic      Atomic             Coordinates (Angstroms)
 Number     Number       Type             X           Y           Z
 ---------------------------------------------------------------------
      1          6           0        1.020300    0.886000    0.974100
      2          6           0        1.878800    1.988800    1.571000
      3          8           0        3.196200    1.472500    1.738900
      4          1           0        1.001900    0.015800    1.638400
      5          1           0        1.424900    0.569300    0.007200
      6          1           0        1.879800    2.866400    0.903500
      7          1           0        1.455100    2.313400    2.535900
      8          1           0        3.744800    2.175100    2.119100
 ---------------------------------------------------------------------
                    Distance matrix (angstroms):
                    1          2          3          4          5
     1  C    0.000000
     2  C    1.519697   0.000000
     3  O    2.379799   1.424886   0.000000
     4  H    1.094934   2.160145   2.635721   0.000000
     5  H    1.094941   2.160203   2.636676   1.773726   0.000000
     6  H    2.160025   1.102606   2.091353   3.071922   2.507380
     7  H    2.160033   1.102687   2.091351   2.507960   3.071990
     8  H    3.224237   1.953734   0.969103   3.523798   3.524294
                    6          7          8
     6  H    0.000000
     7  H    1.775080   0.000000
     8  H    2.331052   2.331432   0.000000
 Stoichiometry    C2H5O(2)
 Framework group  C1[X(C2H5O)]
 Deg. of freedom    18
 Full point group                 C1      NOp   1
 Largest Abelian subgroup         C1      NOp   1
 Largest concise Abelian subgroup C1      NOp   1
                         Standard orientation:                         
 ---------------------------------------------------------------------
 Center     Atomic      Atomic             Coordinates (Angstroms)
 Number     Number       Type             X           Y           Z
 ---------------------------------------------------------------------
      1          6           0        1.314638   -0.134123   -0.000109
      2          6           0       -0.033994    0.566357   -0.000107
      3          8           0       -1.045823   -0.436888    0.000049
      4          1           0        1.413993   -0.769310   -0.886420
      5          1           0        1.414959   -0.767626    0.887305
      6          1           0       -0.119853    1.215126    0.887286
      7          1           0       -0.119946    1.214850   -0.887794
      8          1           0       -1.906436    0.008652    0.000526
 ---------------------------------------------------------------------
 Rotational constants (GHZ):          35.4213875          10.2496341           8.8309180
 Standard basis: CC-pVTZ (5D, 7F)
 There are   180 symmetry adapted cartesian basis functions of A   symmetry.
 There are   160 symmetry adapted basis functions of A   symmetry.
   160 basis functions,   241 primitive gaussians,   180 cartesian basis functions
    13 alpha electrons       12 beta electrons
       nuclear repulsion energy        74.8292195828 Hartrees.
 NAtoms=    8 NActive=    8 NUniq=    8 SFac= 1.00D+00 NAtFMM=   60 NAOKFM=F Big=F
 Integral buffers will be    131072 words long.
 Raffenetti 2 integral format.
 Two-electron integral symmetry is turned on.
 Nuclear repulsion after empirical dispersion term =       74.8265154107 Hartrees.
 One-electron integrals computed using PRISM.
 NBasis=   160 RedAO= T EigKep=  1.09D-03  NBF=   160
 NBsUse=   160 1.00D-06 EigRej= -1.00D+00 NBFU=   160
 ExpMin= 1.03D-01 ExpMax= 1.53D+04 ExpMxC= 5.22D+02 IAcc=3 IRadAn=         7 AccDes= 0.00D+00
 Harris functional with IExCor=  419 and IRadAn=       7 diagonalized for initial guess.
 HarFok:  IExCor=  419 AccDes= 0.00D+00 IRadAn=         7 IDoV= 1 UseB2=F ITyADJ=14
 ICtDFT=  3500011 ScaDFX=  1.000000  1.000000  1.000000  1.000000
 FoFCou: FMM=F IPFlag=           0 FMFlag=      100000 FMFlg1=           0
         NFxFlg=           0 DoJE=T BraDBF=F KetDBF=T FulRan=T
         wScrn=  0.000000 ICntrl=       500 IOpCl=  0 I1Cent=   200000004 NGrid=           0
         NMat0=    1 NMatS0=      1 NMatT0=    0 NMatD0=    1 NMtDS0=    0 NMtDT0=    0
 Petite list used in FoFCou.
 Initial guess <Sx>= 0.0000 <Sy>= 0.0000 <Sz>= 0.5000 <S**2>= 0.7500 S= 0.5000
 Keep R1 and R2 ints in memory in canonical form, NReq=206444256.
 Requested convergence on RMS density matrix=1.00D-08 within 128 cycles.
 Requested convergence on MAX density matrix=1.00D-06.
 Requested convergence on             energy=1.00D-06.
 No special actions if energy rises.
 Integral accuracy reduced to 1.0D-05 until final iterations.
 Initial convergence to 1.0D-05 achieved.  Increase integral accuracy.
 SCF Done:  E(UB2PLYPD3) =  -154.106069510     A.U. after   14 cycles
            NFock= 14  Conv=0.56D-08     -V/T= 2.0047
 <Sx>= 0.0000 <Sy>= 0.0000 <Sz>= 0.5000 <S**2>= 0.7544 S= 0.5022
 <L.S>=  0.00000000000    
 Annihilation of the first spin contaminant:
 S**2 before annihilation     0.7544,   after     0.7500
 DoSCS=T DFT=T ScalE2(SS,OS)=  0.270000  0.270000
 ExpMin= 1.03D-01 ExpMax= 1.53D+04 ExpMxC= 5.22D+02 IAcc=3 IRadAn=         7 AccDes= 0.00D+00
 HarFok:  IExCor=  205 AccDes= 0.00D+00 IRadAn=         7 IDoV=-2 UseB2=F ITyADJ=14
 ICtDFT= 12500011 ScaDFX=  1.000000  1.000000  1.000000  1.000000
 Range of M.O.s used for correlation:     4   160
 NBasis=   160 NAE=    13 NBE=    12 NFC=     3 NFV=     0
 NROrb=    157 NOA=    10 NOB=     9 NVA=   147 NVB=   148
 DoSCS=T DFT=T ScalE2(SS,OS)=  0.270000  0.270000
 Fully direct method using O(ONN) memory.
 JobTyp=2 Pass  1:  I=   4 to  13 NPSUse= 40 ParTrn=T ParDer=T DoDerP=T.
 JobTyp=3 Pass  1:  I=   4 to  12 NPSUse= 40 ParTrn=T ParDer=T DoDerP=T.
 Spin components of T(2) and E(2):
     alpha-alpha T2 =       0.3202090170D-01 E2=     -0.2369832940D-01
     alpha-beta  T2 =       0.1747599171D+00 E2=     -0.1392538635D+00
     beta-beta   T2 =       0.2541292548D-01 E2=     -0.1930682273D-01
 (S**2,0)=  0.75439D+00           (S**2,1)=  0.74832D+00
 Scaling Projection term by:   0.270000
 E(PUHF)=      -0.15410778059D+03        E(PMP2)=      -0.15428847176D+03
 E2(B2PLYPD3) =    -0.1822590156D+00 E(B2PLYPD3) =    -0.15428832852518D+03
          IDoAtm=11111111
          Differentiating once with respect to electric field.
                with respect to dipole field.
          Differentiating once with respect to nuclear coordinates.
 Keep R1 and R2 ints in memory in canonical form, NReq=206449884.
          There are     1 degrees of freedom in the 1st order CPHF.  IDoFFX=0 NUNeed=     1.
 LinEq1:  Iter=  0 NonCon=     1 RMS=7.17D-04 Max=1.31D-02 NDo=     1
 AX will form     1 AO Fock derivatives at one time.
 LinEq1:  Iter=  1 NonCon=     1 RMS=2.26D-04 Max=2.95D-03 NDo=     1
 LinEq1:  Iter=  2 NonCon=     1 RMS=8.21D-05 Max=1.18D-03 NDo=     1
 LinEq1:  Iter=  3 NonCon=     1 RMS=4.05D-05 Max=3.70D-04 NDo=     1
 LinEq1:  Iter=  4 NonCon=     1 RMS=2.21D-05 Max=2.69D-04 NDo=     1
 LinEq1:  Iter=  5 NonCon=     1 RMS=7.16D-06 Max=1.07D-04 NDo=     1
 LinEq1:  Iter=  6 NonCon=     1 RMS=2.57D-06 Max=5.10D-05 NDo=     1
 LinEq1:  Iter=  7 NonCon=     1 RMS=9.72D-07 Max=9.69D-06 NDo=     1
 LinEq1:  Iter=  8 NonCon=     1 RMS=2.96D-07 Max=3.97D-06 NDo=     1
 LinEq1:  Iter=  9 NonCon=     1 RMS=6.88D-08 Max=9.76D-07 NDo=     1
 LinEq1:  Iter= 10 NonCon=     1 RMS=1.71D-08 Max=2.20D-07 NDo=     1
 LinEq1:  Iter= 11 NonCon=     1 RMS=3.56D-09 Max=7.13D-08 NDo=     1
 LinEq1:  Iter= 12 NonCon=     1 RMS=7.93D-10 Max=1.28D-08 NDo=     1
 LinEq1:  Iter= 13 NonCon=     1 RMS=1.96D-10 Max=2.78D-09 NDo=     1
 LinEq1:  Iter= 14 NonCon=     0 RMS=4.27D-11 Max=6.28D-10 NDo=     1
 Linear equations converged to 1.000D-10 1.000D-09 after    14 iterations.
 End of Minotr F.D. properties file   721 does not exist.
 End of Minotr F.D. properties file   722 does not exist.
 End of Minotr F.D. properties file   788 does not exist.

 **********************************************************************

            Population analysis using the SCF Density.

 **********************************************************************

 Orbital symmetries:
 Alpha Orbitals:
       Occupied  (A) (A) (A) (A) (A) (A) (A) (A) (A) (A) (A) (A)
                 (A)
       Virtual   (A) (A) (A) (A) (A) (A) (A) (A) (A) (A) (A) (A)
                 (A) (A) (A) (A) (A) (A) (A) (A) (A) (A) (A) (A)
                 (A) (A) (A) (A) (A) (A) (A) (A) (A) (A) (A) (A)
                 (A) (A) (A) (A) (A) (A) (A) (A) (A) (A) (A) (A)
                 (A) (A) (A) (A) (A) (A) (A) (A) (A) (A) (A) (A)
                 (A) (A) (A) (A) (A) (A) (A) (A) (A) (A) (A) (A)
                 (A) (A) (A) (A) (A) (A) (A) (A) (A) (A) (A) (A)
                 (A) (A) (A) (A) (A) (A) (A) (A) (A) (A) (A) (A)
                 (A) (A) (A) (A) (A) (A) (A) (A) (A) (A) (A) (A)
                 (A) (A) (A) (A) (A) (A) (A) (A) (A) (A) (A) (A)
                 (A) (A) (A) (A) (A) (A) (A) (A) (A) (A) (A) (A)
                 (A) (A) (A) (A) (A) (A) (A) (A) (A) (A) (A) (A)
                 (A) (A) (A)
 Beta  Orbitals:
       Occupied  (A) (A) (A) (A) (A) (A) (A) (A) (A) (A) (A) (A)
       Virtual   (A) (A) (A) (A) (A) (A) (A) (A) (A) (A) (A) (A)
                 (A) (A) (A) (A) (A) (A) (A) (A) (A) (A) (A) (A)
                 (A) (A) (A) (A) (A) (A) (A) (A) (A) (A) (A) (A)
                 (A) (A) (A) (A) (A) (A) (A) (A) (A) (A) (A) (A)
                 (A) (A) (A) (A) (A) (A) (A) (A) (A) (A) (A) (A)
                 (A) (A) (A) (A) (A) (A) (A) (A) (A) (A) (A) (A)
                 (A) (A) (A) (A) (A) (A) (A) (A) (A) (A) (A) (A)
                 (A) (A) (A) (A) (A) (A) (A) (A) (A) (A) (A) (A)
                 (A) (A) (A) (A) (A) (A) (A) (A) (A) (A) (A) (A)
                 (A) (A) (A) (A) (A) (A) (A) (A) (A) (A) (A) (A)
                 (A) (A) (A) (A) (A) (A) (A) (A) (A) (A) (A) (A)
                 (A) (A) (A) (A) (A) (A) (A) (A) (A) (A) (A) (A)
                 (A) (A) (A) (A)
 The electronic state is 2-A.
 Alpha  occ. eigenvalues --  -19.72827 -10.66761 -10.63416  -1.16510  -0.86046
 Alpha  occ. eigenvalues --   -0.70018  -0.59365  -0.54568  -0.48042  -0.44171
 Alpha  occ. eigenvalues --   -0.40823  -0.35063  -0.32383
 Alpha virt. eigenvalues --    0.07604   0.10844   0.13229   0.13566   0.18108
 Alpha virt. eigenvalues --    0.23260   0.24811   0.30685   0.33151   0.37108
 Alpha virt. eigenvalues --    0.38790   0.43817   0.45801   0.47594   0.48993
 Alpha virt. eigenvalues --    0.52386   0.54737   0.55279   0.57531   0.63146
 Alpha virt. eigenvalues --    0.63809   0.66631   0.72801   0.75620   0.77026
 Alpha virt. eigenvalues --    0.81516   0.86675   0.86840   1.01908   1.04090
 Alpha virt. eigenvalues --    1.06898   1.08557   1.12891   1.14468   1.15513
 Alpha virt. eigenvalues --    1.17140   1.18071   1.20663   1.27196   1.29874
 Alpha virt. eigenvalues --    1.33736   1.35397   1.36125   1.44958   1.49446
 Alpha virt. eigenvalues --    1.51003   1.56051   1.64594   1.68257   1.93432
 Alpha virt. eigenvalues --    2.03318   2.08684   2.12743   2.16623   2.29364
 Alpha virt. eigenvalues --    2.31325   2.39238   2.43642   2.51328   2.52174
 Alpha virt. eigenvalues --    2.60312   2.63668   2.68934   2.77344   2.82020
 Alpha virt. eigenvalues --    2.82197   2.89626   2.93386   2.99661   3.01352
 Alpha virt. eigenvalues --    3.02138   3.07234   3.11034   3.14428   3.15072
 Alpha virt. eigenvalues --    3.17666   3.18267   3.24144   3.26696   3.30851
 Alpha virt. eigenvalues --    3.32115   3.37237   3.44961   3.50354   3.52208
 Alpha virt. eigenvalues --    3.53152   3.54511   3.57740   3.62293   3.64150
 Alpha virt. eigenvalues --    3.78721   3.79345   3.81097   3.86383   3.91085
 Alpha virt. eigenvalues --    3.92872   3.95881   3.96058   3.97487   4.02188
 Alpha virt. eigenvalues --    4.03309   4.09619   4.10933   4.12441   4.21493
 Alpha virt. eigenvalues --    4.24308   4.26718   4.33917   4.34168   4.41681
 Alpha virt. eigenvalues --    4.42420   4.49905   4.58213   4.68904   4.75435
 Alpha virt. eigenvalues --    4.80055   4.82853   4.90953   4.98228   4.98692
 Alpha virt. eigenvalues --    5.04568   5.12094   5.14644   5.17545   5.20995
 Alpha virt. eigenvalues --    5.41120   5.41573   5.52188   5.53420   5.62906
 Alpha virt. eigenvalues --    5.70931   5.89257   5.96125   6.04976   6.14416
 Alpha virt. eigenvalues --    6.29913   6.66425   6.83653   6.84132   6.92536
 Alpha virt. eigenvalues --    7.07663   7.16025   7.32668   7.58954  11.60587
 Alpha virt. eigenvalues --   11.91297  12.53999
  Beta  occ. eigenvalues --  -19.72648 -10.66813 -10.61564  -1.16011  -0.83297
  Beta  occ. eigenvalues --   -0.67667  -0.58212  -0.54104  -0.47362  -0.43240
  Beta  occ. eigenvalues --   -0.40145  -0.34887
  Beta virt. eigenvalues --   -0.01282   0.07864   0.11521   0.13501   0.13656
  Beta virt. eigenvalues --    0.18732   0.23968   0.26237   0.31039   0.33787
  Beta virt. eigenvalues --    0.38951   0.41217   0.44465   0.47512   0.49122
  Beta virt. eigenvalues --    0.49564   0.53099   0.55430   0.56637   0.58685
  Beta virt. eigenvalues --    0.63690   0.64631   0.67606   0.73639   0.75858
  Beta virt. eigenvalues --    0.78029   0.81658   0.87085   0.88120   1.02184
  Beta virt. eigenvalues --    1.04962   1.08227   1.09279   1.13142   1.15557
  Beta virt. eigenvalues --    1.16754   1.17567   1.18933   1.21637   1.27873
  Beta virt. eigenvalues --    1.30935   1.34299   1.35600   1.36689   1.45265
  Beta virt. eigenvalues --    1.50867   1.51832   1.56539   1.65827   1.69091
  Beta virt. eigenvalues --    1.93594   2.04119   2.08809   2.13582   2.17246
  Beta virt. eigenvalues --    2.31654   2.33227   2.41059   2.44402   2.52348
  Beta virt. eigenvalues --    2.52659   2.61389   2.64649   2.69985   2.78767
  Beta virt. eigenvalues --    2.83517   2.85200   2.90530   2.94338   3.01164
  Beta virt. eigenvalues --    3.02488   3.03709   3.07368   3.12398   3.14910
  Beta virt. eigenvalues --    3.17150   3.18541   3.19492   3.25005   3.29278
  Beta virt. eigenvalues --    3.33228   3.33630   3.38063   3.45434   3.51012
  Beta virt. eigenvalues --    3.52431   3.53639   3.55224   3.57891   3.62627
  Beta virt. eigenvalues --    3.64378   3.78882   3.79842   3.81708   3.86838
  Beta virt. eigenvalues --    3.91747   3.93178   3.96145   3.96507   3.98276
  Beta virt. eigenvalues --    4.02769   4.03992   4.09846   4.11394   4.12780
  Beta virt. eigenvalues --    4.21548   4.25140   4.27378   4.33933   4.34556
  Beta virt. eigenvalues --    4.41732   4.43209   4.50629   4.58480   4.69274
  Beta virt. eigenvalues --    4.75940   4.80385   4.83082   4.91300   4.98822
  Beta virt. eigenvalues --    4.99802   5.04825   5.12597   5.15413   5.18039
  Beta virt. eigenvalues --    5.21942   5.41275   5.42152   5.52448   5.53852
  Beta virt. eigenvalues --    5.63548   5.71126   5.89471   5.96917   6.05132
  Beta virt. eigenvalues --    6.14717   6.30210   6.66518   6.83839   6.84429
  Beta virt. eigenvalues --    6.92710   7.07870   7.16241   7.32903   7.59215
  Beta virt. eigenvalues --   11.61440  11.92016  12.54253
          Condensed to atoms (all electrons):
               1          2          3          4          5          6
     1  C    5.217420   0.342882  -0.060176   0.399352   0.399371  -0.037478
     2  C    0.342882   4.552221   0.338551  -0.039715  -0.039712   0.407067
     3  O   -0.060176   0.338551   7.847384   0.006241   0.006235  -0.049097
     4  H    0.399352  -0.039715   0.006241   0.573051  -0.044814   0.010173
     5  H    0.399371  -0.039712   0.006235  -0.044814   0.573078  -0.012616
     6  H   -0.037478   0.407067  -0.049097   0.010173  -0.012616   0.707250
     7  H   -0.037523   0.407057  -0.049111  -0.012596   0.010170  -0.075977
     8  H    0.009572  -0.032986   0.337809  -0.000499  -0.000498  -0.005883
               7          8
     1  C   -0.037523   0.009572
     2  C    0.407057  -0.032986
     3  O   -0.049111   0.337809
     4  H   -0.012596  -0.000499
     5  H    0.010170  -0.000498
     6  H   -0.075977  -0.005883
     7  H    0.707325  -0.005870
     8  H   -0.005870   0.482417
          Atomic-Atomic Spin Densities.
               1          2          3          4          5          6
     1  C    1.063252  -0.009537  -0.025316   0.004068   0.004058  -0.002158
     2  C   -0.009537  -0.034596  -0.001102   0.003346   0.003347   0.001287
     3  O   -0.025316  -0.001102   0.058467  -0.001499  -0.001502  -0.000938
     4  H    0.004068   0.003346  -0.001499  -0.032034   0.005939  -0.000266
     5  H    0.004058   0.003347  -0.001502   0.005939  -0.032009   0.000781
     6  H   -0.002158   0.001287  -0.000938  -0.000266   0.000781   0.001700
     7  H   -0.002171   0.001297  -0.000950   0.000783  -0.000265   0.000868
     8  H    0.003565  -0.000215  -0.004291   0.000220   0.000221   0.000353
               7          8
     1  C   -0.002171   0.003565
     2  C    0.001297  -0.000215
     3  O   -0.000950  -0.004291
     4  H    0.000783   0.000220
     5  H   -0.000265   0.000221
     6  H    0.000868   0.000353
     7  H    0.001733   0.000359
     8  H    0.000359   0.012922
 Mulliken charges and spin densities:
               1          2
     1  C   -0.233420   1.035761
     2  C    0.064636  -0.036173
     3  O   -0.377837   0.022870
     4  H    0.108809  -0.019444
     5  H    0.108787  -0.019430
     6  H    0.056561   0.001628
     7  H    0.056525   0.001653
     8  H    0.215939   0.013134
 Sum of Mulliken charges =  -0.00000   1.00000
 Mulliken charges and spin densities with hydrogens summed into heavy atoms:
               1          2
     1  C   -0.015824   0.996888
     2  C    0.177722  -0.032892
     3  O   -0.161898   0.036004
 Electronic spatial extent (au):  <R**2>=            176.8707
 Charge=             -0.0000 electrons
 Dipole moment (field-independent basis, Debye):
    X=             -0.8061    Y=              1.2389    Z=              0.0012  Tot=              1.4781
 Quadrupole moment (field-independent basis, Debye-Ang):
   XX=            -17.7556   YY=            -20.0567   ZZ=            -19.3268
   XY=             -2.4026   XZ=             -0.0006   YZ=              0.0008
 Traceless Quadrupole moment (field-independent basis, Debye-Ang):
   XX=              1.2908   YY=             -1.0103   ZZ=             -0.2804
   XY=             -2.4026   XZ=             -0.0006   YZ=              0.0008
 Octapole moment (field-independent basis, Debye-Ang**2):
  XXX=            -20.4574  YYY=             -1.0984  ZZZ=              0.0029  XYY=             -1.1239
  XXY=              0.0267  XXZ=              0.0071  XZZ=             -1.4417  YZZ=             -0.4710
  YYZ=             -0.0006  XYZ=              0.0000
 Hexadecapole moment (field-independent basis, Debye-Ang**3):
 XXXX=           -130.6751 YYYY=            -56.6975 ZZZZ=            -33.0884 XXXY=             -2.3936
 XXXZ=             -0.0037 YYYX=              0.3739 YYYZ=              0.0037 ZZZX=              0.0032
 ZZZY=             -0.0004 XXYY=            -33.9632 XXZZ=            -30.1019 YYZZ=            -13.6846
 XXYZ=             -0.0003 YYXZ=             -0.0015 ZZXY=             -1.0674
 N-N= 7.482651541069D+01 E-N=-5.105566324649D+02  KE= 1.533785307540D+02
                          Isotropic Fermi Contact Couplings
        Atom                 a.u.       MegaHertz       Gauss      10(-4) cm-1
     1  C(13)              0.25661     288.47779     102.93605      96.22583
     2  C(13)              0.01100      12.36454       4.41197       4.12437
     3  O(17)              0.11230     -68.07880     -24.29221     -22.70864
     4  H(1)              -0.00399     -17.82883      -6.36177      -5.94706
     5  H(1)              -0.00398     -17.78817      -6.34726      -5.93350
     6  H(1)               0.00146       6.51447       2.32453       2.17299
     7  H(1)               0.00148       6.59764       2.35420       2.20074
     8  H(1)               0.00511      22.85670       8.15584       7.62417
 --------------------------------------------------------
       Center         ----  Spin Dipole Couplings  ----
                      3XX-RR        3YY-RR        3ZZ-RR
 --------------------------------------------------------
     1   Atom        0.314096      0.205260     -0.519356
     2   Atom        0.013542      0.000492     -0.014034
     3   Atom        0.099289     -0.034031     -0.065258
     4   Atom       -0.026348     -0.003014      0.029362
     5   Atom       -0.026295     -0.003227      0.029522
     6   Atom        0.007217      0.000455     -0.007672
     7   Atom        0.007223      0.000453     -0.007676
     8   Atom        0.008693     -0.002041     -0.006652
 --------------------------------------------------------
                        XY            XZ            YZ
 --------------------------------------------------------
     1   Atom        0.780897     -0.001205     -0.001112
     2   Atom       -0.022622     -0.000015      0.000007
     3   Atom        0.081913      0.000035      0.000010
     4   Atom        0.016750     -0.023561      0.055237
     5   Atom        0.016732      0.023596     -0.055191
     6   Atom       -0.011333     -0.009674      0.007083
     7   Atom       -0.011335      0.009673     -0.007089
     8   Atom       -0.003595     -0.000005      0.000003
 --------------------------------------------------------


 ---------------------------------------------------------------------------------
              Anisotropic Spin Dipole Couplings in Principal Axis System
 ---------------------------------------------------------------------------------

       Atom             a.u.   MegaHertz   Gauss  10(-4) cm-1        Axes

              Baa    -0.5231   -70.197   -25.048   -23.415 -0.6821  0.7313 -0.0023
     1 C(13)  Bbb    -0.5194   -69.693   -24.868   -23.247 -0.0008  0.0024  1.0000
              Bcc     1.0425   139.890    49.916    46.662  0.7313  0.6821 -0.0010
 
              Baa    -0.0165    -2.218    -0.791    -0.740  0.6012  0.7991  0.0015
     2 C(13)  Bbb    -0.0140    -1.883    -0.672    -0.628 -0.0006 -0.0014  1.0000
              Bcc     0.0306     4.101     1.463     1.368  0.7991 -0.6012 -0.0004
 
              Baa    -0.0730     5.281     1.884     1.761 -0.4294  0.9031  0.0008
     3 O(17)  Bbb    -0.0653     4.722     1.685     1.575  0.0002 -0.0008  1.0000
              Bcc     0.1382   -10.003    -3.569    -3.337  0.9031  0.4294  0.0002
 
              Baa    -0.0645   -34.434   -12.287   -11.486 -0.5902  0.6223 -0.5142
     4 H(1)   Bbb    -0.0070    -3.761    -1.342    -1.254  0.8015  0.5275 -0.2816
              Bcc     0.0716    38.194    13.629    12.740 -0.0960  0.5783  0.8101
 
              Baa    -0.0645   -34.434   -12.287   -11.486 -0.5896  0.6233  0.5136
     5 H(1)   Bbb    -0.0070    -3.759    -1.341    -1.254  0.8018  0.5281  0.2796
              Bcc     0.0716    38.194    13.628    12.740  0.0970 -0.5767  0.8112
 
              Baa    -0.0127    -6.795    -2.425    -2.267  0.3235 -0.2167  0.9211
     6 H(1)   Bbb    -0.0080    -4.262    -1.521    -1.422  0.5903  0.8070 -0.0175
              Bcc     0.0207    11.058     3.946     3.688  0.7395 -0.5494 -0.3890
 
              Baa    -0.0127    -6.798    -2.426    -2.267 -0.3227  0.2178  0.9211
     7 H(1)   Bbb    -0.0080    -4.263    -1.521    -1.422  0.5907  0.8067  0.0162
              Bcc     0.0207    11.061     3.947     3.689  0.7395 -0.5494  0.3889
 
              Baa    -0.0067    -3.549    -1.266    -1.184  0.0002 -0.0005  1.0000
     8 H(1)   Bbb    -0.0031    -1.672    -0.597    -0.558  0.2908  0.9568  0.0004
              Bcc     0.0098     5.221     1.863     1.742  0.9568 -0.2908 -0.0004
 

 ---------------------------------------------------------------------------------

 Calling FoFJK, ICntrl=  10002127 FMM=F ISym2X=0 I1Cent= 0 IOpClX= 1 NMat=1 NMatS=1 NMatT=0.
 ***** Axes restored to original set *****
 -------------------------------------------------------------------
 Center     Atomic                   Forces (Hartrees/Bohr)
 Number     Number              X              Y              Z
 -------------------------------------------------------------------
      1        6           0.046705224   -0.012754138    0.007774193
      2        6          -0.020804588    0.011233323   -0.001544546
      3        8           0.004410775    0.002405264    0.001950399
      4        1          -0.014840746    0.005374797   -0.001105388
      5        1          -0.014441030    0.005898635   -0.002655698
      6        1           0.001053637   -0.004423512    0.002966675
      7        1           0.002912700   -0.002028477   -0.004158749
      8        1          -0.004995973   -0.005705892   -0.003226885
 -------------------------------------------------------------------
 Cartesian Forces:  Max     0.046705224 RMS     0.012286481

 GradGradGradGradGradGradGradGradGradGradGradGradGradGradGradGradGradGrad
 Berny optimization.
 FormGI is forming the generalized inverse of G from B-inverse, IUseBI=4.
 Internal  Forces:  Max     0.014237417 RMS     0.006834195
 Search for a local minimum.
 Step number   1 out of a maximum of  100
 All quantities printed in internal units (Hartrees-Bohrs-Radians)
 Mixed Optimization -- RFO/linear search
 Second derivative matrix not updated -- first step.
 ITU=  0
     Eigenvalues ---    0.00505   0.01363   0.03925   0.06462   0.07405
     Eigenvalues ---    0.11174   0.13811   0.16000   0.16000   0.16000
     Eigenvalues ---    0.21987   0.30396   0.33387   0.33396   0.34248
     Eigenvalues ---    0.34249   0.41733   0.53561
 RFO step:  Lambda=-1.38667724D-02 EMin= 5.05390808D-03
 Linear search not attempted -- first point.
 Iteration  1 RMS(Cart)=  0.06909680 RMS(Int)=  0.01378041
 Iteration  2 RMS(Cart)=  0.00990925 RMS(Int)=  0.01020370
 Iteration  3 RMS(Cart)=  0.00011242 RMS(Int)=  0.01020328
 Iteration  4 RMS(Cart)=  0.00000288 RMS(Int)=  0.01020328
 Iteration  5 RMS(Cart)=  0.00000009 RMS(Int)=  0.01020328
 Variable       Old X    -DE/DX   Delta X   Delta X   Delta X     New X
                                 (Linear)    (Quad)   (Total)
    R1        2.87181  -0.01034   0.00000  -0.03255  -0.03255   2.83926
    R2        2.06913  -0.00469   0.00000  -0.01317  -0.01317   2.05596
    R3        2.06914  -0.00470   0.00000  -0.01318  -0.01318   2.05596
    R4        2.69264   0.00050   0.00000   0.00117   0.00117   2.69381
    R5        2.08362  -0.00532   0.00000  -0.01528  -0.01528   2.06834
    R6        2.08378  -0.00536   0.00000  -0.01540  -0.01540   2.06838
    R7        1.83134  -0.00823   0.00000  -0.01498  -0.01498   1.81636
    A1        1.92615   0.01423   0.00000   0.14395   0.11799   2.04414
    A2        1.92622   0.01424   0.00000   0.14401   0.11805   2.04428
    A3        1.88819  -0.00045   0.00000   0.11862   0.08512   1.97331
    A4        1.88141  -0.00690   0.00000  -0.03253  -0.03257   1.84884
    A5        1.91805   0.00223   0.00000   0.01097   0.01082   1.92887
    A6        1.91798   0.00224   0.00000   0.01102   0.01087   1.92885
    A7        1.93788   0.00130   0.00000   0.00038   0.00039   1.93828
    A8        1.93779   0.00131   0.00000   0.00046   0.00046   1.93826
    A9        1.87107   0.00000   0.00000   0.01054   0.01038   1.88145
   A10        1.88275  -0.00078   0.00000  -0.00449  -0.00449   1.87826
    D1        1.04210   0.00879   0.00000   0.16546   0.17174   1.21384
    D2       -3.12690   0.00744   0.00000   0.15238   0.15858  -2.96832
    D3       -1.07193   0.01012   0.00000   0.17842   0.18478  -0.88715
    D4       -1.04404  -0.00878   0.00000  -0.16526  -0.17154  -1.21559
    D5        1.07014  -0.01012   0.00000  -0.17834  -0.18471   0.88543
    D6        3.12511  -0.00745   0.00000  -0.15230  -0.15850   2.96661
    D7        3.14108  -0.00000   0.00000  -0.00001  -0.00001   3.14107
    D8        1.03932   0.00086   0.00000   0.00694   0.00686   1.04618
    D9       -1.04049  -0.00085   0.00000  -0.00684  -0.00677  -1.04726
         Item               Value     Threshold  Converged?
 Maximum Force            0.014237     0.000450     NO 
 RMS     Force            0.006834     0.000300     NO 
 Maximum Displacement     0.179892     0.001800     NO 
 RMS     Displacement     0.064030     0.001200     NO 
 Predicted change in Energy=-9.695553D-03
 GradGradGradGradGradGradGradGradGradGradGradGradGradGradGradGradGradGrad

                          Input orientation:                          
 ---------------------------------------------------------------------
 Center     Atomic      Atomic             Coordinates (Angstroms)
 Number     Number       Type             X           Y           Z
 ---------------------------------------------------------------------
      1          6           0        1.115495    0.852607    0.987437
      2          6           0        1.898195    1.991568    1.576991
      3          8           0        3.225180    1.502800    1.756660
      4          1           0        0.917274    0.000075    1.633631
      5          1           0        1.350201    0.566454   -0.035646
      6          1           0        1.884848    2.854925    0.904380
      7          1           0        1.461647    2.303810    2.530900
      8          1           0        3.748960    2.215063    2.133747
 ---------------------------------------------------------------------
                    Distance matrix (angstroms):
                    1          2          3          4          5
     1  C    0.000000
     2  C    1.502474   0.000000
     3  O    2.337782   1.425505   0.000000
     4  H    1.087965   2.220689   2.756764   0.000000
     5  H    1.087966   2.220776   2.757653   1.815130   0.000000
     6  H    2.146644   1.094518   2.085932   3.101318   2.531125
     7  H    2.146647   1.094537   2.085933   2.531527   3.101288
     8  H    3.178907   1.945574   0.961176   3.629701   3.630182
                    6          7          8
     6  H    0.000000
     7  H    1.768728   0.000000
     8  H    2.322860   2.323232   0.000000
 Stoichiometry    C2H5O(2)
 Framework group  C1[X(C2H5O)]
 Deg. of freedom    18
 Full point group                 C1      NOp   1
 Largest Abelian subgroup         C1      NOp   1
 Largest concise Abelian subgroup C1      NOp   1
                         Standard orientation:                         
 ---------------------------------------------------------------------
 Center     Atomic      Atomic             Coordinates (Angstroms)
 Number     Number       Type             X           Y           Z
 ---------------------------------------------------------------------
      1          6           0        1.276231   -0.150209   -0.000048
      2          6           0       -0.042254    0.570223   -0.000147
      3          8           0       -1.042882   -0.445063    0.000078
      4          1           0        1.549195   -0.685127   -0.907254
      5          1           0        1.550135   -0.683427    0.907875
      6          1           0       -0.130268    1.209262    0.884077
      7          1           0       -0.130320    1.208902   -0.884651
      8          1           0       -1.899547   -0.009190    0.000502
 ---------------------------------------------------------------------
 Rotational constants (GHZ):          35.3894530          10.3443328           8.9190640
 Standard basis: CC-pVTZ (5D, 7F)
 There are   180 symmetry adapted cartesian basis functions of A   symmetry.
 There are   160 symmetry adapted basis functions of A   symmetry.
   160 basis functions,   241 primitive gaussians,   180 cartesian basis functions
    13 alpha electrons       12 beta electrons
       nuclear repulsion energy        75.0814055082 Hartrees.
 NAtoms=    8 NActive=    8 NUniq=    8 SFac= 1.00D+00 NAtFMM=   60 NAOKFM=F Big=F
 Integral buffers will be    131072 words long.
 Raffenetti 2 integral format.
 Two-electron integral symmetry is turned on.
 Nuclear repulsion after empirical dispersion term =       75.0787142594 Hartrees.
 One-electron integrals computed using PRISM.
 NBasis=   160 RedAO= T EigKep=  1.02D-03  NBF=   160
 NBsUse=   160 1.00D-06 EigRej= -1.00D+00 NBFU=   160
 Initial guess from the checkpoint file:  "/localscratch/388704/Gau-40640.chk"
 B after Tr=     0.000000    0.000000   -0.000000
         Rot=    0.999978    0.000014   -0.000003   -0.006601 Ang=   0.76 deg.
 Initial guess <Sx>= 0.0000 <Sy>= 0.0000 <Sz>= 0.5000 <S**2>= 0.7543 S= 0.5022
 ExpMin= 1.03D-01 ExpMax= 1.53D+04 ExpMxC= 5.22D+02 IAcc=3 IRadAn=         7 AccDes= 0.00D+00
 Harris functional with IExCor=  419 and IRadAn=       7 diagonalized for initial guess.
 HarFok:  IExCor=  419 AccDes= 0.00D+00 IRadAn=         7 IDoV= 1 UseB2=F ITyADJ=14
 ICtDFT=  3500011 ScaDFX=  1.000000  1.000000  1.000000  1.000000
 FoFCou: FMM=F IPFlag=           0 FMFlag=      100000 FMFlg1=           0
         NFxFlg=           0 DoJE=T BraDBF=F KetDBF=T FulRan=T
         wScrn=  0.000000 ICntrl=       500 IOpCl=  0 I1Cent=   200000004 NGrid=           0
         NMat0=    1 NMatS0=      1 NMatT0=    0 NMatD0=    1 NMtDS0=    0 NMtDT0=    0
 Petite list used in FoFCou.
 Keep R1 and R2 ints in memory in canonical form, NReq=206444256.
 Requested convergence on RMS density matrix=1.00D-08 within 128 cycles.
 Requested convergence on MAX density matrix=1.00D-06.
 Requested convergence on             energy=1.00D-06.
 No special actions if energy rises.
 Integral accuracy reduced to 1.0D-05 until final iterations.
 Initial convergence to 1.0D-05 achieved.  Increase integral accuracy.
 SCF Done:  E(UB2PLYPD3) =  -154.114701311     A.U. after   13 cycles
            NFock= 13  Conv=0.35D-08     -V/T= 2.0043
 <Sx>= 0.0000 <Sy>= 0.0000 <Sz>= 0.5000 <S**2>= 0.7552 S= 0.5026
 <L.S>=  0.00000000000    
 Annihilation of the first spin contaminant:
 S**2 before annihilation     0.7552,   after     0.7500
 DoSCS=T DFT=T ScalE2(SS,OS)=  0.270000  0.270000
 ExpMin= 1.03D-01 ExpMax= 1.53D+04 ExpMxC= 5.22D+02 IAcc=3 IRadAn=         7 AccDes= 0.00D+00
 HarFok:  IExCor=  205 AccDes= 0.00D+00 IRadAn=         7 IDoV=-2 UseB2=F ITyADJ=14
 ICtDFT= 12500011 ScaDFX=  1.000000  1.000000  1.000000  1.000000
 Range of M.O.s used for correlation:     4   160
 NBasis=   160 NAE=    13 NBE=    12 NFC=     3 NFV=     0
 NROrb=    157 NOA=    10 NOB=     9 NVA=   147 NVB=   148

 **** Warning!!: The largest alpha MO coefficient is  0.10069526D+02


 **** Warning!!: The largest beta MO coefficient is  0.10042006D+02

 DoSCS=T DFT=T ScalE2(SS,OS)=  0.270000  0.270000
 Fully direct method using O(ONN) memory.
 JobTyp=2 Pass  1:  I=   4 to  13 NPSUse= 40 ParTrn=T ParDer=T DoDerP=T.
 JobTyp=3 Pass  1:  I=   4 to  12 NPSUse= 40 ParTrn=T ParDer=T DoDerP=T.
 Spin components of T(2) and E(2):
     alpha-alpha T2 =       0.3204622537D-01 E2=     -0.2379353555D-01
     alpha-beta  T2 =       0.1729582338D+00 E2=     -0.1389710734D+00
     beta-beta   T2 =       0.2502011753D-01 E2=     -0.1915982338D-01
 (S**2,0)=  0.75522D+00           (S**2,1)=  0.74798D+00
 Scaling Projection term by:   0.270000
 E(PUHF)=      -0.15411673191D+03        E(PMP2)=      -0.15429679431D+03
 E2(B2PLYPD3) =    -0.1819244324D+00 E(B2PLYPD3) =    -0.15429662574322D+03
          IDoAtm=11111111
          Differentiating once with respect to electric field.
                with respect to dipole field.
          Differentiating once with respect to nuclear coordinates.
 Keep R1 and R2 ints in memory in canonical form, NReq=206449884.
          There are     1 degrees of freedom in the 1st order CPHF.  IDoFFX=0 NUNeed=     1.
 LinEq1:  Iter=  0 NonCon=     1 RMS=7.14D-04 Max=1.24D-02 NDo=     1
 AX will form     1 AO Fock derivatives at one time.
 LinEq1:  Iter=  1 NonCon=     1 RMS=2.23D-04 Max=2.75D-03 NDo=     1
 LinEq1:  Iter=  2 NonCon=     1 RMS=8.50D-05 Max=1.21D-03 NDo=     1
 LinEq1:  Iter=  3 NonCon=     1 RMS=3.99D-05 Max=3.67D-04 NDo=     1
 LinEq1:  Iter=  4 NonCon=     1 RMS=2.25D-05 Max=2.39D-04 NDo=     1
 LinEq1:  Iter=  5 NonCon=     1 RMS=6.62D-06 Max=8.37D-05 NDo=     1
 LinEq1:  Iter=  6 NonCon=     1 RMS=2.28D-06 Max=4.52D-05 NDo=     1
 LinEq1:  Iter=  7 NonCon=     1 RMS=8.54D-07 Max=8.62D-06 NDo=     1
 LinEq1:  Iter=  8 NonCon=     1 RMS=2.89D-07 Max=3.89D-06 NDo=     1
 LinEq1:  Iter=  9 NonCon=     1 RMS=6.73D-08 Max=9.66D-07 NDo=     1
 LinEq1:  Iter= 10 NonCon=     1 RMS=1.63D-08 Max=2.07D-07 NDo=     1
 LinEq1:  Iter= 11 NonCon=     1 RMS=3.42D-09 Max=6.88D-08 NDo=     1
 LinEq1:  Iter= 12 NonCon=     1 RMS=8.14D-10 Max=1.16D-08 NDo=     1
 LinEq1:  Iter= 13 NonCon=     1 RMS=1.96D-10 Max=2.42D-09 NDo=     1
 LinEq1:  Iter= 14 NonCon=     0 RMS=4.06D-11 Max=4.96D-10 NDo=     1
 Linear equations converged to 1.000D-10 1.000D-09 after    14 iterations.
 End of Minotr F.D. properties file   721 does not exist.
 End of Minotr F.D. properties file   722 does not exist.
 End of Minotr F.D. properties file   788 does not exist.
 Calling FoFJK, ICntrl=  10002127 FMM=F ISym2X=0 I1Cent= 0 IOpClX= 1 NMat=1 NMatS=1 NMatT=0.
 ***** Axes restored to original set *****
 -------------------------------------------------------------------
 Center     Atomic                   Forces (Hartrees/Bohr)
 Number     Number              X              Y              Z
 -------------------------------------------------------------------
      1        6           0.013529692   -0.006124863    0.001427429
      2        6          -0.011742086   -0.004370176   -0.004527128
      3        8           0.005528790    0.001541168    0.001957907
      4        1          -0.004374118    0.005857437   -0.000077559
      5        1          -0.004781390    0.005323083    0.001498467
      6        1           0.000318121   -0.001038691   -0.000035312
      7        1           0.000425958   -0.000906623   -0.000435759
      8        1           0.001095032   -0.000281335    0.000191956
 -------------------------------------------------------------------
 Cartesian Forces:  Max     0.013529692 RMS     0.004775940

 GradGradGradGradGradGradGradGradGradGradGradGradGradGradGradGradGradGrad
 Berny optimization.
 Using GEDIIS/GDIIS optimizer.
 FormGI is forming the generalized inverse of G from B-inverse, IUseBI=4.
 Internal  Forces:  Max     0.007228826 RMS     0.003085434
 Search for a local minimum.
 Step number   2 out of a maximum of  100
 All quantities printed in internal units (Hartrees-Bohrs-Radians)
 Mixed Optimization -- RFO/linear search
 Update second derivatives using D2CorX and points    1    2
 DE= -8.30D-03 DEPred=-9.70D-03 R= 8.56D-01
 TightC=F SS=  1.41D+00  RLast= 4.65D-01 DXNew= 5.0454D-01 1.3948D+00
 Trust test= 8.56D-01 RLast= 4.65D-01 DXMaxT set to 5.05D-01
 ITU=  1  0
 Use linear search instead of GDIIS.
     Eigenvalues ---    0.00505   0.01363   0.02867   0.06699   0.07403
     Eigenvalues ---    0.11005   0.13667   0.15987   0.16000   0.17169
     Eigenvalues ---    0.23911   0.29010   0.33078   0.33391   0.34105
     Eigenvalues ---    0.34248   0.42160   0.53600
 RFO step:  Lambda=-3.07714098D-03 EMin= 5.05390812D-03
 Quartic linear search produced a step of  0.70183.
 Iteration  1 RMS(Cart)=  0.08109129 RMS(Int)=  0.01676337
 Iteration  2 RMS(Cart)=  0.00931574 RMS(Int)=  0.01396440
 Iteration  3 RMS(Cart)=  0.00012913 RMS(Int)=  0.01396381
 Iteration  4 RMS(Cart)=  0.00000262 RMS(Int)=  0.01396381
 Iteration  5 RMS(Cart)=  0.00000007 RMS(Int)=  0.01396381
 Variable       Old X    -DE/DX   Delta X   Delta X   Delta X     New X
                                 (Linear)    (Quad)   (Total)
    R1        2.83926  -0.00723  -0.02284  -0.02069  -0.04353   2.79573
    R2        2.05596  -0.00384  -0.00924  -0.01108  -0.02033   2.03563
    R3        2.05596  -0.00384  -0.00925  -0.01109  -0.02034   2.03562
    R4        2.69381   0.00601   0.00082   0.02395   0.02477   2.71858
    R5        2.06834  -0.00080  -0.01073   0.00529  -0.00544   2.06290
    R6        2.06838  -0.00081  -0.01081   0.00533  -0.00548   2.06289
    R7        1.81636   0.00046  -0.01051   0.01077   0.00026   1.81662
    A1        2.04414   0.00093   0.08281  -0.00470   0.03820   2.08234
    A2        2.04428   0.00093   0.08285  -0.00474   0.03820   2.08247
    A3        1.97331   0.00233   0.05974   0.07812   0.09560   2.06891
    A4        1.84884   0.00594  -0.02286   0.06694   0.04411   1.89295
    A5        1.92887  -0.00167   0.00759  -0.01950  -0.01201   1.91686
    A6        1.92885  -0.00167   0.00763  -0.01954  -0.01200   1.91685
    A7        1.93828  -0.00185   0.00028  -0.01324  -0.01295   1.92532
    A8        1.93826  -0.00185   0.00033  -0.01331  -0.01297   1.92529
    A9        1.88145   0.00102   0.00728  -0.00175   0.00525   1.88671
   A10        1.87826   0.00191  -0.00315   0.02287   0.01972   1.89798
    D1        1.21384   0.00335   0.12053   0.06301   0.18758   1.40142
    D2       -2.96832   0.00378   0.11129   0.07661   0.19183  -2.77649
    D3       -0.88715   0.00292   0.12969   0.04951   0.18334  -0.70381
    D4       -1.21559  -0.00335  -0.12040  -0.06284  -0.18727  -1.40286
    D5        0.88543  -0.00291  -0.12963  -0.04924  -0.18302   0.70242
    D6        2.96661  -0.00378  -0.11124  -0.07634  -0.19151   2.77510
    D7        3.14107   0.00000  -0.00001   0.00015   0.00014   3.14121
    D8        1.04618  -0.00059   0.00481  -0.00983  -0.00499   1.04119
    D9       -1.04726   0.00059  -0.00475   0.01006   0.00527  -1.04199
         Item               Value     Threshold  Converged?
 Maximum Force            0.007229     0.000450     NO 
 RMS     Force            0.003085     0.000300     NO 
 Maximum Displacement     0.170523     0.001800     NO 
 RMS     Displacement     0.078564     0.001200     NO 
 Predicted change in Energy=-1.798936D-03
 GradGradGradGradGradGradGradGradGradGradGradGradGradGradGradGradGradGrad

                          Input orientation:                          
 ---------------------------------------------------------------------
 Center     Atomic      Atomic             Coordinates (Angstroms)
 Number     Number       Type             X           Y           Z
 ---------------------------------------------------------------------
      1          6           0        1.181072    0.810988    0.990305
      2          6           0        1.922352    1.952552    1.570021
      3          8           0        3.285499    1.547326    1.787332
      4          1           0        0.827038    0.027758    1.639605
      5          1           0        1.268909    0.605532   -0.063470
      6          1           0        1.884238    2.803731    0.887583
      7          1           0        1.461425    2.252899    2.512893
      8          1           0        3.771267    2.286514    2.163832
 ---------------------------------------------------------------------
                    Distance matrix (angstroms):
                    1          2          3          4          5
     1  C    0.000000
     2  C    1.479438   0.000000
     3  O    2.367712   1.438611   0.000000
     4  H    1.077209   2.215713   2.893950   0.000000
     5  H    1.077204   2.215794   2.894665   1.851901   0.000000
     6  H    2.115661   1.091642   2.086057   3.064186   2.472895
     7  H    2.115652   1.091636   2.086029   2.473122   3.064070
     8  H    3.203663   1.970439   0.961312   3.747703   3.748116
                    6          7          8
     6  H    0.000000
     7  H    1.767433   0.000000
     8  H    2.336066   2.336310   0.000000
 Stoichiometry    C2H5O(2)
 Framework group  C1[X(C2H5O)]
 Deg. of freedom    18
 Full point group                 C1      NOp   1
 Largest Abelian subgroup         C1      NOp   1
 Largest concise Abelian subgroup C1      NOp   1
                         Standard orientation:                         
 ---------------------------------------------------------------------
 Center     Atomic      Atomic             Coordinates (Angstroms)
 Number     Number       Type             X           Y           Z
 ---------------------------------------------------------------------
      1          6           0        1.268707   -0.184782    0.000015
      2          6           0       -0.019964    0.541897   -0.000165
      3          8           0       -1.086989   -0.423017    0.000108
      4          1           0        1.650246   -0.581965   -0.925756
      5          1           0        1.651037   -0.580356    0.926144
      6          1           0       -0.085542    1.179665    0.883369
      7          1           0       -0.085576    1.179147   -0.884064
      8          1           0       -1.926708    0.044951    0.000343
 ---------------------------------------------------------------------
 Rotational constants (GHZ):          37.6401009           9.9362376           8.7611359
 Standard basis: CC-pVTZ (5D, 7F)
 There are   180 symmetry adapted cartesian basis functions of A   symmetry.
 There are   160 symmetry adapted basis functions of A   symmetry.
   160 basis functions,   241 primitive gaussians,   180 cartesian basis functions
    13 alpha electrons       12 beta electrons
       nuclear repulsion energy        74.9246391626 Hartrees.
 NAtoms=    8 NActive=    8 NUniq=    8 SFac= 1.00D+00 NAtFMM=   60 NAOKFM=F Big=F
 Integral buffers will be    131072 words long.
 Raffenetti 2 integral format.
 Two-electron integral symmetry is turned on.
 Nuclear repulsion after empirical dispersion term =       74.9219617937 Hartrees.
 One-electron integrals computed using PRISM.
 NBasis=   160 RedAO= T EigKep=  9.30D-04  NBF=   160
 NBsUse=   160 1.00D-06 EigRej= -1.00D+00 NBFU=   160
 Initial guess from the checkpoint file:  "/localscratch/388704/Gau-40640.chk"
 B after Tr=    -0.000000   -0.000000    0.000000
         Rot=    0.999981    0.000019    0.000006    0.006147 Ang=   0.70 deg.
 Initial guess <Sx>= 0.0000 <Sy>= 0.0000 <Sz>= 0.5000 <S**2>= 0.7552 S= 0.5026
 ExpMin= 1.03D-01 ExpMax= 1.53D+04 ExpMxC= 5.22D+02 IAcc=3 IRadAn=         7 AccDes= 0.00D+00
 Harris functional with IExCor=  419 and IRadAn=       7 diagonalized for initial guess.
 HarFok:  IExCor=  419 AccDes= 0.00D+00 IRadAn=         7 IDoV= 1 UseB2=F ITyADJ=14
 ICtDFT=  3500011 ScaDFX=  1.000000  1.000000  1.000000  1.000000
 FoFCou: FMM=F IPFlag=           0 FMFlag=      100000 FMFlg1=           0
         NFxFlg=           0 DoJE=T BraDBF=F KetDBF=T FulRan=T
         wScrn=  0.000000 ICntrl=       500 IOpCl=  0 I1Cent=   200000004 NGrid=           0
         NMat0=    1 NMatS0=      1 NMatT0=    0 NMatD0=    1 NMtDS0=    0 NMtDT0=    0
 Petite list used in FoFCou.
 Keep R1 and R2 ints in memory in canonical form, NReq=206444256.
 Requested convergence on RMS density matrix=1.00D-08 within 128 cycles.
 Requested convergence on MAX density matrix=1.00D-06.
 Requested convergence on             energy=1.00D-06.
 No special actions if energy rises.
 Integral accuracy reduced to 1.0D-05 until final iterations.
 Initial convergence to 1.0D-05 achieved.  Increase integral accuracy.
 SCF Done:  E(UB2PLYPD3) =  -154.117235200     A.U. after   13 cycles
            NFock= 13  Conv=0.36D-08     -V/T= 2.0040
 <Sx>= 0.0000 <Sy>= 0.0000 <Sz>= 0.5000 <S**2>= 0.7558 S= 0.5029
 <L.S>=  0.00000000000    
 Annihilation of the first spin contaminant:
 S**2 before annihilation     0.7558,   after     0.7500
 DoSCS=T DFT=T ScalE2(SS,OS)=  0.270000  0.270000
 ExpMin= 1.03D-01 ExpMax= 1.53D+04 ExpMxC= 5.22D+02 IAcc=3 IRadAn=         7 AccDes= 0.00D+00
 HarFok:  IExCor=  205 AccDes= 0.00D+00 IRadAn=         7 IDoV=-2 UseB2=F ITyADJ=14
 ICtDFT= 12500011 ScaDFX=  1.000000  1.000000  1.000000  1.000000
 Range of M.O.s used for correlation:     4   160
 NBasis=   160 NAE=    13 NBE=    12 NFC=     3 NFV=     0
 NROrb=    157 NOA=    10 NOB=     9 NVA=   147 NVB=   148
 DoSCS=T DFT=T ScalE2(SS,OS)=  0.270000  0.270000
 Fully direct method using O(ONN) memory.
 JobTyp=2 Pass  1:  I=   4 to  13 NPSUse= 40 ParTrn=T ParDer=T DoDerP=T.
 JobTyp=3 Pass  1:  I=   4 to  12 NPSUse= 40 ParTrn=T ParDer=T DoDerP=T.
 Spin components of T(2) and E(2):
     alpha-alpha T2 =       0.3218399714D-01 E2=     -0.2390662092D-01
     alpha-beta  T2 =       0.1724417479D+00 E2=     -0.1389996173D+00
     beta-beta   T2 =       0.2489856608D-01 E2=     -0.1910212159D-01
 (S**2,0)=  0.75585D+00           (S**2,1)=  0.74767D+00
 Scaling Projection term by:   0.270000
 E(PUHF)=      -0.15411951467D+03        E(PMP2)=      -0.15429942935D+03
 E2(B2PLYPD3) =    -0.1820083598D+00 E(B2PLYPD3) =    -0.15429924355940D+03
          IDoAtm=11111111
          Differentiating once with respect to electric field.
                with respect to dipole field.
          Differentiating once with respect to nuclear coordinates.
 Keep R1 and R2 ints in memory in canonical form, NReq=206449884.
          There are     1 degrees of freedom in the 1st order CPHF.  IDoFFX=0 NUNeed=     1.
 LinEq1:  Iter=  0 NonCon=     1 RMS=7.19D-04 Max=1.20D-02 NDo=     1
 AX will form     1 AO Fock derivatives at one time.
 LinEq1:  Iter=  1 NonCon=     1 RMS=2.25D-04 Max=2.97D-03 NDo=     1
 LinEq1:  Iter=  2 NonCon=     1 RMS=8.87D-05 Max=1.21D-03 NDo=     1
 LinEq1:  Iter=  3 NonCon=     1 RMS=4.07D-05 Max=4.19D-04 NDo=     1
 LinEq1:  Iter=  4 NonCon=     1 RMS=2.31D-05 Max=2.72D-04 NDo=     1
 LinEq1:  Iter=  5 NonCon=     1 RMS=6.53D-06 Max=8.19D-05 NDo=     1
 LinEq1:  Iter=  6 NonCon=     1 RMS=2.20D-06 Max=4.73D-05 NDo=     1
 LinEq1:  Iter=  7 NonCon=     1 RMS=7.88D-07 Max=8.85D-06 NDo=     1
 LinEq1:  Iter=  8 NonCon=     1 RMS=2.84D-07 Max=3.10D-06 NDo=     1
 LinEq1:  Iter=  9 NonCon=     1 RMS=6.89D-08 Max=8.96D-07 NDo=     1
 LinEq1:  Iter= 10 NonCon=     1 RMS=1.65D-08 Max=2.16D-07 NDo=     1
 LinEq1:  Iter= 11 NonCon=     1 RMS=3.34D-09 Max=4.46D-08 NDo=     1
 LinEq1:  Iter= 12 NonCon=     1 RMS=8.40D-10 Max=9.68D-09 NDo=     1
 LinEq1:  Iter= 13 NonCon=     1 RMS=2.01D-10 Max=2.22D-09 NDo=     1
 LinEq1:  Iter= 14 NonCon=     0 RMS=4.36D-11 Max=5.25D-10 NDo=     1
 Linear equations converged to 1.000D-10 1.000D-09 after    14 iterations.
 End of Minotr F.D. properties file   721 does not exist.
 End of Minotr F.D. properties file   722 does not exist.
 End of Minotr F.D. properties file   788 does not exist.
 Calling FoFJK, ICntrl=  10002127 FMM=F ISym2X=0 I1Cent= 0 IOpClX= 1 NMat=1 NMatS=1 NMatT=0.
 ***** Axes restored to original set *****
 -------------------------------------------------------------------
 Center     Atomic                   Forces (Hartrees/Bohr)
 Number     Number              X              Y              Z
 -------------------------------------------------------------------
      1        6           0.002738766   -0.001396739    0.000243387
      2        6           0.000834077    0.002083345    0.000911864
      3        8           0.000555576   -0.001637729   -0.000411988
      4        1          -0.001648053   -0.000987965   -0.000361042
      5        1          -0.001470084   -0.000755100   -0.001041598
      6        1           0.000556365    0.001143718   -0.000366585
      7        1           0.000157307    0.000630234    0.001160391
      8        1          -0.001723953    0.000920237   -0.000134427
 -------------------------------------------------------------------
 Cartesian Forces:  Max     0.002738766 RMS     0.001182074

 GradGradGradGradGradGradGradGradGradGradGradGradGradGradGradGradGradGrad
 Berny optimization.
 Using GEDIIS/GDIIS optimizer.
 FormGI is forming the generalized inverse of G from B-inverse, IUseBI=4.
 Internal  Forces:  Max     0.003536669 RMS     0.001214905
 Search for a local minimum.
 Step number   3 out of a maximum of  100
 All quantities printed in internal units (Hartrees-Bohrs-Radians)
 Mixed Optimization -- RFO/linear search
 Update second derivatives using D2CorX and points    2    3
 DE= -2.62D-03 DEPred=-1.80D-03 R= 1.46D+00
 TightC=F SS=  1.41D+00  RLast= 4.79D-01 DXNew= 8.4853D-01 1.4367D+00
 Trust test= 1.46D+00 RLast= 4.79D-01 DXMaxT set to 8.49D-01
 ITU=  1  1  0
 Use linear search instead of GDIIS.
     Eigenvalues ---    0.00505   0.01363   0.01583   0.06429   0.07398
     Eigenvalues ---    0.11287   0.13847   0.16000   0.16317   0.17311
     Eigenvalues ---    0.24466   0.30216   0.33097   0.33391   0.34248
     Eigenvalues ---    0.34257   0.42666   0.53707
 RFO step:  Lambda=-2.83963316D-04 EMin= 5.05390779D-03
 Quartic linear search produced a step of  0.10392.
 Iteration  1 RMS(Cart)=  0.02049824 RMS(Int)=  0.00122780
 Iteration  2 RMS(Cart)=  0.00050470 RMS(Int)=  0.00111973
 Iteration  3 RMS(Cart)=  0.00000029 RMS(Int)=  0.00111973
 Variable       Old X    -DE/DX   Delta X   Delta X   Delta X     New X
                                 (Linear)    (Quad)   (Total)
    R1        2.79573   0.00307  -0.00452   0.01191   0.00739   2.80312
    R2        2.03563   0.00104  -0.00211   0.00358   0.00147   2.03709
    R3        2.03562   0.00104  -0.00211   0.00358   0.00147   2.03709
    R4        2.71858  -0.00099   0.00257  -0.00191   0.00066   2.71924
    R5        2.06290   0.00110  -0.00056   0.00448   0.00391   2.06682
    R6        2.06289   0.00111  -0.00057   0.00451   0.00394   2.06683
    R7        1.81662  -0.00022   0.00003   0.00052   0.00054   1.81716
    A1        2.08234   0.00116   0.00397   0.00851   0.00923   2.09157
    A2        2.08247   0.00115   0.00397   0.00846   0.00919   2.09166
    A3        2.06891  -0.00179   0.00993  -0.00280   0.00378   2.07270
    A4        1.89295  -0.00018   0.00458   0.00253   0.00712   1.90007
    A5        1.91686   0.00067  -0.00125   0.00526   0.00402   1.92087
    A6        1.91685   0.00067  -0.00125   0.00523   0.00399   1.92084
    A7        1.92532  -0.00046  -0.00135  -0.00565  -0.00702   1.91830
    A8        1.92529  -0.00046  -0.00135  -0.00567  -0.00704   1.91825
    A9        1.88671  -0.00023   0.00055  -0.00162  -0.00113   1.88558
   A10        1.89798  -0.00354   0.00205  -0.02357  -0.02152   1.87646
    D1        1.40142   0.00069   0.01949   0.02306   0.04279   1.44421
    D2       -2.77649   0.00042   0.01993   0.02088   0.04105  -2.73544
    D3       -0.70381   0.00096   0.01905   0.02528   0.04457  -0.65923
    D4       -1.40286  -0.00069  -0.01946  -0.02311  -0.04280  -1.44566
    D5        0.70242  -0.00096  -0.01902  -0.02529  -0.04455   0.65787
    D6        2.77510  -0.00042  -0.01990  -0.02088  -0.04102   2.73408
    D7        3.14121   0.00000   0.00001   0.00012   0.00014   3.14134
    D8        1.04119  -0.00043  -0.00052  -0.00449  -0.00496   1.03623
    D9       -1.04199   0.00043   0.00055   0.00469   0.00519  -1.03680
         Item               Value     Threshold  Converged?
 Maximum Force            0.003537     0.000450     NO 
 RMS     Force            0.001215     0.000300     NO 
 Maximum Displacement     0.045201     0.001800     NO 
 RMS     Displacement     0.020311     0.001200     NO 
 Predicted change in Energy=-1.555737D-04
 GradGradGradGradGradGradGradGradGradGradGradGradGradGradGradGradGradGrad

                          Input orientation:                          
 ---------------------------------------------------------------------
 Center     Atomic      Atomic             Coordinates (Angstroms)
 Number     Number       Type             X           Y           Z
 ---------------------------------------------------------------------
      1          6           0        1.193879    0.797189    0.988955
      2          6           0        1.932349    1.944949    1.570013
      3          8           0        3.299100    1.553996    1.793085
      4          1           0        0.803362    0.028004    1.635406
      5          1           0        1.246042    0.606855   -0.070807
      6          1           0        1.895834    2.798770    0.887472
      7          1           0        1.472418    2.247102    2.515208
      8          1           0        3.758816    2.310433    2.168768
 ---------------------------------------------------------------------
                    Distance matrix (angstroms):
                    1          2          3          4          5
     1  C    0.000000
     2  C    1.483348   0.000000
     3  O    2.377254   1.438962   0.000000
     4  H    1.077984   2.225662   2.929543   0.000000
     5  H    1.077980   2.225714   2.930224   1.855316   0.000000
     6  H    2.123526   1.093712   2.082967   3.070838   2.478914
     7  H    2.123507   1.093721   2.082936   2.479130   3.070688
     8  H    3.203244   1.956545   0.961600   3.772091   3.772520
                    6          7          8
     6  H    0.000000
     7  H    1.770069   0.000000
     8  H    2.313200   2.313363   0.000000
 Stoichiometry    C2H5O(2)
 Framework group  C1[X(C2H5O)]
 Deg. of freedom    18
 Full point group                 C1      NOp   1
 Largest Abelian subgroup         C1      NOp   1
 Largest concise Abelian subgroup C1      NOp   1
                         Standard orientation:                         
 ---------------------------------------------------------------------
 Center     Atomic      Atomic             Coordinates (Angstroms)
 Number     Number       Type             X           Y           Z
 ---------------------------------------------------------------------
      1          6           0        1.271827   -0.188180    0.000020
      2          6           0       -0.022580    0.536272   -0.000165
      3          8           0       -1.093632   -0.424695    0.000130
      4          1           0        1.682191   -0.553411   -0.927480
      5          1           0        1.682955   -0.551739    0.927835
      6          1           0       -0.095056    1.175058    0.884655
      7          1           0       -0.095089    1.174475   -0.885414
      8          1           0       -1.921425    0.064623    0.000233
 ---------------------------------------------------------------------
 Rotational constants (GHZ):          37.9515221           9.8334637           8.7009139
 Standard basis: CC-pVTZ (5D, 7F)
 There are   180 symmetry adapted cartesian basis functions of A   symmetry.
 There are   160 symmetry adapted basis functions of A   symmetry.
   160 basis functions,   241 primitive gaussians,   180 cartesian basis functions
    13 alpha electrons       12 beta electrons
       nuclear repulsion energy        74.7847949149 Hartrees.
 NAtoms=    8 NActive=    8 NUniq=    8 SFac= 1.00D+00 NAtFMM=   60 NAOKFM=F Big=F
 Integral buffers will be    131072 words long.
 Raffenetti 2 integral format.
 Two-electron integral symmetry is turned on.
 Nuclear repulsion after empirical dispersion term =       74.7821221776 Hartrees.
 One-electron integrals computed using PRISM.
 NBasis=   160 RedAO= T EigKep=  9.22D-04  NBF=   160
 NBsUse=   160 1.00D-06 EigRej= -1.00D+00 NBFU=   160
 Initial guess from the checkpoint file:  "/localscratch/388704/Gau-40640.chk"
 B after Tr=     0.000000    0.000000   -0.000000
         Rot=    0.999999    0.000014    0.000000   -0.001353 Ang=   0.16 deg.
 Initial guess <Sx>= 0.0000 <Sy>= 0.0000 <Sz>= 0.5000 <S**2>= 0.7559 S= 0.5029
 ExpMin= 1.03D-01 ExpMax= 1.53D+04 ExpMxC= 5.22D+02 IAcc=3 IRadAn=         7 AccDes= 0.00D+00
 Harris functional with IExCor=  419 and IRadAn=       7 diagonalized for initial guess.
 HarFok:  IExCor=  419 AccDes= 0.00D+00 IRadAn=         7 IDoV= 1 UseB2=F ITyADJ=14
 ICtDFT=  3500011 ScaDFX=  1.000000  1.000000  1.000000  1.000000
 FoFCou: FMM=F IPFlag=           0 FMFlag=      100000 FMFlg1=           0
         NFxFlg=           0 DoJE=T BraDBF=F KetDBF=T FulRan=T
         wScrn=  0.000000 ICntrl=       500 IOpCl=  0 I1Cent=   200000004 NGrid=           0
         NMat0=    1 NMatS0=      1 NMatT0=    0 NMatD0=    1 NMtDS0=    0 NMtDT0=    0
 Petite list used in FoFCou.
 Keep R1 and R2 ints in memory in canonical form, NReq=206444256.
 Requested convergence on RMS density matrix=1.00D-08 within 128 cycles.
 Requested convergence on MAX density matrix=1.00D-06.
 Requested convergence on             energy=1.00D-06.
 No special actions if energy rises.
 Integral accuracy reduced to 1.0D-05 until final iterations.
 Initial convergence to 1.0D-05 achieved.  Increase integral accuracy.
 SCF Done:  E(UB2PLYPD3) =  -154.117326086     A.U. after   11 cycles
            NFock= 11  Conv=0.44D-08     -V/T= 2.0041
 <Sx>= 0.0000 <Sy>= 0.0000 <Sz>= 0.5000 <S**2>= 0.7560 S= 0.5030
 <L.S>=  0.00000000000    
 Annihilation of the first spin contaminant:
 S**2 before annihilation     0.7560,   after     0.7500
 DoSCS=T DFT=T ScalE2(SS,OS)=  0.270000  0.270000
 ExpMin= 1.03D-01 ExpMax= 1.53D+04 ExpMxC= 5.22D+02 IAcc=3 IRadAn=         7 AccDes= 0.00D+00
 HarFok:  IExCor=  205 AccDes= 0.00D+00 IRadAn=         7 IDoV=-2 UseB2=F ITyADJ=14
 ICtDFT= 12500011 ScaDFX=  1.000000  1.000000  1.000000  1.000000
 Range of M.O.s used for correlation:     4   160
 NBasis=   160 NAE=    13 NBE=    12 NFC=     3 NFV=     0
 NROrb=    157 NOA=    10 NOB=     9 NVA=   147 NVB=   148
 DoSCS=T DFT=T ScalE2(SS,OS)=  0.270000  0.270000
 Fully direct method using O(ONN) memory.
 JobTyp=2 Pass  1:  I=   4 to  13 NPSUse= 40 ParTrn=T ParDer=T DoDerP=T.
 JobTyp=3 Pass  1:  I=   4 to  12 NPSUse= 40 ParTrn=T ParDer=T DoDerP=T.
 Spin components of T(2) and E(2):
     alpha-alpha T2 =       0.3225533338D-01 E2=     -0.2392382112D-01
     alpha-beta  T2 =       0.1728163917D+00 E2=     -0.1390811404D+00
     beta-beta   T2 =       0.2491235747D-01 E2=     -0.1909476539D-01
 (S**2,0)=  0.75601D+00           (S**2,1)=  0.74762D+00
 Scaling Projection term by:   0.270000
 E(PUHF)=      -0.15411965502D+03        E(PMP2)=      -0.15429961684D+03
 E2(B2PLYPD3) =    -0.1820997269D+00 E(B2PLYPD3) =    -0.15429942581312D+03
          IDoAtm=11111111
          Differentiating once with respect to electric field.
                with respect to dipole field.
          Differentiating once with respect to nuclear coordinates.
 Keep R1 and R2 ints in memory in canonical form, NReq=206449884.
          There are     1 degrees of freedom in the 1st order CPHF.  IDoFFX=0 NUNeed=     1.
 LinEq1:  Iter=  0 NonCon=     1 RMS=7.19D-04 Max=1.17D-02 NDo=     1
 AX will form     1 AO Fock derivatives at one time.
 LinEq1:  Iter=  1 NonCon=     1 RMS=2.27D-04 Max=3.09D-03 NDo=     1
 LinEq1:  Iter=  2 NonCon=     1 RMS=8.98D-05 Max=1.20D-03 NDo=     1
 LinEq1:  Iter=  3 NonCon=     1 RMS=4.11D-05 Max=4.34D-04 NDo=     1
 LinEq1:  Iter=  4 NonCon=     1 RMS=2.35D-05 Max=2.75D-04 NDo=     1
 LinEq1:  Iter=  5 NonCon=     1 RMS=6.64D-06 Max=8.32D-05 NDo=     1
 LinEq1:  Iter=  6 NonCon=     1 RMS=2.23D-06 Max=4.91D-05 NDo=     1
 LinEq1:  Iter=  7 NonCon=     1 RMS=8.03D-07 Max=9.53D-06 NDo=     1
 LinEq1:  Iter=  8 NonCon=     1 RMS=2.90D-07 Max=3.06D-06 NDo=     1
 LinEq1:  Iter=  9 NonCon=     1 RMS=7.04D-08 Max=9.42D-07 NDo=     1
 LinEq1:  Iter= 10 NonCon=     1 RMS=1.68D-08 Max=2.22D-07 NDo=     1
 LinEq1:  Iter= 11 NonCon=     1 RMS=3.33D-09 Max=4.07D-08 NDo=     1
 LinEq1:  Iter= 12 NonCon=     1 RMS=8.46D-10 Max=8.37D-09 NDo=     1
 LinEq1:  Iter= 13 NonCon=     1 RMS=2.05D-10 Max=2.20D-09 NDo=     1
 LinEq1:  Iter= 14 NonCon=     0 RMS=4.48D-11 Max=5.50D-10 NDo=     1
 Linear equations converged to 1.000D-10 1.000D-09 after    14 iterations.
 End of Minotr F.D. properties file   721 does not exist.
 End of Minotr F.D. properties file   722 does not exist.
 End of Minotr F.D. properties file   788 does not exist.
 Calling FoFJK, ICntrl=  10002127 FMM=F ISym2X=0 I1Cent= 0 IOpClX= 1 NMat=1 NMatS=1 NMatT=0.
 ***** Axes restored to original set *****
 -------------------------------------------------------------------
 Center     Atomic                   Forces (Hartrees/Bohr)
 Number     Number              X              Y              Z
 -------------------------------------------------------------------
      1        6           0.001988548    0.000928433    0.000832113
      2        6          -0.000162227    0.001041373    0.000314001
      3        8           0.000094724   -0.000324973   -0.000088714
      4        1          -0.000602865   -0.000455322   -0.000617956
      5        1          -0.000738104   -0.000631171   -0.000099522
      6        1          -0.000247986   -0.000235366    0.000060838
      7        1          -0.000157910   -0.000115764   -0.000287367
      8        1          -0.000174179   -0.000207210   -0.000113393
 -------------------------------------------------------------------
 Cartesian Forces:  Max     0.001988548 RMS     0.000614881

 GradGradGradGradGradGradGradGradGradGradGradGradGradGradGradGradGradGrad
 Berny optimization.
 Using GEDIIS/GDIIS optimizer.
 FormGI is forming the generalized inverse of G from B-inverse, IUseBI=4.
 Internal  Forces:  Max     0.001245052 RMS     0.000411726
 Search for a local minimum.
 Step number   4 out of a maximum of  100
 All quantities printed in internal units (Hartrees-Bohrs-Radians)
 Mixed Optimization -- En-DIIS/RFO-DIIS
 Update second derivatives using D2CorX and points    2    3    4
 DE= -1.82D-04 DEPred=-1.56D-04 R= 1.17D+00
 TightC=F SS=  1.41D+00  RLast= 1.09D-01 DXNew= 1.4270D+00 3.2828D-01
 Trust test= 1.17D+00 RLast= 1.09D-01 DXMaxT set to 8.49D-01
 ITU=  1  1  1  0
 Use linear search instead of GDIIS.
     Eigenvalues ---    0.00505   0.01172   0.01363   0.06372   0.07358
     Eigenvalues ---    0.11808   0.13880   0.15880   0.16000   0.17245
     Eigenvalues ---    0.25069   0.31515   0.33391   0.33792   0.34248
     Eigenvalues ---    0.34273   0.42793   0.53632
 RFO step:  Lambda=-3.28264813D-05 EMin= 5.05390810D-03
 Quartic linear search produced a step of  0.19201.
 Iteration  1 RMS(Cart)=  0.00593789 RMS(Int)=  0.00015819
 Iteration  2 RMS(Cart)=  0.00007014 RMS(Int)=  0.00014264
 Iteration  3 RMS(Cart)=  0.00000000 RMS(Int)=  0.00014264
 Variable       Old X    -DE/DX   Delta X   Delta X   Delta X     New X
                                 (Linear)    (Quad)   (Total)
    R1        2.80312  -0.00024   0.00142  -0.00263  -0.00121   2.80191
    R2        2.03709   0.00017   0.00028  -0.00010   0.00018   2.03728
    R3        2.03709   0.00017   0.00028  -0.00010   0.00018   2.03727
    R4        2.71924   0.00004   0.00013   0.00115   0.00128   2.72052
    R5        2.06682  -0.00021   0.00075  -0.00090  -0.00015   2.06666
    R6        2.06683  -0.00021   0.00076  -0.00091  -0.00015   2.06668
    R7        1.81716  -0.00029   0.00010  -0.00036  -0.00026   1.81690
    A1        2.09157   0.00069   0.00177   0.00447   0.00583   2.09740
    A2        2.09166   0.00069   0.00176   0.00447   0.00582   2.09748
    A3        2.07270  -0.00125   0.00073  -0.00465  -0.00435   2.06835
    A4        1.90007  -0.00086   0.00137  -0.00249  -0.00113   1.89895
    A5        1.92087  -0.00001   0.00077  -0.00228  -0.00151   1.91936
    A6        1.92084  -0.00000   0.00077  -0.00227  -0.00150   1.91933
    A7        1.91830   0.00046  -0.00135   0.00330   0.00195   1.92025
    A8        1.91825   0.00046  -0.00135   0.00332   0.00196   1.92021
    A9        1.88558  -0.00003  -0.00022   0.00049   0.00026   1.88583
   A10        1.87646  -0.00007  -0.00413   0.00161  -0.00253   1.87393
    D1        1.44421   0.00023   0.00822   0.00936   0.01760   1.46181
    D2       -2.73544   0.00025   0.00788   0.01046   0.01836  -2.71708
    D3       -0.65923   0.00020   0.00856   0.00824   0.01682  -0.64241
    D4       -1.44566  -0.00023  -0.00822  -0.00944  -0.01768  -1.46334
    D5        0.65787  -0.00020  -0.00855  -0.00834  -0.01692   0.64095
    D6        2.73408  -0.00025  -0.00788  -0.01056  -0.01846   2.71562
    D7        3.14134   0.00000   0.00003   0.00009   0.00012   3.14146
    D8        1.03623   0.00026  -0.00095   0.00242   0.00148   1.03771
    D9       -1.03680  -0.00026   0.00100  -0.00222  -0.00124  -1.03804
         Item               Value     Threshold  Converged?
 Maximum Force            0.001245     0.000450     NO 
 RMS     Force            0.000412     0.000300     NO 
 Maximum Displacement     0.014518     0.001800     NO 
 RMS     Displacement     0.005926     0.001200     NO 
 Predicted change in Energy=-2.021099D-05
 GradGradGradGradGradGradGradGradGradGradGradGradGradGradGradGradGradGrad

                          Input orientation:                          
 ---------------------------------------------------------------------
 Center     Atomic      Atomic             Coordinates (Angstroms)
 Number     Number       Type             X           Y           Z
 ---------------------------------------------------------------------
      1          6           0        1.201562    0.793998    0.989871
      2          6           0        1.935408    1.944108    1.570508
      3          8           0        3.303485    1.556065    1.794895
      4          1           0        0.796430    0.029344    1.632855
      5          1           0        1.238502    0.607535   -0.071317
      6          1           0        1.895344    2.796525    0.886542
      7          1           0        1.471928    2.244867    2.514320
      8          1           0        3.759140    2.314859    2.170426
 ---------------------------------------------------------------------
                    Distance matrix (angstroms):
                    1          2          3          4          5
     1  C    0.000000
     2  C    1.482708   0.000000
     3  O    2.376319   1.439639   0.000000
     4  H    1.078080   2.228785   2.939806   0.000000
     5  H    1.078078   2.228832   2.940512   1.853088   0.000000
     6  H    2.121821   1.093631   2.084876   3.069509   2.478026
     7  H    2.121807   1.093641   2.084855   2.478270   3.069343
     8  H    3.201240   1.955341   0.961465   3.780241   3.780739
                    6          7          8
     6  H    0.000000
     7  H    1.770104   0.000000
     8  H    2.313892   2.313979   0.000000
 Stoichiometry    C2H5O(2)
 Framework group  C1[X(C2H5O)]
 Deg. of freedom    18
 Full point group                 C1      NOp   1
 Largest Abelian subgroup         C1      NOp   1
 Largest concise Abelian subgroup C1      NOp   1
                         Standard orientation:                         
 ---------------------------------------------------------------------
 Center     Atomic      Atomic             Coordinates (Angstroms)
 Number     Number       Type             X           Y           Z
 ---------------------------------------------------------------------
      1          6           0        1.269603   -0.191185    0.000018
      2          6           0       -0.022636    0.535822   -0.000169
      3          8           0       -1.095242   -0.424428    0.000150
      4          1           0        1.692115   -0.545498   -0.926375
      5          1           0        1.692923   -0.543734    0.926712
      6          1           0       -0.091859    1.174811    0.884664
      7          1           0       -0.091905    1.174217   -0.885441
      8          1           0       -1.921143    0.067813    0.000145
 ---------------------------------------------------------------------
 Rotational constants (GHZ):          38.0000105           9.8246583           8.6953345
 Standard basis: CC-pVTZ (5D, 7F)
 There are   180 symmetry adapted cartesian basis functions of A   symmetry.
 There are   160 symmetry adapted basis functions of A   symmetry.
   160 basis functions,   241 primitive gaussians,   180 cartesian basis functions
    13 alpha electrons       12 beta electrons
       nuclear repulsion energy        74.7728451874 Hartrees.
 NAtoms=    8 NActive=    8 NUniq=    8 SFac= 1.00D+00 NAtFMM=   60 NAOKFM=F Big=F
 Integral buffers will be    131072 words long.
 Raffenetti 2 integral format.
[...]
     7   1    -0.00  -0.00   0.00     0.01  -0.02   0.03     0.00   0.00   0.00
     8   1    -0.00   0.00   0.00    -0.00   0.00  -0.00     0.86  -0.50   0.00

 -------------------
 - Thermochemistry -
 -------------------
 Temperature   298.150 Kelvin.  Pressure   1.00000 Atm.
 Atom     1 has atomic number  6 and mass  12.00000
 Atom     2 has atomic number  6 and mass  12.00000
 Atom     3 has atomic number  8 and mass  15.99491
 Atom     4 has atomic number  1 and mass   1.00783
 Atom     5 has atomic number  1 and mass   1.00783
 Atom     6 has atomic number  1 and mass   1.00783
 Atom     7 has atomic number  1 and mass   1.00783
 Atom     8 has atomic number  1 and mass   1.00783
 Molecular mass:    45.03404 amu.
 Principal axes and moments of inertia in atomic units:
                           1         2         3
     Eigenvalues --    47.47715 183.68302 207.55557
           X            0.99844  -0.05587   0.00002
           Y            0.05587   0.99844   0.00017
           Z           -0.00003  -0.00017   1.00000
 This molecule is an asymmetric top.
 Rotational symmetry number  1.
 Rotational temperatures (Kelvin)      1.82433     0.47154     0.41730
 Rotational constants (GHZ):          38.01284     9.82530     8.69522
    1 imaginary frequencies ignored.
 Zero-point vibrational energy     171320.5 (Joules/Mol)
                                   40.94658 (Kcal/Mol)
 Warning -- explicit consideration of   2 degrees of freedom as
           vibrations may cause significant error
 Vibrational temperatures:    344.45   548.45   893.98  1176.29  1416.87
          (Kelvin)           1516.36  1697.40  1784.95  1867.83  2076.46
                             2148.17  2212.73  4337.67  4389.58  4569.85
                             4725.77  5503.44
 
 Zero-point correction=                           0.065253 (Hartree/Particle)
 Thermal correction to Energy=                    0.069265
 Thermal correction to Enthalpy=                  0.070209
 Thermal correction to Gibbs Free Energy=         0.039513
 Sum of electronic and zero-point Energies=           -154.234203
 Sum of electronic and thermal Energies=              -154.230191
 Sum of electronic and thermal Enthalpies=            -154.229246
 Sum of electronic and thermal Free Energies=         -154.259943
 
                     E (Thermal)             CV                S
                      KCal/Mol        Cal/Mol-Kelvin    Cal/Mol-Kelvin
 Total                   43.464             12.358             64.606
 Electronic               0.000              0.000              1.377
 Translational            0.889              2.981             37.340
 Rotational               0.889              2.981             22.120
 Vibrational             41.687              6.397              3.769
 Vibration     1          0.657              1.780              1.807
 Vibration     2          0.751              1.510              1.034
                       Q            Log10(Q)             Ln(Q)
 Total Bot       0.668971D-18        -18.174593        -41.848546
 Total V=0       0.690973D+12         11.839461         27.261367
 Vib (Bot)       0.184894D-29        -29.733078        -68.462941
 Vib (Bot)    1  0.819267D+00         -0.086575         -0.199345
 Vib (Bot)    2  0.473916D+00         -0.324299         -0.746725
 Vib (V=0)       0.190975D+01          0.280976          0.646972
 Vib (V=0)    1  0.145979D+01          0.164291          0.378293
 Vib (V=0)    2  0.118891D+01          0.075149          0.173037
 Electronic      0.200000D+01          0.301030          0.693147
 Translational   0.118786D+08          7.074765         16.290249
 Rotational      0.152296D+05          4.182690          9.630999
 ***** Axes restored to original set *****
 -------------------------------------------------------------------
 Center     Atomic                   Forces (Hartrees/Bohr)
 Number     Number              X              Y              Z
 -------------------------------------------------------------------
      1        6           0.000097800    0.000158237    0.000078459
      2        6           0.000146223   -0.000036993    0.000026101
      3        8          -0.000160794    0.000068240   -0.000020060
      4        1          -0.000004840   -0.000034242   -0.000038096
      5        1          -0.000017466   -0.000048559    0.000004717
      6        1          -0.000038525   -0.000030337    0.000007366
      7        1          -0.000026593   -0.000013330   -0.000039753
      8        1           0.000004194   -0.000063015   -0.000018734
 -------------------------------------------------------------------
 Cartesian Forces:  Max     0.000160794 RMS     0.000067608
 FormGI is forming the generalized inverse of G from B-inverse, IUseBI=4.

 GradGradGradGradGradGradGradGradGradGradGradGradGradGradGradGradGradGrad
 Berny optimization.
 Internal  Forces:  Max     0.000156290 RMS     0.000052534
 Search for a local minimum.
 Step number   1 out of a maximum of    2
 All quantities printed in internal units (Hartrees-Bohrs-Radians)
 Second derivative matrix not updated -- analytic derivatives used.
 ITU=  0
     Eigenvalues ---   -0.00069   0.00196   0.00909   0.06011   0.07127
     Eigenvalues ---    0.10127   0.10412   0.11279   0.14939   0.15386
     Eigenvalues ---    0.20918   0.30403   0.32281   0.32355   0.36817
     Eigenvalues ---    0.36856   0.37279   0.52701
 Eigenvalue     1 is  -6.86D-04 should be greater than     0.000000 Eigenvector:
                          D4        D1        D6        D5        D3
   1                   -0.40876  -0.40846  -0.38863  -0.38860  -0.38832
                          D2        D7        D9        D8        A2
   1                   -0.38830   0.15462   0.13568   0.13565   0.02509
 Angle between quadratic step and forces=  60.39 degrees.
 Linear search not attempted -- first point.
 Iteration  1 RMS(Cart)=  0.00064260 RMS(Int)=  0.00000036
 Iteration  2 RMS(Cart)=  0.00000031 RMS(Int)=  0.00000009
 Variable       Old X    -DE/DX   Delta X   Delta X   Delta X     New X
                                 (Linear)    (Quad)   (Total)
    R1        2.80203  -0.00011   0.00000  -0.00024  -0.00024   2.80179
    R2        2.03747   0.00000   0.00000   0.00004   0.00004   2.03752
    R3        2.03747   0.00000   0.00000   0.00004   0.00004   2.03751
    R4        2.71992  -0.00016   0.00000  -0.00072  -0.00072   2.71920
    R5        2.06615  -0.00003   0.00000  -0.00005  -0.00005   2.06610
    R6        2.06617  -0.00003   0.00000  -0.00004  -0.00004   2.06613
    R7        1.81685  -0.00006   0.00000  -0.00011  -0.00011   1.81674
    A1        2.10050   0.00003   0.00000   0.00022   0.00022   2.10073
    A2        2.10059   0.00003   0.00000   0.00033   0.00033   2.10092
    A3        2.06421  -0.00007   0.00000  -0.00077  -0.00077   2.06343
    A4        1.89798  -0.00009   0.00000  -0.00039  -0.00039   1.89759
    A5        1.91987  -0.00001   0.00000  -0.00020  -0.00020   1.91967
    A6        1.91984  -0.00001   0.00000  -0.00025  -0.00025   1.91960
    A7        1.92006   0.00006   0.00000   0.00052   0.00052   1.92058
    A8        1.92001   0.00006   0.00000   0.00048   0.00048   1.92049
    A9        1.88618  -0.00000   0.00000  -0.00015  -0.00015   1.88603
   A10        1.87592   0.00007   0.00000   0.00066   0.00066   1.87658
    D1        1.46718  -0.00001   0.00000  -0.00139  -0.00139   1.46579
    D2       -2.71223   0.00000   0.00000  -0.00112  -0.00112  -2.71335
    D3       -0.63651  -0.00001   0.00000  -0.00158  -0.00158  -0.63809
    D4       -1.46888   0.00000   0.00000  -0.00007  -0.00007  -1.46895
    D5        0.63489   0.00001   0.00000   0.00020   0.00020   0.63509
    D6        2.71061  -0.00000   0.00000  -0.00026  -0.00026   2.71036
    D7        3.14157   0.00000   0.00000   0.00062   0.00062  -3.14100
    D8        1.03791   0.00003   0.00000   0.00080   0.00080   1.03871
    D9       -1.03803  -0.00003   0.00000   0.00036   0.00036  -1.03766
         Item               Value     Threshold  Converged?
 Maximum Force            0.000156     0.000450     YES
 RMS     Force            0.000053     0.000300     YES
 Maximum Displacement     0.001876     0.001800     NO 
 RMS     Displacement     0.000643     0.001200     YES
 Predicted change in Energy=-2.068505D-07
                           ----------------------------
                           ! Non-Optimized Parameters !
                           ! (Angstroms and Degrees)  !
 --------------------------                            --------------------------
 ! Name  Definition              Value          Derivative Info.                !
 --------------------------------------------------------------------------------
 ! R1    R(1,2)                  1.4826         -DE/DX =   -0.0001              !
 ! R2    R(1,4)                  1.0782         -DE/DX =    0.0                 !
 ! R3    R(1,5)                  1.0782         -DE/DX =    0.0                 !
 ! R4    R(2,3)                  1.4389         -DE/DX =   -0.0002              !
 ! R5    R(2,6)                  1.0933         -DE/DX =    0.0                 !
 ! R6    R(2,7)                  1.0934         -DE/DX =    0.0                 !
 ! R7    R(3,8)                  0.9614         -DE/DX =   -0.0001              !
 ! A1    A(2,1,4)              120.3629         -DE/DX =    0.0                 !
 ! A2    A(2,1,5)              120.374          -DE/DX =    0.0                 !
 ! A3    A(4,1,5)              118.226          -DE/DX =   -0.0001              !
 ! A4    A(1,2,3)              108.7237         -DE/DX =   -0.0001              !
 ! A5    A(1,2,6)              109.989          -DE/DX =    0.0                 !
 ! A6    A(1,2,7)              109.9847         -DE/DX =    0.0                 !
 ! A7    A(3,2,6)              110.041          -DE/DX =    0.0001              !
 ! A8    A(3,2,7)              110.0358         -DE/DX =    0.0001              !
 ! A9    A(6,2,7)              108.0617         -DE/DX =    0.0                 !
 ! A10   A(2,3,8)              107.5199         -DE/DX =    0.0001              !
 ! D1    D(4,1,2,3)             83.9837         -DE/DX =    0.0                 !
 ! D2    D(4,1,2,6)           -155.4638         -DE/DX =    0.0                 !
 ! D3    D(4,1,2,7)            -36.56           -DE/DX =    0.0                 !
 ! D4    D(5,1,2,3)            -84.1644         -DE/DX =    0.0                 !
 ! D5    D(5,1,2,6)             36.3881         -DE/DX =    0.0                 !
 ! D6    D(5,1,2,7)            155.2919         -DE/DX =    0.0                 !
 ! D7    D(1,2,3,8)           -179.9658         -DE/DX =    0.0                 !
 ! D8    D(6,2,3,8)             59.5137         -DE/DX =    0.0                 !
 ! D9    D(7,2,3,8)            -59.4537         -DE/DX =    0.0                 !
 --------------------------------------------------------------------------------
 GradGradGradGradGradGradGradGradGradGradGradGradGradGradGradGradGradGrad


 ----------------------------------------------------------------------

 Electric dipole moment (input orientation):
 (Debye = 10**-18 statcoulomb cm , SI units = C m)
                  (au)            (Debye)         (10**-30 SI)
   Tot        0.587870D+00      0.149422D+01      0.498417D+01
   x         -0.212160D+00     -0.539257D+00     -0.179877D+01
   y          0.533673D+00      0.135646D+01      0.452467D+01
   z          0.125587D+00      0.319211D+00      0.106477D+01

 Dipole polarizability, Alpha (input orientation).
 (esu units = cm**3 , SI units = C**2 m**2 J**-1)
 Alpha(0;0):
               (au)            (10**-24 esu)      (10**-40 SI)
   iso        0.286605D+02      0.424704D+01      0.472547D+01
   aniso      0.847813D+01      0.125633D+01      0.139786D+01
   xx         0.297142D+02      0.440319D+01      0.489921D+01
   yx         0.374496D+01      0.554946D+00      0.617461D+00
   yy         0.289083D+02      0.428377D+01      0.476633D+01
   zx         0.220187D+01      0.326283D+00      0.363039D+00
   zy         0.191143D+01      0.283245D+00      0.315153D+00
   zz         0.273588D+02      0.405416D+01      0.451086D+01

 ----------------------------------------------------------------------

 Dipole orientation:
     6          3.11094466         -0.60347099          0.93891210
     6          5.32876729         -0.52770261          2.64973647
     8          7.59230340         -0.45007738          1.14363323
     1          2.46689190         -2.37529021          0.16616022
     1          2.34528878          1.12044252          0.16873981
     1          5.22893789          1.14199851          3.86263430
     1          5.34339149         -2.20064947          3.86221120
     1          9.00554398         -0.40176176          2.28440873

 Electric dipole moment (dipole orientation):
 (Debye = 10**-18 statcoulomb cm , SI units = C m)
                  (au)            (Debye)         (10**-30 SI)
   Tot        0.587870D+00      0.149422D+01      0.498417D+01
   x          0.000000D+00      0.000000D+00      0.000000D+00
   y          0.000000D+00      0.000000D+00      0.000000D+00
   z          0.587870D+00      0.149422D+01      0.498417D+01

 Dipole polarizability, Alpha (dipole orientation).
 (esu units = cm**3 , SI units = C**2 m**2 J**-1)
 Alpha(0;0):
               (au)            (10**-24 esu)      (10**-40 SI)
   iso        0.286605D+02      0.424704D+01      0.472547D+01
   aniso      0.847813D+01      0.125633D+01      0.139786D+01
   xx         0.329448D+02      0.488192D+01      0.543187D+01
   yx         0.230859D+00      0.342098D-01      0.380635D-01
   yy         0.261460D+02      0.387444D+01      0.431089D+01
   zx         0.316049D+01      0.468336D+00      0.521094D+00
   zy         0.110150D+00      0.163226D-01      0.181613D-01
   zz         0.268905D+02      0.398477D+01      0.443365D+01

 ----------------------------------------------------------------------
 1\1\GINC-N93\Freq\UB2PLYPD3-FC\CC-pVTZ\C2H5O1(2)\QUANDEWANG\02-Aug-201
 9\0\\#N Geom=AllCheck Guess=TCheck SCRF=Check GenChk UB2PLYPD3(FC)/CC-
 pVTZ Freq\\Title Card Required\\0,2\C,1.2040487291,0.7929608385,0.9901
 666908\C,1.9358122171,1.9445180478,1.5707298515\O,3.3037972614,1.55753
 64043,1.7954613859\H,0.7942751851,0.028807246,1.6309750155\H,1.2357159
 087,0.6063889891,-0.0712770017\H,1.8955399138,2.7965042521,0.886671165
 4\H,1.4721786753,2.2449369962,2.5142609636\H,3.7604321095,2.315647226,
 2.171111929\\Version=ES64L-G16RevB.01\State=2-A\HF=-154.1173352\MP2=-1
 54.2994556\PUHF=-154.1196854\PMP2-0=-154.2996486\S2=0.756079\S2-1=0.74
 7602\S2A=0.750022\RMSD=2.985e-09\RMSF=6.761e-05\ZeroPoint=0.0652525\Th
 ermal=0.0692649\Dipole=-0.2121599,0.5336734,0.1255875\DipoleDeriv=-0.2
 84247,0.1328064,-0.0645071,0.1182927,-0.0606242,-0.0367314,-0.0693516,
 -0.0329101,0.1088793,0.8531456,-0.0375836,0.117556,-0.0688213,0.377468
 5,-0.0092316,0.1069349,-0.0011441,0.3794026,-0.9114545,0.0429307,-0.08
 96371,0.082463,-0.3177767,0.0868689,-0.0762493,0.0766085,-0.5047295,0.
 1022116,-0.0661771,0.0143204,-0.091048,-0.0291745,0.0162895,0.0321616,
 0.0452826,-0.0102971,0.1124211,-0.0421062,0.0281134,-0.0616998,0.02332
 21,-0.027161,-0.0048368,-0.0446163,-0.0729783,-0.0374834,-0.0204699,-0
 .0206587,0.0262032,-0.1314016,0.0961917,-0.0348822,0.1230013,-0.051382
 6,-0.0790429,0.0208931,0.0469394,0.0332348,0.0022528,-0.0509343,0.0811
 709,-0.093104,-0.143508,0.2444495,-0.0302933,-0.0321265,-0.0386246,0.1
 359335,-0.0752918,-0.0349475,-0.073118,0.2946135\Polar=29.7142228,3.74
 49625,28.9082981,2.2018685,1.9114326,27.3588316\PG=C01 [X(C2H5O1)]\NIm
 ag=1\\0.20628491,0.21304969,0.44626485,-0.04197832,-0.01284142,0.63174
 852,-0.08312552,-0.07362225,-0.02188860,0.40264917,-0.07183422,-0.1822
 7445,-0.04822558,0.03190220,0.55624570,-0.02127164,-0.04867858,-0.1170
 5444,-0.03966140,-0.00551782,0.58460840,-0.03141186,-0.01094076,-0.013
 08922,-0.17425147,0.07074491,-0.00571916,0.39584100,-0.02504238,0.0097
 4123,-0.00478990,0.00515690,-0.09611095,-0.01085053,0.11378519,0.43260
 849,-0.01786443,-0.00111607,-0.00040025,-0.02794723,0.00620527,-0.0652
 4861,0.13050821,0.16183721,0.13110651,-0.06483935,-0.09364563,0.066308
 59,-0.00054397,-0.01121455,0.01201482,0.00043630,0.00144010,-0.0004657
 3,0.06092476,-0.09893879,-0.19249455,0.12470785,-0.00492755,-0.0113538
 7,0.01497241,-0.00086956,0.00001730,-0.00055153,0.10484252,0.19883121,
 0.07122112,0.12443063,-0.16642524,-0.00582849,-0.01082603,0.01076464,0
 .00004963,0.00016463,-0.00029627,-0.07431470,-0.13194192,0.16521671,-0
 .02460688,-0.01692134,0.01777840,0.00566770,-0.00259181,-0.01755930,0.
 00006314,0.00073904,0.00132461,0.00397309,0.00180882,0.01002595,0.0158
 3601,-0.01764439,-0.05459548,-0.04933288,0.00283768,-0.00050124,-0.022
 38733,-0.00087700,-0.00029474,-0.00001353,-0.00130894,0.00692749,0.020
 08669,0.01859434,0.05030480,0.01082219,-0.04749388,-0.34455569,0.00426
 108,0.00036173,-0.00627630,-0.00052041,0.00029309,0.00036960,-0.000505
 42,-0.00571775,-0.01038398,-0.01248676,0.05407211,0.35883138,-0.001323
 97,-0.01435233,0.00999253,-0.04531083,-0.00507724,0.00555208,-0.019758
 34,0.03295836,-0.02541425,-0.00067775,-0.00251962,-0.00163042,0.000339
 50,0.00099090,-0.00025480,0.06195872,-0.00543114,-0.02092160,0.0178445
 3,-0.00086854,-0.19958157,0.11725993,0.01072165,-0.00377124,0.00696435
 ,-0.00116704,-0.00312283,-0.00273596,0.00044123,0.00135691,-0.00031629
 ,-0.00324809,0.21805031,-0.00101402,-0.01076570,0.00983267,0.00409006,
 0.11870660,-0.15724678,-0.00751188,0.00348001,0.00206029,-0.00200299,-
 0.00189341,0.00003297,0.00084412,0.00033487,0.00105608,0.00400820,-0.1
 3314412,0.16221045,0.00603943,-0.00539362,-0.01583223,-0.08131790,0.02
 126060,0.08410368,-0.03446765,0.01557547,0.02372462,0.00054034,0.00073
 575,0.00054139,-0.00122096,-0.00248072,-0.00135782,0.00283919,-0.00075
 143,0.00201027,0.10627002,0.00703517,-0.00549780,-0.02687088,0.0227136
 4,-0.07337832,-0.05148372,0.01199666,0.00018116,-0.00752720,0.00069835
 ,0.00102179,0.00073014,-0.00212916,-0.00341667,-0.00137882,-0.00979968
 ,0.00772306,0.02262168,-0.02991075,0.07334414,0.00239798,-0.00382784,-
 0.01295680,0.08749592,-0.05438605,-0.24739832,-0.00292839,0.00267183,0
 .01280974,-0.00075738,0.00023125,0.00119044,-0.00040424,-0.00266716,0.
 00086651,0.00731747,-0.00524497,-0.01780624,-0.09423181,0.06333530,0.2
 6257421,-0.00701676,0.00182624,-0.00129116,-0.02376719,-0.03318989,-0.
 01745908,-0.13645112,-0.14461269,-0.08386581,0.00018658,-0.00013158,-0
 .00006449,-0.00005160,-0.00011188,0.00004194,0.00193348,0.00030335,-0.
 00042377,0.00131752,-0.00060425,0.00111045,0.16384909,-0.00119396,-0.0
 0022219,-0.00049172,0.01680792,0.00695470,0.00668563,-0.19456109,-0.34
 237125,-0.16579850,0.00035518,0.00017347,0.00009183,0.00005887,0.00021
 894,0.00017981,0.00104770,0.00026695,0.00066006,0.00096469,0.00002265,
 -0.00011236,0.17652069,0.33495673,-0.00231289,0.00029286,-0.00018877,-
 0.00052133,-0.00631812,-0.00214859,-0.10078878,-0.15280634,-0.08040101
 ,-0.00027720,0.00019309,-0.00009925,0.00047722,-0.00009277,0.00009241,
 0.00042918,-0.00062747,-0.00013944,0.00104190,0.00057349,0.00072046,0.
 10195190,0.15878526,0.08216420\\-0.00009780,-0.00015824,-0.00007846,-0
 .00014622,0.00003699,-0.00002610,0.00016079,-0.00006824,0.00002006,0.0
 0000484,0.00003424,0.00003810,0.00001747,0.00004856,-0.00000472,0.0000
 3853,0.00003034,-0.00000737,0.00002659,0.00001333,0.00003975,-0.000004
 19,0.00006302,0.00001873\\\@


 SCIENCE AT ITS BEST PROVIDES US WITH BETTER QUESTIONS, 
 NOT ABSOLUTE ANSWERS

                                    -- NORMAN COUSINS, 1976
 Job cpu time:       0 days  2 hours 59 minutes  6.7 seconds.
 Elapsed time:       0 days  0 hours  4 minutes 34.4 seconds.
 File lengths (MBytes):  RWF=   4851 Int=      0 D2E=      0 Chk=      6 Scr=      1
 Normal termination of Gaussian 16 at Fri Aug  2 14:14:13 2019.
