 Entering Gaussian System, Link 0=g16
 Initial command:
 /ichec/packages/gaussian/16b01/l1.exe "/localscratch/339542/Gau-66510.inp" -scrdir="/localscratch/339542/"
 Entering Link 1 = /ichec/packages/gaussian/16b01/l1.exe PID=     66515.
  
 Copyright (c) 1988-2017, Gaussian, Inc.  All Rights Reserved.
  
 This is part of the Gaussian(R) 16 program.  It is based on
 the Gaussian(R) 09 system (copyright 2009, Gaussian, Inc.),
 the Gaussian(R) 03 system (copyright 2003, Gaussian, Inc.),
 the Gaussian(R) 98 system (copyright 1998, Gaussian, Inc.),
 the Gaussian(R) 94 system (copyright 1995, Gaussian, Inc.),
 the Gaussian 92(TM) system (copyright 1992, Gaussian, Inc.),
 the Gaussian 90(TM) system (copyright 1990, Gaussian, Inc.),
 the Gaussian 88(TM) system (copyright 1988, Gaussian, Inc.),
 the Gaussian 86(TM) system (copyright 1986, Carnegie Mellon
 University), and the Gaussian 82(TM) system (copyright 1983,
 Carnegie Mellon University). Gaussian is a federally registered
 trademark of Gaussian, Inc.
  
 This software contains proprietary and confidential information,
 including trade secrets, belonging to Gaussian, Inc.
  
 This software is provided under written license and may be
 used, copied, transmitted, or stored only in accord with that
 written license.
  
 The following legend is applicable only to US Government
 contracts under FAR:
  
                    RESTRICTED RIGHTS LEGEND
  
 Use, reproduction and disclosure by the US Government is
 subject to restrictions as set forth in subparagraphs (a)
 and (c) of the Commercial Computer Software - Restricted
 Rights clause in FAR 52.227-19.
  
 Gaussian, Inc.
 340 Quinnipiac St., Bldg. 40, Wallingford CT 06492
  
  
 ---------------------------------------------------------------
 Warning -- This program may not be used in any manner that
 competes with the business of Gaussian, Inc. or will provide
 assistance to any competitor of Gaussian, Inc.  The licensee
 of this program is prohibited from giving any competitor of
 Gaussian, Inc. access to this program.  By using this program,
 the user acknowledges that Gaussian, Inc. is engaged in the
 business of creating and licensing software in the field of
 computational chemistry and represents and warrants to the
 licensee that it is not a competitor of Gaussian, Inc. and that
 it will not use this program in any manner prohibited above.
 ---------------------------------------------------------------
  

 Cite this work as:
 Gaussian 16, Revision B.01,
 M. J. Frisch, G. W. Trucks, H. B. Schlegel, G. E. Scuseria, 
 M. A. Robb, J. R. Cheeseman, G. Scalmani, V. Barone, 
 G. A. Petersson, H. Nakatsuji, X. Li, M. Caricato, A. V. Marenich, 
 J. Bloino, B. G. Janesko, R. Gomperts, B. Mennucci, H. P. Hratchian, 
 J. V. Ortiz, A. F. Izmaylov, J. L. Sonnenberg, D. Williams-Young, 
 F. Ding, F. Lipparini, F. Egidi, J. Goings, B. Peng, A. Petrone, 
 T. Henderson, D. Ranasinghe, V. G. Zakrzewski, J. Gao, N. Rega, 
 G. Zheng, W. Liang, M. Hada, M. Ehara, K. Toyota, R. Fukuda, 
 J. Hasegawa, M. Ishida, T. Nakajima, Y. Honda, O. Kitao, H. Nakai, 
 T. Vreven, K. Throssell, J. A. Montgomery, Jr., J. E. Peralta, 
 F. Ogliaro, M. J. Bearpark, J. J. Heyd, E. N. Brothers, K. N. Kudin, 
 V. N. Staroverov, T. A. Keith, R. Kobayashi, J. Normand, 
 K. Raghavachari, A. P. Rendell, J. C. Burant, S. S. Iyengar, 
 J. Tomasi, M. Cossi, J. M. Millam, M. Klene, C. Adamo, R. Cammi, 
 J. W. Ochterski, R. L. Martin, K. Morokuma, O. Farkas, 
 J. B. Foresman, and D. J. Fox, Gaussian, Inc., Wallingford CT, 2016.
 
 ******************************************
 Gaussian 16:  ES64L-G16RevB.01 20-Dec-2017
                 1-Jun-2019 
 ******************************************
 %mem=80GB
 %nproc=40
 Will use up to   40 processors via shared memory.
 -----------------------------------------------
 # opt=maxcyc=500 freq=noraman uB2PLYPD3/cc-pvtz
 -----------------------------------------------
 1/6=500,18=20,19=15,38=1/1,3;
 2/9=110,12=2,17=6,18=5,40=1/2;
 3/5=16,6=1,11=2,25=1,30=1,71=1,74=-60,116=2/1,2,3;
 4//1;
 5/5=2,38=5/2;
 8/6=4,10=1/1;
 9/15=2,16=-3/6;
 10/5=1/2;
 6/7=2,8=2,9=2,10=2/1;
 7/12=2/1,2,3,16;
 1/6=500,18=20,19=15/3(2);
 2/9=110/2;
 99//99;
 2/9=110/2;
 3/5=16,6=1,11=2,25=1,30=1,71=1,74=-60,116=2/1,2,3;
 4/5=5,16=3,69=1/1;
 5/5=2,38=5/2;
 8/6=4,10=1/1;
 9/15=2,16=-3/6;
 10/5=1/2;
 7/12=2/1,2,3,16;
 1/6=500,18=20,19=15/3(-8);
 2/9=110/2;
 6/7=2,8=2,9=2,10=2/1;
 99/9=10/99;
 -------------------
 Title Card Required
 -------------------
 Symbolic Z-matrix:
 Charge =  0 Multiplicity = 2
 C                     0.        0.       -0.00001 
 H                     0.        1.07663   0.00003 
 H                    -0.93239  -0.53832   0.00003 
 H                     0.93239  -0.53832   0.00003 
 

 GradGradGradGradGradGradGradGradGradGradGradGradGradGradGradGradGradGrad
 Berny optimization.
 Initialization pass.
                           ----------------------------
                           !    Initial Parameters    !
                           ! (Angstroms and Degrees)  !
 --------------------------                            --------------------------
 ! Name  Definition              Value          Derivative Info.                !
 --------------------------------------------------------------------------------
 ! R1    R(1,2)                  1.0766         estimate D2E/DX2                !
 ! R2    R(1,3)                  1.0766         estimate D2E/DX2                !
 ! R3    R(1,4)                  1.0766         estimate D2E/DX2                !
 ! A1    A(2,1,3)              120.0            estimate D2E/DX2                !
 ! A2    A(2,1,4)              120.0            estimate D2E/DX2                !
 ! A3    A(3,1,4)              120.0            estimate D2E/DX2                !
 ! D1    D(2,1,4,3)            179.9932         estimate D2E/DX2                !
 --------------------------------------------------------------------------------
 Trust Radius=3.00D-01 FncErr=1.00D-07 GrdErr=1.00D-07 EigMax=2.50D+02 EigMin=1.00D-04
 Number of steps in this run=    100 maximum allowed number of steps=    100.
 GradGradGradGradGradGradGradGradGradGradGradGradGradGradGradGradGradGrad

                          Input orientation:                          
 ---------------------------------------------------------------------
 Center     Atomic      Atomic             Coordinates (Angstroms)
 Number     Number       Type             X           Y           Z
 ---------------------------------------------------------------------
      1          6           0        0.000000    0.000000   -0.000012
      2          1           0        0.000000    1.076629    0.000025
      3          1           0       -0.932388   -0.538315    0.000025
      4          1           0        0.932388   -0.538315    0.000025
 ---------------------------------------------------------------------
                    Distance matrix (angstroms):
                    1          2          3          4
     1  C    0.000000
     2  H    1.076629   0.000000
     3  H    1.076629   1.864777   0.000000
     4  H    1.076629   1.864777   1.864776   0.000000
 Stoichiometry    CH3(2)
 Framework group  C3[C3(C),X(H3)]
 Deg. of freedom     2
 Full point group                 C3      NOp   3
 Largest Abelian subgroup         C1      NOp   1
 Largest concise Abelian subgroup C1      NOp   1
                         Standard orientation:                         
 ---------------------------------------------------------------------
 Center     Atomic      Atomic             Coordinates (Angstroms)
 Number     Number       Type             X           Y           Z
 ---------------------------------------------------------------------
      1          6           0       -0.000000   -0.000000    0.000012
      2          1           0        0.000000    1.076629   -0.000025
      3          1           0        0.932388   -0.538315   -0.000025
      4          1           0       -0.932388   -0.538315   -0.000025
 ---------------------------------------------------------------------
 Rotational constants (GHZ):         288.4088345         288.4088345         144.2044175
 Standard basis: CC-pVTZ (5D, 7F)
 There are    80 symmetry adapted cartesian basis functions of A   symmetry.
 There are    72 symmetry adapted basis functions of A   symmetry.
    72 basis functions,   103 primitive gaussians,    80 cartesian basis functions
     5 alpha electrons        4 beta electrons
       nuclear repulsion energy         9.6985596049 Hartrees.
 NAtoms=    4 NActive=    4 NUniq=    2 SFac= 4.00D+00 NAtFMM=   60 NAOKFM=F Big=F
 Integral buffers will be    131072 words long.
 Raffenetti 2 integral format.
 Two-electron integral symmetry is turned on.
 Nuclear repulsion after empirical dispersion term =        9.6979809546 Hartrees.
 One-electron integrals computed using PRISM.
 NBasis=    72 RedAO= T EigKep=  2.18D-03  NBF=    72
 NBsUse=    72 1.00D-06 EigRej= -1.00D+00 NBFU=    72
 ExpMin= 1.03D-01 ExpMax= 8.24D+03 ExpMxC= 2.81D+02 IAcc=3 IRadAn=         5 AccDes= 0.00D+00
 Harris functional with IExCor=  419 and IRadAn=       5 diagonalized for initial guess.
 HarFok:  IExCor=  419 AccDes= 0.00D+00 IRadAn=         5 IDoV= 1 UseB2=F ITyADJ=14
 ICtDFT=  3500011 ScaDFX=  1.000000  1.000000  1.000000  1.000000
 FoFCou: FMM=F IPFlag=           0 FMFlag=      100000 FMFlg1=           0
         NFxFlg=           0 DoJE=T BraDBF=F KetDBF=T FulRan=T
         wScrn=  0.000000 ICntrl=       500 IOpCl=  0 I1Cent=   200000004 NGrid=           0
         NMat0=    1 NMatS0=      1 NMatT0=    0 NMatD0=    1 NMtDS0=    0 NMtDT0=    0
 Petite list used in FoFCou.
 Initial guess orbital symmetries:
 Alpha Orbitals:
       Occupied  (A) (A) (E) (E) (A)
       Virtual   (A) (E) (E) (E) (E) (A) (A) (E) (E) (A) (E) (E)
                 (A) (E) (E) (A) (A) (E) (E) (E) (E) (E) (E) (A)
                 (A) (A) (E) (E) (E) (E) (E) (E) (A) (E) (E) (A)
                 (A) (E) (E) (A) (A) (E) (E) (E) (E) (E) (E) (A)
                 (A) (A) (E) (E) (E) (E) (A) (A) (E) (E) (E) (E)
                 (E) (E) (A) (E) (E) (A) (A)
 Beta  Orbitals:
       Occupied  (A) (A) (E) (E)
       Virtual   (A) (A) (E) (E) (E) (E) (A) (A) (E) (E) (A) (E)
                 (E) (A) (E) (E) (A) (A) (E) (E) (E) (E) (E) (E)
                 (A) (A) (A) (E) (E) (E) (E) (E) (E) (A) (E) (E)
                 (A) (A) (E) (E) (A) (A) (E) (E) (E) (E) (E) (E)
                 (A) (A) (A) (E) (E) (E) (E) (A) (A) (E) (E) (E)
                 (E) (E) (E) (A) (E) (E) (A) (A)
 The electronic state of the initial guess is 2-A.
 Initial guess <Sx>= 0.0000 <Sy>= 0.0000 <Sz>= 0.5000 <S**2>= 0.7500 S= 0.5000
 Keep R1 and R2 ints in memory in canonical form, NReq=43138952.
 Requested convergence on RMS density matrix=1.00D-08 within 128 cycles.
 Requested convergence on MAX density matrix=1.00D-06.
 Requested convergence on             energy=1.00D-06.
 No special actions if energy rises.
 Integral accuracy reduced to 1.0D-05 until final iterations.
 Initial convergence to 1.0D-05 achieved.  Increase integral accuracy.
 SCF Done:  E(UB2PLYPD3) =  -39.7599973023     A.U. after   11 cycles
            NFock= 11  Conv=0.46D-08     -V/T= 2.0046
 <Sx>= 0.0000 <Sy>= 0.0000 <Sz>= 0.5000 <S**2>= 0.7557 S= 0.5029
 <L.S>=  0.00000000000    
 Annihilation of the first spin contaminant:
 S**2 before annihilation     0.7557,   after     0.7500
 DoSCS=T DFT=T ScalE2(SS,OS)=  0.270000  0.270000
 ExpMin= 1.03D-01 ExpMax= 8.24D+03 ExpMxC= 2.81D+02 IAcc=3 IRadAn=         5 AccDes= 0.00D+00
 HarFok:  IExCor=  205 AccDes= 0.00D+00 IRadAn=         5 IDoV=-2 UseB2=F ITyADJ=14
 ICtDFT= 12500011 ScaDFX=  1.000000  1.000000  1.000000  1.000000
 Range of M.O.s used for correlation:     2    72
 NBasis=    72 NAE=     5 NBE=     4 NFC=     1 NFV=     0
 NROrb=     71 NOA=     4 NOB=     3 NVA=    67 NVB=    68

 **** Warning!!: The largest alpha MO coefficient is  0.11990313D+02


 **** Warning!!: The largest beta MO coefficient is  0.11986808D+02

 DoSCS=T DFT=T ScalE2(SS,OS)=  0.270000  0.270000
 Fully direct method using O(ONN) memory.
 JobTyp=2 Pass  1:  I=   2 to   5 NPSUse= 40 ParTrn=T ParDer=T DoDerP=T.
 JobTyp=3 Pass  1:  I=   2 to   4 NPSUse= 40 ParTrn=T ParDer=T DoDerP=T.
 Spin components of T(2) and E(2):
     alpha-alpha T2 =       0.1125200126D-01 E2=     -0.7252748467D-02
     alpha-beta  T2 =       0.5700821577D-01 E2=     -0.4144883518D-01
     beta-beta   T2 =       0.3827066530D-02 E2=     -0.2541990006D-02
 (S**2,0)=  0.75575D+00           (S**2,1)=  0.74784D+00
 Scaling Projection term by:   0.270000
 E(PUHF)=      -0.39762238484D+02        E(PMP2)=      -0.39811430448D+02
 E2(B2PLYPD3) =    -0.5124357365D-01 E(B2PLYPD3) =    -0.39811240875960D+02
          IDoAtm=1111
          Differentiating once with respect to electric field.
                with respect to dipole field.
          Differentiating once with respect to nuclear coordinates.
 Keep R1 and R2 ints in memory in canonical form, NReq=43141696.
          There are     1 degrees of freedom in the 1st order CPHF.  IDoFFX=0 NUNeed=     1.
 LinEq1:  Iter=  0 NonCon=     1 RMS=5.98D-04 Max=5.13D-03 NDo=     1
 AX will form     1 AO Fock derivatives at one time.
 LinEq1:  Iter=  1 NonCon=     1 RMS=2.96D-04 Max=4.48D-03 NDo=     1
 LinEq1:  Iter=  2 NonCon=     1 RMS=9.43D-05 Max=9.02D-04 NDo=     1
 LinEq1:  Iter=  3 NonCon=     1 RMS=1.31D-05 Max=1.35D-04 NDo=     1
 LinEq1:  Iter=  4 NonCon=     1 RMS=1.68D-06 Max=2.23D-05 NDo=     1
 LinEq1:  Iter=  5 NonCon=     1 RMS=1.71D-07 Max=1.39D-06 NDo=     1
 LinEq1:  Iter=  6 NonCon=     1 RMS=1.44D-08 Max=9.85D-08 NDo=     1
 LinEq1:  Iter=  7 NonCon=     1 RMS=1.45D-09 Max=1.30D-08 NDo=     1
 LinEq1:  Iter=  8 NonCon=     1 RMS=1.47D-10 Max=1.26D-09 NDo=     1
 LinEq1:  Iter=  9 NonCon=     0 RMS=1.65D-11 Max=1.15D-10 NDo=     1
 Linear equations converged to 1.000D-10 1.000D-09 after     9 iterations.
 End of Minotr F.D. properties file   721 does not exist.
 End of Minotr F.D. properties file   722 does not exist.
 End of Minotr F.D. properties file   788 does not exist.

 **********************************************************************

            Population analysis using the SCF Density.

 **********************************************************************

 Orbital symmetries:
 Alpha Orbitals:
       Occupied  (A) (A) (E) (E) (A)
       Virtual   (A) (E) (E) (E) (E) (A) (A) (A) (E) (E) (E) (E)
                 (A) (A) (E) (E) (A) (E) (E) (E) (E) (E) (E) (A)
                 (A) (A) (E) (E) (E) (E) (E) (E) (A) (A) (A) (E)
                 (E) (E) (E) (A) (A) (E) (E) (E) (E) (E) (E) (A)
                 (A) (A) (E) (E) (E) (E) (A) (E) (E) (A) (E) (E)
                 (E) (E) (A) (E) (E) (A) (A)
 Beta  Orbitals:
       Occupied  (A) (A) (E) (E)
       Virtual   (A) (A) (E) (E) (E) (E) (A) (A) (A) (E) (E) (E)
                 (E) (A) (E) (E) (A) (A) (E) (E) (E) (E) (E) (E)
                 (A) (A) (A) (E) (E) (E) (E) (E) (E) (A) (E) (E)
                 (A) (A) (E) (E) (A) (A) (E) (E) (E) (E) (E) (E)
                 (A) (A) (A) (E) (E) (E) (E) (A) (E) (E) (A) (E)
                 (E) (E) (E) (A) (E) (E) (A) (A)
 The electronic state is 2-A.
 Alpha  occ. eigenvalues --  -10.62158  -0.79560  -0.48910  -0.48910  -0.29553
 Alpha virt. eigenvalues --    0.09158   0.16189   0.16189   0.30062   0.30062
 Alpha virt. eigenvalues --    0.35987   0.39767   0.53242   0.55629   0.55629
 Alpha virt. eigenvalues --    0.63039   0.63039   0.91632   0.95747   0.97679
 Alpha virt. eigenvalues --    0.97679   1.04342   1.15347   1.15347   1.32674
 Alpha virt. eigenvalues --    1.32674   1.41595   1.41595   1.66103   2.15554
 Alpha virt. eigenvalues --    2.20783   2.35529   2.35529   2.64095   2.64095
 Alpha virt. eigenvalues --    2.71914   2.71914   2.97223   3.00719   3.02149
 Alpha virt. eigenvalues --    3.03618   3.03618   3.08665   3.08665   3.32289
 Alpha virt. eigenvalues --    3.35576   3.49330   3.49330   3.72786   3.72786
 Alpha virt. eigenvalues --    3.77256   3.77256   3.99545   4.02896   4.04067
 Alpha virt. eigenvalues --    4.08369   4.08369   4.22511   4.22511   4.80558
 Alpha virt. eigenvalues --    4.97686   4.97686   4.97878   5.03287   5.03287
 Alpha virt. eigenvalues --    5.09675   5.09675   5.69116   5.79029   5.79029
 Alpha virt. eigenvalues --    6.35386  12.92403
  Beta  occ. eigenvalues --  -10.60449  -0.73741  -0.47829  -0.47829
  Beta virt. eigenvalues --    0.00788   0.09916   0.16442   0.16442   0.30174
  Beta virt. eigenvalues --    0.30174   0.43169   0.43765   0.55068   0.56264
  Beta virt. eigenvalues --    0.56264   0.66512   0.66512   0.91366   0.98040
  Beta virt. eigenvalues --    0.98040   0.99518   1.05932   1.17403   1.17403
  Beta virt. eigenvalues --    1.32940   1.32940   1.41966   1.41966   1.67618
  Beta virt. eigenvalues --    2.21546   2.23753   2.37025   2.37025   2.66155
  Beta virt. eigenvalues --    2.66155   2.75382   2.75382   2.97232   3.04568
  Beta virt. eigenvalues --    3.04568   3.05266   3.09229   3.12441   3.12441
  Beta virt. eigenvalues --    3.32422   3.36175   3.49361   3.49361   3.73195
  Beta virt. eigenvalues --    3.73195   3.78315   3.78315   3.99060   4.03106
  Beta virt. eigenvalues --    4.04145   4.08065   4.08065   4.23163   4.23163
  Beta virt. eigenvalues --    4.81833   4.98054   4.98054   4.98501   5.03275
  Beta virt. eigenvalues --    5.03275   5.12151   5.12151   5.69967   5.79371
  Beta virt. eigenvalues --    5.79371   6.35650  12.94169
          Condensed to atoms (all electrons):
               1          2          3          4
     1  C    5.153007   0.406562   0.406562   0.406562
     2  H    0.406562   0.531866  -0.031330  -0.031330
     3  H    0.406562  -0.031330   0.531866  -0.031330
     4  H    0.406562  -0.031330  -0.031330   0.531866
          Atomic-Atomic Spin Densities.
               1          2          3          4
     1  C    1.097319   0.005491   0.005491   0.005491
     2  H    0.005491  -0.049277   0.002928   0.002928
     3  H    0.005491   0.002928  -0.049277   0.002928
     4  H    0.005491   0.002928   0.002928  -0.049277
 Mulliken charges and spin densities:
               1          2
     1  C   -0.372693   1.113792
     2  H    0.124231  -0.037931
     3  H    0.124231  -0.037931
     4  H    0.124231  -0.037931
 Sum of Mulliken charges =  -0.00000   1.00000
 Mulliken charges and spin densities with hydrogens summed into heavy atoms:
               1          2
     1  C   -0.000000   1.000000
 Electronic spatial extent (au):  <R**2>=             29.8024
 Charge=             -0.0000 electrons
 Dipole moment (field-independent basis, Debye):
    X=              0.0000    Y=              0.0000    Z=             -0.0001  Tot=              0.0001
 Quadrupole moment (field-independent basis, Debye-Ang):
   XX=             -7.2158   YY=             -7.2158   ZZ=             -8.9510
   XY=              0.0000   XZ=              0.0000   YZ=             -0.0000
 Traceless Quadrupole moment (field-independent basis, Debye-Ang):
   XX=              0.5784   YY=              0.5784   ZZ=             -1.1568
   XY=              0.0000   XZ=              0.0000   YZ=             -0.0000
 Octapole moment (field-independent basis, Debye-Ang**2):
  XXX=              0.0000  YYY=              0.8852  ZZZ=             -0.0001  XYY=              0.0000
  XXY=             -0.8852  XXZ=             -0.0001  XZZ=              0.0000  YZZ=              0.0000
  YYZ=             -0.0001  XYZ=             -0.0000
 Hexadecapole moment (field-independent basis, Debye-Ang**3):
 XXXX=            -14.7722 YYYY=            -14.7722 ZZZZ=            -10.6287 XXXY=              0.0000
 XXXZ=              0.0000 YYYX=              0.0000 YYYZ=             -0.0000 ZZZX=             -0.0000
 ZZZY=              0.0000 XXYY=             -4.9241 XXZZ=             -4.6285 YYZZ=             -4.6285
 XXYZ=              0.0000 YYXZ=              0.0000 ZZXY=              0.0000
 N-N= 9.697980954569D+00 E-N=-1.112656959162D+02  KE= 3.957685796771D+01
                          Isotropic Fermi Contact Couplings
        Atom                 a.u.       MegaHertz       Gauss      10(-4) cm-1
     1  C(13)              0.04218      47.41372      16.91839      15.81551
     2  H(1)              -0.01463     -65.37892     -23.32882     -21.80806
     3  H(1)              -0.01463     -65.37886     -23.32880     -21.80804
     4  H(1)              -0.01463     -65.37886     -23.32880     -21.80804
 --------------------------------------------------------
       Center         ----  Spin Dipole Couplings  ----
                      3XX-RR        3YY-RR        3ZZ-RR
 --------------------------------------------------------
     1   Atom       -0.575061     -0.575061      1.150121
     2   Atom       -0.077605      0.073017      0.004587
     3   Atom        0.035362     -0.039949      0.004587
     4   Atom        0.035362     -0.039949      0.004587
 --------------------------------------------------------
                        XY            XZ            YZ
 --------------------------------------------------------
     1   Atom       -0.000000      0.000000     -0.000000
     2   Atom       -0.000000      0.000000     -0.000003
     3   Atom       -0.065221     -0.000002      0.000001
     4   Atom        0.065221      0.000002      0.000001
 --------------------------------------------------------


 ---------------------------------------------------------------------------------
              Anisotropic Spin Dipole Couplings in Principal Axis System
 ---------------------------------------------------------------------------------

       Atom             a.u.   MegaHertz   Gauss  10(-4) cm-1        Axes

              Baa    -0.5751   -77.168   -27.535   -25.740  1.0000  0.0000 -0.0000
     1 C(13)  Bbb    -0.5751   -77.168   -27.535   -25.740 -0.0000  1.0000  0.0000
              Bcc     1.1501   154.335    55.071    51.481  0.0000 -0.0000  1.0000
 
              Baa    -0.0776   -41.406   -14.775   -13.812  1.0000  0.0000 -0.0000
     2 H(1)   Bbb     0.0046     2.448     0.873     0.816  0.0000  0.0000  1.0000
              Bcc     0.0730    38.958    13.901    12.995 -0.0000  1.0000 -0.0000
 
              Baa    -0.0776   -41.406   -14.775   -13.812  0.5000  0.8660  0.0000
     3 H(1)   Bbb     0.0046     2.448     0.873     0.816  0.0000 -0.0000  1.0000
              Bcc     0.0730    38.958    13.901    12.995  0.8660 -0.5000 -0.0000
 
              Baa    -0.0776   -41.406   -14.775   -13.812 -0.5000  0.8660  0.0000
     4 H(1)   Bbb     0.0046     2.448     0.873     0.816 -0.0000 -0.0000  1.0000
              Bcc     0.0730    38.958    13.901    12.995  0.8660  0.5000  0.0000
 

 ---------------------------------------------------------------------------------

 Calling FoFJK, ICntrl=  10002127 FMM=F ISym2X=1 I1Cent= 0 IOpClX= 1 NMat=1 NMatS=1 NMatT=0.
 ***** Axes restored to original set *****
 -------------------------------------------------------------------
 Center     Atomic                   Forces (Hartrees/Bohr)
 Number     Number              X              Y              Z
 -------------------------------------------------------------------
      1        6          -0.000000000   -0.000000114    0.000001737
      2        1           0.000000131   -0.000583243   -0.000000579
      3        1           0.000504884    0.000291792   -0.000000579
      4        1          -0.000505015    0.000291565   -0.000000579
 -------------------------------------------------------------------
 Cartesian Forces:  Max     0.000583243 RMS     0.000291587

 GradGradGradGradGradGradGradGradGradGradGradGradGradGradGradGradGradGrad
 Berny optimization.
 FormGI is forming the generalized inverse of G from B-inverse, IUseBI=4.
 Internal  Forces:  Max     0.000583243 RMS     0.000381777
 Search for a local minimum.
 Step number   1 out of a maximum of  100
 All quantities printed in internal units (Hartrees-Bohrs-Radians)
 Mixed Optimization -- En-DIIS/RFO-DIIS
 Second derivative matrix not updated -- first step.
 The second derivative matrix:
                          R1        R2        R3        A1        A2
           R1           0.36405
           R2           0.00000   0.36405
           R3           0.00000   0.00000   0.36405
           A1           0.00000   0.00000   0.00000   0.16000
           A2           0.00000   0.00000   0.00000   0.00000   0.16000
           A3           0.00000   0.00000   0.00000   0.00000   0.00000
           D1           0.00000   0.00000   0.00000   0.00000   0.00000
                          A3        D1
           A3           0.16000
           D1           0.00000   0.00412
 ITU=  0
     Eigenvalues ---    0.00412   0.16000   0.16000   0.36405   0.36405
     Eigenvalues ---    0.36405
 RFO step:  Lambda=-2.80282574D-06 EMin= 4.11701396D-03
 Linear search not attempted -- first point.
 Iteration  1 RMS(Cart)=  0.00104970 RMS(Int)=  0.00000007
 Iteration  2 RMS(Cart)=  0.00000004 RMS(Int)=  0.00000001
 ClnCor:  largest displacement from symmetrization is 1.16D-06 for atom     3.
 Variable       Old X    -DE/DX   Delta X   Delta X   Delta X     New X
                                 (Linear)    (Quad)   (Total)
    R1        2.03453  -0.00058   0.00000  -0.00160  -0.00160   2.03293
    R2        2.03453  -0.00058   0.00000  -0.00160  -0.00160   2.03293
    R3        2.03453  -0.00058   0.00000  -0.00160  -0.00160   2.03293
    A1        2.09440  -0.00000   0.00000  -0.00000  -0.00000   2.09440
    A2        2.09440  -0.00000   0.00000  -0.00000  -0.00000   2.09440
    A3        2.09440   0.00000   0.00000   0.00000  -0.00000   2.09440
    D1        3.14147   0.00000   0.00000   0.00024   0.00024  -3.14147
         Item               Value     Threshold  Converged?
 Maximum Force            0.000583     0.000450     NO 
 RMS     Force            0.000382     0.000300     NO 
 Maximum Displacement     0.001602     0.001800     YES
 RMS     Displacement     0.001050     0.001200     YES
 Predicted change in Energy=-1.401413D-06
 GradGradGradGradGradGradGradGradGradGradGradGradGradGradGradGradGradGrad

                          Input orientation:                          
 ---------------------------------------------------------------------
 Center     Atomic      Atomic             Coordinates (Angstroms)
 Number     Number       Type             X           Y           Z
 ---------------------------------------------------------------------
      1          6           0       -0.000000   -0.000000    0.000044
      2          1           0       -0.000000    1.075781    0.000006
      3          1           0       -0.931654   -0.537891    0.000006
      4          1           0        0.931654   -0.537891    0.000006
 ---------------------------------------------------------------------
                    Distance matrix (angstroms):
                    1          2          3          4
     1  C    0.000000
     2  H    1.075781   0.000000
     3  H    1.075781   1.863308   0.000000
     4  H    1.075781   1.863308   1.863308   0.000000
 Stoichiometry    CH3(2)
 Framework group  C3V[C3(C),3SGV(H)]
 Deg. of freedom     2
 Full point group                 C3V     NOp   6
 Omega: Change in point group or standard orientation.

 Old FWG=C03  [C3(C1),X(H3)]
 New FWG=C03V [C3(C1),3SGV(H1)]
 Largest Abelian subgroup         CS      NOp   2
 Largest concise Abelian subgroup CS      NOp   2
                         Standard orientation:                         
 ---------------------------------------------------------------------
 Center     Atomic      Atomic             Coordinates (Angstroms)
 Number     Number       Type             X           Y           Z
 ---------------------------------------------------------------------
      1          6           0        0.000000    0.000000   -0.000012
      2          1           0        0.000000    1.075781    0.000025
      3          1           0        0.931654   -0.537891    0.000025
      4          1           0       -0.931654   -0.537891    0.000025
 ---------------------------------------------------------------------
 Rotational constants (GHZ):         288.8637013         288.8637013         144.4318509
 Standard basis: CC-pVTZ (5D, 7F)
 There are    50 symmetry adapted cartesian basis functions of A'  symmetry.
 There are    30 symmetry adapted cartesian basis functions of A"  symmetry.
 There are    44 symmetry adapted basis functions of A'  symmetry.
 There are    28 symmetry adapted basis functions of A"  symmetry.
    72 basis functions,   103 primitive gaussians,    80 cartesian basis functions
     5 alpha electrons        4 beta electrons
       nuclear repulsion energy         9.7062046810 Hartrees.
 NAtoms=    4 NActive=    4 NUniq=    2 SFac= 4.00D+00 NAtFMM=   60 NAOKFM=F Big=F
 Integral buffers will be    131072 words long.
 Raffenetti 2 integral format.
 Two-electron integral symmetry is turned on.
 Nuclear repulsion after empirical dispersion term =        9.7056260166 Hartrees.
 One-electron integrals computed using PRISM.
 NBasis=    72 RedAO= T EigKep=  2.17D-03  NBF=    44    28
 NBsUse=    72 1.00D-06 EigRej= -1.00D+00 NBFU=    44    28
 Initial guess from the checkpoint file:  "/localscratch/339542/Gau-66515.chk"
 B after Tr=     0.000000    0.000000   -0.000000
         Rot=    1.000000    0.000000   -0.000000   -0.000000 Ang=   0.00 deg.
 Initial guess orbital symmetries:
 Alpha Orbitals:
       Occupied  (?A) (?A) (?B) (?B) (?C)
       Virtual   (?A) (?B) (?B) (?B) (?B) (?C) (?A) (?A) (?B) (?B)
                 (?B) (?B) (?A) (?A) (?B) (?B) (?C) (?B) (?B) (?B)
                 (?B) (?B) (?B) (?A) (?C) (?A) (?B) (?B) (?B) (?B)
                 (?B) (?B) (?A) (?C) (?A) (?B) (?B) (?B) (?B) (?C)
                 (?A) (?B) (?B) (?B) (?B) (?B) (?B) (?A) (?C) (?A)
                 (?B) (?B) (?B) (?B) (?C) (?B) (?B) (?A) (?B) (?B)
                 (?B) (?B) (?A) (?B) (?B) (?A) (?A)
 Beta  Orbitals:
       Occupied  (?A) (?A) (?B) (?B)
       Virtual   (?C) (?A) (?B) (?B) (?B) (?B) (?A) (?C) (?A) (?B)
                 (?B) (?B) (?B) (?A) (?B) (?B) (?A) (?C) (?B) (?B)
                 (?B) (?B) (?B) (?B) (?A) (?A) (?C) (?B) (?B) (?B)
                 (?B) (?B) (?B) (?A) (?B) (?B) (?C) (?A) (?B) (?B)
                 (?C) (?A) (?B) (?B) (?B) (?B) (?B) (?B) (?A) (?C)
                 (?A) (?B) (?B) (?B) (?B) (?C) (?B) (?B) (?A) (?B)
                 (?B) (?B) (?B) (?A) (?B) (?B) (?A) (?A)
 Initial guess <Sx>= 0.0000 <Sy>= 0.0000 <Sz>= 0.5000 <S**2>= 0.7557 S= 0.5029
 Keep R1 and R2 ints in memory in symmetry-blocked form, NReq=39705468.
 Requested convergence on RMS density matrix=1.00D-08 within 128 cycles.
 Requested convergence on MAX density matrix=1.00D-06.
 Requested convergence on             energy=1.00D-06.
 No special actions if energy rises.
 SCF Done:  E(UB2PLYPD3) =  -39.7600078518     A.U. after    7 cycles
            NFock=  7  Conv=0.27D-08     -V/T= 2.0045
 <Sx>= 0.0000 <Sy>= 0.0000 <Sz>= 0.5000 <S**2>= 0.7557 S= 0.5029
 <L.S>=  0.00000000000    
 Annihilation of the first spin contaminant:
 S**2 before annihilation     0.7557,   after     0.7500
 DoSCS=T DFT=T ScalE2(SS,OS)=  0.270000  0.270000
 ExpMin= 1.03D-01 ExpMax= 8.24D+03 ExpMxC= 2.81D+02 IAcc=3 IRadAn=         5 AccDes= 0.00D+00
 HarFok:  IExCor=  205 AccDes= 0.00D+00 IRadAn=         5 IDoV=-2 UseB2=F ITyADJ=14
 ICtDFT= 12500011 ScaDFX=  1.000000  1.000000  1.000000  1.000000
 Range of M.O.s used for correlation:     2    72
 NBasis=    72 NAE=     5 NBE=     4 NFC=     1 NFV=     0
 NROrb=     71 NOA=     4 NOB=     3 NVA=    67 NVB=    68

 **** Warning!!: The largest alpha MO coefficient is  0.12009502D+02


 **** Warning!!: The largest beta MO coefficient is  0.12006001D+02

 DoSCS=T DFT=T ScalE2(SS,OS)=  0.270000  0.270000
 Fully direct method using O(ONN) memory.
 JobTyp=2 Pass  1:  I=   2 to   5 NPSUse= 40 ParTrn=T ParDer=T DoDerP=T.
 JobTyp=3 Pass  1:  I=   2 to   4 NPSUse= 40 ParTrn=T ParDer=T DoDerP=T.
 Spin components of T(2) and E(2):
     alpha-alpha T2 =       0.1124418851D-01 E2=     -0.7251997825D-02
     alpha-beta  T2 =       0.5694786207D-01 E2=     -0.4144044201D-01
     beta-beta   T2 =       0.3824035978D-02 E2=     -0.2541954348D-02
 (S**2,0)=  0.75573D+00           (S**2,1)=  0.74784D+00
 Scaling Projection term by:   0.270000
 E(PUHF)=      -0.39762246582D+02        E(PMP2)=      -0.39811431264D+02
 E2(B2PLYPD3) =    -0.5123439418D-01 E(B2PLYPD3) =    -0.39811242246011D+02
          IDoAtm=1111
          Differentiating once with respect to electric field.
                with respect to dipole field.
          Differentiating once with respect to nuclear coordinates.
 Keep R1 and R2 ints in memory in symmetry-blocked form, NReq=39708224.
          There are     1 degrees of freedom in the 1st order CPHF.  IDoFFX=0 NUNeed=     1.
 LinEq1:  Iter=  0 NonCon=     1 RMS=5.97D-04 Max=5.12D-03 NDo=     1
 AX will form     1 AO Fock derivatives at one time.
 LinEq1:  Iter=  1 NonCon=     1 RMS=2.95D-04 Max=4.47D-03 NDo=     1
 LinEq1:  Iter=  2 NonCon=     1 RMS=9.40D-05 Max=8.99D-04 NDo=     1
 LinEq1:  Iter=  3 NonCon=     1 RMS=1.31D-05 Max=1.34D-04 NDo=     1
 LinEq1:  Iter=  4 NonCon=     1 RMS=1.68D-06 Max=2.22D-05 NDo=     1
 LinEq1:  Iter=  5 NonCon=     1 RMS=1.70D-07 Max=1.39D-06 NDo=     1
 LinEq1:  Iter=  6 NonCon=     1 RMS=1.43D-08 Max=9.81D-08 NDo=     1
 LinEq1:  Iter=  7 NonCon=     1 RMS=1.45D-09 Max=1.29D-08 NDo=     1
 LinEq1:  Iter=  8 NonCon=     1 RMS=1.46D-10 Max=1.26D-09 NDo=     1
 LinEq1:  Iter=  9 NonCon=     0 RMS=1.64D-11 Max=1.14D-10 NDo=     1
 Linear equations converged to 1.000D-10 1.000D-09 after     9 iterations.
 End of Minotr F.D. properties file   721 does not exist.
 End of Minotr F.D. properties file   722 does not exist.
 End of Minotr F.D. properties file   788 does not exist.
 Calling FoFJK, ICntrl=  10002127 FMM=F ISym2X=1 I1Cent= 0 IOpClX= 1 NMat=1 NMatS=1 NMatT=0.
 ***** Axes restored to original set *****
 -------------------------------------------------------------------
 Center     Atomic                   Forces (Hartrees/Bohr)
 Number     Number              X              Y              Z
 -------------------------------------------------------------------
      1        6          -0.000000000    0.000000004   -0.000001696
      2        1           0.000000000    0.000017991    0.000000565
      3        1          -0.000015582   -0.000008998    0.000000565
      4        1           0.000015582   -0.000008998    0.000000565
 -------------------------------------------------------------------
 Cartesian Forces:  Max     0.000017991 RMS     0.000009014

 GradGradGradGradGradGradGradGradGradGradGradGradGradGradGradGradGradGrad
 Berny optimization.
 Using GEDIIS/GDIIS optimizer.
 FormGI is forming the generalized inverse of G from B-inverse, IUseBI=4.
 Internal  Forces:  Max     0.000017993 RMS     0.000011785
 Search for a local minimum.
 Step number   2 out of a maximum of  100
 All quantities printed in internal units (Hartrees-Bohrs-Radians)
 Mixed Optimization -- En-DIIS/RFO-DIIS
 Swapping is turned off.
 Update second derivatives using D2CorX and points    1    2
 DE= -1.37D-06 DEPred=-1.40D-06 R= 9.78D-01
 TightC=F SS=  1.41D+00  RLast= 2.79D-03 DXNew= 5.0454D-01 8.3576D-03
 Trust test= 9.78D-01 RLast= 2.79D-03 DXMaxT set to 3.00D-01
 The second derivative matrix:
                          R1        R2        R3        A1        A2
           R1           0.36776
           R2           0.00370   0.36772
           R3           0.00370   0.00367   0.36772
           A1           0.00002   0.00002   0.00002   0.16000
           A2           0.00002   0.00002   0.00002   0.00000   0.16000
           A3          -0.00004  -0.00004  -0.00004  -0.00000  -0.00000
           D1          -0.00021  -0.00021  -0.00021  -0.00000  -0.00000
                          A3        D1
           A3           0.16000
           D1           0.00000   0.00412
 ITU=  1  0
     Eigenvalues ---    0.00412   0.16000   0.16000   0.36405   0.36405
     Eigenvalues ---    0.37511
 En-DIIS/RFO-DIIS/Sim-DIIS IScMMF=       -3 using points:     2    1
 RFO step:  Lambda=-2.32567521D-09.
 DidBck=F Rises=F RFO-DIIS coefs:    0.96314    0.03686
 Iteration  1 RMS(Cart)=  0.00005490 RMS(Int)=  0.00000001
 Iteration  2 RMS(Cart)=  0.00000000 RMS(Int)=  0.00000001
 ClnCor:  largest displacement from symmetrization is 2.93D-08 for atom     4.
 Variable       Old X    -DE/DX   Delta X   Delta X   Delta X     New X
                                 (Linear)    (Quad)   (Total)
    R1        2.03293   0.00002   0.00006  -0.00001   0.00005   2.03298
    R2        2.03293   0.00002   0.00006  -0.00001   0.00005   2.03298
    R3        2.03293   0.00002   0.00006  -0.00001   0.00005   2.03298
    A1        2.09440   0.00000   0.00000  -0.00000   0.00000   2.09440
    A2        2.09440   0.00000   0.00000  -0.00000   0.00000   2.09440
    A3        2.09440  -0.00000   0.00000   0.00000   0.00000   2.09440
    D1       -3.14147  -0.00000  -0.00001  -0.00023  -0.00023   3.14148
         Item               Value     Threshold  Converged?
 Maximum Force            0.000018     0.000450     YES
 RMS     Force            0.000012     0.000300     YES
 Maximum Displacement     0.000103     0.001800     YES
 RMS     Displacement     0.000055     0.001200     YES
 Predicted change in Energy=-1.407939D-09
 Optimization completed.
    -- Stationary point found.
                           ----------------------------
                           !   Optimized Parameters   !
                           ! (Angstroms and Degrees)  !
 --------------------------                            --------------------------
 ! Name  Definition              Value          Derivative Info.                !
 --------------------------------------------------------------------------------
 ! R1    R(1,2)                  1.0758         -DE/DX =    0.0                 !
 ! R2    R(1,3)                  1.0758         -DE/DX =    0.0                 !
 ! R3    R(1,4)                  1.0758         -DE/DX =    0.0                 !
 ! A1    A(2,1,3)              120.0            -DE/DX =    0.0                 !
 ! A2    A(2,1,4)              120.0            -DE/DX =    0.0                 !
 ! A3    A(3,1,4)              120.0            -DE/DX =    0.0                 !
 ! D1    D(2,1,4,3)            180.0069         -DE/DX =    0.0                 !
 --------------------------------------------------------------------------------
 GradGradGradGradGradGradGradGradGradGradGradGradGradGradGradGradGradGrad

                          Input orientation:                          
 ---------------------------------------------------------------------
 Center     Atomic      Atomic             Coordinates (Angstroms)
 Number     Number       Type             X           Y           Z
 ---------------------------------------------------------------------
      1          6           0        0.000000   -0.000000    0.000044
      2          1           0       -0.000000    1.075781    0.000006
      3          1           0       -0.931654   -0.537891    0.000006
      4          1           0        0.931654   -0.537891    0.000006
 ---------------------------------------------------------------------
                    Distance matrix (angstroms):
                    1          2          3          4
     1  C    0.000000
     2  H    1.075781   0.000000
     3  H    1.075781   1.863308   0.000000
     4  H    1.075781   1.863308   1.863308   0.000000
 Stoichiometry    CH3(2)
 Framework group  C3V[C3(C),3SGV(H)]
 Deg. of freedom     2
 Full point group                 C3V     NOp   6
 Largest Abelian subgroup         CS      NOp   2
 Largest concise Abelian subgroup CS      NOp   2
                         Standard orientation:                         
 ---------------------------------------------------------------------
 Center     Atomic      Atomic             Coordinates (Angstroms)
 Number     Number       Type             X           Y           Z
 ---------------------------------------------------------------------
      1          6           0        0.000000    0.000000   -0.000012
      2          1           0        0.000000    1.075781    0.000025
      3          1           0        0.931654   -0.537891    0.000025
      4          1           0       -0.931654   -0.537891    0.000025
 ---------------------------------------------------------------------
 Rotational constants (GHZ):         288.8637013         288.8637013         144.4318509

 **********************************************************************

            Population analysis using the SCF Density.

 **********************************************************************

 Orbital symmetries:
 Alpha Orbitals:
       Occupied  (?A) (?A) (?B) (?B) (?C)
       Virtual   (?A) (?B) (?B) (?B) (?B) (?C) (?A) (?A) (?B) (?B)
                 (?D) (?D) (?A) (?A) (?B) (?B) (?C) (?D) (?D) (?B)
                 (?B) (?B) (?B) (?A) (?C) (?A) (?B) (?B) (?B) (?B)
                 (?D) (?D) (?A) (?C) (?A) (?B) (?B) (?D) (?D) (?C)
                 (?A) (?B) (?B) (?D) (?D) (?B) (?B) (?A) (?C) (?A)
                 (?B) (?B) (?D) (?D) (?C) (?B) (?B) (?A) (?B) (?B)
                 (?D) (?D) (?A) (?B) (?B) (?A) (?A)
 Beta  Orbitals:
       Occupied  (?A) (?A) (?B) (?B)
       Virtual   (?C) (?A) (?B) (?B) (?B) (?B) (?A) (?C) (?A) (?B)
                 (?B) (?D) (?D) (?A) (?B) (?B) (?A) (?C) (?D) (?D)
                 (?B) (?B) (?B) (?B) (?A) (?A) (?C) (?B) (?B) (?B)
                 (?B) (?D) (?D) (?A) (?B) (?B) (?C) (?A) (?D) (?D)
                 (?C) (?A) (?B) (?B) (?D) (?D) (?B) (?B) (?A) (?C)
                 (?A) (?B) (?B) (?D) (?D) (?C) (?B) (?B) (?A) (?B)
                 (?B) (?D) (?D) (?A) (?B) (?B) (?A) (?A)
 Unable to determine electronic state:  an orbital has unidentified symmetry.
 Alpha  occ. eigenvalues --  -10.62130  -0.79587  -0.48933  -0.48933  -0.29552
 Alpha virt. eigenvalues --    0.09169   0.16198   0.16198   0.30059   0.30059
 Alpha virt. eigenvalues --    0.35987   0.39792   0.53263   0.55666   0.55666
 Alpha virt. eigenvalues --    0.63053   0.63053   0.91674   0.95766   0.97704
 Alpha virt. eigenvalues --    0.97704   1.04378   1.15362   1.15362   1.32685
 Alpha virt. eigenvalues --    1.32685   1.41652   1.41652   1.66229   2.15569
 Alpha virt. eigenvalues --    2.20725   2.35494   2.35494   2.64086   2.64086
 Alpha virt. eigenvalues --    2.71961   2.71961   2.97262   3.00774   3.02168
 Alpha virt. eigenvalues --    3.03629   3.03629   3.08630   3.08630   3.32318
 Alpha virt. eigenvalues --    3.35683   3.49462   3.49462   3.72844   3.72844
 Alpha virt. eigenvalues --    3.77386   3.77386   3.99633   4.02933   4.04296
 Alpha virt. eigenvalues --    4.08450   4.08450   4.22686   4.22686   4.80694
 Alpha virt. eigenvalues --    4.97958   4.97958   4.98230   5.03547   5.03547
 Alpha virt. eigenvalues --    5.09950   5.09950   5.69440   5.79118   5.79118
 Alpha virt. eigenvalues --    6.35864  12.94046
  Beta  occ. eigenvalues --  -10.60423  -0.73769  -0.47850  -0.47850
  Beta virt. eigenvalues --    0.00787   0.09925   0.16450   0.16450   0.30172
  Beta virt. eigenvalues --    0.30172   0.43198   0.43763   0.55090   0.56300
  Beta virt. eigenvalues --    0.56300   0.66529   0.66529   0.91408   0.98065
  Beta virt. eigenvalues --    0.98065   0.99534   1.05971   1.17416   1.17416
  Beta virt. eigenvalues --    1.32950   1.32950   1.42024   1.42024   1.67745
  Beta virt. eigenvalues --    2.21491   2.23767   2.36989   2.36989   2.66151
  Beta virt. eigenvalues --    2.66151   2.75432   2.75432   2.97271   3.04581
  Beta virt. eigenvalues --    3.04581   3.05321   3.09242   3.12399   3.12399
  Beta virt. eigenvalues --    3.32454   3.36285   3.49490   3.49490   3.73253
  Beta virt. eigenvalues --    3.73253   3.78446   3.78446   3.99150   4.03146
  Beta virt. eigenvalues --    4.04378   4.08149   4.08149   4.23342   4.23342
  Beta virt. eigenvalues --    4.81969   4.98326   4.98326   4.98851   5.03537
  Beta virt. eigenvalues --    5.03537   5.12428   5.12428   5.70294   5.79461
  Beta virt. eigenvalues --    5.79461   6.36129  12.95809
          Condensed to atoms (all electrons):
               1          2          3          4
     1  C    5.153087   0.406665   0.406665   0.406665
     2  H    0.406665   0.531699  -0.031362  -0.031362
     3  H    0.406665  -0.031362   0.531699  -0.031362
     4  H    0.406665  -0.031362  -0.031362   0.531699
          Atomic-Atomic Spin Densities.
               1          2          3          4
     1  C    1.096949   0.005512   0.005512   0.005512
     2  H    0.005512  -0.049199   0.002930   0.002930
     3  H    0.005512   0.002930  -0.049199   0.002930
     4  H    0.005512   0.002930   0.002930  -0.049199
 Mulliken charges and spin densities:
               1          2
     1  C   -0.373081   1.113485
     2  H    0.124360  -0.037828
     3  H    0.124360  -0.037828
     4  H    0.124360  -0.037828
 Sum of Mulliken charges =  -0.00000   1.00000
 Mulliken charges and spin densities with hydrogens summed into heavy atoms:
               1          2
     1  C   -0.000000   1.000000
 Electronic spatial extent (au):  <R**2>=             29.7793
 Charge=             -0.0000 electrons
 Dipole moment (field-independent basis, Debye):
    X=              0.0000    Y=             -0.0000    Z=              0.0001  Tot=              0.0001
 Quadrupole moment (field-independent basis, Debye-Ang):
   XX=             -7.2150   YY=             -7.2150   ZZ=             -8.9479
   XY=              0.0000   XZ=              0.0000   YZ=              0.0000
 Traceless Quadrupole moment (field-independent basis, Debye-Ang):
   XX=              0.5776   YY=              0.5776   ZZ=             -1.1553
   XY=              0.0000   XZ=              0.0000   YZ=              0.0000
 Octapole moment (field-independent basis, Debye-Ang**2):
  XXX=              0.0000  YYY=              0.8826  ZZZ=              0.0001  XYY=             -0.0000
  XXY=             -0.8826  XXZ=              0.0001  XZZ=             -0.0000  YZZ=              0.0000
  YYZ=              0.0001  XYZ=              0.0000
 Hexadecapole moment (field-independent basis, Debye-Ang**3):
 XXXX=            -14.7551 YYYY=            -14.7551 ZZZZ=            -10.6240 XXXY=             -0.0000
 XXXZ=              0.0000 YYYX=             -0.0000 YYYZ=              0.0000 ZZZX=             -0.0000
 ZZZY=              0.0000 XXYY=             -4.9184 XXZZ=             -4.6236 YYZZ=             -4.6236
 XXYZ=             -0.0000 YYXZ=             -0.0000 ZZXY=             -0.0000
 N-N= 9.705626016569D+00 E-N=-1.112835354881D+02  KE= 3.958057490648D+01
 Symmetry A'   KE= 3.760400814689D+01
 Symmetry A"   KE= 1.976566759594D+00
 Symmetry A'   SP= 1.000000000000D+00
 Symmetry A"   SP=-9.237493989490D-15
                          Isotropic Fermi Contact Couplings
        Atom                 a.u.       MegaHertz       Gauss      10(-4) cm-1
     1  C(13)              0.04198      47.19051      16.83875      15.74106
     2  H(1)              -0.01462     -65.34197     -23.31564     -21.79574
     3  H(1)              -0.01462     -65.34197     -23.31564     -21.79574
     4  H(1)              -0.01462     -65.34197     -23.31564     -21.79574
 --------------------------------------------------------
       Center         ----  Spin Dipole Couplings  ----
                      3XX-RR        3YY-RR        3ZZ-RR
 --------------------------------------------------------
     1   Atom       -0.575012     -0.575012      1.150025
     2   Atom       -0.077720      0.073049      0.004672
     3   Atom        0.035356     -0.040028      0.004672
     4   Atom        0.035356     -0.040028      0.004672
 --------------------------------------------------------
                        XY            XZ            YZ
 --------------------------------------------------------
     1   Atom        0.000000     -0.000000     -0.000000
     2   Atom        0.000000      0.000000      0.000003
     3   Atom       -0.065285      0.000002     -0.000001
     4   Atom        0.065285     -0.000002     -0.000001
 --------------------------------------------------------


 ---------------------------------------------------------------------------------
              Anisotropic Spin Dipole Couplings in Principal Axis System
 ---------------------------------------------------------------------------------

       Atom             a.u.   MegaHertz   Gauss  10(-4) cm-1        Axes

              Baa    -0.5750   -77.161   -27.533   -25.738 -0.0000  1.0000  0.0000
     1 C(13)  Bbb    -0.5750   -77.161   -27.533   -25.738  1.0000  0.0000  0.0000
              Bcc     1.1500   154.322    55.066    51.476 -0.0000 -0.0000  1.0000
 
              Baa    -0.0777   -41.468   -14.797   -13.832  1.0000 -0.0000 -0.0000
     2 H(1)   Bbb     0.0047     2.493     0.889     0.831  0.0000 -0.0000  1.0000
              Bcc     0.0730    38.975    13.907    13.001  0.0000  1.0000  0.0000
 
              Baa    -0.0777   -41.468   -14.797   -13.832  0.5000  0.8660 -0.0000
     3 H(1)   Bbb     0.0047     2.493     0.889     0.831 -0.0000  0.0000  1.0000
              Bcc     0.0730    38.975    13.907    13.001  0.8660 -0.5000  0.0000
 
              Baa    -0.0777   -41.468   -14.797   -13.832 -0.5000  0.8660 -0.0000
     4 H(1)   Bbb     0.0047     2.493     0.889     0.831  0.0000  0.0000  1.0000
              Bcc     0.0730    38.975    13.907    13.001  0.8660  0.5000 -0.0000
 

 ---------------------------------------------------------------------------------

 1\1\GINC-N68\FOpt\UB2PLYPD3-FC\CC-pVTZ\C1H3(2)\ROOT\01-Jun-2019\0\\# o
 pt=maxcyc=500 freq=noraman uB2PLYPD3/cc-pvtz\\Title Card Required\\0,2
 \C,0.,-0.0000001111,0.0000436991\H,-0.0000000001,1.0757809948,0.000006
 4337\H,-0.9316537666,-0.5378906642,0.0000064337\H,0.9316537667,-0.5378
 90664,0.0000064337\\Version=ES64L-G16RevB.01\HF=-39.7600079\MP2=-39.81
 12422\PUHF=-39.7622466\PMP2-0=-39.8114313\S2=0.755733\S2-1=0.74784\S2A
 =0.750016\RMSD=2.656e-09\RMSF=9.014e-06\Dipole=0.,0.,-0.0000307\PG=C03
 V [C3(C1),3SGV(H1)]\\@


 "THE ACADEMIC HIERARCHY"


 THE PRESIDENT:
   LEAPS TALL BUILDINGS IN A SINGLE BOUND,
     IS MORE POWERFUL THAN A LOCOMOTIVE,
       IS FASTER THAN A SPEEDING BULLET,
         WALKS ON WATER,
           GIVES POLICY TO GOD.

 THE VICE PRESIDENT FOR ACADEMIC AFFAIRS:
   LEAPS SHORT BUILDINGS IN A SINGLE BOUND,
     IS MORE POWERFUL THAN A SWITCH ENGINE,
       IS JUST AS FAST AS A SPEEDING BULLET,
         WALKS ON WATER IF SEA IS CALM,
           TALKS WITH GOD.

 PROFESSOR:
   LEAPS SHORT BUILDINGS WITH A RUNNING START AND FAVORABLE WINDS,
     IS ALMOST AS POWERFUL AS A SWITCH ENGINE,
       CAN FIRE A SPEEDING BULLET,
         WALKS ON WATER IN AN INDOOR SWIMMING POOL,
          TALKS WITH GOD IF SPECIAL REQUEST IS APPROVED.

 ASSOCIATE PROFESSOR:
   BARELY CLEARS A QUONSET HUT,
     LOSES TUG OF WAR WITH LOCOMOTIVE,
       MISFIRES FREQUENTLY,
         SWIMS WELL,
           IS OCCASIONALLY ADDRESSED BY GOD.

 ASSISTANT PROFESSOR:
   MAKES HIGH MARKS ON WALLS WHEN TRYING TO LEAP TALL BUILDINGS,
     IS RUN OVER BY LOCOMOTIVES,
       CAN SOMETIMES HANDLE A GUN WITHOUT INFLICTING SELF INJURY,
         DOG PADDLES,
           TALKS TO ANIMALS.

 GRADUATE STUDENT:
   RUNS INTO BUILDINGS,
     RECOGNIZES LOCOMOTIVES TWO OUT OF THREE TIMES,
       IS NOT ISSUED AMMUNITION,
         CAN STAY AFLOAT WITH A LIFE JACKET,
           TALKS TO WALLS.

 UNDERGRADUATE AND WORK STUDY STUDENT:
   FALLS OVER DOORSTEP WHEN TRYING TO ENTER BUILDINGS,
     SAYS, "LOOK AT THE CHOO-CHOO,"
       WETS HIMSELF WITH A WATER PISTOL,
        PLAYS IN MUD PUDDLES,
          MUMBLES TO HIMSELF.

 DEPARTMENT SECRETARY:
   LIFTS TALL BUILDINGS AND WALKS UNDER THEM,
     KICKS LOCOMOTIVES OFF THE TRACKS,
       CATCHES SPEEDING BULLETS IN HER TEETH AND EATS THEM,
         FREEZES WATER WITH A SINGLE GLANCE,
           IS GOD.
 Job cpu time:       0 days  0 hours  6 minutes 55.3 seconds.
 Elapsed time:       0 days  0 hours  0 minutes 13.7 seconds.
 File lengths (MBytes):  RWF=     10 Int=      0 D2E=      0 Chk=      2 Scr=      1
 Normal termination of Gaussian 16 at Sat Jun  1 01:18:56 2019.
 Link1:  Proceeding to internal job step number  2.
 ----------------------------------------------------------------------
 #N Geom=AllCheck Guess=TCheck SCRF=Check GenChk UB2PLYPD3(FC)/CC-pVTZ 
 Freq
 ----------------------------------------------------------------------
 1/6=500,10=4,29=7,30=1,38=1,40=1/1,3;
 2/12=2,40=1/2;
 3/5=16,6=1,11=2,14=-4,25=1,30=1,70=2,71=2,74=-60,116=2,140=1/1,2,3;
 4/5=101/1;
 5/5=2,38=6,98=1/2;
 8/6=3,8=1,10=1,19=11,30=-1/1;
 9/15=3,16=-3/6;
 11/6=1,8=1,15=11,17=12,24=-1,27=1,28=-2,29=300,32=6,42=3/1,2,10;
 10/6=2,21=1/2;
 8/6=4,8=1,10=1,19=11,30=-1/11,4;
 10/5=1,20=4/2;
 11/12=2,14=11,16=1,17=2,28=-2,42=3,76=2/2,10,12;
 6/7=2,8=2,9=2,10=2/1;
 7/8=1,10=1,12=2,25=1,44=2/1,2,3,16;
 1/6=500,10=4,30=1/3;
 99//99;
 Structure from the checkpoint file:  "/localscratch/339542/Gau-66515.chk"
 -------------------
 Title Card Required
 -------------------
 Charge =  0 Multiplicity = 2
 Redundant internal coordinates found in file.  (old form).
 C,0,0.,-0.0000001111,0.0000436991
 H,0,-0.0000000001,1.0757809948,0.0000064337
 H,0,-0.9316537666,-0.5378906642,0.0000064337
 H,0,0.9316537667,-0.537890664,0.0000064337
 Recover connectivity data from disk.

 GradGradGradGradGradGradGradGradGradGradGradGradGradGradGradGradGradGrad
 Berny optimization.
 Initialization pass.
                           ----------------------------
                           !    Initial Parameters    !
                           ! (Angstroms and Degrees)  !
 --------------------------                            --------------------------
 ! Name  Definition              Value          Derivative Info.                !
 --------------------------------------------------------------------------------
 ! R1    R(1,2)                  1.0758         calculate D2E/DX2 analytically  !
 ! R2    R(1,3)                  1.0758         calculate D2E/DX2 analytically  !
 ! R3    R(1,4)                  1.0758         calculate D2E/DX2 analytically  !
 ! A1    A(2,1,3)              120.0            calculate D2E/DX2 analytically  !
 ! A2    A(2,1,4)              120.0            calculate D2E/DX2 analytically  !
 ! A3    A(3,1,4)              120.0            calculate D2E/DX2 analytically  !
 ! D1    D(2,1,4,3)           -179.9931         calculate D2E/DX2 analytically  !
 --------------------------------------------------------------------------------
 Trust Radius=3.00D-01 FncErr=1.00D-07 GrdErr=1.00D-07 EigMax=2.50D+02 EigMin=1.00D-04
 Number of steps in this run=      2 maximum allowed number of steps=      2.
 GradGradGradGradGradGradGradGradGradGradGradGradGradGradGradGradGradGrad

                          Input orientation:                          
 ---------------------------------------------------------------------
 Center     Atomic      Atomic             Coordinates (Angstroms)
 Number     Number       Type             X           Y           Z
 ---------------------------------------------------------------------
      1          6           0        0.000000   -0.000000    0.000044
      2          1           0       -0.000000    1.075781    0.000006
      3          1           0       -0.931654   -0.537891    0.000006
      4          1           0        0.931654   -0.537891    0.000006
 ---------------------------------------------------------------------
                    Distance matrix (angstroms):
                    1          2          3          4
     1  C    0.000000
     2  H    1.075781   0.000000
     3  H    1.075781   1.863308   0.000000
     4  H    1.075781   1.863308   1.863308   0.000000
 Stoichiometry    CH3(2)
 Framework group  C3V[C3(C),3SGV(H)]
 Deg. of freedom     2
 Full point group                 C3V     NOp   6
 Largest Abelian subgroup         CS      NOp   2
 Largest concise Abelian subgroup CS      NOp   2
                         Standard orientation:                         
 ---------------------------------------------------------------------
 Center     Atomic      Atomic             Coordinates (Angstroms)
 Number     Number       Type             X           Y           Z
 ---------------------------------------------------------------------
      1          6           0        0.000000    0.000000   -0.000012
      2          1           0        0.000000    1.075781    0.000025
      3          1           0        0.931654   -0.537891    0.000025
      4          1           0       -0.931654   -0.537891    0.000025
 ---------------------------------------------------------------------
 Rotational constants (GHZ):         288.8637013         288.8637013         144.4318509
 Standard basis: CC-pVTZ (5D, 7F)
 There are    50 symmetry adapted cartesian basis functions of A'  symmetry.
 There are    30 symmetry adapted cartesian basis functions of A"  symmetry.
 There are    44 symmetry adapted basis functions of A'  symmetry.
 There are    28 symmetry adapted basis functions of A"  symmetry.
    72 basis functions,   103 primitive gaussians,    80 cartesian basis functions
     5 alpha electrons        4 beta electrons
       nuclear repulsion energy         9.7062046810 Hartrees.
 NAtoms=    4 NActive=    4 NUniq=    2 SFac= 4.00D+00 NAtFMM=   60 NAOKFM=F Big=F
 Integral buffers will be    131072 words long.
 Raffenetti 2 integral format.
 Two-electron integral symmetry is turned on.
 Nuclear repulsion after empirical dispersion term =        9.7056260166 Hartrees.
 One-electron integrals computed using PRISM.
 NBasis=    72 RedAO= T EigKep=  2.17D-03  NBF=    44    28
 NBsUse=    72 1.00D-06 EigRej= -1.00D+00 NBFU=    44    28
 Initial guess from the checkpoint file:  "/localscratch/339542/Gau-66515.chk"
 B after Tr=     0.000000    0.000000    0.000000
         Rot=    1.000000    0.000000    0.000000    0.000000 Ang=   0.00 deg.
 Initial guess orbital symmetries:
 Alpha Orbitals:
       Occupied  (?A) (?A) (?B) (?B) (?C)
       Virtual   (?A) (?B) (?B) (?B) (?B) (?C) (?A) (?A) (?B) (?B)
                 (?D) (?D) (?A) (?A) (?B) (?B) (?C) (?D) (?D) (?B)
                 (?B) (?B) (?B) (?A) (?C) (?A) (?B) (?B) (?B) (?B)
                 (?D) (?D) (?A) (?C) (?A) (?B) (?B) (?D) (?D) (?C)
                 (?A) (?B) (?B) (?D) (?D) (?B) (?B) (?A) (?C) (?A)
                 (?B) (?B) (?D) (?D) (?C) (?B) (?B) (?A) (?B) (?B)
                 (?D) (?D) (?A) (?B) (?B) (?A) (?A)
 Beta  Orbitals:
       Occupied  (?A) (?A) (?B) (?B)
       Virtual   (?C) (?A) (?B) (?B) (?B) (?B) (?A) (?C) (?A) (?B)
                 (?B) (?D) (?D) (?A) (?B) (?B) (?A) (?C) (?D) (?D)
                 (?B) (?B) (?B) (?B) (?A) (?A) (?C) (?B) (?B) (?B)
                 (?B) (?D) (?D) (?A) (?B) (?B) (?C) (?A) (?D) (?D)
                 (?C) (?A) (?B) (?B) (?D) (?D) (?B) (?B) (?A) (?C)
                 (?A) (?B) (?B) (?D) (?D) (?C) (?B) (?B) (?A) (?B)
                 (?B) (?D) (?D) (?A) (?B) (?B) (?A) (?A)
 Initial guess <Sx>= 0.0000 <Sy>= 0.0000 <Sz>= 0.5000 <S**2>= 0.7557 S= 0.5029
 Keep R1 and R2 ints in memory in symmetry-blocked form, NReq=39705468.
 Requested convergence on RMS density matrix=1.00D-08 within 128 cycles.
 Requested convergence on MAX density matrix=1.00D-06.
 Requested convergence on             energy=1.00D-06.
 No special actions if energy rises.
 SCF Done:  E(UB2PLYPD3) =  -39.7600078518     A.U. after    1 cycles
            NFock=  1  Conv=0.29D-09     -V/T= 2.0045
 <Sx>= 0.0000 <Sy>= 0.0000 <Sz>= 0.5000 <S**2>= 0.7557 S= 0.5029
 <L.S>=  0.00000000000    
 Annihilation of the first spin contaminant:
 S**2 before annihilation     0.7557,   after     0.7500
 DoSCS=T DFT=T ScalE2(SS,OS)=  0.270000  0.270000
 ExpMin= 1.03D-01 ExpMax= 8.24D+03 ExpMxC= 2.81D+02 IAcc=3 IRadAn=         5 AccDes= 0.00D+00
 HarFok:  IExCor=  205 AccDes= 0.00D+00 IRadAn=         5 IDoV=-2 UseB2=F ITyADJ=14
 ICtDFT= 12500011 ScaDFX=  1.000000  1.000000  1.000000  1.000000
 Range of M.O.s used for correlation:     2    72
 NBasis=    72 NAE=     5 NBE=     4 NFC=     1 NFV=     0
 NROrb=     71 NOA=     4 NOB=     3 NVA=    67 NVB=    68

 **** Warning!!: The largest alpha MO coefficient is  0.12009502D+02


 **** Warning!!: The largest beta MO coefficient is  0.12006001D+02

 DoSCS=T DFT=T ScalE2(SS,OS)=  0.270000  0.270000
 Disk-based method using ON**2 memory for  4 occupieds at a time.
 Permanent disk used for amplitudes=      126898 words.
 Estimated scratch disk usage=     3105696 words.
 Actual    scratch disk usage=     3105696 words.
 JobTyp=2 Pass  1:  I=   2 to   5 NPSUse= 40 ParTrn=T ParDer=T DoDerP=T.
 (rs|ai) integrals will be sorted in core.
 Actual    scratch disk usage=     3105696 words.
 JobTyp=3 Pass  1:  I=   2 to   4 NPSUse= 40 ParTrn=T ParDer=T DoDerP=T.
 (rs|ai) integrals will be sorted in core.
 Spin components of T(2) and E(2):
     alpha-alpha T2 =       0.1124418843D-01 E2=     -0.7251997776D-02
     alpha-beta  T2 =       0.5694786211D-01 E2=     -0.4144044202D-01
     beta-beta   T2 =       0.3824036009D-02 E2=     -0.2541954365D-02
 (S**2,0)=  0.75573D+00           (S**2,1)=  0.74784D+00
 Scaling Projection term by:   0.270000
 E(PUHF)=      -0.39762246581D+02        E(PMP2)=      -0.39811431264D+02
 E2(B2PLYPD3) =    -0.5123439416D-01 E(B2PLYPD3) =    -0.39811242245985D+02
 G2DrvN: will do     5 centers at a time, making    1 passes.
 Calling FoFCou, ICntrl=  3107 FMM=F I1Cent=   0 AccDes= 0.00D+00.
 End of G2Drv F.D. properties file   721 does not exist.
 End of G2Drv F.D. properties file   722 does not exist.
 End of G2Drv F.D. properties file   788 does not exist.
          IDoAtm=1111
          Differentiating once with respect to electric field.
                with respect to dipole field.
          Differentiating once with respect to nuclear coordinates.
 Keep R1 and R2 ints in memory in symmetry-blocked form, NReq=39568970.
          There are    15 degrees of freedom in the 1st order CPHF.  IDoFFX=6 NUNeed=    15.
     12 vectors produced by pass  0 Test12= 4.05D-15 6.67D-09 XBig12= 9.25D+00 1.56D+00.
 AX will form    12 AO Fock derivatives at one time.
     12 vectors produced by pass  1 Test12= 4.05D-15 6.67D-09 XBig12= 4.29D-01 4.90D-01.
     12 vectors produced by pass  2 Test12= 4.05D-15 6.67D-09 XBig12= 4.63D-03 3.61D-02.
     12 vectors produced by pass  3 Test12= 4.05D-15 6.67D-09 XBig12= 1.01D-05 1.08D-03.
     12 vectors produced by pass  4 Test12= 4.05D-15 6.67D-09 XBig12= 4.47D-08 6.50D-05.
     12 vectors produced by pass  5 Test12= 4.05D-15 6.67D-09 XBig12= 4.08D-10 8.73D-06.
      9 vectors produced by pass  6 Test12= 4.05D-15 6.67D-09 XBig12= 2.36D-12 5.84D-07.
      4 vectors produced by pass  7 Test12= 4.05D-15 6.67D-09 XBig12= 3.67D-14 7.55D-08.
      1 vectors produced by pass  8 Test12= 4.05D-15 6.67D-09 XBig12= 3.58D-16 8.54D-09.
 InvSVY:  IOpt=1 It=  1 EMax= 7.77D-16
 Solved reduced A of dimension    86 with    12 vectors.
 End of Minotr F.D. properties file   721 does not exist.
 End of Minotr F.D. properties file   722 does not exist.
 End of Minotr F.D. properties file   788 does not exist.
 MDV= 10737418240.
 DoSCS=T DFT=T ScalE2(SS,OS)=  0.270000  0.270000
 Form MO integral derivatives with frozen-active canonical formalism.
 Discarding MO integrals.
 Reordered first order wavefunction length =       528837
 In DefCFB: NBatch=  1 ICI=  5 ICA= 68 LFMax= 68
            Large arrays: LIAPS=    13985280 LIARS=    13328000 words.
 In DefCFB: NBatch=  1 ICI=  5 ICA= 68 LFMax= 68
            Large arrays: LIAPS=    13985280 LIARS=    13328000 words.
 Semi-Direct transformation.
 ModeAB=           4 MOrb=             5 LenV=   10737082126
 LASXX=       878425 LTotXX=      878425 LenRXX=     1798225
 LTotAB=      919800 MaxLAS=      868320 LenRXY=           0
 NonZer=     2676650 LenScr=     4715520 LnRSAI=      868320
 LnScr1=     1952256 LExtra=           0 Total=      9334321
 MaxDsk=          -1 SrtSym=           T ITran=            4
 JobTyp=1 Pass  1:  I=   1 to   5.
 (rs|ai) integrals will be sorted in core.
 ModeAB=           4 MOrb=             4 LenV=   10737082126
 LASXX=       708921 LTotXX=      708921 LenRXX=     1351317
 LTotAB=      642396 MaxLAS=      694656 LenRXY=           0
 NonZer=     2060238 LenScr=     3860480 LnRSAI=      694656
 LnScr1=     1571840 LExtra=           0 Total=      7478293
 MaxDsk=          -1 SrtSym=           T ITran=            4
 JobTyp=2 Pass  1:  I=   1 to   4.
 (rs|ai) integrals will be sorted in core.
 DoSCS=T DFT=T ScalE2(SS,OS)=  0.270000  0.270000
 Spin components of T(2) and E(2):
     alpha-alpha T2 =       0.1124418843D-01 E2=     -0.7251997776D-02
     alpha-beta  T2 =       0.5694786211D-01 E2=     -0.4144044202D-01
     beta-beta   T2 =       0.3824036009D-02 E2=     -0.2541954365D-02
 E2(B2PLYPD3) =    -0.5123439416D-01 E(B2PLYPD3) =    -0.39811242245985D+02
 (S**2,0)=  0.75573D+00           (S**2,1)=  0.74784D+00
 Scaling Projection term by:   0.270000
 E(PUHF)=      -0.39762246581D+02        E(PMP2)=      -0.39811431264D+02
          IDoAtm=1111
          Differentiating once with respect to electric field.
                with respect to dipole field.
          Differentiating once with respect to nuclear coordinates.
 Keep R1 and R2 ints in memory in symmetry-blocked form, NReq=39708224.
          There are     1 degrees of freedom in the 1st order CPHF.  IDoFFX=0 NUNeed=     1.
 LinEq1:  Iter=  0 NonCon=     1 RMS=5.97D-04 Max=5.12D-03 NDo=     1
 AX will form     1 AO Fock derivatives at one time.
 LinEq1:  Iter=  1 NonCon=     1 RMS=2.95D-04 Max=4.47D-03 NDo=     1
 LinEq1:  Iter=  2 NonCon=     1 RMS=9.40D-05 Max=8.99D-04 NDo=     1
 LinEq1:  Iter=  3 NonCon=     1 RMS=1.31D-05 Max=1.34D-04 NDo=     1
 LinEq1:  Iter=  4 NonCon=     1 RMS=1.68D-06 Max=2.22D-05 NDo=     1
 LinEq1:  Iter=  5 NonCon=     1 RMS=1.70D-07 Max=1.39D-06 NDo=     1
 LinEq1:  Iter=  6 NonCon=     1 RMS=1.43D-08 Max=9.81D-08 NDo=     1
 LinEq1:  Iter=  7 NonCon=     1 RMS=1.45D-09 Max=1.29D-08 NDo=     1
 LinEq1:  Iter=  8 NonCon=     1 RMS=1.46D-10 Max=1.26D-09 NDo=     1
 LinEq1:  Iter=  9 NonCon=     0 RMS=1.64D-11 Max=1.14D-10 NDo=     1
 Linear equations converged to 1.000D-10 1.000D-09 after     9 iterations.
 End of Minotr F.D. properties file   721 does not exist.
 End of Minotr F.D. properties file   722 does not exist.
 End of Minotr F.D. properties file   788 does not exist.
 Symmetrizing basis deriv contribution to polar:
 IMax=3 JMax=2 DiffMx= 0.00D+00
 G2DrvN: will do     5 centers at a time, making    1 passes.
 Calling FoFCou, ICntrl=  3107 FMM=F I1Cent=   0 AccDes= 0.00D+00.
 End of G2Drv F.D. properties file   721 does not exist.
 End of G2Drv F.D. properties file   722 does not exist.
 End of G2Drv F.D. properties file   788 does not exist.
 DoSCS=T DFT=T ScalE2(SS,OS)=  0.270000  0.270000
 R2 and R3 integrals will be kept in memory, NReq=    12440840.
 DD1Dir will call FoFMem   1 times, MxPair=        56
 NAB=    20 NAA=    10 NBB=     6.
 Discarding MO integrals.

 **********************************************************************

            Population analysis using the SCF Density.

 **********************************************************************

 Orbital symmetries:
 Alpha Orbitals:
       Occupied  (?A) (?A) (?B) (?B) (?C)
       Virtual   (?A) (?B) (?B) (?B) (?B) (?C) (?A) (?A) (?B) (?B)
                 (?D) (?D) (?A) (?A) (?B) (?B) (?C) (?D) (?D) (?B)
                 (?B) (?B) (?B) (?A) (?C) (?A) (?B) (?B) (?B) (?B)
                 (?D) (?D) (?A) (?C) (?A) (?B) (?B) (?D) (?D) (?C)
                 (?A) (?B) (?B) (?D) (?D) (?B) (?B) (?A) (?C) (?A)
                 (?B) (?B) (?D) (?D) (?C) (?B) (?B) (?A) (?B) (?B)
                 (?D) (?D) (?A) (?B) (?B) (?A) (?A)
 Beta  Orbitals:
       Occupied  (?A) (?A) (?B) (?B)
       Virtual   (?C) (?A) (?B) (?B) (?B) (?B) (?A) (?C) (?A) (?B)
                 (?B) (?D) (?D) (?A) (?B) (?B) (?A) (?C) (?D) (?D)
                 (?B) (?B) (?B) (?B) (?A) (?A) (?C) (?B) (?B) (?B)
                 (?B) (?D) (?D) (?A) (?B) (?B) (?C) (?A) (?D) (?D)
                 (?C) (?A) (?B) (?B) (?D) (?D) (?B) (?B) (?A) (?C)
                 (?A) (?B) (?B) (?D) (?D) (?C) (?B) (?B) (?A) (?B)
                 (?B) (?D) (?D) (?A) (?B) (?B) (?A) (?A)
 Unable to determine electronic state:  an orbital has unidentified symmetry.
 Alpha  occ. eigenvalues --  -10.62130  -0.79587  -0.48933  -0.48933  -0.29552
 Alpha virt. eigenvalues --    0.09169   0.16198   0.16198   0.30059   0.30059
 Alpha virt. eigenvalues --    0.35987   0.39792   0.53263   0.55666   0.55666
 Alpha virt. eigenvalues --    0.63053   0.63053   0.91674   0.95766   0.97704
 Alpha virt. eigenvalues --    0.97704   1.04378   1.15362   1.15362   1.32685
 Alpha virt. eigenvalues --    1.32685   1.41652   1.41652   1.66229   2.15569
 Alpha virt. eigenvalues --    2.20725   2.35494   2.35494   2.64086   2.64086
 Alpha virt. eigenvalues --    2.71961   2.71961   2.97262   3.00774   3.02168
 Alpha virt. eigenvalues --    3.03629   3.03629   3.08630   3.08630   3.32318
 Alpha virt. eigenvalues --    3.35683   3.49462   3.49462   3.72844   3.72844
 Alpha virt. eigenvalues --    3.77386   3.77386   3.99633   4.02933   4.04296
 Alpha virt. eigenvalues --    4.08450   4.08450   4.22686   4.22686   4.80694
 Alpha virt. eigenvalues --    4.97958   4.97958   4.98230   5.03547   5.03547
 Alpha virt. eigenvalues --    5.09950   5.09950   5.69440   5.79118   5.79118
 Alpha virt. eigenvalues --    6.35864  12.94046
  Beta  occ. eigenvalues --  -10.60423  -0.73769  -0.47850  -0.47850
  Beta virt. eigenvalues --    0.00787   0.09925   0.16450   0.16450   0.30172
  Beta virt. eigenvalues --    0.30172   0.43198   0.43763   0.55090   0.56300
  Beta virt. eigenvalues --    0.56300   0.66529   0.66529   0.91408   0.98065
  Beta virt. eigenvalues --    0.98065   0.99534   1.05971   1.17416   1.17416
  Beta virt. eigenvalues --    1.32950   1.32950   1.42024   1.42024   1.67745
  Beta virt. eigenvalues --    2.21491   2.23767   2.36989   2.36989   2.66151
  Beta virt. eigenvalues --    2.66151   2.75432   2.75432   2.97271   3.04581
  Beta virt. eigenvalues --    3.04581   3.05321   3.09242   3.12399   3.12399
  Beta virt. eigenvalues --    3.32454   3.36285   3.49490   3.49490   3.73253
  Beta virt. eigenvalues --    3.73253   3.78446   3.78446   3.99150   4.03146
  Beta virt. eigenvalues --    4.04378   4.08149   4.08149   4.23342   4.23342
  Beta virt. eigenvalues --    4.81969   4.98326   4.98326   4.98851   5.03537
  Beta virt. eigenvalues --    5.03537   5.12428   5.12428   5.70294   5.79461
  Beta virt. eigenvalues --    5.79461   6.36129  12.95809
          Condensed to atoms (all electrons):
               1          2          3          4
     1  C    5.153087   0.406665   0.406665   0.406665
     2  H    0.406665   0.531699  -0.031362  -0.031362
     3  H    0.406665  -0.031362   0.531699  -0.031362
     4  H    0.406665  -0.031362  -0.031362   0.531699
          Atomic-Atomic Spin Densities.
               1          2          3          4
     1  C    1.096949   0.005512   0.005512   0.005512
     2  H    0.005512  -0.049199   0.002930   0.002930
     3  H    0.005512   0.002930  -0.049199   0.002930
     4  H    0.005512   0.002930   0.002930  -0.049199
 Mulliken charges and spin densities:
               1          2
     1  C   -0.373081   1.113485
     2  H    0.124360  -0.037828
     3  H    0.124360  -0.037828
     4  H    0.124360  -0.037828
 Sum of Mulliken charges =   0.00000   1.00000
 Mulliken charges and spin densities with hydrogens summed into heavy atoms:
               1          2
     1  C    0.000000   1.000000
 APT charges:
               1
     1  C   -0.132731
     2  H    0.044244
     3  H    0.044244
     4  H    0.044244
 Sum of APT charges =  -0.00000
 APT charges with hydrogens summed into heavy atoms:
               1
     1  C   -0.000000
 Electronic spatial extent (au):  <R**2>=             29.7793
 Charge=              0.0000 electrons
 Dipole moment (field-independent basis, Debye):
    X=              0.0000    Y=             -0.0000    Z=              0.0001  Tot=              0.0001
 Quadrupole moment (field-independent basis, Debye-Ang):
   XX=             -7.2150   YY=             -7.2150   ZZ=             -8.9479
   XY=              0.0000   XZ=              0.0000   YZ=              0.0000
 Traceless Quadrupole moment (field-independent basis, Debye-Ang):
   XX=              0.5776   YY=              0.5776   ZZ=             -1.1553
   XY=              0.0000   XZ=              0.0000   YZ=              0.0000
 Octapole moment (field-independent basis, Debye-Ang**2):
  XXX=              0.0000  YYY=              0.8826  ZZZ=              0.0001  XYY=             -0.0000
  XXY=             -0.8826  XXZ=              0.0001  XZZ=             -0.0000  YZZ=              0.0000
  YYZ=              0.0001  XYZ=              0.0000
 Hexadecapole moment (field-independent basis, Debye-Ang**3):
 XXXX=            -14.7551 YYYY=            -14.7551 ZZZZ=            -10.6240 XXXY=             -0.0000
 XXXZ=              0.0000 YYYX=             -0.0000 YYYZ=              0.0000 ZZZX=             -0.0000
 ZZZY=              0.0000 XXYY=             -4.9184 XXZZ=             -4.6236 YYZZ=             -4.6236
 XXYZ=             -0.0000 YYXZ=             -0.0000 ZZXY=             -0.0000
 N-N= 9.705626016569D+00 E-N=-1.112835354601D+02  KE= 3.958057489049D+01
 Symmetry A'   KE= 3.760400813171D+01
 Symmetry A"   KE= 1.976566758774D+00
 Symmetry A'   SP= 1.000000000000D+00
 Symmetry A"   SP=-1.630131851614D-16
  Exact polarizability:  13.790  -0.000  13.790  -0.000   0.000  10.238
 Approx polarizability:  13.748   0.000  13.748   0.000   0.000  10.384
                          Isotropic Fermi Contact Couplings
        Atom                 a.u.       MegaHertz       Gauss      10(-4) cm-1
     1  C(13)              0.04198      47.19053      16.83875      15.74106
     2  H(1)              -0.01462     -65.34195     -23.31563     -21.79573
     3  H(1)              -0.01462     -65.34195     -23.31563     -21.79573
     4  H(1)              -0.01462     -65.34195     -23.31563     -21.79573
 --------------------------------------------------------
       Center         ----  Spin Dipole Couplings  ----
                      3XX-RR        3YY-RR        3ZZ-RR
 --------------------------------------------------------
     1   Atom       -0.575012     -0.575012      1.150025
     2   Atom       -0.077720      0.073049      0.004672
     3   Atom        0.035356     -0.040028      0.004672
     4   Atom        0.035356     -0.040028      0.004672
 --------------------------------------------------------
                        XY            XZ            YZ
 --------------------------------------------------------
     1   Atom        0.000000     -0.000000     -0.000000
     2   Atom       -0.000000      0.000000      0.000003
     3   Atom       -0.065285      0.000002     -0.000001
     4   Atom        0.065285     -0.000002     -0.000001
 --------------------------------------------------------


 ---------------------------------------------------------------------------------
              Anisotropic Spin Dipole Couplings in Principal Axis System
 ---------------------------------------------------------------------------------

       Atom             a.u.   MegaHertz   Gauss  10(-4) cm-1        Axes

              Baa    -0.5750   -77.161   -27.533   -25.738 -0.0000  1.0000  0.0000
     1 C(13)  Bbb    -0.5750   -77.161   -27.533   -25.738  1.0000  0.0000  0.0000
              Bcc     1.1500   154.322    55.066    51.476 -0.0000 -0.0000  1.0000
 
              Baa    -0.0777   -41.468   -14.797   -13.832  1.0000  0.0000 -0.0000
     2 H(1)   Bbb     0.0047     2.493     0.889     0.831  0.0000 -0.0000  1.0000
              Bcc     0.0730    38.975    13.907    13.001 -0.0000  1.0000  0.0000
 
              Baa    -0.0777   -41.468   -14.797   -13.832  0.5000  0.8660 -0.0000
     3 H(1)   Bbb     0.0047     2.493     0.889     0.831 -0.0000  0.0000  1.0000
              Bcc     0.0730    38.975    13.907    13.001  0.8660 -0.5000  0.0000
 
              Baa    -0.0777   -41.468   -14.797   -13.832 -0.5000  0.8660 -0.0000
     4 H(1)   Bbb     0.0047     2.493     0.889     0.831  0.0000  0.0000  1.0000
              Bcc     0.0730    38.975    13.907    13.001  0.8660  0.5000 -0.0000
 

 ---------------------------------------------------------------------------------

 Calling FoFJK, ICntrl=  10100127 FMM=F ISym2X=1 I1Cent= 0 IOpClX= 1 NMat=1 NMatS=1 NMatT=0.
 Full mass-weighted force constant matrix:
 Low frequencies ---  -20.0308  -18.5942  -13.5661   -0.0014   -0.0013    0.0008
 Low frequencies ---  514.3081 1427.6813 1427.6821
 Diagonal vibrational polarizability:
        0.0456384       0.0456381       7.7788908
 Harmonic frequencies (cm**-1), IR intensities (KM/Mole), Raman scattering
 activities (A**4/AMU), depolarization ratios for plane and unpolarized
 incident light, reduced masses (AMU), force constants (mDyne/A),
 and normal coordinates:
                      1                      2                      3
                     A1                     ?A                     ?A
 Frequencies --    514.3081              1427.6813              1427.6821
 Red. masses --      1.2356                 1.1021                 1.1021
 Frc consts  --      0.1926                 1.3236                 1.3236
 IR Inten    --     76.4595                 2.6915                 2.6916
  Atom  AN      X      Y      Z        X      Y      Z        X      Y      Z
     1   6    -0.00  -0.00  -0.14    -0.09   0.00   0.00    -0.00  -0.09   0.00
     2   1     0.00  -0.00   0.57     0.81   0.00  -0.00     0.00  -0.07   0.00
     3   1    -0.00   0.00   0.57     0.15   0.38   0.00     0.38   0.59  -0.00
     4   1     0.00   0.00   0.57     0.15  -0.38  -0.00    -0.38   0.59  -0.00
                      4                      5                      6
                     ?B                     ?A                     ?A
 Frequencies --   3139.8359              3321.1151              3321.1176
 Red. masses --      1.0078                 1.1183                 1.1183
 Frc consts  --      5.8540                 7.2674                 7.2674
 IR Inten    --      0.0000                 4.1405                 4.1398
  Atom  AN      X      Y      Z        X      Y      Z        X      Y      Z
     1   6    -0.00  -0.00  -0.00    -0.10  -0.00   0.00     0.00  -0.10   0.00
     2   1     0.00   0.58   0.00    -0.02   0.00   0.00     0.00   0.81   0.00
     3   1     0.50  -0.29   0.00     0.61  -0.36   0.00    -0.36   0.19  -0.00
     4   1    -0.50  -0.29   0.00     0.61   0.36  -0.00     0.36   0.19  -0.00

 -------------------
 - Thermochemistry -
 -------------------
 Temperature   298.150 Kelvin.  Pressure   1.00000 Atm.
 Atom     1 has atomic number  6 and mass  12.00000
 Atom     2 has atomic number  1 and mass   1.00783
 Atom     3 has atomic number  1 and mass   1.00783
 Atom     4 has atomic number  1 and mass   1.00783
 Molecular mass:    15.02348 amu.
 Principal axes and moments of inertia in atomic units:
                           1         2         3
     Eigenvalues --     6.24773   6.24773  12.49545
           X           -0.00865   0.99996   0.00000
           Y            0.99996   0.00865   0.00000
           Z           -0.00000   0.00000   1.00000
 This molecule is an oblate symmetric top.
 Rotational symmetry number  3.
 Rotational temperatures (Kelvin)     13.86327    13.86327     6.93164
 Rotational constants (GHZ):         288.86370   288.86370   144.43185
 Zero-point vibrational energy      78664.9 (Joules/Mol)
                                   18.80136 (Kcal/Mol)
 Warning -- explicit consideration of   1 degrees of freedom as
           vibrations may cause significant error
 Vibrational temperatures:    739.97  2054.12  2054.12  4517.52  4778.34
          (Kelvin)           4778.35
 
 Zero-point correction=                           0.029962 (Hartree/Particle)
 Thermal correction to Energy=                    0.033021
 Thermal correction to Enthalpy=                  0.033966
 Thermal correction to Gibbs Free Energy=         0.011221
 Sum of electronic and zero-point Energies=            -39.781280
 Sum of electronic and thermal Energies=               -39.778221
 Sum of electronic and thermal Enthalpies=             -39.777277
 Sum of electronic and thermal Free Energies=          -39.800021
 
                     E (Thermal)             CV                S
                      KCal/Mol        Cal/Mol-Kelvin    Cal/Mol-Kelvin
 Total                   20.721              7.373             47.870
 Electronic               0.000              0.000              1.377
 Translational            0.889              2.981             34.068
 Rotational               0.889              2.981             11.770
 Vibrational             18.944              1.411              0.655
 Vibration     1          0.869              1.218              0.623
                       Q            Log10(Q)             Ln(Q)
 Total Bot       0.689865D-05         -5.161236        -11.884185
 Total V=0       0.417114D+09          8.620255         19.848871
 Vib (Bot)       0.180843D-13        -13.742698        -31.643731
 Vib (Bot)    1  0.315481D+00         -0.501027         -1.153657
 Vib (V=0)       0.109344D+01          0.038793          0.089325
 Vib (V=0)    1  0.109121D+01          0.037908          0.087286
 Electronic      0.200000D+01          0.301030          0.693147
 Translational   0.228881D+07          6.359609         14.643542
 Rotational      0.833340D+02          1.920822          4.422857
 ***** Axes restored to original set *****
 -------------------------------------------------------------------
 Center     Atomic                   Forces (Hartrees/Bohr)
 Number     Number              X              Y              Z
 -------------------------------------------------------------------
      1        6          -0.000000000    0.000000216   -0.000001700
      2        1          -0.000000000    0.000017886    0.000000566
      3        1          -0.000015536   -0.000009051    0.000000567
      4        1           0.000015536   -0.000009051    0.000000567
 -------------------------------------------------------------------
 Cartesian Forces:  Max     0.000017886 RMS     0.000008992
 FormGI is forming the generalized inverse of G from B-inverse, IUseBI=4.

 GradGradGradGradGradGradGradGradGradGradGradGradGradGradGradGradGradGrad
 Berny optimization.
 Internal  Forces:  Max     0.000017980 RMS     0.000011756
 Search for a local minimum.
 Step number   1 out of a maximum of    2
 All quantities printed in internal units (Hartrees-Bohrs-Radians)
 Second derivative matrix not updated -- analytic derivatives used.
 The second derivative matrix:
                          R1        R2        R3        A1        A2
           R1           0.37583
           R2           0.00009   0.37583
           R3           0.00009   0.00009   0.37583
           A1           0.00548   0.00548  -0.01096   0.06433
           A2           0.00548  -0.01096   0.00548  -0.03217   0.06433
           A3          -0.01096   0.00548   0.00548  -0.03217  -0.03217
           D1          -0.00000  -0.00000  -0.00000   0.00000  -0.00000
                          A3        D1
           A3           0.06433
           D1          -0.00000   0.00833
 ITU=  0
     Eigenvalues ---    0.00833   0.09554   0.09554   0.37600   0.37670
     Eigenvalues ---    0.37671
 Angle between quadratic step and forces=  53.55 degrees.
 Linear search not attempted -- first point.
 Iteration  1 RMS(Cart)=  0.00003881 RMS(Int)=  0.00000000
 Iteration  2 RMS(Cart)=  0.00000000 RMS(Int)=  0.00000000
 ClnCor:  largest displacement from symmetrization is 7.54D-07 for atom     3.
 Variable       Old X    -DE/DX   Delta X   Delta X   Delta X     New X
                                 (Linear)    (Quad)   (Total)
    R1        2.03293   0.00002   0.00000   0.00005   0.00005   2.03298
    R2        2.03293   0.00002   0.00000   0.00005   0.00005   2.03298
    R3        2.03293   0.00002   0.00000   0.00005   0.00005   2.03298
    A1        2.09440   0.00000   0.00000   0.00000   0.00000   2.09440
    A2        2.09440   0.00000   0.00000   0.00000   0.00000   2.09440
    A3        2.09440  -0.00000   0.00000  -0.00000   0.00000   2.09440
    D1       -3.14147  -0.00000   0.00000  -0.00012  -0.00012  -3.14159
         Item               Value     Threshold  Converged?
 Maximum Force            0.000018     0.000450     YES
 RMS     Force            0.000012     0.000300     YES
 Maximum Displacement     0.000053     0.001800     YES
 RMS     Displacement     0.000039     0.001200     YES
 Predicted change in Energy=-1.344899D-09
 Optimization completed.
    -- Stationary point found.
                           ----------------------------
                           !   Optimized Parameters   !
                           ! (Angstroms and Degrees)  !
 --------------------------                            --------------------------
 ! Name  Definition              Value          Derivative Info.                !
 --------------------------------------------------------------------------------
 ! R1    R(1,2)                  1.0758         -DE/DX =    0.0                 !
 ! R2    R(1,3)                  1.0758         -DE/DX =    0.0                 !
 ! R3    R(1,4)                  1.0758         -DE/DX =    0.0                 !
 ! A1    A(2,1,3)              120.0            -DE/DX =    0.0                 !
 ! A2    A(2,1,4)              120.0            -DE/DX =    0.0                 !
 ! A3    A(3,1,4)              120.0            -DE/DX =    0.0                 !
 ! D1    D(2,1,4,3)           -179.9931         -DE/DX =    0.0                 !
 --------------------------------------------------------------------------------
 GradGradGradGradGradGradGradGradGradGradGradGradGradGradGradGradGradGrad


 ----------------------------------------------------------------------

 Electric dipole moment (input orientation):
 (Debye = 10**-18 statcoulomb cm , SI units = C m)
                  (au)            (Debye)         (10**-30 SI)
   Tot        0.306320D-04      0.778589D-04      0.259709D-03
   x          0.000000D+00      0.000000D+00      0.000000D+00
   y          0.000000D+00      0.000000D+00      0.000000D+00
   z         -0.306320D-04     -0.778589D-04     -0.259709D-03

 Dipole polarizability, Alpha (input orientation).
 (esu units = cm**3 , SI units = C**2 m**2 J**-1)
 Alpha(0;0):
               (au)            (10**-24 esu)      (10**-40 SI)
   iso        0.126063D+02      0.186806D+01      0.207849D+01
   aniso      0.355232D+01      0.526400D+00      0.585699D+00
   xx         0.137904D+02      0.204353D+01      0.227373D+01
   yx         0.000000D+00      0.000000D+00      0.000000D+00
   yy         0.137903D+02      0.204352D+01      0.227372D+01
   zx         0.000000D+00      0.000000D+00      0.000000D+00
   zy         0.000000D+00      0.000000D+00      0.000000D+00
   zz         0.102380D+02      0.151712D+01      0.168803D+01

 ----------------------------------------------------------------------

 Dipole orientation:
     6         -0.00000000          0.00000021         -0.00008258
     1         -0.00000000         -2.03293145         -0.00002032
     1         -1.76057046          1.01646604         -0.00000808
     1          1.76057046          1.01646604         -0.00000808

 Electric dipole moment (dipole orientation):
 (Debye = 10**-18 statcoulomb cm , SI units = C m)
                  (au)            (Debye)         (10**-30 SI)
   Tot        0.306320D-04      0.778589D-04      0.259709D-03
   x          0.000000D+00      0.000000D+00      0.000000D+00
   y          0.000000D+00      0.000000D+00      0.000000D+00
   z          0.306320D-04      0.778589D-04      0.259709D-03

 Dipole polarizability, Alpha (dipole orientation).
 (esu units = cm**3 , SI units = C**2 m**2 J**-1)
 Alpha(0;0):
               (au)            (10**-24 esu)      (10**-40 SI)
   iso        0.126063D+02      0.186806D+01      0.207849D+01
   aniso      0.355232D+01      0.526400D+00      0.585699D+00
   xx         0.137904D+02      0.204353D+01      0.227373D+01
   yx         0.000000D+00      0.000000D+00      0.000000D+00
   yy         0.137903D+02      0.204352D+01      0.227372D+01
   zx         0.000000D+00      0.000000D+00      0.000000D+00
   zy         0.142633D-04      0.211361D-05      0.235171D-05
   zz         0.102380D+02      0.151712D+01      0.168803D+01

 ----------------------------------------------------------------------
 1\1\GINC-N68\Freq\UB2PLYPD3-FC\CC-pVTZ\C1H3(2)\ROOT\01-Jun-2019\0\\#N 
 Geom=AllCheck Guess=TCheck SCRF=Check GenChk UB2PLYPD3(FC)/CC-pVTZ Fre
 q\\Title Card Required\\0,2\C,0.,-0.0000001111,0.0000436991\H,-0.00000
 00001,1.0757809948,0.0000064337\H,-0.9316537666,-0.5378906642,0.000006
 4337\H,0.9316537667,-0.537890664,0.0000064337\\Version=ES64L-G16RevB.0
 1\HF=-39.7600079\MP2=-39.8112422\PUHF=-39.7622466\PMP2-0=-39.8114313\S
 2=0.755733\S2-1=0.74784\S2A=0.750016\RMSD=2.921e-10\RMSF=8.992e-06\Zer
 oPoint=0.0299619\Thermal=0.0330214\Dipole=0.,0.,-0.0000306\DipoleDeriv
 =0.018511,0.,0.,0.,0.0185045,0.,0.,0.,-0.4352098,0.0418584,0.,0.,0.,-0
 .054193,0.0000042,0.,0.0000105,0.1450663,-0.0301847,-0.0415924,-0.0000
 036,-0.0415917,0.0178442,-0.0000021,-0.0000091,-0.0000052,0.1450717,-0
 .0301847,0.0415924,0.0000036,0.0415917,0.0178442,-0.0000021,0.0000091,
 -0.0000052,0.1450717\Polar=13.7904051,0.,13.7903413,0.,0.,10.2380497\P
 G=C03V [C3(C1),3SGV(H1)]\NImag=0\\0.62665522,0.,0.62665622,0.,0.,0.024
 17439,-0.05603565,0.,0.,0.04669206,0.,-0.36173504,0.00000993,0.,0.3758
 2802,0.,0.00001392,-0.00805728,0.,-0.00001148,0.00267668,-0.28530979,-
 0.13237170,-0.00000860,0.00467180,0.00396771,-0.00000019,0.29354388,-0
 .13237145,-0.13246059,-0.00000496,-0.02426444,-0.00704649,-0.00000122,
 0.14251994,0.12897598,-0.00001205,-0.00000696,-0.00805855,0.00000096,0
 .00000078,0.00269030,0.00000994,0.00000574,0.00267648,-0.28530979,0.13
 237170,0.00000860,0.00467180,-0.00396771,0.00000019,-0.01290589,0.0141
 1595,0.00000115,0.29354388,0.13237145,-0.13246059,-0.00000496,0.024264
 44,-0.00704649,-0.00000122,-0.01411595,0.01053110,0.00000044,-0.142519
 94,0.12897598,0.00001205,-0.00000696,-0.00805855,-0.00000096,0.0000007
 8,0.00269030,-0.00000115,0.00000044,0.00269178,-0.00000994,0.00000574,
 0.00267648\\0.,-0.00000022,0.00000170,0.,-0.00001789,-0.00000057,0.000
 01554,0.00000905,-0.00000057,-0.00001554,0.00000905,-0.00000057\\\@


  ON THE CHOICE OF THE CORRECT LANGUAGE -
 I SPEAK SPANISH TO GOD, ITALIAN TO WOMEN,
 FRENCH TO MEN, AND GERMAN TO MY HORSE.
          -- CHARLES V
 Job cpu time:       0 days  0 hours 11 minutes 50.7 seconds.
 Elapsed time:       0 days  0 hours  0 minutes 20.4 seconds.
 File lengths (MBytes):  RWF=    234 Int=      0 D2E=      0 Chk=      2 Scr=      1
 Normal termination of Gaussian 16 at Sat Jun  1 01:19:17 2019.
