 Entering Gaussian System, Link 0=g16
 Initial command:
 /ichec/packages/gaussian/16b01/l1.exe "/localscratch/386879/Gau-39191.inp" -scrdir="/localscratch/386879/"
 Entering Link 1 = /ichec/packages/gaussian/16b01/l1.exe PID=     39226.
  
 Copyright (c) 1988-2017, Gaussian, Inc.  All Rights Reserved.
  
 This is part of the Gaussian(R) 16 program.  It is based on
 the Gaussian(R) 09 system (copyright 2009, Gaussian, Inc.),
 the Gaussian(R) 03 system (copyright 2003, Gaussian, Inc.),
 the Gaussian(R) 98 system (copyright 1998, Gaussian, Inc.),
 the Gaussian(R) 94 system (copyright 1995, Gaussian, Inc.),
 the Gaussian 92(TM) system (copyright 1992, Gaussian, Inc.),
 the Gaussian 90(TM) system (copyright 1990, Gaussian, Inc.),
 the Gaussian 88(TM) system (copyright 1988, Gaussian, Inc.),
 the Gaussian 86(TM) system (copyright 1986, Carnegie Mellon
 University), and the Gaussian 82(TM) system (copyright 1983,
 Carnegie Mellon University). Gaussian is a federally registered
 trademark of Gaussian, Inc.
  
 This software contains proprietary and confidential information,
 including trade secrets, belonging to Gaussian, Inc.
  
 This software is provided under written license and may be
 used, copied, transmitted, or stored only in accord with that
 written license.
  
 The following legend is applicable only to US Government
 contracts under FAR:
  
                    RESTRICTED RIGHTS LEGEND
  
 Use, reproduction and disclosure by the US Government is
 subject to restrictions as set forth in subparagraphs (a)
 and (c) of the Commercial Computer Software - Restricted
 Rights clause in FAR 52.227-19.
  
 Gaussian, Inc.
 340 Quinnipiac St., Bldg. 40, Wallingford CT 06492
  
  
 ---------------------------------------------------------------
 Warning -- This program may not be used in any manner that
 competes with the business of Gaussian, Inc. or will provide
 assistance to any competitor of Gaussian, Inc.  The licensee
 of this program is prohibited from giving any competitor of
 Gaussian, Inc. access to this program.  By using this program,
 the user acknowledges that Gaussian, Inc. is engaged in the
 business of creating and licensing software in the field of
 computational chemistry and represents and warrants to the
 licensee that it is not a competitor of Gaussian, Inc. and that
 it will not use this program in any manner prohibited above.
 ---------------------------------------------------------------
  

 Cite this work as:
 Gaussian 16, Revision B.01,
 M. J. Frisch, G. W. Trucks, H. B. Schlegel, G. E. Scuseria, 
 M. A. Robb, J. R. Cheeseman, G. Scalmani, V. Barone, 
 G. A. Petersson, H. Nakatsuji, X. Li, M. Caricato, A. V. Marenich, 
 J. Bloino, B. G. Janesko, R. Gomperts, B. Mennucci, H. P. Hratchian, 
 J. V. Ortiz, A. F. Izmaylov, J. L. Sonnenberg, D. Williams-Young, 
 F. Ding, F. Lipparini, F. Egidi, J. Goings, B. Peng, A. Petrone, 
 T. Henderson, D. Ranasinghe, V. G. Zakrzewski, J. Gao, N. Rega, 
 G. Zheng, W. Liang, M. Hada, M. Ehara, K. Toyota, R. Fukuda, 
 J. Hasegawa, M. Ishida, T. Nakajima, Y. Honda, O. Kitao, H. Nakai, 
 T. Vreven, K. Throssell, J. A. Montgomery, Jr., J. E. Peralta, 
 F. Ogliaro, M. J. Bearpark, J. J. Heyd, E. N. Brothers, K. N. Kudin, 
 V. N. Staroverov, T. A. Keith, R. Kobayashi, J. Normand, 
 K. Raghavachari, A. P. Rendell, J. C. Burant, S. S. Iyengar, 
 J. Tomasi, M. Cossi, J. M. Millam, M. Klene, C. Adamo, R. Cammi, 
 J. W. Ochterski, R. L. Martin, K. Morokuma, O. Farkas, 
 J. B. Foresman, and D. J. Fox, Gaussian, Inc., Wallingford CT, 2016.
 
 ******************************************
 Gaussian 16:  ES64L-G16RevB.01 20-Dec-2017
                30-Jul-2019 
 ******************************************
 %mem=100GB
 %nproc=40
 Will use up to   40 processors via shared memory.
 -----------------------------------------------
 # opt=maxcyc=500 freq=noraman uB2PLYPD3/cc-pvtz
 -----------------------------------------------
 1/6=500,18=20,19=15,38=1/1,3;
 2/9=110,12=2,17=6,18=5,40=1/2;
 3/5=16,6=1,11=2,25=1,30=1,71=1,74=-60,116=2/1,2,3;
 4//1;
 5/5=2,38=5/2;
 8/6=4,10=1/1;
 9/15=2,16=-3/6;
 10/5=1/2;
 6/7=2,8=2,9=2,10=2/1;
 7/12=2/1,2,3,16;
 1/6=500,18=20,19=15/3(2);
 2/9=110/2;
 99//99;
 2/9=110/2;
 3/5=16,6=1,11=2,25=1,30=1,71=1,74=-60,116=2/1,2,3;
 4/5=5,16=3,69=1/1;
 5/5=2,38=5/2;
 8/6=4,10=1/1;
 9/15=2,16=-3/6;
 10/5=1/2;
 7/12=2/1,2,3,16;
 1/6=500,18=20,19=15/3(-8);
 2/9=110/2;
 6/7=2,8=2,9=2,10=2/1;
 99/9=10/99;
 -------------------
 Title Card Required
 -------------------
 Symbolic Z-matrix:
 Charge =  0 Multiplicity = 2
 C                     1.0203    0.886     0.9741 
 C                     1.8788    1.9888    1.571 
 O                     3.1962    1.4725    1.7389 
 H                    -0.0079    1.2345    0.8257 
 H                     1.0019    0.0158    1.6384 
 H                     1.4249    0.5693    0.0072 
 H                     1.8798    2.8664    0.9035 
 H                     3.7448    2.1751    2.1191 
 

 GradGradGradGradGradGradGradGradGradGradGradGradGradGradGradGradGradGrad
 Berny optimization.
 Initialization pass.
                           ----------------------------
                           !    Initial Parameters    !
                           ! (Angstroms and Degrees)  !
 --------------------------                            --------------------------
 ! Name  Definition              Value          Derivative Info.                !
 --------------------------------------------------------------------------------
 ! R1    R(1,2)                  1.5197         estimate D2E/DX2                !
 ! R2    R(1,4)                  1.0958         estimate D2E/DX2                !
 ! R3    R(1,5)                  1.0949         estimate D2E/DX2                !
 ! R4    R(1,6)                  1.0949         estimate D2E/DX2                !
 ! R5    R(2,3)                  1.4249         estimate D2E/DX2                !
 ! R6    R(2,7)                  1.1026         estimate D2E/DX2                !
 ! R7    R(3,8)                  0.9691         estimate D2E/DX2                !
 ! A1    A(2,1,4)              110.6395         estimate D2E/DX2                !
 ! A2    A(2,1,5)              110.3603         estimate D2E/DX2                !
 ! A3    A(2,1,6)              110.3645         estimate D2E/DX2                !
 ! A4    A(4,1,5)              108.6125         estimate D2E/DX2                !
 ! A5    A(4,1,6)              108.6106         estimate D2E/DX2                !
 ! A6    A(5,1,6)              108.1854         estimate D2E/DX2                !
 ! A7    A(1,2,3)              107.7967         estimate D2E/DX2                !
 ! A8    A(1,2,7)              109.8962         estimate D2E/DX2                !
 ! A9    A(3,2,7)              111.0326         estimate D2E/DX2                !
 ! A10   A(2,3,8)              107.8735         estimate D2E/DX2                !
 ! D1    D(4,1,2,3)            179.9441         estimate D2E/DX2                !
 ! D2    D(4,1,2,7)            -58.922          estimate D2E/DX2                !
 ! D3    D(5,1,2,3)             59.7078         estimate D2E/DX2                !
 ! D4    D(5,1,2,7)           -179.1583         estimate D2E/DX2                !
 ! D5    D(6,1,2,3)            -59.8193         estimate D2E/DX2                !
 ! D6    D(6,1,2,7)             61.3146         estimate D2E/DX2                !
 ! D7    D(1,2,3,8)            179.9705         estimate D2E/DX2                !
 ! D8    D(7,2,3,8)             59.5486         estimate D2E/DX2                !
 --------------------------------------------------------------------------------
 Trust Radius=3.00D-01 FncErr=1.00D-07 GrdErr=1.00D-07 EigMax=2.50D+02 EigMin=1.00D-04
 Number of steps in this run=    100 maximum allowed number of steps=    100.
 GradGradGradGradGradGradGradGradGradGradGradGradGradGradGradGradGradGrad

                          Input orientation:                          
 ---------------------------------------------------------------------
 Center     Atomic      Atomic             Coordinates (Angstroms)
 Number     Number       Type             X           Y           Z
 ---------------------------------------------------------------------
      1          6           0        1.020300    0.886000    0.974100
      2          6           0        1.878800    1.988800    1.571000
      3          8           0        3.196200    1.472500    1.738900
      4          1           0       -0.007900    1.234500    0.825700
      5          1           0        1.001900    0.015800    1.638400
      6          1           0        1.424900    0.569300    0.007200
      7          1           0        1.879800    2.866400    0.903500
      8          1           0        3.744800    2.175100    2.119100
 ---------------------------------------------------------------------
                    Distance matrix (angstroms):
                    1          2          3          4          5
     1  C    0.000000
     2  C    1.519697   0.000000
     3  O    2.379799   1.424886   0.000000
     4  H    1.095751   2.164273   3.340185   0.000000
     5  H    1.094934   2.160145   2.635721   1.779159   0.000000
     6  H    1.094941   2.160203   2.636676   1.779143   1.773726
     7  H    2.160025   1.102606   2.091353   2.496510   3.071922
     8  H    3.224237   1.953734   0.969103   4.079261   3.523798
                    6          7          8
     6  H    0.000000
     7  H    2.507380   0.000000
     8  H    3.524294   2.331052   0.000000
 Stoichiometry    C2H5O(2)
 Framework group  C1[X(C2H5O)]
 Deg. of freedom    18
 Full point group                 C1      NOp   1
 Largest Abelian subgroup         C1      NOp   1
 Largest concise Abelian subgroup C1      NOp   1
                         Standard orientation:                         
 ---------------------------------------------------------------------
 Center     Atomic      Atomic             Coordinates (Angstroms)
 Number     Number       Type             X           Y           Z
 ---------------------------------------------------------------------
      1          6           0        1.216088   -0.184095    0.014850
      2          6           0       -0.088425    0.570674   -0.180214
      3          8           0       -1.158193   -0.343322    0.044521
      4          1           0        2.073639    0.478131   -0.148654
      5          1           0        1.281219   -1.020424   -0.688849
      6          1           0        1.274722   -0.587283    1.031166
      7          1           0       -0.139280    1.419652    0.521491
      8          1           0       -1.990741    0.137023   -0.079141
 ---------------------------------------------------------------------
 Rotational constants (GHZ):          41.8183198           9.5266886           8.3193451
 Standard basis: CC-pVTZ (5D, 7F)
 There are   180 symmetry adapted cartesian basis functions of A   symmetry.
 There are   160 symmetry adapted basis functions of A   symmetry.
   160 basis functions,   241 primitive gaussians,   180 cartesian basis functions
    13 alpha electrons       12 beta electrons
       nuclear repulsion energy        74.1159447394 Hartrees.
 NAtoms=    8 NActive=    8 NUniq=    8 SFac= 1.00D+00 NAtFMM=   60 NAOKFM=F Big=F
 Integral buffers will be    131072 words long.
 Raffenetti 2 integral format.
 Two-electron integral symmetry is turned on.
 Nuclear repulsion after empirical dispersion term =       74.1132898991 Hartrees.
 One-electron integrals computed using PRISM.
 NBasis=   160 RedAO= T EigKep=  1.12D-03  NBF=   160
 NBsUse=   160 1.00D-06 EigRej= -1.00D+00 NBFU=   160
 ExpMin= 1.03D-01 ExpMax= 1.53D+04 ExpMxC= 5.22D+02 IAcc=3 IRadAn=         5 AccDes= 0.00D+00
 Harris functional with IExCor=  419 and IRadAn=       5 diagonalized for initial guess.
 HarFok:  IExCor=  419 AccDes= 0.00D+00 IRadAn=         5 IDoV= 1 UseB2=F ITyADJ=14
 ICtDFT=  3500011 ScaDFX=  1.000000  1.000000  1.000000  1.000000
 FoFCou: FMM=F IPFlag=           0 FMFlag=      100000 FMFlg1=           0
         NFxFlg=           0 DoJE=T BraDBF=F KetDBF=T FulRan=T
         wScrn=  0.000000 ICntrl=       500 IOpCl=  0 I1Cent=   200000004 NGrid=           0
         NMat0=    1 NMatS0=      1 NMatT0=    0 NMatD0=    1 NMtDS0=    0 NMtDT0=    0
 Petite list used in FoFCou.
 Initial guess <Sx>= 0.0000 <Sy>= 0.0000 <Sz>= 0.5000 <S**2>= 0.7500 S= 0.5000
 Keep R1 and R2 ints in memory in canonical form, NReq=206286096.
 Requested convergence on RMS density matrix=1.00D-08 within 128 cycles.
 Requested convergence on MAX density matrix=1.00D-06.
 Requested convergence on             energy=1.00D-06.
 No special actions if energy rises.
 Integral accuracy reduced to 1.0D-05 until final iterations.
 Initial convergence to 1.0D-05 achieved.  Increase integral accuracy.
 SCF Done:  E(UB2PLYPD3) =  -154.121667509     A.U. after   14 cycles
            NFock= 14  Conv=0.40D-08     -V/T= 2.0052
 <Sx>= 0.0000 <Sy>= 0.0000 <Sz>= 0.5000 <S**2>= 0.7549 S= 0.5025
 <L.S>=  0.00000000000    
 Annihilation of the first spin contaminant:
 S**2 before annihilation     0.7549,   after     0.7500
 DoSCS=T DFT=T ScalE2(SS,OS)=  0.270000  0.270000
 ExpMin= 1.03D-01 ExpMax= 1.53D+04 ExpMxC= 5.22D+02 IAcc=3 IRadAn=         5 AccDes= 0.00D+00
 HarFok:  IExCor=  205 AccDes= 0.00D+00 IRadAn=         5 IDoV=-2 UseB2=F ITyADJ=14
 ICtDFT= 12500011 ScaDFX=  1.000000  1.000000  1.000000  1.000000
 Range of M.O.s used for correlation:     4   160
 NBasis=   160 NAE=    13 NBE=    12 NFC=     3 NFV=     0
 NROrb=    157 NOA=    10 NOB=     9 NVA=   147 NVB=   148

 **** Warning!!: The largest alpha MO coefficient is  0.11949114D+02


 **** Warning!!: The largest beta MO coefficient is  0.11947785D+02

 DoSCS=T DFT=T ScalE2(SS,OS)=  0.270000  0.270000
 Fully direct method using O(ONN) memory.
 JobTyp=2 Pass  1:  I=   4 to  13 NPSUse= 40 ParTrn=T ParDer=T DoDerP=T.
 JobTyp=3 Pass  1:  I=   4 to  12 NPSUse= 40 ParTrn=T ParDer=T DoDerP=T.
 Spin components of T(2) and E(2):
     alpha-alpha T2 =       0.3107329694D-01 E2=     -0.2331892827D-01
     alpha-beta  T2 =       0.1801415405D+00 E2=     -0.1410242651D+00
     beta-beta   T2 =       0.2965712692D-01 E2=     -0.2086682950D-01
 (S**2,0)=  0.75494D+00           (S**2,1)=  0.74753D+00
 Scaling Projection term by:   0.270000
 E(PUHF)=      -0.15412366328D+03        E(PMP2)=      -0.15430701314D+03
 E2(B2PLYPD3) =    -0.1852100228D+00 E(B2PLYPD3) =    -0.15430687753179D+03
          IDoAtm=11111111
          Differentiating once with respect to electric field.
                with respect to dipole field.
          Differentiating once with respect to nuclear coordinates.
 Keep R1 and R2 ints in memory in canonical form, NReq=206291724.
          There are     1 degrees of freedom in the 1st order CPHF.  IDoFFX=0 NUNeed=     1.
 LinEq1:  Iter=  0 NonCon=     1 RMS=1.02D-03 Max=2.92D-02 NDo=     1
 AX will form     1 AO Fock derivatives at one time.
 LinEq1:  Iter=  1 NonCon=     1 RMS=3.59D-04 Max=4.31D-03 NDo=     1
 LinEq1:  Iter=  2 NonCon=     1 RMS=1.79D-04 Max=4.81D-03 NDo=     1
 LinEq1:  Iter=  3 NonCon=     1 RMS=9.10D-05 Max=9.13D-04 NDo=     1
 LinEq1:  Iter=  4 NonCon=     1 RMS=4.15D-05 Max=6.52D-04 NDo=     1
 LinEq1:  Iter=  5 NonCon=     1 RMS=1.09D-05 Max=1.59D-04 NDo=     1
 LinEq1:  Iter=  6 NonCon=     1 RMS=3.57D-06 Max=3.91D-05 NDo=     1
 LinEq1:  Iter=  7 NonCon=     1 RMS=1.31D-06 Max=1.45D-05 NDo=     1
 LinEq1:  Iter=  8 NonCon=     1 RMS=5.61D-07 Max=5.93D-06 NDo=     1
 LinEq1:  Iter=  9 NonCon=     1 RMS=1.52D-07 Max=1.63D-06 NDo=     1
 LinEq1:  Iter= 10 NonCon=     1 RMS=3.71D-08 Max=5.53D-07 NDo=     1
 LinEq1:  Iter= 11 NonCon=     1 RMS=9.16D-09 Max=1.46D-07 NDo=     1
 LinEq1:  Iter= 12 NonCon=     1 RMS=2.44D-09 Max=3.24D-08 NDo=     1
 LinEq1:  Iter= 13 NonCon=     1 RMS=5.99D-10 Max=7.59D-09 NDo=     1
 LinEq1:  Iter= 14 NonCon=     1 RMS=1.56D-10 Max=1.76D-09 NDo=     1
 LinEq1:  Iter= 15 NonCon=     0 RMS=3.68D-11 Max=4.33D-10 NDo=     1
 Linear equations converged to 1.000D-10 1.000D-09 after    15 iterations.
 End of Minotr F.D. properties file   721 does not exist.
 End of Minotr F.D. properties file   722 does not exist.
 End of Minotr F.D. properties file   788 does not exist.

 **********************************************************************

            Population analysis using the SCF Density.

 **********************************************************************

 Orbital symmetries:
 Alpha Orbitals:
       Occupied  (A) (A) (A) (A) (A) (A) (A) (A) (A) (A) (A) (A)
                 (A)
       Virtual   (A) (A) (A) (A) (A) (A) (A) (A) (A) (A) (A) (A)
                 (A) (A) (A) (A) (A) (A) (A) (A) (A) (A) (A) (A)
                 (A) (A) (A) (A) (A) (A) (A) (A) (A) (A) (A) (A)
                 (A) (A) (A) (A) (A) (A) (A) (A) (A) (A) (A) (A)
                 (A) (A) (A) (A) (A) (A) (A) (A) (A) (A) (A) (A)
                 (A) (A) (A) (A) (A) (A) (A) (A) (A) (A) (A) (A)
                 (A) (A) (A) (A) (A) (A) (A) (A) (A) (A) (A) (A)
                 (A) (A) (A) (A) (A) (A) (A) (A) (A) (A) (A) (A)
                 (A) (A) (A) (A) (A) (A) (A) (A) (A) (A) (A) (A)
                 (A) (A) (A) (A) (A) (A) (A) (A) (A) (A) (A) (A)
                 (A) (A) (A) (A) (A) (A) (A) (A) (A) (A) (A) (A)
                 (A) (A) (A) (A) (A) (A) (A) (A) (A) (A) (A) (A)
                 (A) (A) (A)
 Beta  Orbitals:
       Occupied  (A) (A) (A) (A) (A) (A) (A) (A) (A) (A) (A) (A)
       Virtual   (A) (A) (A) (A) (A) (A) (A) (A) (A) (A) (A) (A)
                 (A) (A) (A) (A) (A) (A) (A) (A) (A) (A) (A) (A)
                 (A) (A) (A) (A) (A) (A) (A) (A) (A) (A) (A) (A)
                 (A) (A) (A) (A) (A) (A) (A) (A) (A) (A) (A) (A)
                 (A) (A) (A) (A) (A) (A) (A) (A) (A) (A) (A) (A)
                 (A) (A) (A) (A) (A) (A) (A) (A) (A) (A) (A) (A)
                 (A) (A) (A) (A) (A) (A) (A) (A) (A) (A) (A) (A)
                 (A) (A) (A) (A) (A) (A) (A) (A) (A) (A) (A) (A)
                 (A) (A) (A) (A) (A) (A) (A) (A) (A) (A) (A) (A)
                 (A) (A) (A) (A) (A) (A) (A) (A) (A) (A) (A) (A)
                 (A) (A) (A) (A) (A) (A) (A) (A) (A) (A) (A) (A)
                 (A) (A) (A) (A) (A) (A) (A) (A) (A) (A) (A) (A)
                 (A) (A) (A) (A)
 The electronic state is 2-A.
 Alpha  occ. eigenvalues --  -19.74565 -10.67759 -10.60679  -1.17501  -0.85849
 Alpha  occ. eigenvalues --   -0.69598  -0.59421  -0.51643  -0.48462  -0.44991
 Alpha  occ. eigenvalues --   -0.43823  -0.39443  -0.27325
 Alpha virt. eigenvalues --    0.07760   0.10279   0.13239   0.15711   0.17022
 Alpha virt. eigenvalues --    0.23752   0.23911   0.31384   0.32736   0.35420
 Alpha virt. eigenvalues --    0.39154   0.43289   0.44853   0.46757   0.52748
 Alpha virt. eigenvalues --    0.53475   0.54008   0.55121   0.56170   0.64382
 Alpha virt. eigenvalues --    0.64938   0.68432   0.69791   0.76024   0.80553
 Alpha virt. eigenvalues --    0.82821   0.86884   0.89999   0.96101   0.98526
 Alpha virt. eigenvalues --    1.04611   1.08417   1.12871   1.14592   1.16086
 Alpha virt. eigenvalues --    1.17726   1.23995   1.24856   1.26167   1.29058
 Alpha virt. eigenvalues --    1.34677   1.38918   1.40945   1.41553   1.49311
 Alpha virt. eigenvalues --    1.52112   1.58108   1.59976   1.64109   1.91026
 Alpha virt. eigenvalues --    1.98572   2.02530   2.12722   2.20431   2.21404
 Alpha virt. eigenvalues --    2.34481   2.42046   2.42800   2.48888   2.52788
 Alpha virt. eigenvalues --    2.58570   2.65416   2.70000   2.76404   2.82341
 Alpha virt. eigenvalues --    2.87882   2.91761   2.96369   2.99775   3.00489
 Alpha virt. eigenvalues --    3.02907   3.07384   3.11452   3.14129   3.16557
 Alpha virt. eigenvalues --    3.18369   3.19389   3.23204   3.25473   3.31025
 Alpha virt. eigenvalues --    3.34046   3.41291   3.43774   3.47604   3.51400
 Alpha virt. eigenvalues --    3.55557   3.56563   3.60306   3.60926   3.64461
 Alpha virt. eigenvalues --    3.69953   3.80057   3.81228   3.88502   3.89648
 Alpha virt. eigenvalues --    3.90613   3.91633   3.97767   3.99127   4.00761
 Alpha virt. eigenvalues --    4.05685   4.09943   4.11043   4.17820   4.19330
 Alpha virt. eigenvalues --    4.21258   4.26827   4.31497   4.34964   4.41714
 Alpha virt. eigenvalues --    4.45156   4.50001   4.54501   4.62200   4.79411
 Alpha virt. eigenvalues --    4.83766   4.91047   4.93464   4.94575   4.99417
 Alpha virt. eigenvalues --    5.01882   5.19057   5.24432   5.27500   5.34320
 Alpha virt. eigenvalues --    5.40521   5.42473   5.48296   5.48987   5.62890
 Alpha virt. eigenvalues --    5.73199   5.83133   5.99134   5.99960   6.06339
 Alpha virt. eigenvalues --    6.26626   6.62630   6.79331   6.82025   6.89690
 Alpha virt. eigenvalues --    6.98422   7.09843   7.31978   7.53377  10.54613
 Alpha virt. eigenvalues --   11.83088  13.42968
  Beta  occ. eigenvalues --  -19.74083 -10.65955 -10.60729  -1.16147  -0.84278
  Beta  occ. eigenvalues --   -0.67328  -0.58337  -0.47960  -0.47359  -0.44757
  Beta  occ. eigenvalues --   -0.41609  -0.37714
  Beta virt. eigenvalues --    0.01725   0.08072   0.10474   0.13652   0.15803
  Beta virt. eigenvalues --    0.17269   0.24602   0.25606   0.31854   0.33179
  Beta virt. eigenvalues --    0.36889   0.42429   0.44561   0.45564   0.48065
  Beta virt. eigenvalues --    0.53234   0.54031   0.54695   0.56079   0.57129
  Beta virt. eigenvalues --    0.64780   0.66321   0.69311   0.70422   0.77024
  Beta virt. eigenvalues --    0.81300   0.83146   0.87833   0.90580   0.96506
  Beta virt. eigenvalues --    0.99395   1.05213   1.08573   1.13528   1.15960
  Beta virt. eigenvalues --    1.16917   1.18181   1.24474   1.25762   1.27432
  Beta virt. eigenvalues --    1.30112   1.35488   1.39697   1.41134   1.42255
  Beta virt. eigenvalues --    1.50075   1.53068   1.58611   1.60521   1.64560
  Beta virt. eigenvalues --    1.91816   2.00645   2.03192   2.13643   2.21175
  Beta virt. eigenvalues --    2.24882   2.35423   2.42798   2.44324   2.49477
  Beta virt. eigenvalues --    2.54743   2.59256   2.66902   2.71239   2.76930
  Beta virt. eigenvalues --    2.83101   2.88818   2.92067   2.97013   3.01106
  Beta virt. eigenvalues --    3.02186   3.04756   3.08229   3.12182   3.14974
  Beta virt. eigenvalues --    3.17882   3.19949   3.20632   3.24334   3.26995
  Beta virt. eigenvalues --    3.34370   3.35797   3.42345   3.44036   3.48616
  Beta virt. eigenvalues --    3.51928   3.55985   3.56853   3.61530   3.61886
  Beta virt. eigenvalues --    3.64952   3.70652   3.80793   3.81643   3.89000
  Beta virt. eigenvalues --    3.90095   3.91235   3.92068   3.98396   3.99627
  Beta virt. eigenvalues --    4.01332   4.06261   4.10651   4.11767   4.18419
  Beta virt. eigenvalues --    4.19841   4.21528   4.27397   4.32041   4.35591
  Beta virt. eigenvalues --    4.42213   4.45677   4.50436   4.55745   4.62620
  Beta virt. eigenvalues --    4.79879   4.84491   4.92122   4.93826   4.95023
  Beta virt. eigenvalues --    5.00106   5.02352   5.19649   5.24718   5.27835
  Beta virt. eigenvalues --    5.34546   5.40949   5.42728   5.48593   5.49434
  Beta virt. eigenvalues --    5.63704   5.74027   5.83928   5.99405   6.00420
  Beta virt. eigenvalues --    6.06896   6.27294   6.63801   6.80025   6.82410
  Beta virt. eigenvalues --    6.90657   6.99525   7.10234   7.32476   7.53720
  Beta virt. eigenvalues --   10.56075  11.83728  13.43058
          Condensed to atoms (all electrons):
               1          2          3          4          5          6
     1  C    4.846938   0.334175  -0.049866   0.389098   0.398743   0.393804
     2  C    0.334175   5.097497   0.293689  -0.029236  -0.035772  -0.037105
     3  O   -0.049866   0.293689   7.797316   0.003291   0.003351   0.003258
     4  H    0.389098  -0.029236   0.003291   0.606192  -0.026666  -0.029810
     5  H    0.398743  -0.035772   0.003351  -0.026666   0.584962  -0.035124
     6  H    0.393804  -0.037105   0.003258  -0.029810  -0.035124   0.611217
     7  H   -0.054864   0.393656  -0.044522  -0.000265   0.008903  -0.009365
     8  H    0.007684  -0.031429   0.332829  -0.000807  -0.000268   0.000139
               7          8
     1  C   -0.054864   0.007684
     2  C    0.393656  -0.031429
     3  O   -0.044522   0.332829
     4  H   -0.000265  -0.000807
     5  H    0.008903  -0.000268
     6  H   -0.009365   0.000139
     7  H    0.633679  -0.007928
     8  H   -0.007928   0.483018
          Atomic-Atomic Spin Densities.
               1          2          3          4          5          6
     1  C   -0.037474  -0.019370   0.004986   0.002095   0.008264  -0.009447
     2  C   -0.019370   1.072006  -0.116206  -0.001228  -0.011870  -0.018149
     3  O    0.004986  -0.116206   0.193107  -0.000043   0.001585   0.003716
     4  H    0.002095  -0.001228  -0.000043   0.000588  -0.000274   0.000627
     5  H    0.008264  -0.011870   0.001585  -0.000274   0.022917  -0.014124
     6  H   -0.009447  -0.018149   0.003716   0.000627  -0.014124   0.098111
     7  H    0.014396  -0.025886   0.002131  -0.000389   0.001669  -0.009829
     8  H   -0.000258  -0.003496   0.002923   0.000000  -0.000020   0.000016
               7          8
     1  C    0.014396  -0.000258
     2  C   -0.025886  -0.003496
     3  O    0.002131   0.002923
     4  H   -0.000389   0.000000
     5  H    0.001669  -0.000020
     6  H   -0.009829   0.000016
     7  H    0.029900   0.000257
     8  H    0.000257  -0.003305
 Mulliken charges and spin densities:
               1          2
     1  C   -0.265711  -0.036808
     2  C    0.014524   0.875802
     3  O   -0.339345   0.092198
     4  H    0.088203   0.001378
     5  H    0.101872   0.008146
     6  H    0.102987   0.050921
     7  H    0.080707   0.012248
     8  H    0.216762  -0.003884
 Sum of Mulliken charges =  -0.00000   1.00000
 Mulliken charges and spin densities with hydrogens summed into heavy atoms:
               1          2
     1  C    0.027351   0.023636
     2  C    0.095231   0.888050
     3  O   -0.122583   0.088314
 Electronic spatial extent (au):  <R**2>=            184.4675
 Charge=             -0.0000 electrons
 Dipole moment (field-independent basis, Debye):
    X=             -0.3041    Y=              1.1062    Z=              0.2841  Tot=              1.1819
 Quadrupole moment (field-independent basis, Debye-Ang):
   XX=            -15.7930   YY=            -20.0510   ZZ=            -20.1441
   XY=             -1.7306   XZ=              0.3469   YZ=              0.7377
 Traceless Quadrupole moment (field-independent basis, Debye-Ang):
   XX=              2.8697   YY=             -1.3883   ZZ=             -1.4814
   XY=             -1.7306   XZ=              0.3469   YZ=              0.7377
 Octapole moment (field-independent basis, Debye-Ang**2):
  XXX=            -16.5342  YYY=             -1.4463  ZZZ=              1.6465  XYY=             -0.9706
  XXY=              2.6550  XXZ=             -0.7460  XZZ=             -1.3646  YZZ=             -1.2667
  YYZ=              1.0070  XYZ=             -0.0992
 Hexadecapole moment (field-independent basis, Debye-Ang**3):
 XXXX=           -131.0977 YYYY=            -53.0805 ZZZZ=            -29.9087 XXXY=             -0.6775
 XXXZ=              0.7686 YYYX=              0.9860 YYYZ=              2.5090 ZZZX=              0.3542
 ZZZY=              0.9661 XXYY=            -35.0759 XXZZ=            -32.0373 YYZZ=            -13.5333
 XXYZ=             -0.2434 YYXZ=             -0.7193 ZZXY=             -0.4100
 N-N= 7.411328989910D+01 E-N=-5.091009784357D+02  KE= 1.533272257633D+02
                          Isotropic Fermi Contact Couplings
        Atom                 a.u.       MegaHertz       Gauss      10(-4) cm-1
     1  C(13)             -0.00542      -6.09708      -2.17559      -2.03377
     2  C(13)              0.27536     309.55568     110.45716     103.25666
     3  O(17)              0.01298      -7.86909      -2.80789      -2.62484
     4  H(1)               0.00120       5.34219       1.90623       1.78196
     5  H(1)               0.00569      25.44855       9.08068       8.48872
     6  H(1)               0.02024      90.45813      32.27771      30.17359
     7  H(1)               0.01106      49.42489      17.63603      16.48637
     8  H(1)               0.00014       0.61578       0.21973       0.20540
 --------------------------------------------------------
       Center         ----  Spin Dipole Couplings  ----
                      3XX-RR        3YY-RR        3ZZ-RR
 --------------------------------------------------------
     1   Atom        0.013311     -0.004244     -0.009066
     2   Atom       -0.477073     -0.368898      0.845971
     3   Atom       -0.354643     -0.339930      0.694573
     4   Atom        0.018109     -0.010085     -0.008024
     5   Atom        0.001503      0.007510     -0.009014
     6   Atom        0.002303     -0.002953      0.000651
     7   Atom       -0.053046      0.039330      0.013716
     8   Atom        0.035434     -0.016607     -0.018827
 --------------------------------------------------------
                        XY            XZ            YZ
 --------------------------------------------------------
     1   Atom       -0.023628      0.019703     -0.011989
     2   Atom       -0.050489      0.135269     -0.411629
     3   Atom       -0.000203     -0.079385     -0.226030
     4   Atom       -0.002036      0.003078     -0.000686
     5   Atom       -0.013928     -0.003265      0.002792
     6   Atom       -0.006906      0.005177     -0.006406
     7   Atom       -0.011809      0.002205      0.037423
     8   Atom       -0.014527     -0.010056     -0.000414
 --------------------------------------------------------


 ---------------------------------------------------------------------------------
              Anisotropic Spin Dipole Couplings in Principal Axis System
 ---------------------------------------------------------------------------------

       Atom             a.u.   MegaHertz   Gauss  10(-4) cm-1        Axes

              Baa    -0.0216    -2.895    -1.033    -0.966  0.6602  0.5363 -0.5258
     1 C(13)  Bbb    -0.0189    -2.533    -0.904    -0.845  0.0417  0.6728  0.7387
              Bcc     0.0404     5.428     1.937     1.811  0.7499 -0.5096  0.4218
 
              Baa    -0.5020   -67.365   -24.038   -22.471  0.6191  0.7663  0.1719
     2 C(13)  Bbb    -0.4845   -65.013   -23.198   -21.686  0.7792 -0.5720 -0.2562
              Bcc     0.9865   132.379    47.236    44.157  0.0980 -0.2925  0.9512
 
              Baa    -0.3949    28.574    10.196     9.531  0.4255  0.8794  0.2135
     3 O(17)  Bbb    -0.3524    25.498     9.098     8.505  0.9022 -0.4305 -0.0245
              Bcc     0.7473   -54.072   -19.294   -18.037 -0.0703 -0.2030  0.9766
 
              Baa    -0.0103    -5.517    -1.969    -1.840  0.0449  0.9726  0.2283
     4 H(1)   Bbb    -0.0083    -4.418    -1.576    -1.474 -0.1298 -0.2209  0.9666
              Bcc     0.0186     9.935     3.545     3.314  0.9905 -0.0730  0.1163
 
              Baa    -0.0105    -5.587    -1.994    -1.864  0.6290  0.3821  0.6770
     5 H(1)   Bbb    -0.0089    -4.755    -1.697    -1.586 -0.4631 -0.5153  0.7211
              Bcc     0.0194    10.342     3.690     3.450 -0.6244  0.7671  0.1472
 
              Baa    -0.0087    -4.653    -1.660    -1.552  0.3514  0.8520  0.3882
     6 H(1)   Bbb    -0.0037    -1.999    -0.713    -0.667 -0.6823 -0.0509  0.7293
              Bcc     0.0125     6.652     2.373     2.219  0.6411 -0.5211  0.5634
 
              Baa    -0.0554   -29.552   -10.545    -9.858  0.9775  0.1707 -0.1236
     7 H(1)   Bbb    -0.0113    -6.015    -2.146    -2.006  0.1989 -0.5523  0.8096
              Bcc     0.0667    35.567    12.691    11.864 -0.0699  0.8160  0.5738
 
              Baa    -0.0233   -12.422    -4.433    -4.144  0.2823  0.6577  0.6983
     8 H(1)   Bbb    -0.0175    -9.332    -3.330    -3.113  0.0633  0.7136 -0.6977
              Bcc     0.0408    21.754     7.763     7.257  0.9572 -0.2412 -0.1598
 

 ---------------------------------------------------------------------------------

 Calling FoFJK, ICntrl=  10002127 FMM=F ISym2X=0 I1Cent= 0 IOpClX= 1 NMat=1 NMatS=1 NMatT=0.
 ***** Axes restored to original set *****
 -------------------------------------------------------------------
 Center     Atomic                   Forces (Hartrees/Bohr)
 Number     Number              X              Y              Z
 -------------------------------------------------------------------
      1        6          -0.003148225    0.005368079    0.016286985
      2        6           0.023599157   -0.024863378   -0.038897217
      3        8          -0.019981774    0.016208613    0.011947875
      4        1           0.004606916   -0.001319994    0.000453865
      5        1          -0.000331671    0.002343914   -0.003109811
      6        1           0.000202108    0.001357170    0.001685320
      7        1          -0.001544727    0.005127002    0.016435244
      8        1          -0.003401784   -0.004221406   -0.004802261
 -------------------------------------------------------------------
 Cartesian Forces:  Max     0.038897217 RMS     0.013214970

 GradGradGradGradGradGradGradGradGradGradGradGradGradGradGradGradGradGrad
 Berny optimization.
 FormGI is forming the generalized inverse of G from B-inverse, IUseBI=4.
 Internal  Forces:  Max     0.025121074 RMS     0.008093058
 Search for a local minimum.
 Step number   1 out of a maximum of  100
 All quantities printed in internal units (Hartrees-Bohrs-Radians)
 Mixed Optimization -- RFO/linear search
 Second derivative matrix not updated -- first step.
 ITU=  0
     Eigenvalues ---    0.00505   0.01363   0.03849   0.07167   0.07224
     Eigenvalues ---    0.12696   0.16000   0.16000   0.16000   0.16000
     Eigenvalues ---    0.23431   0.30396   0.33396   0.34156   0.34248
     Eigenvalues ---    0.34249   0.41733   0.53561
 RFO step:  Lambda=-1.27099039D-02 EMin= 5.05390808D-03
 Linear search not attempted -- first point.
 Iteration  1 RMS(Cart)=  0.06455745 RMS(Int)=  0.01034495
 Iteration  2 RMS(Cart)=  0.00874233 RMS(Int)=  0.00681997
 Iteration  3 RMS(Cart)=  0.00005715 RMS(Int)=  0.00681982
 Iteration  4 RMS(Cart)=  0.00000017 RMS(Int)=  0.00681982
 Variable       Old X    -DE/DX   Delta X   Delta X   Delta X     New X
                                 (Linear)    (Quad)   (Total)
    R1        2.87181  -0.01239   0.00000  -0.03913  -0.03913   2.83269
    R2        2.07067  -0.00480   0.00000  -0.01356  -0.01356   2.05711
    R3        2.06913  -0.00374   0.00000  -0.01054  -0.01054   2.05859
    R4        2.06914  -0.00181   0.00000  -0.00508  -0.00508   2.06405
    R5        2.69264  -0.02512   0.00000  -0.05842  -0.05842   2.63423
    R6        2.08362  -0.00587   0.00000  -0.01693  -0.01693   2.06669
    R7        1.83134  -0.00687   0.00000  -0.01253  -0.01253   1.81881
    A1        1.93102  -0.00013   0.00000  -0.00052  -0.00057   1.93045
    A2        1.92615   0.00209   0.00000   0.01379   0.01379   1.93994
    A3        1.92622  -0.00223   0.00000  -0.01481  -0.01481   1.91141
    A4        1.89565  -0.00025   0.00000   0.00225   0.00221   1.89785
    A5        1.89561   0.00055   0.00000  -0.00007  -0.00012   1.89549
    A6        1.88819  -0.00002   0.00000  -0.00059  -0.00055   1.88765
    A7        1.88141   0.01169   0.00000   0.08568   0.06907   1.95047
    A8        1.91805   0.01221   0.00000   0.15454   0.13844   2.05649
    A9        1.93788  -0.00237   0.00000   0.08490   0.06252   2.00040
   A10        1.88275  -0.00014   0.00000  -0.00081  -0.00081   1.88194
    D1        3.14062  -0.00520   0.00000  -0.11832  -0.12291   3.01771
    D2       -1.02838   0.00636   0.00000   0.12967   0.13425  -0.89413
    D3        1.04210  -0.00617   0.00000  -0.12979  -0.13442   0.90768
    D4       -3.12690   0.00539   0.00000   0.11819   0.12274  -3.00416
    D5       -1.04404  -0.00605   0.00000  -0.12840  -0.13295  -1.17699
    D6        1.07014   0.00551   0.00000   0.11958   0.12421   1.19435
    D7        3.14108   0.00849   0.00000   0.07157   0.07205  -3.07006
    D8        1.03932  -0.01248   0.00000  -0.22318  -0.22365   0.81567
         Item               Value     Threshold  Converged?
 Maximum Force            0.025121     0.000450     NO 
 RMS     Force            0.008093     0.000300     NO 
 Maximum Displacement     0.190035     0.001800     NO 
 RMS     Displacement     0.063441     0.001200     NO 
 Predicted change in Energy=-8.349093D-03
 GradGradGradGradGradGradGradGradGradGradGradGradGradGradGradGradGradGrad

                          Input orientation:                          
 ---------------------------------------------------------------------
 Center     Atomic      Atomic             Coordinates (Angstroms)
 Number     Number       Type             X           Y           Z
 ---------------------------------------------------------------------
      1          6           0        1.019971    0.872247    0.964247
      2          6           0        1.921986    1.957198    1.470438
      3          8           0        3.195820    1.474175    1.765727
      4          1           0        0.000749    1.239651    0.858436
      5          1           0        1.015563    0.017672    1.639806
      6          1           0        1.370916    0.532073   -0.012548
      7          1           0        1.908917    2.917511    0.947288
      8          1           0        3.704878    2.197872    2.144508
 ---------------------------------------------------------------------
                    Distance matrix (angstroms):
                    1          2          3          4          5
     1  C    0.000000
     2  C    1.498992   0.000000
     3  O    2.395622   1.393973   0.000000
     4  H    1.088575   2.140227   3.329664   0.000000
     5  H    1.089356   2.147568   2.625029   1.770203   0.000000
     6  H    1.092250   2.129297   2.716632   1.771056   1.766680
     7  H    2.230161   1.093645   2.099806   2.542483   3.112351
     8  H    3.218544   1.921197   0.962473   4.036427   3.498630
                    6          7          8
     6  H    0.000000
     7  H    2.626984   0.000000
     8  H    3.588196   2.275234   0.000000
 Stoichiometry    C2H5O(2)
 Framework group  C1[X(C2H5O)]
 Deg. of freedom    18
 Full point group                 C1      NOp   1
 Largest Abelian subgroup         C1      NOp   1
 Largest concise Abelian subgroup C1      NOp   1
                         Standard orientation:                         
 ---------------------------------------------------------------------
 Center     Atomic      Atomic             Coordinates (Angstroms)
 Number     Number       Type             X           Y           Z
 ---------------------------------------------------------------------
      1          6           0        1.225812   -0.173557    0.008667
      2          6           0       -0.090137    0.530398   -0.131700
      3          8           0       -1.163671   -0.341550    0.042635
      4          1           0        2.046318    0.492303   -0.252857
      5          1           0        1.271248   -1.053353   -0.632108
      6          1           0        1.357141   -0.498778    1.043072
      7          1           0       -0.205803    1.499646    0.361492
      8          1           0       -1.973585    0.151533   -0.122482
 ---------------------------------------------------------------------
 Rotational constants (GHZ):          44.3976724           9.4832078           8.3033768
 Standard basis: CC-pVTZ (5D, 7F)
 There are   180 symmetry adapted cartesian basis functions of A   symmetry.
 There are   160 symmetry adapted basis functions of A   symmetry.
   160 basis functions,   241 primitive gaussians,   180 cartesian basis functions
    13 alpha electrons       12 beta electrons
       nuclear repulsion energy        74.6870154588 Hartrees.
 NAtoms=    8 NActive=    8 NUniq=    8 SFac= 1.00D+00 NAtFMM=   60 NAOKFM=F Big=F
 Integral buffers will be    131072 words long.
 Raffenetti 2 integral format.
 Two-electron integral symmetry is turned on.
 Nuclear repulsion after empirical dispersion term =       74.6843669356 Hartrees.
 One-electron integrals computed using PRISM.
 NBasis=   160 RedAO= T EigKep=  1.09D-03  NBF=   160
 NBsUse=   160 1.00D-06 EigRej= -1.00D+00 NBFU=   160
 Initial guess from the checkpoint file:  "/localscratch/386879/Gau-39226.chk"
 B after Tr=     0.000000   -0.000000   -0.000000
         Rot=    0.999763    0.021325   -0.002012   -0.003773 Ang=   2.49 deg.
 Initial guess <Sx>= 0.0000 <Sy>= 0.0000 <Sz>= 0.5000 <S**2>= 0.7548 S= 0.5024
 ExpMin= 1.03D-01 ExpMax= 1.53D+04 ExpMxC= 5.22D+02 IAcc=3 IRadAn=         5 AccDes= 0.00D+00
 Harris functional with IExCor=  419 and IRadAn=       5 diagonalized for initial guess.
 HarFok:  IExCor=  419 AccDes= 0.00D+00 IRadAn=         5 IDoV= 1 UseB2=F ITyADJ=14
 ICtDFT=  3500011 ScaDFX=  1.000000  1.000000  1.000000  1.000000
 FoFCou: FMM=F IPFlag=           0 FMFlag=      100000 FMFlg1=           0
         NFxFlg=           0 DoJE=T BraDBF=F KetDBF=T FulRan=T
         wScrn=  0.000000 ICntrl=       500 IOpCl=  0 I1Cent=   200000004 NGrid=           0
         NMat0=    1 NMatS0=      1 NMatT0=    0 NMatD0=    1 NMtDS0=    0 NMtDT0=    0
 Petite list used in FoFCou.
 Keep R1 and R2 ints in memory in canonical form, NReq=206286096.
 Requested convergence on RMS density matrix=1.00D-08 within 128 cycles.
 Requested convergence on MAX density matrix=1.00D-06.
 Requested convergence on             energy=1.00D-06.
 No special actions if energy rises.
 Integral accuracy reduced to 1.0D-05 until final iterations.
 Initial convergence to 1.0D-05 achieved.  Increase integral accuracy.
 SCF Done:  E(UB2PLYPD3) =  -154.130078171     A.U. after   13 cycles
            NFock= 13  Conv=0.45D-08     -V/T= 2.0046
 <Sx>= 0.0000 <Sy>= 0.0000 <Sz>= 0.5000 <S**2>= 0.7556 S= 0.5028
 <L.S>=  0.00000000000    
 Annihilation of the first spin contaminant:
 S**2 before annihilation     0.7556,   after     0.7500
 DoSCS=T DFT=T ScalE2(SS,OS)=  0.270000  0.270000
 ExpMin= 1.03D-01 ExpMax= 1.53D+04 ExpMxC= 5.22D+02 IAcc=3 IRadAn=         5 AccDes= 0.00D+00
 HarFok:  IExCor=  205 AccDes= 0.00D+00 IRadAn=         5 IDoV=-2 UseB2=F ITyADJ=14
 ICtDFT= 12500011 ScaDFX=  1.000000  1.000000  1.000000  1.000000
 Range of M.O.s used for correlation:     4   160
 NBasis=   160 NAE=    13 NBE=    12 NFC=     3 NFV=     0
 NROrb=    157 NOA=    10 NOB=     9 NVA=   147 NVB=   148

 **** Warning!!: The largest alpha MO coefficient is  0.12056043D+02


 **** Warning!!: The largest beta MO coefficient is  0.12053897D+02

 DoSCS=T DFT=T ScalE2(SS,OS)=  0.270000  0.270000
 Fully direct method using O(ONN) memory.
 JobTyp=2 Pass  1:  I=   4 to  13 NPSUse= 40 ParTrn=T ParDer=T DoDerP=T.
 JobTyp=3 Pass  1:  I=   4 to  12 NPSUse= 40 ParTrn=T ParDer=T DoDerP=T.
 Spin components of T(2) and E(2):
     alpha-alpha T2 =       0.3076760501D-01 E2=     -0.2335122883D-01
     alpha-beta  T2 =       0.1762837464D+00 E2=     -0.1402631962D+00
     beta-beta   T2 =       0.2884255358D-01 E2=     -0.2068343627D-01
 (S**2,0)=  0.75555D+00           (S**2,1)=  0.74729D+00
 Scaling Projection term by:   0.270000
 E(PUHF)=      -0.15413230624D+03        E(PMP2)=      -0.15431453136D+03
 E2(B2PLYPD3) =    -0.1842978613D+00 E(B2PLYPD3) =    -0.15431437603269D+03
          IDoAtm=11111111
          Differentiating once with respect to electric field.
                with respect to dipole field.
          Differentiating once with respect to nuclear coordinates.
 Keep R1 and R2 ints in memory in canonical form, NReq=206291724.
          There are     1 degrees of freedom in the 1st order CPHF.  IDoFFX=0 NUNeed=     1.
 LinEq1:  Iter=  0 NonCon=     1 RMS=9.51D-04 Max=2.60D-02 NDo=     1
 AX will form     1 AO Fock derivatives at one time.
 LinEq1:  Iter=  1 NonCon=     1 RMS=3.28D-04 Max=4.43D-03 NDo=     1
 LinEq1:  Iter=  2 NonCon=     1 RMS=1.58D-04 Max=4.07D-03 NDo=     1
 LinEq1:  Iter=  3 NonCon=     1 RMS=7.54D-05 Max=6.11D-04 NDo=     1
 LinEq1:  Iter=  4 NonCon=     1 RMS=3.58D-05 Max=5.48D-04 NDo=     1
 LinEq1:  Iter=  5 NonCon=     1 RMS=8.98D-06 Max=1.27D-04 NDo=     1
 LinEq1:  Iter=  6 NonCon=     1 RMS=2.84D-06 Max=2.85D-05 NDo=     1
 LinEq1:  Iter=  7 NonCon=     1 RMS=9.20D-07 Max=9.13D-06 NDo=     1
 LinEq1:  Iter=  8 NonCon=     1 RMS=4.07D-07 Max=3.84D-06 NDo=     1
 LinEq1:  Iter=  9 NonCon=     1 RMS=1.21D-07 Max=1.34D-06 NDo=     1
 LinEq1:  Iter= 10 NonCon=     1 RMS=2.97D-08 Max=3.94D-07 NDo=     1
 LinEq1:  Iter= 11 NonCon=     1 RMS=7.07D-09 Max=8.88D-08 NDo=     1
 LinEq1:  Iter= 12 NonCon=     1 RMS=1.92D-09 Max=2.58D-08 NDo=     1
 LinEq1:  Iter= 13 NonCon=     1 RMS=4.58D-10 Max=4.92D-09 NDo=     1
 LinEq1:  Iter= 14 NonCon=     1 RMS=1.23D-10 Max=1.37D-09 NDo=     1
 LinEq1:  Iter= 15 NonCon=     0 RMS=2.72D-11 Max=2.85D-10 NDo=     1
 Linear equations converged to 1.000D-10 1.000D-09 after    15 iterations.
 End of Minotr F.D. properties file   721 does not exist.
 End of Minotr F.D. properties file   722 does not exist.
 End of Minotr F.D. properties file   788 does not exist.
 Calling FoFJK, ICntrl=  10002127 FMM=F ISym2X=0 I1Cent= 0 IOpClX= 1 NMat=1 NMatS=1 NMatT=0.
 ***** Axes restored to original set *****
 -------------------------------------------------------------------
 Center     Atomic                   Forces (Hartrees/Bohr)
 Number     Number              X              Y              Z
 -------------------------------------------------------------------
      1        6           0.003762227    0.007693304    0.004230439
      2        6           0.007364500   -0.009727394   -0.008070837
      3        8          -0.010366900    0.006340066    0.002867435
      4        1           0.000566045    0.000013136   -0.000619484
      5        1           0.000729288    0.000813394    0.000001069
      6        1          -0.001351664   -0.002506951   -0.001813732
      7        1          -0.001374485   -0.001558150    0.005628600
      8        1           0.000670989   -0.001067406   -0.002223490
 -------------------------------------------------------------------
 Cartesian Forces:  Max     0.010366900 RMS     0.004641105

 GradGradGradGradGradGradGradGradGradGradGradGradGradGradGradGradGradGrad
 Berny optimization.
 Using GEDIIS/GDIIS optimizer.
 FormGI is forming the generalized inverse of G from B-inverse, IUseBI=4.
 Internal  Forces:  Max     0.010550937 RMS     0.003170840
 Search for a local minimum.
 Step number   2 out of a maximum of  100
 All quantities printed in internal units (Hartrees-Bohrs-Radians)
 Mixed Optimization -- RFO/linear search
 Update second derivatives using D2CorX and points    1    2
 DE= -7.50D-03 DEPred=-8.35D-03 R= 8.98D-01
 TightC=F SS=  1.41D+00  RLast= 4.34D-01 DXNew= 5.0454D-01 1.3026D+00
 Trust test= 8.98D-01 RLast= 4.34D-01 DXMaxT set to 5.05D-01
 ITU=  1  0
 Use linear search instead of GDIIS.
     Eigenvalues ---    0.00505   0.01326   0.03709   0.07147   0.07308
     Eigenvalues ---    0.13639   0.15990   0.16000   0.16000   0.16854
     Eigenvalues ---    0.22809   0.28004   0.32975   0.34103   0.34223
     Eigenvalues ---    0.34435   0.38077   0.53439
 RFO step:  Lambda=-1.54627857D-03 EMin= 5.05216464D-03
 Quartic linear search produced a step of  0.48371.
 Iteration  1 RMS(Cart)=  0.04435045 RMS(Int)=  0.01049442
 Iteration  2 RMS(Cart)=  0.00720514 RMS(Int)=  0.00467284
 Iteration  3 RMS(Cart)=  0.00013442 RMS(Int)=  0.00467153
 Iteration  4 RMS(Cart)=  0.00000037 RMS(Int)=  0.00467153
 Variable       Old X    -DE/DX   Delta X   Delta X   Delta X     New X
                                 (Linear)    (Quad)   (Total)
    R1        2.83269  -0.00719  -0.01893  -0.02005  -0.03897   2.79371
    R2        2.05711  -0.00047  -0.00656   0.00314  -0.00342   2.05369
    R3        2.05859  -0.00064  -0.00510   0.00125  -0.00385   2.05473
    R4        2.06405   0.00197  -0.00246   0.01041   0.00795   2.07201
    R5        2.63423  -0.01055  -0.02826  -0.01509  -0.04335   2.59088
    R6        2.06669  -0.00404  -0.00819  -0.01144  -0.01963   2.04706
    R7        1.81881  -0.00132  -0.00606   0.00113  -0.00493   1.81388
    A1        1.93045  -0.00038  -0.00028  -0.00399  -0.00441   1.92604
    A2        1.93994  -0.00196   0.00667  -0.02504  -0.01836   1.92158
    A3        1.91141   0.00428  -0.00717   0.04743   0.04027   1.95169
    A4        1.89785   0.00067   0.00107   0.00052   0.00145   1.89930
    A5        1.89549  -0.00156  -0.00006  -0.01054  -0.01072   1.88477
    A6        1.88765  -0.00110  -0.00026  -0.00860  -0.00871   1.87894
    A7        1.95047   0.00267   0.03341   0.00340   0.02464   1.97511
    A8        2.05649   0.00099   0.06696  -0.00891   0.04641   2.10290
    A9        2.00040  -0.00073   0.03024   0.01496   0.03038   2.03078
   A10        1.88194   0.00175  -0.00039   0.01638   0.01599   1.89792
    D1        3.01771  -0.00176  -0.05945   0.02367  -0.03842   2.97929
    D2       -0.89413   0.00131   0.06494   0.04147   0.10905  -0.78509
    D3        0.90768  -0.00105  -0.06502   0.04247  -0.02530   0.88238
    D4       -3.00416   0.00202   0.05937   0.06027   0.12216  -2.88200
    D5       -1.17699  -0.00122  -0.06431   0.03825  -0.02858  -1.20557
    D6        1.19435   0.00186   0.06008   0.05606   0.11889   1.31324
    D7       -3.07006   0.00015   0.03485  -0.14294  -0.10844   3.10468
    D8        0.81567  -0.00355  -0.10818  -0.14920  -0.25703   0.55864
         Item               Value     Threshold  Converged?
 Maximum Force            0.010551     0.000450     NO 
 RMS     Force            0.003171     0.000300     NO 
 Maximum Displacement     0.139942     0.001800     NO 
 RMS     Displacement     0.049599     0.001200     NO 
 Predicted change in Energy=-1.032478D-03
 GradGradGradGradGradGradGradGradGradGradGradGradGradGradGradGradGradGrad

                          Input orientation:                          
 ---------------------------------------------------------------------
 Center     Atomic      Atomic             Coordinates (Angstroms)
 Number     Number       Type             X           Y           Z
 ---------------------------------------------------------------------
      1          6           0        1.032507    0.873973    0.950447
      2          6           0        1.931831    1.936261    1.448780
      3          8           0        3.170702    1.470319    1.806320
      4          1           0        0.021946    1.257068    0.836146
      5          1           0        1.014979    0.041056    1.649162
      6          1           0        1.359477    0.485858   -0.021500
      7          1           0        1.897119    2.931017    1.021342
      8          1           0        3.710237    2.212847    2.087203
 ---------------------------------------------------------------------
                    Distance matrix (angstroms):
                    1          2          3          4          5
     1  C    0.000000
     2  C    1.478369   0.000000
     3  O    2.379080   1.371035   0.000000
     4  H    1.086766   2.117614   3.301724   0.000000
     5  H    1.087318   2.114846   2.591261   1.767992   0.000000
     6  H    1.096460   2.143124   2.755108   1.766157   1.762849
     7  H    2.232490   1.083258   2.090895   2.520452   3.086131
     8  H    3.202348   1.909663   0.959866   4.010256   3.488979
                    6          7          8
     6  H    0.000000
     7  H    2.712080   0.000000
     8  H    3.599332   2.222437   0.000000
 Stoichiometry    C2H5O(2)
 Framework group  C1[X(C2H5O)]
 Deg. of freedom    18
 Full point group                 C1      NOp   1
 Largest Abelian subgroup         C1      NOp   1
 Largest concise Abelian subgroup C1      NOp   1
                         Standard orientation:                         
 ---------------------------------------------------------------------
 Center     Atomic      Atomic             Coordinates (Angstroms)
 Number     Number       Type             X           Y           Z
 ---------------------------------------------------------------------
      1          6           0        1.217366   -0.166243    0.010880
      2          6           0       -0.090516    0.512616   -0.108152
      3          8           0       -1.155266   -0.340615    0.026165
      4          1           0        2.021433    0.511667   -0.262937
      5          1           0        1.249891   -1.032371   -0.645645
      6          1           0        1.403198   -0.516637    1.033091
      7          1           0       -0.226294    1.515579    0.277953
      8          1           0       -1.967205    0.168450   -0.028149
 ---------------------------------------------------------------------
 Rotational constants (GHZ):          45.8878247           9.6157351           8.4188234
 Standard basis: CC-pVTZ (5D, 7F)
 There are   180 symmetry adapted cartesian basis functions of A   symmetry.
 There are   160 symmetry adapted basis functions of A   symmetry.
   160 basis functions,   241 primitive gaussians,   180 cartesian basis functions
    13 alpha electrons       12 beta electrons
       nuclear repulsion energy        75.3481496577 Hartrees.
 NAtoms=    8 NActive=    8 NUniq=    8 SFac= 1.00D+00 NAtFMM=   60 NAOKFM=F Big=F
 Integral buffers will be    131072 words long.
 Raffenetti 2 integral format.
 Two-electron integral symmetry is turned on.
 Nuclear repulsion after empirical dispersion term =       75.3454978243 Hartrees.
 One-electron integrals computed using PRISM.
 NBasis=   160 RedAO= T EigKep=  1.04D-03  NBF=   160
 NBsUse=   160 1.00D-06 EigRej= -1.00D+00 NBFU=   160
 Initial guess from the checkpoint file:  "/localscratch/386879/Gau-39226.chk"
 B after Tr=     0.000000    0.000000    0.000000
         Rot=    0.999994   -0.002343   -0.001903   -0.001554 Ang=  -0.39 deg.
 Initial guess <Sx>= 0.0000 <Sy>= 0.0000 <Sz>= 0.5000 <S**2>= 0.7555 S= 0.5027
 ExpMin= 1.03D-01 ExpMax= 1.53D+04 ExpMxC= 5.22D+02 IAcc=3 IRadAn=         5 AccDes= 0.00D+00
 Harris functional with IExCor=  419 and IRadAn=       5 diagonalized for initial guess.
 HarFok:  IExCor=  419 AccDes= 0.00D+00 IRadAn=         5 IDoV= 1 UseB2=F ITyADJ=14
 ICtDFT=  3500011 ScaDFX=  1.000000  1.000000  1.000000  1.000000
 FoFCou: FMM=F IPFlag=           0 FMFlag=      100000 FMFlg1=           0
         NFxFlg=           0 DoJE=T BraDBF=F KetDBF=T FulRan=T
         wScrn=  0.000000 ICntrl=       500 IOpCl=  0 I1Cent=   200000004 NGrid=           0
         NMat0=    1 NMatS0=      1 NMatT0=    0 NMatD0=    1 NMtDS0=    0 NMtDT0=    0
 Petite list used in FoFCou.
 Keep R1 and R2 ints in memory in canonical form, NReq=206286096.
 Requested convergence on RMS density matrix=1.00D-08 within 128 cycles.
 Requested convergence on MAX density matrix=1.00D-06.
 Requested convergence on             energy=1.00D-06.
 No special actions if energy rises.
 Integral accuracy reduced to 1.0D-05 until final iterations.
 Initial convergence to 1.0D-05 achieved.  Increase integral accuracy.
 SCF Done:  E(UB2PLYPD3) =  -154.131822206     A.U. after   13 cycles
            NFock= 13  Conv=0.39D-08     -V/T= 2.0040
 <Sx>= 0.0000 <Sy>= 0.0000 <Sz>= 0.5000 <S**2>= 0.7560 S= 0.5030
 <L.S>=  0.00000000000    
 Annihilation of the first spin contaminant:
 S**2 before annihilation     0.7560,   after     0.7500
 DoSCS=T DFT=T ScalE2(SS,OS)=  0.270000  0.270000
 ExpMin= 1.03D-01 ExpMax= 1.53D+04 ExpMxC= 5.22D+02 IAcc=3 IRadAn=         5 AccDes= 0.00D+00
 HarFok:  IExCor=  205 AccDes= 0.00D+00 IRadAn=         5 IDoV=-2 UseB2=F ITyADJ=14
 ICtDFT= 12500011 ScaDFX=  1.000000  1.000000  1.000000  1.000000
 Range of M.O.s used for correlation:     4   160
 NBasis=   160 NAE=    13 NBE=    12 NFC=     3 NFV=     0
 NROrb=    157 NOA=    10 NOB=     9 NVA=   147 NVB=   148

 **** Warning!!: The largest alpha MO coefficient is  0.12015769D+02


 **** Warning!!: The largest beta MO coefficient is  0.12011994D+02

 DoSCS=T DFT=T ScalE2(SS,OS)=  0.270000  0.270000
 Fully direct method using O(ONN) memory.
 JobTyp=2 Pass  1:  I=   4 to  13 NPSUse= 40 ParTrn=T ParDer=T DoDerP=T.
 JobTyp=3 Pass  1:  I=   4 to  12 NPSUse= 40 ParTrn=T ParDer=T DoDerP=T.
 Spin components of T(2) and E(2):
     alpha-alpha T2 =       0.3056639990D-01 E2=     -0.2338721266D-01
     alpha-beta  T2 =       0.1743176658D+00 E2=     -0.1399598490D+00
     beta-beta   T2 =       0.2854719936D-01 E2=     -0.2066468864D-01
 (S**2,0)=  0.75602D+00           (S**2,1)=  0.74707D+00
 Scaling Projection term by:   0.270000
 E(PUHF)=      -0.15413422691D+03        E(PMP2)=      -0.15431600213D+03
 E2(B2PLYPD3) =    -0.1840117503D+00 E(B2PLYPD3) =    -0.15431583395669D+03
          IDoAtm=11111111
          Differentiating once with respect to electric field.
                with respect to dipole field.
          Differentiating once with respect to nuclear coordinates.
 Keep R1 and R2 ints in memory in canonical form, NReq=206291724.
          There are     1 degrees of freedom in the 1st order CPHF.  IDoFFX=0 NUNeed=     1.
 LinEq1:  Iter=  0 NonCon=     1 RMS=9.21D-04 Max=2.71D-02 NDo=     1
 AX will form     1 AO Fock derivatives at one time.
 LinEq1:  Iter=  1 NonCon=     1 RMS=3.15D-04 Max=4.85D-03 NDo=     1
 LinEq1:  Iter=  2 NonCon=     1 RMS=1.49D-04 Max=3.60D-03 NDo=     1
 LinEq1:  Iter=  3 NonCon=     1 RMS=6.82D-05 Max=5.79D-04 NDo=     1
 LinEq1:  Iter=  4 NonCon=     1 RMS=3.39D-05 Max=5.15D-04 NDo=     1
 LinEq1:  Iter=  5 NonCon=     1 RMS=8.29D-06 Max=1.01D-04 NDo=     1
 LinEq1:  Iter=  6 NonCon=     1 RMS=2.58D-06 Max=2.73D-05 NDo=     1
 LinEq1:  Iter=  7 NonCon=     1 RMS=7.77D-07 Max=7.69D-06 NDo=     1
 LinEq1:  Iter=  8 NonCon=     1 RMS=3.44D-07 Max=3.74D-06 NDo=     1
 LinEq1:  Iter=  9 NonCon=     1 RMS=1.08D-07 Max=1.25D-06 NDo=     1
 LinEq1:  Iter= 10 NonCon=     1 RMS=2.63D-08 Max=2.91D-07 NDo=     1
 LinEq1:  Iter= 11 NonCon=     1 RMS=5.89D-09 Max=7.18D-08 NDo=     1
 LinEq1:  Iter= 12 NonCon=     1 RMS=1.54D-09 Max=1.36D-08 NDo=     1
 LinEq1:  Iter= 13 NonCon=     1 RMS=3.39D-10 Max=4.05D-09 NDo=     1
 LinEq1:  Iter= 14 NonCon=     0 RMS=9.17D-11 Max=9.44D-10 NDo=     1
 Linear equations converged to 1.000D-10 1.000D-09 after    14 iterations.
 End of Minotr F.D. properties file   721 does not exist.
 End of Minotr F.D. properties file   722 does not exist.
 End of Minotr F.D. properties file   788 does not exist.
 Calling FoFJK, ICntrl=  10002127 FMM=F ISym2X=0 I1Cent= 0 IOpClX= 1 NMat=1 NMatS=1 NMatT=0.
 ***** Axes restored to original set *****
 -------------------------------------------------------------------
 Center     Atomic                   Forces (Hartrees/Bohr)
 Number     Number              X              Y              Z
 -------------------------------------------------------------------
      1        6          -0.000799448    0.001244903   -0.001110409
      2        6          -0.001014289   -0.000061060   -0.001266871
      3        8           0.003066780    0.000229056    0.001954669
      4        1          -0.001036279   -0.000191477   -0.000325838
      5        1          -0.000545190   -0.001584970    0.000520813
      6        1          -0.000322725   -0.000821440   -0.000078962
      7        1          -0.000381474    0.001118686    0.000461848
      8        1           0.001032625    0.000066301   -0.000155249
 -------------------------------------------------------------------
 Cartesian Forces:  Max     0.003066780 RMS     0.001063118

 GradGradGradGradGradGradGradGradGradGradGradGradGradGradGradGradGradGrad
 Berny optimization.
 Using GEDIIS/GDIIS optimizer.
 FormGI is forming the generalized inverse of G from B-inverse, IUseBI=4.
 Internal  Forces:  Max     0.004073163 RMS     0.001321620
 Search for a local minimum.
 Step number   3 out of a maximum of  100
 All quantities printed in internal units (Hartrees-Bohrs-Radians)
 Mixed Optimization -- RFO/linear search
 Update second derivatives using D2CorX and points    2    3
 DE= -1.46D-03 DEPred=-1.03D-03 R= 1.41D+00
 TightC=F SS=  1.41D+00  RLast= 3.63D-01 DXNew= 8.4853D-01 1.0888D+00
 Trust test= 1.41D+00 RLast= 3.63D-01 DXMaxT set to 8.49D-01
 ITU=  1  1  0
 Use linear search instead of GDIIS.
     Eigenvalues ---    0.00496   0.01078   0.02652   0.07069   0.07261
     Eigenvalues ---    0.14089   0.15983   0.16000   0.16031   0.17005
     Eigenvalues ---    0.22464   0.31029   0.33371   0.34146   0.34349
     Eigenvalues ---    0.34495   0.40681   0.53442
 RFO step:  Lambda=-2.46001010D-04 EMin= 4.95876050D-03
 Quartic linear search produced a step of  0.05038.
 Iteration  1 RMS(Cart)=  0.02030667 RMS(Int)=  0.00030880
 Iteration  2 RMS(Cart)=  0.00025547 RMS(Int)=  0.00017078
 Iteration  3 RMS(Cart)=  0.00000006 RMS(Int)=  0.00017078
 Variable       Old X    -DE/DX   Delta X   Delta X   Delta X     New X
                                 (Linear)    (Quad)   (Total)
    R1        2.79371   0.00295  -0.00196   0.00957   0.00760   2.80132
    R2        2.05369   0.00093  -0.00017   0.00320   0.00303   2.05672
    R3        2.05473   0.00156  -0.00019   0.00498   0.00479   2.05952
    R4        2.07201   0.00026   0.00040   0.00145   0.00185   2.07386
    R5        2.59088   0.00407  -0.00218   0.01012   0.00794   2.59882
    R6        2.04706   0.00086  -0.00099   0.00226   0.00128   2.04834
    R7        1.81388   0.00059  -0.00025   0.00136   0.00111   1.81500
    A1        1.92604   0.00053  -0.00022   0.00356   0.00332   1.92936
    A2        1.92158   0.00081  -0.00093   0.00342   0.00248   1.92406
    A3        1.95169   0.00080   0.00203   0.00809   0.01010   1.96179
    A4        1.89930  -0.00070   0.00007  -0.00465  -0.00459   1.89472
    A5        1.88477  -0.00060  -0.00054  -0.00395  -0.00452   1.88025
    A6        1.87894  -0.00093  -0.00044  -0.00717  -0.00761   1.87132
    A7        1.97511   0.00240   0.00124   0.01388   0.01466   1.98977
    A8        2.10290  -0.00069   0.00234   0.00140   0.00327   2.10617
    A9        2.03078  -0.00106   0.00153   0.00264   0.00365   2.03444
   A10        1.89792   0.00131   0.00081   0.00951   0.01032   1.90824
    D1        2.97929  -0.00028  -0.00194   0.01119   0.00918   2.98847
    D2       -0.78509   0.00044   0.00549   0.04076   0.04631  -0.73878
    D3        0.88238  -0.00027  -0.00127   0.01251   0.01116   0.89354
    D4       -2.88200   0.00046   0.00615   0.04207   0.04830  -2.83370
    D5       -1.20557  -0.00016  -0.00144   0.01399   0.01249  -1.19309
    D6        1.31324   0.00057   0.00599   0.04355   0.04962   1.36286
    D7        3.10468  -0.00003  -0.00546  -0.02505  -0.03046   3.07422
    D8        0.55864  -0.00080  -0.01295  -0.05262  -0.06562   0.49301
         Item               Value     Threshold  Converged?
 Maximum Force            0.004073     0.000450     NO 
 RMS     Force            0.001322     0.000300     NO 
 Maximum Displacement     0.049587     0.001800     NO 
 RMS     Displacement     0.020250     0.001200     NO 
 Predicted change in Energy=-1.275326D-04
 GradGradGradGradGradGradGradGradGradGradGradGradGradGradGradGradGradGrad

                          Input orientation:                          
 ---------------------------------------------------------------------
 Center     Atomic      Atomic             Coordinates (Angstroms)
 Number     Number       Type             X           Y           Z
 ---------------------------------------------------------------------
      1          6           0        1.030494    0.871961    0.945771
      2          6           0        1.936308    1.932133    1.448786
      3          8           0        3.180983    1.476812    1.815860
      4          1           0        0.021684    1.260151    0.818648
      5          1           0        0.996070    0.040347    1.649339
      6          1           0        1.356893    0.466730   -0.020473
      7          1           0        1.886954    2.937871    1.047582
      8          1           0        3.729413    2.222394    2.072387
 ---------------------------------------------------------------------
                    Distance matrix (angstroms):
                    1          2          3          4          5
     1  C    0.000000
     2  C    1.482393   0.000000
     3  O    2.397395   1.375236   0.000000
     4  H    1.088370   2.124717   3.320021   0.000000
     5  H    1.089852   2.122057   2.620116   1.768445   0.000000
     6  H    1.097440   2.154496   2.778433   1.765339   1.760758
     7  H    2.238721   1.083932   2.097488   2.519204   3.090539
     8  H    3.221350   1.920509   0.960455   4.030512   3.522991
                    6          7          8
     6  H    0.000000
     7  H    2.743765   0.000000
     8  H    3.618186   2.226385   0.000000
 Stoichiometry    C2H5O(2)
 Framework group  C1[X(C2H5O)]
 Deg. of freedom    18
 Full point group                 C1      NOp   1
 Largest Abelian subgroup         C1      NOp   1
 Largest concise Abelian subgroup C1      NOp   1
                         Standard orientation:                         
 ---------------------------------------------------------------------
 Center     Atomic      Atomic             Coordinates (Angstroms)
 Number     Number       Type             X           Y           Z
 ---------------------------------------------------------------------
      1          6           0        1.225496   -0.164532    0.011852
      2          6           0       -0.090311    0.508408   -0.103455
      3          8           0       -1.165455   -0.339903    0.021870
      4          1           0        2.029485    0.521728   -0.247372
      5          1           0        1.270845   -1.021542   -0.659902
      6          1           0        1.417590   -0.536420    1.026334
      7          1           0       -0.227103    1.521042    0.258167
      8          1           0       -1.978283    0.171162   -0.002571
 ---------------------------------------------------------------------
 Rotational constants (GHZ):          46.1815812           9.4790239           8.3161052
 Standard basis: CC-pVTZ (5D, 7F)
 There are   180 symmetry adapted cartesian basis functions of A   symmetry.
 There are   160 symmetry adapted basis functions of A   symmetry.
   160 basis functions,   241 primitive gaussians,   180 cartesian basis functions
    13 alpha electrons       12 beta electrons
       nuclear repulsion energy        75.0700613188 Hartrees.
 NAtoms=    8 NActive=    8 NUniq=    8 SFac= 1.00D+00 NAtFMM=   60 NAOKFM=F Big=F
 Integral buffers will be    131072 words long.
 Raffenetti 2 integral format.
 Two-electron integral symmetry is turned on.
 Nuclear repulsion after empirical dispersion term =       75.0674168582 Hartrees.
 One-electron integrals computed using PRISM.
 NBasis=   160 RedAO= T EigKep=  1.05D-03  NBF=   160
 NBsUse=   160 1.00D-06 EigRej= -1.00D+00 NBFU=   160
 Initial guess from the checkpoint file:  "/localscratch/386879/Gau-39226.chk"
 B after Tr=     0.000000    0.000000   -0.000000
         Rot=    0.999995   -0.003098    0.000075   -0.000204 Ang=  -0.36 deg.
 Initial guess <Sx>= 0.0000 <Sy>= 0.0000 <Sz>= 0.5000 <S**2>= 0.7561 S= 0.5030
 ExpMin= 1.03D-01 ExpMax= 1.53D+04 ExpMxC= 5.22D+02 IAcc=3 IRadAn=         5 AccDes= 0.00D+00
 Harris functional with IExCor=  419 and IRadAn=       5 diagonalized for initial guess.
 HarFok:  IExCor=  419 AccDes= 0.00D+00 IRadAn=         5 IDoV= 1 UseB2=F ITyADJ=14
 ICtDFT=  3500011 ScaDFX=  1.000000  1.000000  1.000000  1.000000
 FoFCou: FMM=F IPFlag=           0 FMFlag=      100000 FMFlg1=           0
         NFxFlg=           0 DoJE=T BraDBF=F KetDBF=T FulRan=T
         wScrn=  0.000000 ICntrl=       500 IOpCl=  0 I1Cent=   200000004 NGrid=           0
         NMat0=    1 NMatS0=      1 NMatT0=    0 NMatD0=    1 NMtDS0=    0 NMtDT0=    0
 Petite list used in FoFCou.
 Keep R1 and R2 ints in memory in canonical form, NReq=206286096.
 Requested convergence on RMS density matrix=1.00D-08 within 128 cycles.
 Requested convergence on MAX density matrix=1.00D-06.
 Requested convergence on             energy=1.00D-06.
 No special actions if energy rises.
 Integral accuracy reduced to 1.0D-05 until final iterations.
 Initial convergence to 1.0D-05 achieved.  Increase integral accuracy.
 SCF Done:  E(UB2PLYPD3) =  -154.131860026     A.U. after   11 cycles
            NFock= 11  Conv=0.48D-08     -V/T= 2.0042
 <Sx>= 0.0000 <Sy>= 0.0000 <Sz>= 0.5000 <S**2>= 0.7562 S= 0.5031
 <L.S>=  0.00000000000    
 Annihilation of the first spin contaminant:
 S**2 before annihilation     0.7562,   after     0.7500
 DoSCS=T DFT=T ScalE2(SS,OS)=  0.270000  0.270000
 ExpMin= 1.03D-01 ExpMax= 1.53D+04 ExpMxC= 5.22D+02 IAcc=3 IRadAn=         5 AccDes= 0.00D+00
 HarFok:  IExCor=  205 AccDes= 0.00D+00 IRadAn=         5 IDoV=-2 UseB2=F ITyADJ=14
 ICtDFT= 12500011 ScaDFX=  1.000000  1.000000  1.000000  1.000000
 Range of M.O.s used for correlation:     4   160
 NBasis=   160 NAE=    13 NBE=    12 NFC=     3 NFV=     0
 NROrb=    157 NOA=    10 NOB=     9 NVA=   147 NVB=   148

 **** Warning!!: The largest alpha MO coefficient is  0.11937072D+02


 **** Warning!!: The largest beta MO coefficient is  0.11933074D+02

 DoSCS=T DFT=T ScalE2(SS,OS)=  0.270000  0.270000
 Fully direct method using O(ONN) memory.
 JobTyp=2 Pass  1:  I=   4 to  13 NPSUse= 40 ParTrn=T ParDer=T DoDerP=T.
 JobTyp=3 Pass  1:  I=   4 to  12 NPSUse= 40 ParTrn=T ParDer=T DoDerP=T.
 Spin components of T(2) and E(2):
     alpha-alpha T2 =       0.3064852036D-01 E2=     -0.2339655985D-01
     alpha-beta  T2 =       0.1748345612D+00 E2=     -0.1400404725D+00
     beta-beta   T2 =       0.2859977140D-01 E2=     -0.2065576201D-01
 (S**2,0)=  0.75620D+00           (S**2,1)=  0.74703D+00
 Scaling Projection term by:   0.270000
 E(PUHF)=      -0.15413431458D+03        E(PMP2)=      -0.15431612699D+03
 E2(B2PLYPD3) =    -0.1840927944D+00 E(B2PLYPD3) =    -0.15431595282079D+03
          IDoAtm=11111111
          Differentiating once with respect to electric field.
                with respect to dipole field.
          Differentiating once with respect to nuclear coordinates.
 Keep R1 and R2 ints in memory in canonical form, NReq=206291724.
          There are     1 degrees of freedom in the 1st order CPHF.  IDoFFX=0 NUNeed=     1.
 LinEq1:  Iter=  0 NonCon=     1 RMS=9.24D-04 Max=2.69D-02 NDo=     1
 AX will form     1 AO Fock derivatives at one time.
 LinEq1:  Iter=  1 NonCon=     1 RMS=3.18D-04 Max=4.98D-03 NDo=     1
 LinEq1:  Iter=  2 NonCon=     1 RMS=1.50D-04 Max=3.62D-03 NDo=     1
 LinEq1:  Iter=  3 NonCon=     1 RMS=6.89D-05 Max=6.39D-04 NDo=     1
 LinEq1:  Iter=  4 NonCon=     1 RMS=3.41D-05 Max=5.17D-04 NDo=     1
 LinEq1:  Iter=  5 NonCon=     1 RMS=8.32D-06 Max=9.80D-05 NDo=     1
 LinEq1:  Iter=  6 NonCon=     1 RMS=2.60D-06 Max=2.78D-05 NDo=     1
 LinEq1:  Iter=  7 NonCon=     1 RMS=7.87D-07 Max=7.73D-06 NDo=     1
 LinEq1:  Iter=  8 NonCon=     1 RMS=3.50D-07 Max=3.74D-06 NDo=     1
 LinEq1:  Iter=  9 NonCon=     1 RMS=1.09D-07 Max=1.26D-06 NDo=     1
 LinEq1:  Iter= 10 NonCon=     1 RMS=2.64D-08 Max=2.96D-07 NDo=     1
 LinEq1:  Iter= 11 NonCon=     1 RMS=5.85D-09 Max=7.34D-08 NDo=     1
 LinEq1:  Iter= 12 NonCon=     1 RMS=1.52D-09 Max=1.38D-08 NDo=     1
 LinEq1:  Iter= 13 NonCon=     1 RMS=3.25D-10 Max=3.69D-09 NDo=     1
 LinEq1:  Iter= 14 NonCon=     0 RMS=8.41D-11 Max=8.82D-10 NDo=     1
 Linear equations converged to 1.000D-10 1.000D-09 after    14 iterations.
 End of Minotr F.D. properties file   721 does not exist.
 End of Minotr F.D. properties file   722 does not exist.
 End of Minotr F.D. properties file   788 does not exist.
 Calling FoFJK, ICntrl=  10002127 FMM=F ISym2X=0 I1Cent= 0 IOpClX= 1 NMat=1 NMatS=1 NMatT=0.
 ***** Axes restored to original set *****
 -------------------------------------------------------------------
 Center     Atomic                   Forces (Hartrees/Bohr)
 Number     Number              X              Y              Z
 -------------------------------------------------------------------
      1        6           0.000720556    0.000224494    0.000223807
      2        6          -0.000147674    0.000058150   -0.000773918
      3        8          -0.000193183   -0.000375589   -0.000005520
      4        1           0.000289615    0.000188704    0.000219264
      5        1          -0.000343132   -0.000306967   -0.000056392
      6        1           0.000203620    0.000128308    0.000361463
      7        1           0.000137142   -0.000051293    0.000393109
      8        1          -0.000666944    0.000134191   -0.000361814
 -------------------------------------------------------------------
 Cartesian Forces:  Max     0.000773918 RMS     0.000339315

 GradGradGradGradGradGradGradGradGradGradGradGradGradGradGradGradGradGrad
 Berny optimization.
 Using GEDIIS/GDIIS optimizer.
 FormGI is forming the generalized inverse of G from B-inverse, IUseBI=4.
 Internal  Forces:  Max     0.001194438 RMS     0.000440605
 Search for a local minimum.
 Step number   4 out of a maximum of  100
 All quantities printed in internal units (Hartrees-Bohrs-Radians)
 Mixed Optimization -- En-DIIS/RFO-DIIS
 Update second derivatives using D2CorX and points    2    3    4
 DE= -1.19D-04 DEPred=-1.28D-04 R= 9.32D-01
 TightC=F SS=  1.41D+00  RLast= 1.15D-01 DXNew= 1.4270D+00 3.4548D-01
 Trust test= 9.32D-01 RLast= 1.15D-01 DXMaxT set to 8.49D-01
 ITU=  1  1  1  0
 Use linear search instead of GDIIS.
     Eigenvalues ---    0.00427   0.00960   0.02666   0.07004   0.07224
     Eigenvalues ---    0.14147   0.15649   0.15998   0.16456   0.18507
     Eigenvalues ---    0.22993   0.32379   0.33682   0.34155   0.34400
     Eigenvalues ---    0.34827   0.44162   0.53627
 RFO step:  Lambda=-3.09639037D-05 EMin= 4.27231326D-03
 Quartic linear search produced a step of -0.03809.
 Iteration  1 RMS(Cart)=  0.01054550 RMS(Int)=  0.00005842
 Iteration  2 RMS(Cart)=  0.00005688 RMS(Int)=  0.00000291
 Iteration  3 RMS(Cart)=  0.00000000 RMS(Int)=  0.00000291
 Variable       Old X    -DE/DX   Delta X   Delta X   Delta X     New X
                                 (Linear)    (Quad)   (Total)
    R1        2.80132  -0.00095  -0.00029  -0.00250  -0.00279   2.79853
    R2        2.05672  -0.00023  -0.00012  -0.00022  -0.00034   2.05638
    R3        2.05952   0.00021  -0.00018   0.00140   0.00121   2.06073
    R4        2.07386  -0.00031  -0.00007  -0.00045  -0.00052   2.07334
    R5        2.59882  -0.00080  -0.00030  -0.00142  -0.00172   2.59710
    R6        2.04834  -0.00020  -0.00005  -0.00075  -0.00080   2.04753
    R7        1.81500  -0.00037  -0.00004  -0.00064  -0.00068   1.81432
    A1        1.92936  -0.00052  -0.00013  -0.00295  -0.00307   1.92629
    A2        1.92406   0.00071  -0.00009   0.00502   0.00492   1.92898
    A3        1.96179  -0.00035  -0.00038   0.00023  -0.00016   1.96163
    A4        1.89472  -0.00010   0.00017  -0.00150  -0.00132   1.89340
    A5        1.88025   0.00038   0.00017   0.00082   0.00099   1.88124
    A6        1.87132  -0.00011   0.00029  -0.00174  -0.00145   1.86988
    A7        1.98977  -0.00036  -0.00056   0.00121   0.00065   1.99042
    A8        2.10617   0.00047  -0.00012   0.00423   0.00410   2.11027
    A9        2.03444  -0.00009  -0.00014  -0.00018  -0.00032   2.03412
   A10        1.90824  -0.00119  -0.00039  -0.00520  -0.00560   1.90264
    D1        2.98847   0.00011  -0.00035   0.01425   0.01389   3.00236
    D2       -0.73878   0.00009  -0.00176   0.02319   0.02142  -0.71735
    D3        0.89354   0.00011  -0.00043   0.01476   0.01434   0.90788
    D4       -2.83370   0.00009  -0.00184   0.02370   0.02187  -2.81183
    D5       -1.19309   0.00000  -0.00048   0.01339   0.01291  -1.18018
    D6        1.36286  -0.00002  -0.00189   0.02232   0.02044   1.38329
    D7        3.07422  -0.00003   0.00116  -0.01593  -0.01477   3.05945
    D8        0.49301  -0.00022   0.00250  -0.02601  -0.02351   0.46951
         Item               Value     Threshold  Converged?
 Maximum Force            0.001194     0.000450     NO 
 RMS     Force            0.000441     0.000300     NO 
 Maximum Displacement     0.027018     0.001800     NO 
 RMS     Displacement     0.010554     0.001200     NO 
 Predicted change in Energy=-1.590041D-05
 GradGradGradGradGradGradGradGradGradGradGradGradGradGradGradGradGradGrad

                          Input orientation:                          
 ---------------------------------------------------------------------
 Center     Atomic      Atomic             Coordinates (Angstroms)
 Number     Number       Type             X           Y           Z
 ---------------------------------------------------------------------
      1          6           0        1.032017    0.871168    0.946295
      2          6           0        1.936296    1.929656    1.451269
      3          8           0        3.181728    1.475885    1.814261
      4          1           0        0.026734    1.264962    0.810314
      5          1           0        0.985398    0.040051    1.650742
      6          1           0        1.364402    0.461346   -0.015650
      7          1           0        1.883323    2.939388    1.061880
      8          1           0        3.728902    2.225944    2.058790
 ---------------------------------------------------------------------
                    Distance matrix (angstroms):
                    1          2          3          4          5
     1  C    0.000000
     2  C    1.480917   0.000000
     3  O    2.395894   1.374326   0.000000
     4  H    1.088191   2.121101   3.317588   0.000000
     5  H    1.090494   2.124760   2.629112   1.767983   0.000000
     6  H    1.097166   2.152870   2.771379   1.765608   1.760113
     7  H    2.239556   1.083507   2.096133   2.512749   3.091793
     8  H    3.216559   1.915804   0.960095   4.023460   3.531494
                    6          7          8
     6  H    0.000000
     7  H    2.751553   0.000000
     8  H    3.606657   2.215625   0.000000
 Stoichiometry    C2H5O(2)
 Framework group  C1[X(C2H5O)]
 Deg. of freedom    18
 Full point group                 C1      NOp   1
 Largest Abelian subgroup         C1      NOp   1
 Largest concise Abelian subgroup C1      NOp   1
                         Standard orientation:                         
 ---------------------------------------------------------------------
 Center     Atomic      Atomic             Coordinates (Angstroms)
 Number     Number       Type             X           Y           Z
 ---------------------------------------------------------------------
      1          6           0        1.224545   -0.163923    0.012441
      2          6           0       -0.090433    0.507388   -0.102847
      3          8           0       -1.164800   -0.340791    0.020033
      4          1           0        2.026617    0.529693   -0.231967
      5          1           0        1.281596   -1.012701   -0.669833
      6          1           0        1.410336   -0.548478    1.023070
      7          1           0       -0.230796    1.521295    0.252509
      8          1           0       -1.974028    0.175731    0.008394
 ---------------------------------------------------------------------
 Rotational constants (GHZ):          46.2107189           9.4927433           8.3260372
 Standard basis: CC-pVTZ (5D, 7F)
 There are   180 symmetry adapted cartesian basis functions of A   symmetry.
 There are   160 symmetry adapted basis functions of A   symmetry.
   160 basis functions,   241 primitive gaussians,   180 cartesian basis functions
    13 alpha electrons       12 beta electrons
       nuclear repulsion energy        75.1129372931 Hartrees.
 NAtoms=    8 NActive=    8 NUniq=    8 SFac= 1.00D+00 NAtFMM=   60 NAOKFM=F Big=F
 Integral buffers will be    131072 words long.
 Raffenetti 2 integral format.
[...]
     6   1    -0.02   0.01  -0.08    -0.01   0.00  -0.02     0.00  -0.00   0.00
     7   1     0.04  -0.28  -0.09    -0.13   0.89   0.29     0.01  -0.01  -0.00
     8   1    -0.00   0.00  -0.00     0.00  -0.01   0.00     0.85  -0.53   0.01

 -------------------
 - Thermochemistry -
 -------------------
 Temperature   298.150 Kelvin.  Pressure   1.00000 Atm.
 Atom     1 has atomic number  6 and mass  12.00000
 Atom     2 has atomic number  6 and mass  12.00000
 Atom     3 has atomic number  8 and mass  15.99491
 Atom     4 has atomic number  1 and mass   1.00783
 Atom     5 has atomic number  1 and mass   1.00783
 Atom     6 has atomic number  1 and mass   1.00783
 Atom     7 has atomic number  1 and mass   1.00783
 Atom     8 has atomic number  1 and mass   1.00783
 Molecular mass:    45.03404 amu.
 Principal axes and moments of inertia in atomic units:
                           1         2         3
     Eigenvalues --    39.06053 190.10128 216.76542
           X            0.99924  -0.03895  -0.00043
           Y            0.03892   0.99796   0.05065
           Z           -0.00154  -0.05062   0.99872
 This molecule is an asymmetric top.
 Rotational symmetry number  1.
 Rotational temperatures (Kelvin)      2.21743     0.45562     0.39957
 Rotational constants (GHZ):          46.20370     9.49358     8.32578
 Zero-point vibrational energy     174420.3 (Joules/Mol)
                                   41.68744 (Kcal/Mol)
 Warning -- explicit consideration of   4 degrees of freedom as
           vibrations may cause significant error
 Vibrational temperatures:    264.21   530.84   592.84   853.95  1349.28
          (Kelvin)           1488.17  1537.62  1750.31  1848.37  2020.87
                             2103.62  2129.56  2165.18  4300.16  4427.14
                             4504.77  4543.32  5545.65
 
 Zero-point correction=                           0.066433 (Hartree/Particle)
 Thermal correction to Energy=                    0.070813
 Thermal correction to Enthalpy=                  0.071757
 Thermal correction to Gibbs Free Energy=         0.040459
 Sum of electronic and zero-point Energies=           -154.249543
 Sum of electronic and thermal Energies=              -154.245163
 Sum of electronic and thermal Enthalpies=            -154.244219
 Sum of electronic and thermal Free Energies=         -154.275517
 
                     E (Thermal)             CV                S
                      KCal/Mol        Cal/Mol-Kelvin    Cal/Mol-Kelvin
 Total                   44.436             13.643             65.872
 Electronic               0.000              0.000              1.377
 Translational            0.889              2.981             37.340
 Rotational               0.889              2.981             22.003
 Vibrational             42.658              7.681              5.152
 Vibration     1          0.631              1.862              2.291
 Vibration     2          0.741              1.536              1.084
 Vibration     3          0.776              1.444              0.919
 Vibration     4          0.951              1.046              0.461
                       Q            Log10(Q)             Ln(Q)
 Total Bot       0.245545D-18        -18.609868        -42.850805
 Total V=0       0.885604D+12         11.947239         27.509535
 Vib (Bot)       0.719671D-30        -30.142866        -69.406513
 Vib (Bot)    1  0.109237D+01          0.038368          0.088346
 Vib (Bot)    2  0.493797D+00         -0.306452         -0.705631
 Vib (Bot)    3  0.428721D+00         -0.367825         -0.846948
 Vib (Bot)    4  0.253255D+00         -0.596442         -1.373359
 Vib (V=0)       0.259562D+01          0.414242          0.953827
 Vib (V=0)    1  0.170136D+01          0.230796          0.531428
 Vib (V=0)    2  0.120273D+01          0.080170          0.184597
 Vib (V=0)    3  0.115864D+01          0.063947          0.147244
 Vib (V=0)    4  0.106048D+01          0.025503          0.058722
 Electronic      0.200000D+01          0.301030          0.693147
 Translational   0.118786D+08          7.074765         16.290249
 Rotational      0.143616D+05          4.157202          9.572312
 ***** Axes restored to original set *****
 -------------------------------------------------------------------
 Center     Atomic                   Forces (Hartrees/Bohr)
 Number     Number              X              Y              Z
 -------------------------------------------------------------------
      1        6           0.000009792    0.000017130    0.000006146
      2        6           0.000005543   -0.000008633    0.000006337
      3        8          -0.000005508    0.000005135   -0.000005694
      4        1          -0.000000497   -0.000001123   -0.000001643
      5        1          -0.000002180   -0.000005676   -0.000002188
      6        1          -0.000004640   -0.000006299   -0.000002720
      7        1          -0.000000724   -0.000000885   -0.000003218
      8        1          -0.000001785    0.000000351    0.000002980
 -------------------------------------------------------------------
 Cartesian Forces:  Max     0.000017130 RMS     0.000005774
 FormGI is forming the generalized inverse of G from B-inverse, IUseBI=4.

 GradGradGradGradGradGradGradGradGradGradGradGradGradGradGradGradGradGrad
 Berny optimization.
 Internal  Forces:  Max     0.000009359 RMS     0.000004158
 Search for a local minimum.
 Step number   1 out of a maximum of    2
 All quantities printed in internal units (Hartrees-Bohrs-Radians)
 Second derivative matrix not updated -- analytic derivatives used.
 ITU=  0
     Eigenvalues ---    0.00175   0.00666   0.01622   0.05578   0.05686
     Eigenvalues ---    0.10790   0.12219   0.13551   0.14613   0.16051
     Eigenvalues ---    0.22095   0.31362   0.32970   0.34230   0.34976
     Eigenvalues ---    0.35130   0.43206   0.53519
 Angle between quadratic step and forces=  65.32 degrees.
 Linear search not attempted -- first point.
 Iteration  1 RMS(Cart)=  0.00011098 RMS(Int)=  0.00000002
 Iteration  2 RMS(Cart)=  0.00000002 RMS(Int)=  0.00000000
 Variable       Old X    -DE/DX   Delta X   Delta X   Delta X     New X
                                 (Linear)    (Quad)   (Total)
    R1        2.79791  -0.00000   0.00000  -0.00003  -0.00003   2.79788
    R2        2.05601   0.00000   0.00000   0.00000   0.00000   2.05602
    R3        2.06053   0.00000   0.00000   0.00001   0.00001   2.06054
    R4        2.07292   0.00000   0.00000   0.00002   0.00002   2.07294
    R5        2.59786  -0.00001   0.00000  -0.00003  -0.00003   2.59783
    R6        2.04707   0.00000   0.00000   0.00001   0.00001   2.04707
    R7        1.81442   0.00000   0.00000   0.00000   0.00000   1.81442
    A1        1.92582  -0.00000   0.00000  -0.00001  -0.00001   1.92581
    A2        1.93107   0.00001   0.00000   0.00006   0.00006   1.93113
    A3        1.95835   0.00001   0.00000   0.00008   0.00008   1.95843
    A4        1.89295  -0.00000   0.00000  -0.00002  -0.00002   1.89293
    A5        1.88337  -0.00000   0.00000  -0.00005  -0.00005   1.88332
    A6        1.86994  -0.00001   0.00000  -0.00006  -0.00006   1.86988
    A7        1.99054   0.00001   0.00000   0.00005   0.00005   1.99058
    A8        2.11157  -0.00001   0.00000  -0.00007  -0.00007   2.11151
    A9        2.03458  -0.00000   0.00000  -0.00001  -0.00001   2.03458
   A10        1.90220  -0.00000   0.00000  -0.00001  -0.00001   1.90219
    D1        3.02767   0.00000   0.00000   0.00004   0.00004   3.02771
    D2       -0.68860   0.00000   0.00000  -0.00001  -0.00001  -0.68861
    D3        0.93271   0.00000   0.00000   0.00004   0.00004   0.93274
    D4       -2.78357   0.00000   0.00000  -0.00002  -0.00002  -2.78358
    D5       -1.15469  -0.00000   0.00000   0.00002   0.00002  -1.15467
    D6        1.41223  -0.00000   0.00000  -0.00003  -0.00003   1.41220
    D7        3.06319   0.00000   0.00000   0.00038   0.00038   3.06357
    D8        0.46967   0.00000   0.00000   0.00045   0.00045   0.47012
         Item               Value     Threshold  Converged?
 Maximum Force            0.000009     0.000450     YES
 RMS     Force            0.000004     0.000300     YES
 Maximum Displacement     0.000354     0.001800     YES
 RMS     Displacement     0.000111     0.001200     YES
 Predicted change in Energy=-2.643047D-09
 Optimization completed.
    -- Stationary point found.
                           ----------------------------
                           !   Optimized Parameters   !
                           ! (Angstroms and Degrees)  !
 --------------------------                            --------------------------
 ! Name  Definition              Value          Derivative Info.                !
 --------------------------------------------------------------------------------
 ! R1    R(1,2)                  1.4806         -DE/DX =    0.0                 !
 ! R2    R(1,4)                  1.088          -DE/DX =    0.0                 !
 ! R3    R(1,5)                  1.0904         -DE/DX =    0.0                 !
 ! R4    R(1,6)                  1.0969         -DE/DX =    0.0                 !
 ! R5    R(2,3)                  1.3747         -DE/DX =    0.0                 !
 ! R6    R(2,7)                  1.0833         -DE/DX =    0.0                 !
 ! R7    R(3,8)                  0.9601         -DE/DX =    0.0                 !
 ! A1    A(2,1,4)              110.3412         -DE/DX =    0.0                 !
 ! A2    A(2,1,5)              110.6422         -DE/DX =    0.0                 !
 ! A3    A(2,1,6)              112.2052         -DE/DX =    0.0                 !
 ! A4    A(4,1,5)              108.4581         -DE/DX =    0.0                 !
 ! A5    A(4,1,6)              107.9091         -DE/DX =    0.0                 !
 ! A6    A(5,1,6)              107.1398         -DE/DX =    0.0                 !
 ! A7    A(1,2,3)              114.0493         -DE/DX =    0.0                 !
 ! A8    A(1,2,7)              120.9842         -DE/DX =    0.0                 !
 ! A9    A(3,2,7)              116.5731         -DE/DX =    0.0                 !
 ! A10   A(2,3,8)              108.9882         -DE/DX =    0.0                 !
 ! D1    D(4,1,2,3)            173.4727         -DE/DX =    0.0                 !
 ! D2    D(4,1,2,7)            -39.454          -DE/DX =    0.0                 !
 ! D3    D(5,1,2,3)             53.4401         -DE/DX =    0.0                 !
 ! D4    D(5,1,2,7)           -159.4866         -DE/DX =    0.0                 !
 ! D5    D(6,1,2,3)            -66.1586         -DE/DX =    0.0                 !
 ! D6    D(6,1,2,7)             80.9147         -DE/DX =    0.0                 !
 ! D7    D(1,2,3,8)            175.5078         -DE/DX =    0.0                 !
 ! D8    D(7,2,3,8)             26.9102         -DE/DX =    0.0                 !
 --------------------------------------------------------------------------------
 GradGradGradGradGradGradGradGradGradGradGradGradGradGradGradGradGradGrad


 ----------------------------------------------------------------------

 Electric dipole moment (input orientation):
 (Debye = 10**-18 statcoulomb cm , SI units = C m)
                  (au)            (Debye)         (10**-30 SI)
   Tot        0.516401D+00      0.131256D+01      0.437823D+01
   x          0.920096D-01      0.233865D+00      0.780090D+00
   y          0.500319D+00      0.127169D+01      0.424189D+01
   z         -0.887941D-01     -0.225692D+00     -0.752827D+00

 Dipole polarizability, Alpha (input orientation).
 (esu units = cm**3 , SI units = C**2 m**2 J**-1)
 Alpha(0;0):
               (au)            (10**-24 esu)      (10**-40 SI)
   iso        0.294595D+02      0.436545D+01      0.485721D+01
   aniso      0.961968D+01      0.142549D+01      0.158607D+01
   xx         0.322734D+02      0.478242D+01      0.532116D+01
   yx         0.224402D+01      0.332529D+00      0.369988D+00
   yy         0.304418D+02      0.451101D+01      0.501918D+01
   zx         0.357725D+01      0.530094D+00      0.589809D+00
   zy         0.116903D+01      0.173233D+00      0.192747D+00
   zz         0.256633D+02      0.380290D+01      0.423130D+01

 ----------------------------------------------------------------------

 Dipole orientation:
     6          1.97380606         -1.77406853          1.63346377
     6          3.51216848         -2.84794079          3.70916514
     8          6.05465567         -2.96859937          3.18947108
     1         -0.02855143         -1.93103374          2.07290645
     1          2.33488002         -2.77495309         -0.13109080
     1          2.39793389          0.22715759          1.29848881
     1          2.99052869         -2.55644283          5.66707308
     1          6.93160837         -3.55642219          4.66511536

 Electric dipole moment (dipole orientation):
 (Debye = 10**-18 statcoulomb cm , SI units = C m)
                  (au)            (Debye)         (10**-30 SI)
   Tot        0.516401D+00      0.131256D+01      0.437823D+01
   x          0.000000D+00      0.000000D+00      0.000000D+00
   y          0.000000D+00      0.000000D+00      0.000000D+00
   z          0.516401D+00      0.131256D+01      0.437823D+01

 Dipole polarizability, Alpha (dipole orientation).
 (esu units = cm**3 , SI units = C**2 m**2 J**-1)
 Alpha(0;0):
               (au)            (10**-24 esu)      (10**-40 SI)
   iso        0.294595D+02      0.436545D+01      0.485721D+01
   aniso      0.961968D+01      0.142549D+01      0.158607D+01
   xx         0.325595D+02      0.482482D+01      0.536833D+01
   yx        -0.254855D+01     -0.377657D+00     -0.420200D+00
   yy         0.252943D+02      0.374822D+01      0.417046D+01
   zx         0.226679D+01      0.335903D+00      0.373743D+00
   zy        -0.227281D+01     -0.336796D+00     -0.374736D+00
   zz         0.305247D+02      0.452330D+01      0.503285D+01

 ----------------------------------------------------------------------
 1\1\GINC-N336\Freq\UB2PLYPD3-FC\CC-pVTZ\C2H5O1(2)\QUANDEWANG\30-Jul-20
 19\0\\#N Geom=AllCheck Guess=TCheck SCRF=Check GenChk UB2PLYPD3(FC)/CC
 -pVTZ Freq\\Title Card Required\\0,2\C,1.0319289182,0.8704760733,0.947
 0334949\C,1.9359479738,1.927879509,1.4537818359\O,3.1865238268,1.47596
 24042,1.80265182\H,0.0302283029,1.2683878045,0.7987295439\H,0.97343626
 58,0.0430664178,1.6547878023\H,1.3746942126,0.4548953127,-0.0085222319
 \H,1.8747104223,2.9416532297,1.0769961411\H,3.7313300776,2.2260792487,
 2.0524415939\\Version=ES64L-G16RevB.01\State=2-A\HF=-154.1318752\MP2=-
 154.3159761\PUHF=-154.1343437\PMP2-0=-154.3161517\S2=0.756249\S2-1=0.7
 47018\S2A=0.750029\RMSD=2.504e-09\RMSF=5.774e-06\ZeroPoint=0.0664332\T
 hermal=0.0708128\Dipole=0.0920096,0.5003195,-0.0887941\DipoleDeriv=0.0
 327024,-0.0054928,-0.0308587,-0.0967626,0.0425657,0.0173367,-0.1082819
 ,0.0246886,0.1363066,0.8097961,0.0133938,0.3436372,-0.0567132,0.257160
 5,-0.1461381,0.341377,-0.1610614,-0.0719383,-1.100783,0.0184701,-0.279
 1129,0.1758678,-0.3010844,0.1008735,-0.1564888,0.0484677,-0.4080025,-0
 .0959347,0.046233,-0.0338495,0.0769879,0.029455,0.00597,-0.0228068,-0.
 0051719,0.0680308,0.0588238,-0.0099579,-0.0098578,-0.0404299,-0.063722
 8,0.0707987,0.0080587,0.1010015,-0.0187643,0.0127872,0.0204067,0.06579
 3,-0.0382036,-0.0121035,-0.0999839,0.0138892,-0.1167105,-0.1267416,-0.
 0256512,-0.068958,-0.0530908,-0.0074368,-0.1333536,0.0704232,-0.055186
 ,0.133092,0.09307,0.3082594,-0.0140949,-0.0026606,-0.0133095,0.1810832
 ,-0.0192801,-0.0205613,-0.024306,0.3280393\Polar=32.2733832,2.2440174,
 30.4418021,3.5772491,1.1690325,25.6632744\PG=C01 [X(C2H5O1)]\NImag=0\\
 0.55604122,-0.03096497,0.52662116,0.00897701,-0.03277282,0.50765793,-0
 .12923723,-0.07793556,-0.04570129,0.49804507,-0.05979544,-0.17654224,-
 0.04168407,0.01757626,0.63177997,-0.03460149,-0.03115490,-0.07337814,0
 .14127606,-0.06306657,0.16951349,-0.02957536,0.01015590,-0.01107122,-0
 .28142064,0.10106763,-0.07319164,0.50490518,-0.02785859,0.01367337,-0.
 00609432,0.05055815,-0.13113322,0.01684590,0.12810396,0.46630594,-0.01
 678089,0.00378137,-0.00424589,-0.06426063,0.02368568,-0.03285407,0.173
 10039,0.07532101,0.07750362,-0.27481213,0.08991242,-0.03377965,-0.0163
 1450,0.01181303,-0.00276018,-0.00244561,-0.00486310,-0.00108087,0.2997
 0505,0.09307142,-0.08604629,0.01465752,-0.02125740,0.01222588,-0.00351
 541,-0.00447702,-0.00381562,-0.00184632,-0.09938679,0.09004628,-0.0325
 6449,0.01369048,-0.04954526,-0.00981578,0.00634170,-0.00449591,-0.0020
 1056,-0.00252411,0.00002096,0.03831695,-0.01284986,0.05192773,-0.04892
 017,-0.00964821,0.00829878,0.00058544,-0.01697243,0.01189969,0.0005444
 9,0.00135772,0.00052465,0.00336992,0.02247936,-0.02026428,0.04674007,-
 0.00905446,-0.19183034,0.13181817,-0.00003344,-0.02542271,0.01216609,0
 .00025557,0.00264963,-0.00018838,-0.00121408,-0.00819633,0.00606745,0.
 01299336,0.21507339,0.00692976,0.13143619,-0.15884991,-0.00033919,-0.0
 1093052,0.01003315,0.00151016,0.00076018,0.00008194,0.00028608,0.00108
 311,-0.00286572,-0.00807731,-0.14144060,0.17259586,-0.07227405,0.02767
 700,0.06642047,0.00737910,-0.01000504,-0.01991467,0.00038116,0.0010456
 1,0.00126937,-0.00937660,0.01004099,0.02685132,-0.00080300,0.00064709,
 0.00105636,0.07470975,0.03202319,-0.07478513,-0.07847960,0.00553541,-0
 .01807274,-0.02426059,-0.00265998,0.00278257,0.00164754,0.00369931,-0.
 00492603,-0.01044702,-0.00823436,0.00921104,0.02149304,-0.03005522,0.0
 8526393,0.07311078,-0.07275331,-0.22958819,-0.00119284,-0.01258471,-0.
 00893740,-0.00204659,0.00174901,0.00052528,-0.00116482,0.00241805,0.00
 450465,0.00848647,-0.00769915,-0.02032600,-0.07700388,0.08860355,0.253
 35029,0.00438890,-0.01425269,0.00837166,-0.05140156,-0.00696868,-0.012
 28726,-0.01139021,0.03479601,-0.01726681,0.00073102,0.00096949,0.00041
 311,-0.00205169,-0.00416545,-0.00165617,-0.00017620,-0.00066715,-0.000
 34464,0.05711691,0.00165328,-0.01164459,0.01154659,0.00793503,-0.30017
 364,0.08723317,0.00316114,-0.00355693,0.00665402,-0.00042143,0.0004289
 8,-0.00020445,-0.00230256,-0.00175569,-0.00218159,0.00042960,0.0003093
 0,-0.00000183,-0.01151665,0.31529030,-0.00141352,-0.01383601,0.0064693
 5,-0.01365041,0.10745073,-0.05496154,-0.00707362,0.00555148,-0.0013346
 2,0.00063903,0.00088241,0.00013364,-0.00064911,-0.00046003,-0.00065237
 ,0.00069763,0.00102827,0.00016493,0.02122451,-0.10183024,0.05065008,-0
 .00561119,0.00505610,-0.00151576,-0.02763567,-0.03671534,-0.01042050,-
 0.18099901,-0.18313976,-0.07550521,-0.00085715,-0.00144005,-0.00092626
 ,0.00053493,0.00057140,0.00029031,0.00015984,0.00035879,0.00015552,0.0
 0278285,0.00106158,0.00022549,0.21162540,0.00092556,0.00055405,0.00100
 853,0.01762154,0.00733870,0.00575230,-0.23560720,-0.34690574,-0.109054
 93,0.00046063,0.00028314,-0.00007419,0.00032712,0.00027101,-0.00021983
 ,0.00021997,0.00021706,0.00026838,0.00180511,0.00110227,0.00121339,0.2
 1424728,0.33713950,-0.00365716,0.00160900,0.00148012,-0.00631593,-0.00
 921225,-0.00491958,-0.07921692,-0.09160915,-0.03969723,-0.00045654,-0.
 00082950,0.00031992,-0.00021889,-0.00026355,-0.00001695,0.00062341,0.0
 0041479,0.00030643,0.00154562,-0.00121569,-0.00046946,0.08769641,0.101
 10634,0.04299674\\-0.00000979,-0.00001713,-0.00000615,-0.00000554,0.00
 000863,-0.00000634,0.00000551,-0.00000514,0.00000569,0.00000050,0.0000
 0112,0.00000164,0.00000218,0.00000568,0.00000219,0.00000464,0.00000630
 ,0.00000272,0.00000072,0.00000089,0.00000322,0.00000178,-0.00000035,-0
 .00000298\\\@


 REVOLUTIONS HAVE NEVER LIGHTENED THE BURDEN OF TYRANNY:
 THEY HAVE MERELY SHIFTED IT TO OTHER SHOULDERS.
                                   -- G. B. SHAW (1903)
 Job cpu time:       0 days  2 hours 24 minutes 58.8 seconds.
 Elapsed time:       0 days  0 hours  3 minutes 48.4 seconds.
 File lengths (MBytes):  RWF=   4851 Int=      0 D2E=      0 Chk=      6 Scr=      1
 Normal termination of Gaussian 16 at Tue Jul 30 15:41:55 2019.
