 Entering Gaussian System, Link 0=g16
 Initial command:
 /ichec/packages/gaussian/16b01/l1.exe "/localscratch/339542/Gau-78144.inp" -scrdir="/localscratch/339542/"
 Entering Link 1 = /ichec/packages/gaussian/16b01/l1.exe PID=     78147.
  
 Copyright (c) 1988-2017, Gaussian, Inc.  All Rights Reserved.
  
 This is part of the Gaussian(R) 16 program.  It is based on
 the Gaussian(R) 09 system (copyright 2009, Gaussian, Inc.),
 the Gaussian(R) 03 system (copyright 2003, Gaussian, Inc.),
 the Gaussian(R) 98 system (copyright 1998, Gaussian, Inc.),
 the Gaussian(R) 94 system (copyright 1995, Gaussian, Inc.),
 the Gaussian 92(TM) system (copyright 1992, Gaussian, Inc.),
 the Gaussian 90(TM) system (copyright 1990, Gaussian, Inc.),
 the Gaussian 88(TM) system (copyright 1988, Gaussian, Inc.),
 the Gaussian 86(TM) system (copyright 1986, Carnegie Mellon
 University), and the Gaussian 82(TM) system (copyright 1983,
 Carnegie Mellon University). Gaussian is a federally registered
 trademark of Gaussian, Inc.
  
 This software contains proprietary and confidential information,
 including trade secrets, belonging to Gaussian, Inc.
  
 This software is provided under written license and may be
 used, copied, transmitted, or stored only in accord with that
 written license.
  
 The following legend is applicable only to US Government
 contracts under FAR:
  
                    RESTRICTED RIGHTS LEGEND
  
 Use, reproduction and disclosure by the US Government is
 subject to restrictions as set forth in subparagraphs (a)
 and (c) of the Commercial Computer Software - Restricted
 Rights clause in FAR 52.227-19.
  
 Gaussian, Inc.
 340 Quinnipiac St., Bldg. 40, Wallingford CT 06492
  
  
 ---------------------------------------------------------------
 Warning -- This program may not be used in any manner that
 competes with the business of Gaussian, Inc. or will provide
 assistance to any competitor of Gaussian, Inc.  The licensee
 of this program is prohibited from giving any competitor of
 Gaussian, Inc. access to this program.  By using this program,
 the user acknowledges that Gaussian, Inc. is engaged in the
 business of creating and licensing software in the field of
 computational chemistry and represents and warrants to the
 licensee that it is not a competitor of Gaussian, Inc. and that
 it will not use this program in any manner prohibited above.
 ---------------------------------------------------------------
  

 Cite this work as:
 Gaussian 16, Revision B.01,
 M. J. Frisch, G. W. Trucks, H. B. Schlegel, G. E. Scuseria, 
 M. A. Robb, J. R. Cheeseman, G. Scalmani, V. Barone, 
 G. A. Petersson, H. Nakatsuji, X. Li, M. Caricato, A. V. Marenich, 
 J. Bloino, B. G. Janesko, R. Gomperts, B. Mennucci, H. P. Hratchian, 
 J. V. Ortiz, A. F. Izmaylov, J. L. Sonnenberg, D. Williams-Young, 
 F. Ding, F. Lipparini, F. Egidi, J. Goings, B. Peng, A. Petrone, 
 T. Henderson, D. Ranasinghe, V. G. Zakrzewski, J. Gao, N. Rega, 
 G. Zheng, W. Liang, M. Hada, M. Ehara, K. Toyota, R. Fukuda, 
 J. Hasegawa, M. Ishida, T. Nakajima, Y. Honda, O. Kitao, H. Nakai, 
 T. Vreven, K. Throssell, J. A. Montgomery, Jr., J. E. Peralta, 
 F. Ogliaro, M. J. Bearpark, J. J. Heyd, E. N. Brothers, K. N. Kudin, 
 V. N. Staroverov, T. A. Keith, R. Kobayashi, J. Normand, 
 K. Raghavachari, A. P. Rendell, J. C. Burant, S. S. Iyengar, 
 J. Tomasi, M. Cossi, J. M. Millam, M. Klene, C. Adamo, R. Cammi, 
 J. W. Ochterski, R. L. Martin, K. Morokuma, O. Farkas, 
 J. B. Foresman, and D. J. Fox, Gaussian, Inc., Wallingford CT, 2016.
 
 ******************************************
 Gaussian 16:  ES64L-G16RevB.01 20-Dec-2017
                 1-Jun-2019 
 ******************************************
 %mem=80GB
 %nproc=40
 Will use up to   40 processors via shared memory.
 -----------------------------------------------
 # opt=maxcyc=500 freq=noraman uB2PLYPD3/cc-pvtz
 -----------------------------------------------
 1/6=500,18=20,19=15,38=1/1,3;
 2/9=110,12=2,17=6,18=5,40=1/2;
 3/5=16,6=1,11=2,25=1,30=1,71=1,74=-60,116=2/1,2,3;
 4//1;
 5/5=2,38=5/2;
 8/6=4,10=1/1;
 9/15=2,16=-3/6;
 10/5=1/2;
 6/7=2,8=2,9=2,10=2/1;
 7/12=2/1,2,3,16;
 1/6=500,18=20,19=15/3(2);
 2/9=110/2;
 99//99;
 2/9=110/2;
 3/5=16,6=1,11=2,25=1,30=1,71=1,74=-60,116=2/1,2,3;
 4/5=5,16=3,69=1/1;
 5/5=2,38=5/2;
 8/6=4,10=1/1;
 9/15=2,16=-3/6;
 10/5=1/2;
 7/12=2/1,2,3,16;
 1/6=500,18=20,19=15/3(-8);
 2/9=110/2;
 6/7=2,8=2,9=2,10=2/1;
 99/9=10/99;
 -------------------
 Title Card Required
 -------------------
 Symbolic Z-matrix:
 Charge =  0 Multiplicity = 2
 C                     1.08311  -0.17983  -0.00007 
 H                     1.12847  -0.80244  -0.89006 
 H                     1.86316   0.57566  -0.00928 
 H                     1.13712  -0.78898   0.89902 
 O                    -0.15929   0.53818   0.00009 
 O                    -1.16914  -0.27634   0.00001 
 

 GradGradGradGradGradGradGradGradGradGradGradGradGradGradGradGradGradGrad
 Berny optimization.
 Initialization pass.
                           ----------------------------
                           !    Initial Parameters    !
                           ! (Angstroms and Degrees)  !
 --------------------------                            --------------------------
 ! Name  Definition              Value          Derivative Info.                !
 --------------------------------------------------------------------------------
 ! R1    R(1,2)                  1.0871         estimate D2E/DX2                !
 ! R2    R(1,3)                  1.086          estimate D2E/DX2                !
 ! R3    R(1,4)                  1.0874         estimate D2E/DX2                !
 ! R4    R(1,5)                  1.435          estimate D2E/DX2                !
 ! R5    R(5,6)                  1.2974         estimate D2E/DX2                !
 ! A1    A(2,1,3)              111.1936         estimate D2E/DX2                !
 ! A2    A(2,1,4)              110.733          estimate D2E/DX2                !
 ! A3    A(2,1,5)              108.8316         estimate D2E/DX2                !
 ! A4    A(3,1,4)              111.1657         estimate D2E/DX2                !
 ! A5    A(3,1,5)              105.8914         estimate D2E/DX2                !
 ! A6    A(4,1,5)              108.8585         estimate D2E/DX2                !
 ! A7    A(1,5,6)              111.087          estimate D2E/DX2                !
 ! D1    D(2,1,5,6)             59.8705         estimate D2E/DX2                !
 ! D2    D(3,1,5,6)            179.49           estimate D2E/DX2                !
 ! D3    D(4,1,5,6)            -60.9094         estimate D2E/DX2                !
 --------------------------------------------------------------------------------
 Trust Radius=3.00D-01 FncErr=1.00D-07 GrdErr=1.00D-07 EigMax=2.50D+02 EigMin=1.00D-04
 Number of steps in this run=    100 maximum allowed number of steps=    100.
 GradGradGradGradGradGradGradGradGradGradGradGradGradGradGradGradGradGrad

                          Input orientation:                          
 ---------------------------------------------------------------------
 Center     Atomic      Atomic             Coordinates (Angstroms)
 Number     Number       Type             X           Y           Z
 ---------------------------------------------------------------------
      1          6           0        1.083109   -0.179828   -0.000068
      2          1           0        1.128466   -0.802441   -0.890058
      3          1           0        1.863156    0.575661   -0.009284
      4          1           0        1.137123   -0.788976    0.899021
      5          8           0       -0.159290    0.538176    0.000086
      6          8           0       -1.169135   -0.276336    0.000005
 ---------------------------------------------------------------------
                    Distance matrix (angstroms):
                    1          2          3          4          5
     1  C    0.000000
     2  H    1.087100   0.000000
     3  H    1.085966   1.792958   0.000000
     4  H    1.087355   1.789151   1.792868   0.000000
     5  O    1.434951   2.061050   2.022815   2.061578   0.000000
     6  O    2.254311   2.519518   3.149726   2.527816   1.297388
                    6
     6  O    0.000000
 Stoichiometry    CH3O2(2)
 Framework group  C1[X(CH3O2)]
 Deg. of freedom    12
 Full point group                 C1      NOp   1
 Largest Abelian subgroup         C1      NOp   1
 Largest concise Abelian subgroup C1      NOp   1
                         Standard orientation:                         
 ---------------------------------------------------------------------
 Center     Atomic      Atomic             Coordinates (Angstroms)
 Number     Number       Type             X           Y           Z
 ---------------------------------------------------------------------
      1          6           0        1.083109   -0.179828   -0.000068
      2          1           0        1.128466   -0.802441   -0.890058
      3          1           0        1.863156    0.575661   -0.009284
      4          1           0        1.137123   -0.788976    0.899021
      5          8           0       -0.159290    0.538176    0.000086
      6          8           0       -1.169135   -0.276336    0.000005
 ---------------------------------------------------------------------
 Rotational constants (GHZ):          53.6227094          11.5626263          10.1264981
 Standard basis: CC-pVTZ (5D, 7F)
 There are   150 symmetry adapted cartesian basis functions of A   symmetry.
 There are   132 symmetry adapted basis functions of A   symmetry.
   132 basis functions,   207 primitive gaussians,   150 cartesian basis functions
    13 alpha electrons       12 beta electrons
       nuclear repulsion energy        75.6228958520 Hartrees.
 NAtoms=    6 NActive=    6 NUniq=    6 SFac= 1.00D+00 NAtFMM=   60 NAOKFM=F Big=F
 Integral buffers will be    131072 words long.
 Raffenetti 2 integral format.
 Two-electron integral symmetry is turned on.
 Nuclear repulsion after empirical dispersion term =       75.6213129256 Hartrees.
 One-electron integrals computed using PRISM.
 NBasis=   132 RedAO= T EigKep=  1.92D-03  NBF=   132
 NBsUse=   132 1.00D-06 EigRej= -1.00D+00 NBFU=   132
 ExpMin= 1.03D-01 ExpMax= 1.53D+04 ExpMxC= 5.22D+02 IAcc=3 IRadAn=         5 AccDes= 0.00D+00
 Harris functional with IExCor=  419 and IRadAn=       5 diagonalized for initial guess.
 HarFok:  IExCor=  419 AccDes= 0.00D+00 IRadAn=         5 IDoV= 1 UseB2=F ITyADJ=14
 ICtDFT=  3500011 ScaDFX=  1.000000  1.000000  1.000000  1.000000
 FoFCou: FMM=F IPFlag=           0 FMFlag=      100000 FMFlg1=           0
         NFxFlg=           0 DoJE=T BraDBF=F KetDBF=T FulRan=T
         wScrn=  0.000000 ICntrl=       500 IOpCl=  0 I1Cent=   200000004 NGrid=           0
         NMat0=    1 NMatS0=      1 NMatT0=    0 NMatD0=    1 NMtDS0=    0 NMtDT0=    0
 Petite list used in FoFCou.
 Initial guess <Sx>= 0.0000 <Sy>= 0.0000 <Sz>= 0.5000 <S**2>= 0.7500 S= 0.5000
 Keep R1 and R2 ints in memory in canonical form, NReq=116116796.
 Requested convergence on RMS density matrix=1.00D-08 within 128 cycles.
 Requested convergence on MAX density matrix=1.00D-06.
 Requested convergence on             energy=1.00D-06.
 No special actions if energy rises.
 Integral accuracy reduced to 1.0D-05 until final iterations.
 Initial convergence to 1.0D-05 achieved.  Increase integral accuracy.
 SCF Done:  E(UB2PLYPD3) =  -189.950554580     A.U. after   22 cycles
            NFock= 22  Conv=0.18D-08     -V/T= 2.0037
 <Sx>= 0.0000 <Sy>= 0.0000 <Sz>= 0.5000 <S**2>= 0.7574 S= 0.5037
 <L.S>=  0.00000000000    
 Annihilation of the first spin contaminant:
 S**2 before annihilation     0.7574,   after     0.7500
 DoSCS=T DFT=T ScalE2(SS,OS)=  0.270000  0.270000
 ExpMin= 1.03D-01 ExpMax= 1.53D+04 ExpMxC= 5.22D+02 IAcc=3 IRadAn=         5 AccDes= 0.00D+00
 HarFok:  IExCor=  205 AccDes= 0.00D+00 IRadAn=         5 IDoV=-2 UseB2=F ITyADJ=14
 ICtDFT= 12500011 ScaDFX=  1.000000  1.000000  1.000000  1.000000
 Range of M.O.s used for correlation:     4   132
 NBasis=   132 NAE=    13 NBE=    12 NFC=     3 NFV=     0
 NROrb=    129 NOA=    10 NOB=     9 NVA=   119 NVB=   120

 **** Warning!!: The largest alpha MO coefficient is  0.12003596D+02


 **** Warning!!: The largest beta MO coefficient is  0.12003050D+02

 DoSCS=T DFT=T ScalE2(SS,OS)=  0.270000  0.270000
 Fully direct method using O(ONN) memory.
 JobTyp=2 Pass  1:  I=   4 to  13 NPSUse= 40 ParTrn=T ParDer=T DoDerP=T.
 JobTyp=3 Pass  1:  I=   4 to  12 NPSUse= 40 ParTrn=T ParDer=T DoDerP=T.
 Spin components of T(2) and E(2):
     alpha-alpha T2 =       0.2863868540D-01 E2=     -0.2550101897D-01
     alpha-beta  T2 =       0.1823649113D+00 E2=     -0.1528311283D+00
     beta-beta   T2 =       0.3714763298D-01 E2=     -0.2557675091D-01
 (S**2,0)=  0.75736D+00           (S**2,1)=  0.74558D+00
 Scaling Projection term by:   0.270000
 E(PUHF)=      -0.18995462574D+03        E(PMP2)=      -0.19015468506D+03
 E2(B2PLYPD3) =    -0.2039088982D+00 E(B2PLYPD3) =    -0.19015446347793D+03
          IDoAtm=111111
          Differentiating once with respect to electric field.
                with respect to dipole field.
          Differentiating once with respect to nuclear coordinates.
 Keep R1 and R2 ints in memory in canonical form, NReq=116120968.
          There are     1 degrees of freedom in the 1st order CPHF.  IDoFFX=0 NUNeed=     1.
 LinEq1:  Iter=  0 NonCon=     1 RMS=1.62D-03 Max=6.33D-02 NDo=     1
 AX will form     1 AO Fock derivatives at one time.
 LinEq1:  Iter=  1 NonCon=     1 RMS=5.61D-04 Max=9.93D-03 NDo=     1
 LinEq1:  Iter=  2 NonCon=     1 RMS=5.27D-04 Max=1.48D-02 NDo=     1
 LinEq1:  Iter=  3 NonCon=     1 RMS=2.17D-04 Max=2.28D-03 NDo=     1
 LinEq1:  Iter=  4 NonCon=     1 RMS=7.71D-05 Max=1.05D-03 NDo=     1
 LinEq1:  Iter=  5 NonCon=     1 RMS=2.14D-05 Max=3.00D-04 NDo=     1
 LinEq1:  Iter=  6 NonCon=     1 RMS=1.39D-05 Max=2.52D-04 NDo=     1
 LinEq1:  Iter=  7 NonCon=     1 RMS=4.39D-06 Max=7.24D-05 NDo=     1
 LinEq1:  Iter=  8 NonCon=     1 RMS=1.08D-06 Max=1.38D-05 NDo=     1
 LinEq1:  Iter=  9 NonCon=     1 RMS=2.49D-07 Max=5.46D-06 NDo=     1
 LinEq1:  Iter= 10 NonCon=     1 RMS=5.95D-08 Max=1.25D-06 NDo=     1
 LinEq1:  Iter= 11 NonCon=     1 RMS=1.98D-08 Max=5.67D-07 NDo=     1
 LinEq1:  Iter= 12 NonCon=     1 RMS=7.32D-09 Max=2.60D-07 NDo=     1
 LinEq1:  Iter= 13 NonCon=     1 RMS=2.39D-09 Max=4.45D-08 NDo=     1
 LinEq1:  Iter= 14 NonCon=     1 RMS=6.27D-10 Max=1.25D-08 NDo=     1
 LinEq1:  Iter= 15 NonCon=     1 RMS=1.47D-10 Max=1.66D-09 NDo=     1
 LinEq1:  Iter= 16 NonCon=     0 RMS=4.06D-11 Max=5.42D-10 NDo=     1
 Linear equations converged to 1.000D-10 1.000D-09 after    16 iterations.
 End of Minotr F.D. properties file   721 does not exist.
 End of Minotr F.D. properties file   722 does not exist.
 End of Minotr F.D. properties file   788 does not exist.

 **********************************************************************

            Population analysis using the SCF Density.

 **********************************************************************

 Orbital symmetries:
 Alpha Orbitals:
       Occupied  (A) (A) (A) (A) (A) (A) (A) (A) (A) (A) (A) (A)
                 (A)
       Virtual   (A) (A) (A) (A) (A) (A) (A) (A) (A) (A) (A) (A)
                 (A) (A) (A) (A) (A) (A) (A) (A) (A) (A) (A) (A)
                 (A) (A) (A) (A) (A) (A) (A) (A) (A) (A) (A) (A)
                 (A) (A) (A) (A) (A) (A) (A) (A) (A) (A) (A) (A)
                 (A) (A) (A) (A) (A) (A) (A) (A) (A) (A) (A) (A)
                 (A) (A) (A) (A) (A) (A) (A) (A) (A) (A) (A) (A)
                 (A) (A) (A) (A) (A) (A) (A) (A) (A) (A) (A) (A)
                 (A) (A) (A) (A) (A) (A) (A) (A) (A) (A) (A) (A)
                 (A) (A) (A) (A) (A) (A) (A) (A) (A) (A) (A) (A)
                 (A) (A) (A) (A) (A) (A) (A) (A) (A) (A) (A)
 Beta  Orbitals:
       Occupied  (A) (A) (A) (A) (A) (A) (A) (A) (A) (A) (A) (A)
       Virtual   (A) (A) (A) (A) (A) (A) (A) (A) (A) (A) (A) (A)
                 (A) (A) (A) (A) (A) (A) (A) (A) (A) (A) (A) (A)
                 (A) (A) (A) (A) (A) (A) (A) (A) (A) (A) (A) (A)
                 (A) (A) (A) (A) (A) (A) (A) (A) (A) (A) (A) (A)
                 (A) (A) (A) (A) (A) (A) (A) (A) (A) (A) (A) (A)
                 (A) (A) (A) (A) (A) (A) (A) (A) (A) (A) (A) (A)
                 (A) (A) (A) (A) (A) (A) (A) (A) (A) (A) (A) (A)
                 (A) (A) (A) (A) (A) (A) (A) (A) (A) (A) (A) (A)
                 (A) (A) (A) (A) (A) (A) (A) (A) (A) (A) (A) (A)
                 (A) (A) (A) (A) (A) (A) (A) (A) (A) (A) (A) (A)
 The electronic state is 2-A.
 Alpha  occ. eigenvalues --  -19.84395 -19.81114 -10.68116  -1.36402  -1.01924
 Alpha  occ. eigenvalues --   -0.79740  -0.62547  -0.59766  -0.59157  -0.49831
 Alpha  occ. eigenvalues --   -0.47763  -0.37072  -0.36842
 Alpha virt. eigenvalues --    0.08237   0.13798   0.13930   0.14807   0.23810
 Alpha virt. eigenvalues --    0.29228   0.30448   0.40818   0.48807   0.50090
 Alpha virt. eigenvalues --    0.50154   0.53733   0.56219   0.58373   0.62507
 Alpha virt. eigenvalues --    0.66331   0.71303   0.75217   0.77304   0.88236
 Alpha virt. eigenvalues --    0.92272   1.00565   1.01422   1.05711   1.07264
 Alpha virt. eigenvalues --    1.13352   1.17581   1.26099   1.29195   1.33651
 Alpha virt. eigenvalues --    1.36615   1.37230   1.49538   1.50317   1.56902
 Alpha virt. eigenvalues --    1.59002   1.65637   1.77218   1.94655   2.06112
 Alpha virt. eigenvalues --    2.07122   2.22127   2.25112   2.33787   2.35325
 Alpha virt. eigenvalues --    2.39025   2.48457   2.66976   2.79570   2.88427
 Alpha virt. eigenvalues --    2.90241   2.96787   3.01178   3.07924   3.09603
 Alpha virt. eigenvalues --    3.12337   3.13260   3.19586   3.37748   3.38061
 Alpha virt. eigenvalues --    3.48346   3.49417   3.51282   3.55541   3.58953
 Alpha virt. eigenvalues --    3.70898   3.78956   3.87263   3.89730   3.91210
 Alpha virt. eigenvalues --    3.92463   3.97581   4.08919   4.14179   4.14876
 Alpha virt. eigenvalues --    4.24757   4.28053   4.31397   4.41828   4.70312
 Alpha virt. eigenvalues --    4.75457   4.81684   4.84374   4.84866   4.94862
 Alpha virt. eigenvalues --    4.95188   5.02566   5.05730   5.21746   5.24876
 Alpha virt. eigenvalues --    5.24976   5.31710   5.32102   5.37183   5.37419
 Alpha virt. eigenvalues --    5.39829   5.51886   5.67239   5.84460   5.90696
 Alpha virt. eigenvalues --    5.93640   6.03942   6.19202   6.39046   6.41313
 Alpha virt. eigenvalues --    6.44322   6.51662   6.59381   6.59791   6.83779
 Alpha virt. eigenvalues --    6.91483   6.92736   7.13023   7.25247   7.47282
 Alpha virt. eigenvalues --    7.63509   8.91670  11.30748  13.34372
  Beta  occ. eigenvalues --  -19.83296 -19.78491 -10.68176  -1.32499  -0.96739
  Beta  occ. eigenvalues --   -0.78029  -0.58332  -0.57869  -0.55758  -0.47145
  Beta  occ. eigenvalues --   -0.42126  -0.34773
  Beta virt. eigenvalues --   -0.01759   0.08274   0.13949   0.14324   0.15418
  Beta virt. eigenvalues --    0.26039   0.29474   0.30527   0.41085   0.48911
  Beta virt. eigenvalues --    0.50173   0.50220   0.53874   0.58602   0.58716
  Beta virt. eigenvalues --    0.63238   0.66922   0.75716   0.75849   0.79870
  Beta virt. eigenvalues --    0.88382   0.92459   1.00876   1.01708   1.05860
  Beta virt. eigenvalues --    1.07726   1.13488   1.17708   1.27682   1.30475
  Beta virt. eigenvalues --    1.34283   1.36802   1.37552   1.50182   1.52919
  Beta virt. eigenvalues --    1.57487   1.62548   1.68411   1.77944   1.96232
  Beta virt. eigenvalues --    2.07494   2.07729   2.24334   2.26378   2.35448
  Beta virt. eigenvalues --    2.35880   2.39601   2.48708   2.67170   2.79635
  Beta virt. eigenvalues --    2.88576   2.90252   2.96907   3.01179   3.08091
  Beta virt. eigenvalues --    3.09819   3.12451   3.13615   3.19590   3.37941
  Beta virt. eigenvalues --    3.38143   3.49278   3.50006   3.51344   3.55775
  Beta virt. eigenvalues --    3.59056   3.76608   3.79576   3.87943   3.90653
  Beta virt. eigenvalues --    3.91345   3.96248   3.98285   4.10436   4.14272
  Beta virt. eigenvalues --    4.15194   4.25104   4.29388   4.31523   4.42207
  Beta virt. eigenvalues --    4.70856   4.76138   4.82116   4.86006   4.87186
  Beta virt. eigenvalues --    4.95824   4.95971   5.03212   5.07837   5.22897
  Beta virt. eigenvalues --    5.27887   5.28330   5.33393   5.34500   5.37702
  Beta virt. eigenvalues --    5.38054   5.40329   5.53390   5.69042   5.86054
  Beta virt. eigenvalues --    5.90774   5.94101   6.06020   6.21681   6.44763
  Beta virt. eigenvalues --    6.47387   6.48532   6.55045   6.63231   6.63695
  Beta virt. eigenvalues --    6.84906   6.94167   6.94613   7.14458   7.28454
  Beta virt. eigenvalues --    7.47714   7.64528   8.94707  11.32548  13.34361
          Condensed to atoms (all electrons):
               1          2          3          4          5          6
     1  C    4.630528   0.407470   0.394911   0.407485   0.271868  -0.045876
     2  H    0.407470   0.598776  -0.028116  -0.041297  -0.036113   0.001891
     3  H    0.394911  -0.028116   0.576096  -0.028443  -0.019568   0.006323
     4  H    0.407485  -0.041297  -0.028443   0.599306  -0.036048   0.001710
     5  O    0.271868  -0.036113  -0.019568  -0.036048   7.797992   0.102349
     6  O   -0.045876   0.001891   0.006323   0.001710   0.102349   8.080206
          Atomic-Atomic Spin Densities.
               1          2          3          4          5          6
     1  C   -0.031482  -0.001604   0.001780  -0.001425   0.011807  -0.005437
     2  H   -0.001604   0.026820  -0.000157  -0.009527  -0.007145   0.004819
     3  H    0.001780  -0.000157  -0.002979  -0.000114  -0.000267  -0.000297
     4  H   -0.001425  -0.009527  -0.000114   0.026719  -0.007184   0.004853
     5  O    0.011807  -0.007145  -0.000267  -0.007184   0.378617  -0.143257
     6  O   -0.005437   0.004819  -0.000297   0.004853  -0.143257   0.908613
 Mulliken charges and spin densities:
               1          2
     1  C   -0.066388  -0.026361
     2  H    0.097388   0.013206
     3  H    0.098797  -0.002033
     4  H    0.097287   0.013322
     5  O   -0.080480   0.232571
     6  O   -0.146605   0.769294
 Sum of Mulliken charges =  -0.00000   1.00000
 Mulliken charges and spin densities with hydrogens summed into heavy atoms:
               1          2
     1  C    0.227085  -0.001865
     5  O   -0.080480   0.232571
     6  O   -0.146605   0.769294
 Electronic spatial extent (au):  <R**2>=            147.9532
 Charge=             -0.0000 electrons
 Dipole moment (field-independent basis, Debye):
    X=              2.5370    Y=             -0.4804    Z=             -0.0008  Tot=              2.5820
 Quadrupole moment (field-independent basis, Debye-Ang):
   XX=            -17.2721   YY=            -18.1948   ZZ=            -16.8699
   XY=             -0.1691   XZ=             -0.0007   YZ=             -0.0006
 Traceless Quadrupole moment (field-independent basis, Debye-Ang):
   XX=              0.1735   YY=             -0.7492   ZZ=              0.5757
   XY=             -0.1691   XZ=             -0.0007   YZ=             -0.0006
 Octapole moment (field-independent basis, Debye-Ang**2):
  XXX=              0.0620  YYY=              0.9028  ZZZ=              0.0172  XYY=             -0.2934
  XXY=              0.9609  XXZ=             -0.0061  XZZ=             -1.4296  YZZ=             -0.5819
  YYZ=             -0.0151  XYZ=             -0.0079
 Hexadecapole moment (field-independent basis, Debye-Ang**3):
 XXXX=           -120.1100 YYYY=            -35.8058 ZZZZ=            -20.7681 XXXY=              3.0528
 XXXZ=             -0.0213 YYYX=              0.9092 YYYZ=              0.0172 ZZZX=              0.0261
 ZZZY=             -0.0072 XXYY=            -24.3415 XXZZ=            -23.3974 YYZZ=             -8.7299
 XXYZ=             -0.0246 YYXZ=             -0.0164 ZZXY=             -0.5729
 N-N= 7.562131292563D+01 E-N=-5.988707204000D+02  KE= 1.892470425598D+02
                          Isotropic Fermi Contact Couplings
        Atom                 a.u.       MegaHertz       Gauss      10(-4) cm-1
     1  C(13)             -0.01379     -15.49989      -5.53075      -5.17021
     2  H(1)               0.00575      25.71269       9.17493       8.57683
     3  H(1)              -0.00042      -1.87691      -0.66973      -0.62607
     4  H(1)               0.00587      26.22373       9.35728       8.74729
     5  O(17)              0.05029     -30.48386     -10.87740     -10.16832
     6  O(17)              0.04942     -29.96093     -10.69081      -9.99389
 --------------------------------------------------------
       Center         ----  Spin Dipole Couplings  ----
                      3XX-RR        3YY-RR        3ZZ-RR
 --------------------------------------------------------
     1   Atom        0.020300     -0.004425     -0.015875
     2   Atom        0.010545     -0.003631     -0.006914
     3   Atom        0.015859     -0.008777     -0.007082
     4   Atom        0.010551     -0.003732     -0.006819
     5   Atom       -0.813589     -0.870130      1.683719
     6   Atom       -1.513212     -1.492324      3.005536
 --------------------------------------------------------
                        XY            XZ            YZ
 --------------------------------------------------------
     1   Atom       -0.009069     -0.000021     -0.000069
     2   Atom       -0.008921     -0.008203      0.003792
     3   Atom        0.001300     -0.000084      0.000012
     4   Atom       -0.008778      0.008244     -0.003764
     5   Atom       -0.021993      0.000145     -0.001314
     6   Atom       -0.023600      0.001040     -0.003724
 --------------------------------------------------------


 ---------------------------------------------------------------------------------
              Anisotropic Spin Dipole Couplings in Principal Axis System
 ---------------------------------------------------------------------------------

       Atom             a.u.   MegaHertz   Gauss  10(-4) cm-1        Axes

              Baa    -0.0159    -2.130    -0.760    -0.711  0.0026  0.0080  1.0000
     1 C(13)  Bbb    -0.0074    -0.992    -0.354    -0.331  0.3112  0.9503 -0.0085
              Bcc     0.0233     3.123     1.114     1.042  0.9503 -0.3112  0.0000
 
              Baa    -0.0102    -5.434    -1.939    -1.813  0.3325 -0.0906  0.9387
     2 H(1)   Bbb    -0.0079    -4.230    -1.509    -1.411  0.4129  0.9089 -0.0585
              Bcc     0.0181     9.664     3.449     3.224  0.8479 -0.4071 -0.3396
 
              Baa    -0.0088    -4.720    -1.684    -1.574 -0.0526  0.9986 -0.0093
     3 H(1)   Bbb    -0.0071    -3.779    -1.348    -1.260  0.0031  0.0095  0.9999
              Bcc     0.0159     8.498     3.032     2.835  0.9986  0.0526 -0.0036
 
              Baa    -0.0101    -5.405    -1.929    -1.803 -0.3344  0.0929  0.9378
     4 H(1)   Bbb    -0.0079    -4.214    -1.504    -1.406  0.4087  0.9110  0.0554
              Bcc     0.0180     9.620     3.433     3.209  0.8492 -0.4018  0.3426
 
              Baa    -0.8777    63.508    22.661    21.184  0.3246  0.9459  0.0005
     5 O(17)  Bbb    -0.8060    58.325    20.812    19.455  0.9459 -0.3246 -0.0002
              Bcc     1.6837  -121.833   -43.473   -40.639  0.0001 -0.0005  1.0000
 
              Baa    -1.5286   110.607    39.467    36.894  0.8381  0.5456  0.0003
     6 O(17)  Bbb    -1.4770   106.872    38.135    35.649 -0.5456  0.8381  0.0008
              Bcc     3.0055  -217.479   -77.602   -72.543  0.0002 -0.0008  1.0000
 

 ---------------------------------------------------------------------------------

 Calling FoFJK, ICntrl=  10002127 FMM=F ISym2X=0 I1Cent= 0 IOpClX= 1 NMat=1 NMatS=1 NMatT=0.
 ***** Axes restored to original set *****
 -------------------------------------------------------------------
 Center     Atomic                   Forces (Hartrees/Bohr)
 Number     Number              X              Y              Z
 -------------------------------------------------------------------
      1        6           0.004482222   -0.003306914    0.000073140
      2        1           0.000459280    0.000187918    0.000749513
      3        1          -0.000228918   -0.000387858    0.000013797
      4        1           0.000402093    0.000245805   -0.000853839
      5        8           0.009019788    0.014617728   -0.000004073
      6        8          -0.014134465   -0.011356678    0.000021462
 -------------------------------------------------------------------
 Cartesian Forces:  Max     0.014617728 RMS     0.006040538

 GradGradGradGradGradGradGradGradGradGradGradGradGradGradGradGradGradGrad
 Berny optimization.
 FormGI is forming the generalized inverse of G from B-inverse, IUseBI=4.
 Internal  Forces:  Max     0.018131669 RMS     0.004955450
 Search for a local minimum.
 Step number   1 out of a maximum of  100
 All quantities printed in internal units (Hartrees-Bohrs-Radians)
 Mixed Optimization -- RFO/linear search
 Second derivative matrix not updated -- first step.
 The second derivative matrix:
                          R1        R2        R3        R4        R5
           R1           0.35150
           R2           0.00000   0.35283
           R3           0.00000   0.00000   0.35120
           R4           0.00000   0.00000   0.00000   0.40286
           R5           0.00000   0.00000   0.00000   0.00000   0.67924
           A1           0.00000   0.00000   0.00000   0.00000   0.00000
           A2           0.00000   0.00000   0.00000   0.00000   0.00000
           A3           0.00000   0.00000   0.00000   0.00000   0.00000
           A4           0.00000   0.00000   0.00000   0.00000   0.00000
           A5           0.00000   0.00000   0.00000   0.00000   0.00000
           A6           0.00000   0.00000   0.00000   0.00000   0.00000
           A7           0.00000   0.00000   0.00000   0.00000   0.00000
           D1           0.00000   0.00000   0.00000   0.00000   0.00000
           D2           0.00000   0.00000   0.00000   0.00000   0.00000
           D3           0.00000   0.00000   0.00000   0.00000   0.00000
                          A1        A2        A3        A4        A5
           A1           0.16000
           A2           0.00000   0.16000
           A3           0.00000   0.00000   0.16000
           A4           0.00000   0.00000   0.00000   0.16000
           A5           0.00000   0.00000   0.00000   0.00000   0.16000
           A6           0.00000   0.00000   0.00000   0.00000   0.00000
           A7           0.00000   0.00000   0.00000   0.00000   0.00000
           D1           0.00000   0.00000   0.00000   0.00000   0.00000
           D2           0.00000   0.00000   0.00000   0.00000   0.00000
           D3           0.00000   0.00000   0.00000   0.00000   0.00000
                          A6        A7        D1        D2        D3
           A6           0.16000
           A7           0.00000   0.25000
           D1           0.00000   0.00000   0.01229
           D2           0.00000   0.00000   0.00000   0.01229
           D3           0.00000   0.00000   0.00000   0.00000   0.01229
 ITU=  0
     Eigenvalues ---    0.01229   0.10458   0.10738   0.16000   0.16000
     Eigenvalues ---    0.16000   0.25000   0.35120   0.35150   0.35283
     Eigenvalues ---    0.40286   0.67924
 RFO step:  Lambda=-5.88012203D-04 EMin= 1.22944257D-02
 Linear search not attempted -- first point.
 Iteration  1 RMS(Cart)=  0.00966532 RMS(Int)=  0.00000965
 Iteration  2 RMS(Cart)=  0.00000887 RMS(Int)=  0.00000422
 Iteration  3 RMS(Cart)=  0.00000000 RMS(Int)=  0.00000422
 Variable       Old X    -DE/DX   Delta X   Delta X   Delta X     New X
                                 (Linear)    (Quad)   (Total)
    R1        2.05432  -0.00070   0.00000  -0.00199  -0.00199   2.05233
    R2        2.05218  -0.00043   0.00000  -0.00123  -0.00123   2.05095
    R3        2.05480  -0.00082   0.00000  -0.00234  -0.00234   2.05246
    R4        2.71166   0.00606   0.00000   0.01502   0.01502   2.72669
    R5        2.45171   0.01813   0.00000   0.02667   0.02667   2.47838
    A1        1.94069  -0.00034   0.00000  -0.00228  -0.00228   1.93842
    A2        1.93266  -0.00055   0.00000  -0.00309  -0.00310   1.92956
    A3        1.89947   0.00073   0.00000   0.00463   0.00463   1.90410
    A4        1.94021  -0.00033   0.00000  -0.00228  -0.00228   1.93792
    A5        1.84815  -0.00007   0.00000  -0.00062  -0.00062   1.84753
    A6        1.89994   0.00065   0.00000   0.00411   0.00410   1.90404
    A7        1.93883   0.00008   0.00000   0.00033   0.00033   1.93917
    D1        1.04494   0.00009   0.00000   0.00204   0.00205   1.04699
    D2        3.13269   0.00003   0.00000   0.00143   0.00143   3.13412
    D3       -1.06307  -0.00007   0.00000   0.00054   0.00054  -1.06253
         Item               Value     Threshold  Converged?
 Maximum Force            0.018132     0.000450     NO 
 RMS     Force            0.004955     0.000300     NO 
 Maximum Displacement     0.029376     0.001800     NO 
 RMS     Displacement     0.009667     0.001200     NO 
 Predicted change in Energy=-2.943058D-04
 GradGradGradGradGradGradGradGradGradGradGradGradGradGradGradGradGradGrad

                          Input orientation:                          
 ---------------------------------------------------------------------
 Center     Atomic      Atomic             Coordinates (Angstroms)
 Number     Number       Type             X           Y           Z
 ---------------------------------------------------------------------
      1          6           0        1.085877   -0.180383   -0.000224
      2          1           0        1.135235   -0.803475   -0.888376
      3          1           0        1.866299    0.573789   -0.008982
      4          1           0        1.142849   -0.789939    0.896906
      5          8           0       -0.162151    0.543763   -0.000367
      6          8           0       -1.184680   -0.277499    0.000745
 ---------------------------------------------------------------------
                    Distance matrix (angstroms):
                    1          2          3          4          5
     1  C    0.000000
     2  H    1.086045   0.000000
     3  H    1.085315   1.790152   0.000000
     4  H    1.086115   1.785349   1.789906   0.000000
     5  O    1.442900   2.070463   2.028690   2.070479   0.000000
     6  O    2.272633   2.539526   3.167532   2.546192   1.311502
                    6
     6  O    0.000000
 Stoichiometry    CH3O2(2)
 Framework group  C1[X(CH3O2)]
 Deg. of freedom    12
 Full point group                 C1      NOp   1
 Largest Abelian subgroup         C1      NOp   1
 Largest concise Abelian subgroup C1      NOp   1
                         Standard orientation:                         
 ---------------------------------------------------------------------
 Center     Atomic      Atomic             Coordinates (Angstroms)
 Number     Number       Type             X           Y           Z
 ---------------------------------------------------------------------
      1          6           0        1.090427   -0.181810   -0.000044
      2          1           0        1.139934   -0.804113   -0.888741
      3          1           0        1.871059    0.572155   -0.007839
      4          1           0        1.146908   -0.792192    0.896555
      5          8           0       -0.157401    0.542678    0.000017
      6          8           0       -1.180157   -0.278302    0.000019
 ---------------------------------------------------------------------
 Rotational constants (GHZ):          53.0622352          11.3898622           9.9714082
 Standard basis: CC-pVTZ (5D, 7F)
 There are   150 symmetry adapted cartesian basis functions of A   symmetry.
 There are   132 symmetry adapted basis functions of A   symmetry.
   132 basis functions,   207 primitive gaussians,   150 cartesian basis functions
    13 alpha electrons       12 beta electrons
       nuclear repulsion energy        75.1060147495 Hartrees.
 NAtoms=    6 NActive=    6 NUniq=    6 SFac= 1.00D+00 NAtFMM=   60 NAOKFM=F Big=F
 Integral buffers will be    131072 words long.
 Raffenetti 2 integral format.
 Two-electron integral symmetry is turned on.
 Nuclear repulsion after empirical dispersion term =       75.1044345572 Hartrees.
 One-electron integrals computed using PRISM.
 NBasis=   132 RedAO= T EigKep=  1.91D-03  NBF=   132
 NBsUse=   132 1.00D-06 EigRej= -1.00D+00 NBFU=   132
 Initial guess from the checkpoint file:  "/localscratch/339542/Gau-78147.chk"
 B after Tr=     0.000000   -0.000000    0.000000
         Rot=    1.000000   -0.000216    0.000057    0.000421 Ang=  -0.05 deg.
 Initial guess <Sx>= 0.0000 <Sy>= 0.0000 <Sz>= 0.5000 <S**2>= 0.7574 S= 0.5037
 ExpMin= 1.03D-01 ExpMax= 1.53D+04 ExpMxC= 5.22D+02 IAcc=3 IRadAn=         5 AccDes= 0.00D+00
 Harris functional with IExCor=  419 and IRadAn=       5 diagonalized for initial guess.
 HarFok:  IExCor=  419 AccDes= 0.00D+00 IRadAn=         5 IDoV= 1 UseB2=F ITyADJ=14
 ICtDFT=  3500011 ScaDFX=  1.000000  1.000000  1.000000  1.000000
 FoFCou: FMM=F IPFlag=           0 FMFlag=      100000 FMFlg1=           0
         NFxFlg=           0 DoJE=T BraDBF=F KetDBF=T FulRan=T
         wScrn=  0.000000 ICntrl=       500 IOpCl=  0 I1Cent=   200000004 NGrid=           0
         NMat0=    1 NMatS0=      1 NMatT0=    0 NMatD0=    1 NMtDS0=    0 NMtDT0=    0
 Petite list used in FoFCou.
 Keep R1 and R2 ints in memory in canonical form, NReq=116116796.
 Requested convergence on RMS density matrix=1.00D-08 within 128 cycles.
 Requested convergence on MAX density matrix=1.00D-06.
 Requested convergence on             energy=1.00D-06.
 No special actions if energy rises.
 Integral accuracy reduced to 1.0D-05 until final iterations.
 Initial convergence to 1.0D-05 achieved.  Increase integral accuracy.
 SCF Done:  E(UB2PLYPD3) =  -189.950319288     A.U. after   16 cycles
            NFock= 16  Conv=0.43D-08     -V/T= 2.0039
 <Sx>= 0.0000 <Sy>= 0.0000 <Sz>= 0.5000 <S**2>= 0.7574 S= 0.5037
 <L.S>=  0.00000000000    
 Annihilation of the first spin contaminant:
 S**2 before annihilation     0.7574,   after     0.7500
 DoSCS=T DFT=T ScalE2(SS,OS)=  0.270000  0.270000
 ExpMin= 1.03D-01 ExpMax= 1.53D+04 ExpMxC= 5.22D+02 IAcc=3 IRadAn=         5 AccDes= 0.00D+00
 HarFok:  IExCor=  205 AccDes= 0.00D+00 IRadAn=         5 IDoV=-2 UseB2=F ITyADJ=14
 ICtDFT= 12500011 ScaDFX=  1.000000  1.000000  1.000000  1.000000
 Range of M.O.s used for correlation:     4   132
 NBasis=   132 NAE=    13 NBE=    12 NFC=     3 NFV=     0
 NROrb=    129 NOA=    10 NOB=     9 NVA=   119 NVB=   120

 **** Warning!!: The largest alpha MO coefficient is  0.12009347D+02


 **** Warning!!: The largest beta MO coefficient is  0.12008955D+02

 DoSCS=T DFT=T ScalE2(SS,OS)=  0.270000  0.270000
 Fully direct method using O(ONN) memory.
 JobTyp=2 Pass  1:  I=   4 to  13 NPSUse= 40 ParTrn=T ParDer=T DoDerP=T.
 JobTyp=3 Pass  1:  I=   4 to  12 NPSUse= 40 ParTrn=T ParDer=T DoDerP=T.
 Spin components of T(2) and E(2):
     alpha-alpha T2 =       0.2889008874D-01 E2=     -0.2554043389D-01
     alpha-beta  T2 =       0.1846117133D+00 E2=     -0.1533085870D+00
     beta-beta   T2 =       0.3772365809D-01 E2=     -0.2564871399D-01
 (S**2,0)=  0.75740D+00           (S**2,1)=  0.74561D+00
 Scaling Projection term by:   0.270000
 E(PUHF)=      -0.18995438180D+03        E(PMP2)=      -0.19015504255D+03
 E2(B2PLYPD3) =    -0.2044977348D+00 E(B2PLYPD3) =    -0.19015481702285D+03
          IDoAtm=111111
          Differentiating once with respect to electric field.
                with respect to dipole field.
          Differentiating once with respect to nuclear coordinates.
 Keep R1 and R2 ints in memory in canonical form, NReq=116120968.
          There are     1 degrees of freedom in the 1st order CPHF.  IDoFFX=0 NUNeed=     1.
 LinEq1:  Iter=  0 NonCon=     1 RMS=1.69D-03 Max=6.73D-02 NDo=     1
 AX will form     1 AO Fock derivatives at one time.
 LinEq1:  Iter=  1 NonCon=     1 RMS=5.99D-04 Max=1.11D-02 NDo=     1
 LinEq1:  Iter=  2 NonCon=     1 RMS=5.61D-04 Max=1.55D-02 NDo=     1
 LinEq1:  Iter=  3 NonCon=     1 RMS=2.28D-04 Max=2.43D-03 NDo=     1
 LinEq1:  Iter=  4 NonCon=     1 RMS=8.11D-05 Max=1.05D-03 NDo=     1
 LinEq1:  Iter=  5 NonCon=     1 RMS=2.28D-05 Max=3.18D-04 NDo=     1
 LinEq1:  Iter=  6 NonCon=     1 RMS=1.51D-05 Max=2.79D-04 NDo=     1
 LinEq1:  Iter=  7 NonCon=     1 RMS=4.83D-06 Max=7.45D-05 NDo=     1
 LinEq1:  Iter=  8 NonCon=     1 RMS=1.20D-06 Max=1.71D-05 NDo=     1
 LinEq1:  Iter=  9 NonCon=     1 RMS=2.84D-07 Max=6.52D-06 NDo=     1
 LinEq1:  Iter= 10 NonCon=     1 RMS=6.79D-08 Max=1.50D-06 NDo=     1
 LinEq1:  Iter= 11 NonCon=     1 RMS=2.06D-08 Max=3.93D-07 NDo=     1
 LinEq1:  Iter= 12 NonCon=     1 RMS=6.55D-09 Max=2.39D-07 NDo=     1
 LinEq1:  Iter= 13 NonCon=     1 RMS=2.54D-09 Max=7.29D-08 NDo=     1
 LinEq1:  Iter= 14 NonCon=     1 RMS=7.53D-10 Max=1.48D-08 NDo=     1
 LinEq1:  Iter= 15 NonCon=     1 RMS=1.79D-10 Max=1.84D-09 NDo=     1
 LinEq1:  Iter= 16 NonCon=     0 RMS=4.95D-11 Max=6.93D-10 NDo=     1
 Linear equations converged to 1.000D-10 1.000D-09 after    16 iterations.
 End of Minotr F.D. properties file   721 does not exist.
 End of Minotr F.D. properties file   722 does not exist.
 End of Minotr F.D. properties file   788 does not exist.
 Calling FoFJK, ICntrl=  10002127 FMM=F ISym2X=0 I1Cent= 0 IOpClX= 1 NMat=1 NMatS=1 NMatT=0.
 ***** Axes restored to original set *****
 -------------------------------------------------------------------
 Center     Atomic                   Forces (Hartrees/Bohr)
 Number     Number              X              Y              Z
 -------------------------------------------------------------------
      1        6           0.000743676   -0.001724886    0.000030151
      2        1          -0.000244315    0.000172215   -0.000015984
      3        1          -0.000354777    0.000323990   -0.000001364
      4        1          -0.000252118    0.000158137   -0.000000525
      5        8           0.003137208    0.004659650   -0.000034580
      6        8          -0.003029674   -0.003589106    0.000022302
 -------------------------------------------------------------------
 Cartesian Forces:  Max     0.004659650 RMS     0.001788154

 GradGradGradGradGradGradGradGradGradGradGradGradGradGradGradGradGradGrad
 Berny optimization.
 Using GEDIIS/GDIIS optimizer.
 FormGI is forming the generalized inverse of G from B-inverse, IUseBI=4.
 Internal  Forces:  Max     0.004609653 RMS     0.001350874
 Search for a local minimum.
 Step number   2 out of a maximum of  100
 All quantities printed in internal units (Hartrees-Bohrs-Radians)
 Mixed Optimization -- RFO/linear search
 Update second derivatives using D2CorX and points    1    2
 DE= -3.54D-04 DEPred=-2.94D-04 R= 1.20D+00
 TightC=F SS=  1.41D+00  RLast= 3.18D-02 DXNew= 5.0454D-01 9.5494D-02
 Trust test= 1.20D+00 RLast= 3.18D-02 DXMaxT set to 3.00D-01
 The second derivative matrix:
                          R1        R2        R3        R4        R5
           R1           0.35145
           R2           0.00001   0.35286
           R3          -0.00004   0.00002   0.35117
           R4          -0.00012  -0.00044  -0.00028   0.40864
           R5           0.00394   0.00156   0.00429  -0.02260   0.51548
           A1           0.00048   0.00034   0.00058  -0.00470  -0.00911
           A2           0.00058   0.00042   0.00070  -0.00575  -0.01085
           A3          -0.00039  -0.00031  -0.00048   0.00421   0.00568
           A4           0.00048   0.00034   0.00058  -0.00470  -0.00912
           A5          -0.00086  -0.00057  -0.00103   0.00794   0.01971
           A6          -0.00038  -0.00029  -0.00046   0.00400   0.00567
           A7          -0.00293  -0.00196  -0.00349   0.02725   0.06510
           D1           0.00001   0.00001   0.00002  -0.00011  -0.00041
           D2          -0.00000  -0.00000  -0.00001   0.00005   0.00002
           D3           0.00004   0.00002   0.00004  -0.00033  -0.00084
                          A1        A2        A3        A4        A5
           A1           0.16082
           A2           0.00104   0.16131
           A3          -0.00101  -0.00126   0.16112
           A4           0.00082   0.00104  -0.00101   0.16083
           A5          -0.00092  -0.00118   0.00133  -0.00092   0.16068
           A6          -0.00093  -0.00116   0.00104  -0.00093   0.00120
           A7          -0.00344  -0.00441   0.00478  -0.00344   0.00287
           D1          -0.00000  -0.00000  -0.00000  -0.00000   0.00002
           D2          -0.00002  -0.00002   0.00002  -0.00002   0.00003
           D3           0.00004   0.00005  -0.00005   0.00004  -0.00003
                          A6        A7        D1        D2        D3
           A6           0.16097
           A7           0.00435   0.26158
           D1          -0.00000   0.00006   0.01229
           D2           0.00002   0.00009  -0.00000   0.01229
           D3          -0.00005  -0.00011  -0.00000  -0.00000   0.01230
 ITU=  1  0
 Use linear search instead of GDIIS.
     Eigenvalues ---    0.01229   0.10403   0.10725   0.15889   0.16000
     Eigenvalues ---    0.16374   0.23977   0.35127   0.35154   0.35290
     Eigenvalues ---    0.41380   0.53517
 RFO step:  Lambda=-5.04847400D-05 EMin= 1.22918441D-02
 Quartic linear search produced a step of  0.28408.
 Iteration  1 RMS(Cart)=  0.00491344 RMS(Int)=  0.00002312
 Iteration  2 RMS(Cart)=  0.00003256 RMS(Int)=  0.00000373
 Iteration  3 RMS(Cart)=  0.00000000 RMS(Int)=  0.00000373
 Variable       Old X    -DE/DX   Delta X   Delta X   Delta X     New X
                                 (Linear)    (Quad)   (Total)
    R1        2.05233  -0.00010  -0.00057   0.00001  -0.00056   2.05177
    R2        2.05095  -0.00003  -0.00035   0.00011  -0.00024   2.05071
    R3        2.05246  -0.00010  -0.00067   0.00005  -0.00062   2.05184
    R4        2.72669   0.00044   0.00427  -0.00133   0.00293   2.72962
    R5        2.47838   0.00461   0.00758   0.00366   0.01124   2.48962
    A1        1.93842   0.00035  -0.00065   0.00300   0.00234   1.94076
    A2        1.92956   0.00034  -0.00088   0.00362   0.00274   1.93229
    A3        1.90410  -0.00025   0.00131  -0.00265  -0.00134   1.90276
    A4        1.93792   0.00037  -0.00065   0.00313   0.00247   1.94040
    A5        1.84753  -0.00064  -0.00018  -0.00523  -0.00542   1.84211
    A6        1.90404  -0.00024   0.00117  -0.00247  -0.00131   1.90274
    A7        1.93917  -0.00223   0.00009  -0.01153  -0.01143   1.92773
    D1        1.04699   0.00008   0.00058   0.00255   0.00313   1.05011
    D2        3.13412   0.00001   0.00041   0.00177   0.00218   3.13630
    D3       -1.06253  -0.00004   0.00015   0.00125   0.00140  -1.06113
         Item               Value     Threshold  Converged?
 Maximum Force            0.004610     0.000450     NO 
 RMS     Force            0.001351     0.000300     NO 
 Maximum Displacement     0.010506     0.001800     NO 
 RMS     Displacement     0.004933     0.001200     NO 
 Predicted change in Energy=-4.185072D-05
 GradGradGradGradGradGradGradGradGradGradGradGradGradGradGradGradGradGrad

                          Input orientation:                          
 ---------------------------------------------------------------------
 Center     Atomic      Atomic             Coordinates (Angstroms)
 Number     Number       Type             X           Y           Z
 ---------------------------------------------------------------------
      1          6           0        1.086409   -0.181161   -0.000367
      2          1           0        1.132674   -0.803037   -0.889175
      3          1           0        1.866020    0.573675   -0.008596
      4          1           0        1.139148   -0.789738    0.897291
      5          8           0       -0.159719    0.549322   -0.001281
      6          8           0       -1.181104   -0.282805    0.001831
 ---------------------------------------------------------------------
                    Distance matrix (angstroms):
                    1          2          3          4          5
     1  C    0.000000
     2  H    1.085749   0.000000
     3  H    1.085191   1.791243   0.000000
     4  H    1.085789   1.786528   1.791053   0.000000
     5  O    1.444451   2.070631   2.025898   2.070645   0.000000
     6  O    2.269791   2.533397   3.165222   2.538188   1.317449
                    6
     6  O    0.000000
 Stoichiometry    CH3O2(2)
 Framework group  C1[X(CH3O2)]
 Deg. of freedom    12
 Full point group                 C1      NOp   1
 Largest Abelian subgroup         C1      NOp   1
 Largest concise Abelian subgroup C1      NOp   1
                         Standard orientation:                         
 ---------------------------------------------------------------------
 Center     Atomic      Atomic             Coordinates (Angstroms)
 Number     Number       Type             X           Y           Z
 ---------------------------------------------------------------------
      1          6           0        1.088746   -0.185016   -0.000031
      2          1           0        1.134148   -0.804591   -0.890489
      3          1           0        1.870310    0.567823   -0.005561
      4          1           0        1.139165   -0.796165    0.896012
      5          8           0       -0.155490    0.548685    0.000012
      6          8           0       -1.179022   -0.280806    0.000015
 ---------------------------------------------------------------------
 Rotational constants (GHZ):          52.2668540          11.4221311           9.9683915
 Standard basis: CC-pVTZ (5D, 7F)
 There are   150 symmetry adapted cartesian basis functions of A   symmetry.
 There are   132 symmetry adapted basis functions of A   symmetry.
   132 basis functions,   207 primitive gaussians,   150 cartesian basis functions
    13 alpha electrons       12 beta electrons
       nuclear repulsion energy        74.9987765985 Hartrees.
 NAtoms=    6 NActive=    6 NUniq=    6 SFac= 1.00D+00 NAtFMM=   60 NAOKFM=F Big=F
 Integral buffers will be    131072 words long.
 Raffenetti 2 integral format.
 Two-electron integral symmetry is turned on.
 Nuclear repulsion after empirical dispersion term =       74.9971957333 Hartrees.
 One-electron integrals computed using PRISM.
 NBasis=   132 RedAO= T EigKep=  1.91D-03  NBF=   132
 NBsUse=   132 1.00D-06 EigRej= -1.00D+00 NBFU=   132
 Initial guess from the checkpoint file:  "/localscratch/339542/Gau-78147.chk"
 B after Tr=    -0.000000    0.000000   -0.000000
         Rot=    1.000000   -0.000485    0.000068    0.000614 Ang=  -0.09 deg.
 Initial guess <Sx>= 0.0000 <Sy>= 0.0000 <Sz>= 0.5000 <S**2>= 0.7574 S= 0.5037
 Keep R1 and R2 ints in memory in canonical form, NReq=116116796.
 Requested convergence on RMS density matrix=1.00D-08 within 128 cycles.
 Requested convergence on MAX density matrix=1.00D-06.
 Requested convergence on             energy=1.00D-06.
 No special actions if energy rises.
 SCF Done:  E(UB2PLYPD3) =  -189.950125064     A.U. after   15 cycles
            NFock= 15  Conv=0.22D-08     -V/T= 2.0040
 <Sx>= 0.0000 <Sy>= 0.0000 <Sz>= 0.5000 <S**2>= 0.7574 S= 0.5037
 <L.S>=  0.00000000000    
 Annihilation of the first spin contaminant:
 S**2 before annihilation     0.7574,   after     0.7500
 DoSCS=T DFT=T ScalE2(SS,OS)=  0.270000  0.270000
 ExpMin= 1.03D-01 ExpMax= 1.53D+04 ExpMxC= 5.22D+02 IAcc=3 IRadAn=         5 AccDes= 0.00D+00
 HarFok:  IExCor=  205 AccDes= 0.00D+00 IRadAn=         5 IDoV=-2 UseB2=F ITyADJ=14
 ICtDFT= 12500011 ScaDFX=  1.000000  1.000000  1.000000  1.000000
 Range of M.O.s used for correlation:     4   132
 NBasis=   132 NAE=    13 NBE=    12 NFC=     3 NFV=     0
 NROrb=    129 NOA=    10 NOB=     9 NVA=   119 NVB=   120

 **** Warning!!: The largest alpha MO coefficient is  0.12016384D+02


 **** Warning!!: The largest beta MO coefficient is  0.12016034D+02

 DoSCS=T DFT=T ScalE2(SS,OS)=  0.270000  0.270000
 Fully direct method using O(ONN) memory.
 JobTyp=2 Pass  1:  I=   4 to  13 NPSUse= 40 ParTrn=T ParDer=T DoDerP=T.
 JobTyp=3 Pass  1:  I=   4 to  12 NPSUse= 40 ParTrn=T ParDer=T DoDerP=T.
 Spin components of T(2) and E(2):
     alpha-alpha T2 =       0.2898633543D-01 E2=     -0.2556015548D-01
     alpha-beta  T2 =       0.1854683703D+00 E2=     -0.1534969839D+00
     beta-beta   T2 =       0.3793362472D-01 E2=     -0.2567260135D-01
 (S**2,0)=  0.75740D+00           (S**2,1)=  0.74564D+00
 Scaling Projection term by:   0.270000
 E(PUHF)=      -0.18995417792D+03        E(PMP2)=      -0.19015508178D+03
 E2(B2PLYPD3) =    -0.2047297407D+00 E(B2PLYPD3) =    -0.19015485480426D+03
          IDoAtm=111111
          Differentiating once with respect to electric field.
                with respect to dipole field.
          Differentiating once with respect to nuclear coordinates.
 Keep R1 and R2 ints in memory in canonical form, NReq=116120968.
          There are     1 degrees of freedom in the 1st order CPHF.  IDoFFX=0 NUNeed=     1.
 LinEq1:  Iter=  0 NonCon=     1 RMS=1.72D-03 Max=6.91D-02 NDo=     1
 AX will form     1 AO Fock derivatives at one time.
 LinEq1:  Iter=  1 NonCon=     1 RMS=6.16D-04 Max=1.17D-02 NDo=     1
 LinEq1:  Iter=  2 NonCon=     1 RMS=5.76D-04 Max=1.57D-02 NDo=     1
 LinEq1:  Iter=  3 NonCon=     1 RMS=2.32D-04 Max=2.42D-03 NDo=     1
 LinEq1:  Iter=  4 NonCon=     1 RMS=8.25D-05 Max=1.07D-03 NDo=     1
 LinEq1:  Iter=  5 NonCon=     1 RMS=2.31D-05 Max=3.19D-04 NDo=     1
 LinEq1:  Iter=  6 NonCon=     1 RMS=1.54D-05 Max=2.87D-04 NDo=     1
 LinEq1:  Iter=  7 NonCon=     1 RMS=5.01D-06 Max=7.05D-05 NDo=     1
 LinEq1:  Iter=  8 NonCon=     1 RMS=1.24D-06 Max=1.81D-05 NDo=     1
 LinEq1:  Iter=  9 NonCon=     1 RMS=2.98D-07 Max=6.87D-06 NDo=     1
 LinEq1:  Iter= 10 NonCon=     1 RMS=7.17D-08 Max=1.60D-06 NDo=     1
 LinEq1:  Iter= 11 NonCon=     1 RMS=2.10D-08 Max=3.20D-07 NDo=     1
 LinEq1:  Iter= 12 NonCon=     1 RMS=5.82D-09 Max=1.85D-07 NDo=     1
 LinEq1:  Iter= 13 NonCon=     1 RMS=2.33D-09 Max=8.10D-08 NDo=     1
 LinEq1:  Iter= 14 NonCon=     1 RMS=7.85D-10 Max=1.48D-08 NDo=     1
 LinEq1:  Iter= 15 NonCon=     1 RMS=1.93D-10 Max=2.10D-09 NDo=     1
 LinEq1:  Iter= 16 NonCon=     0 RMS=5.38D-11 Max=7.58D-10 NDo=     1
 Linear equations converged to 1.000D-10 1.000D-09 after    16 iterations.
 End of Minotr F.D. properties file   721 does not exist.
 End of Minotr F.D. properties file   722 does not exist.
 End of Minotr F.D. properties file   788 does not exist.
 Calling FoFJK, ICntrl=  10002127 FMM=F ISym2X=0 I1Cent= 0 IOpClX= 1 NMat=1 NMatS=1 NMatT=0.
 ***** Axes restored to original set *****
 -------------------------------------------------------------------
 Center     Atomic                   Forces (Hartrees/Bohr)
 Number     Number              X              Y              Z
 -------------------------------------------------------------------
      1        6           0.000190740    0.000275400    0.000012185
      2        1          -0.000068633    0.000108397   -0.000006707
      3        1           0.000273728   -0.000048005   -0.000001266
      4        1          -0.000075524    0.000093430    0.000000043
      5        8          -0.000017036   -0.000618954   -0.000017599
      6        8          -0.000303275    0.000189732    0.000013344
 -------------------------------------------------------------------
 Cartesian Forces:  Max     0.000618954 RMS     0.000201715

 GradGradGradGradGradGradGradGradGradGradGradGradGradGradGradGradGradGrad
 Berny optimization.
 Using GEDIIS/GDIIS optimizer.
 FormGI is forming the generalized inverse of G from B-inverse, IUseBI=4.
 Internal  Forces:  Max     0.000843033 RMS     0.000259706
 Search for a local minimum.
 Step number   3 out of a maximum of  100
 All quantities printed in internal units (Hartrees-Bohrs-Radians)
 Mixed Optimization -- En-DIIS/RFO-DIIS
 Update second derivatives using D2CorX and points    1    2    3
 DE= -3.78D-05 DEPred=-4.19D-05 R= 9.03D-01
 TightC=F SS=  1.41D+00  RLast= 1.83D-02 DXNew= 5.0454D-01 5.4891D-02
 Trust test= 9.03D-01 RLast= 1.83D-02 DXMaxT set to 3.00D-01
 The second derivative matrix:
                          R1        R2        R3        R4        R5
           R1           0.35125
           R2           0.00008   0.35337
           R3          -0.00026   0.00013   0.35094
           R4           0.00098  -0.00177   0.00085   0.40455
           R5           0.00913  -0.00629   0.00956  -0.03948   0.45594
           A1           0.00054  -0.00021   0.00062  -0.00414  -0.00449
           A2           0.00088   0.00042   0.00103  -0.00756  -0.01929
           A3          -0.00059  -0.00058  -0.00071   0.00589   0.01430
           A4           0.00058  -0.00019   0.00066  -0.00437  -0.00567
           A5          -0.00098   0.00111  -0.00107   0.00569   0.00347
           A6          -0.00057  -0.00055  -0.00069   0.00561   0.01396
           A7          -0.00363   0.00257  -0.00403   0.02353   0.03235
           D1          -0.00003  -0.00024  -0.00005   0.00062   0.00386
           D2           0.00004   0.00002   0.00004  -0.00024  -0.00147
           D3           0.00014   0.00031   0.00018  -0.00147  -0.00718
                          A1        A2        A3        A4        A5
           A1           0.16137
           A2           0.00088   0.16095
           A3          -0.00064  -0.00108   0.16119
           A4           0.00133   0.00085  -0.00063   0.16129
           A5          -0.00259  -0.00078   0.00022  -0.00247   0.16580
           A6          -0.00058  -0.00098   0.00110  -0.00057   0.00016
           A7          -0.00773  -0.00282   0.00155  -0.00737   0.01614
           D1           0.00028   0.00002   0.00012   0.00027  -0.00083
           D2          -0.00007  -0.00007   0.00003  -0.00007   0.00016
           D3          -0.00031  -0.00005  -0.00016  -0.00031   0.00102
                          A6        A7        D1        D2        D3
           A6           0.16101
           A7           0.00128   0.29527
           D1           0.00011  -0.00227   0.01242
           D2           0.00003   0.00053  -0.00001   0.01229
           D3          -0.00014   0.00282  -0.00014  -0.00000   0.01243
 ITU=  1  1  0
 Use linear search instead of GDIIS.
     Eigenvalues ---    0.01226   0.10453   0.10761   0.15985   0.16009
     Eigenvalues ---    0.16518   0.28185   0.35076   0.35138   0.35332
     Eigenvalues ---    0.39917   0.48149
 RFO step:  Lambda=-2.83865590D-06 EMin= 1.22584933D-02
 Quartic linear search produced a step of -0.10419.
 Iteration  1 RMS(Cart)=  0.00137675 RMS(Int)=  0.00000125
 Iteration  2 RMS(Cart)=  0.00000105 RMS(Int)=  0.00000065
 Iteration  3 RMS(Cart)=  0.00000000 RMS(Int)=  0.00000065
 Variable       Old X    -DE/DX   Delta X   Delta X   Delta X     New X
                                 (Linear)    (Quad)   (Total)
    R1        2.05177  -0.00006   0.00006  -0.00020  -0.00014   2.05162
    R2        2.05071   0.00016   0.00002   0.00041   0.00043   2.05115
    R3        2.05184  -0.00006   0.00006  -0.00020  -0.00013   2.05171
    R4        2.72962   0.00006  -0.00031   0.00032   0.00002   2.72964
    R5        2.48962   0.00012  -0.00117   0.00133   0.00016   2.48978
    A1        1.94076  -0.00007  -0.00024   0.00005  -0.00020   1.94056
    A2        1.93229   0.00010  -0.00029   0.00080   0.00051   1.93281
    A3        1.90276  -0.00019   0.00014  -0.00138  -0.00124   1.90152
    A4        1.94040  -0.00006  -0.00026   0.00014  -0.00011   1.94028
    A5        1.84211   0.00040   0.00056   0.00166   0.00223   1.84434
    A6        1.90274  -0.00018   0.00014  -0.00132  -0.00119   1.90155
    A7        1.92773   0.00084   0.00119   0.00153   0.00272   1.93045
    D1        1.05011  -0.00004  -0.00033   0.00065   0.00033   1.05044
    D2        3.13630   0.00001  -0.00023   0.00092   0.00069   3.13699
    D3       -1.06113   0.00006  -0.00015   0.00132   0.00118  -1.05996
         Item               Value     Threshold  Converged?
 Maximum Force            0.000843     0.000450     NO 
 RMS     Force            0.000260     0.000300     YES
 Maximum Displacement     0.003081     0.001800     NO 
 RMS     Displacement     0.001376     0.001200     NO 
 Predicted change in Energy=-1.929059D-06
 GradGradGradGradGradGradGradGradGradGradGradGradGradGradGradGradGradGrad

                          Input orientation:                          
 ---------------------------------------------------------------------
 Center     Atomic      Atomic             Coordinates (Angstroms)
 Number     Number       Type             X           Y           Z
 ---------------------------------------------------------------------
      1          6           0        1.086982   -0.180851   -0.000412
      2          1           0        1.132840   -0.802453   -0.889339
      3          1           0        1.867483    0.573397   -0.008482
      4          1           0        1.138936   -0.789256    0.897325
      5          8           0       -0.160078    0.548058   -0.001575
      6          8           0       -1.182734   -0.282639    0.002184
 ---------------------------------------------------------------------
                    Distance matrix (angstroms):
                    1          2          3          4          5
     1  C    0.000000
     2  H    1.085672   0.000000
     3  H    1.085420   1.791249   0.000000
     4  H    1.085719   1.786723   1.791114   0.000000
     5  O    1.444461   2.069696   2.027732   2.069750   0.000000
     6  O    2.271999   2.535134   3.168081   2.539309   1.317535
                    6
     6  O    0.000000
 Stoichiometry    CH3O2(2)
 Framework group  C1[X(CH3O2)]
 Deg. of freedom    12
 Full point group                 C1      NOp   1
 Largest Abelian subgroup         C1      NOp   1
 Largest concise Abelian subgroup C1      NOp   1
                         Standard orientation:                         
 ---------------------------------------------------------------------
 Center     Atomic      Atomic             Coordinates (Angstroms)
 Number     Number       Type             X           Y           Z
 ---------------------------------------------------------------------
      1          6           0        1.089717   -0.184737   -0.000025
      2          1           0        1.134691   -0.803509   -0.890971
      3          1           0        1.872360    0.567315   -0.004823
      4          1           0        1.139060   -0.796268    0.895732
      5          8           0       -0.155271    0.547706    0.000016
      6          8           0       -1.180280   -0.280095    0.000010
 ---------------------------------------------------------------------
 Rotational constants (GHZ):          52.4103166          11.4014390           9.9579560
 Standard basis: CC-pVTZ (5D, 7F)
 There are   150 symmetry adapted cartesian basis functions of A   symmetry.
 There are   132 symmetry adapted basis functions of A   symmetry.
   132 basis functions,   207 primitive gaussians,   150 cartesian basis functions
    13 alpha electrons       12 beta electrons
       nuclear repulsion energy        74.9826811719 Hartrees.
 NAtoms=    6 NActive=    6 NUniq=    6 SFac= 1.00D+00 NAtFMM=   60 NAOKFM=F Big=F
 Integral buffers will be    131072 words long.
 Raffenetti 2 integral format.
 Two-electron integral symmetry is turned on.
 Nuclear repulsion after empirical dispersion term =       74.9811005965 Hartrees.
 One-electron integrals computed using PRISM.
 NBasis=   132 RedAO= T EigKep=  1.91D-03  NBF=   132
 NBsUse=   132 1.00D-06 EigRej= -1.00D+00 NBFU=   132
 Initial guess from the checkpoint file:  "/localscratch/339542/Gau-78147.chk"
 B after Tr=    -0.000000   -0.000000   -0.000000
         Rot=    1.000000   -0.000164    0.000023    0.000120 Ang=  -0.02 deg.
 Initial guess <Sx>= 0.0000 <Sy>= 0.0000 <Sz>= 0.5000 <S**2>= 0.7574 S= 0.5037
 Keep R1 and R2 ints in memory in canonical form, NReq=116116796.
 Requested convergence on RMS density matrix=1.00D-08 within 128 cycles.
 Requested convergence on MAX density matrix=1.00D-06.
 Requested convergence on             energy=1.00D-06.
 No special actions if energy rises.
 SCF Done:  E(UB2PLYPD3) =  -189.950121141     A.U. after   13 cycles
            NFock= 13  Conv=0.60D-08     -V/T= 2.0040
 <Sx>= 0.0000 <Sy>= 0.0000 <Sz>= 0.5000 <S**2>= 0.7574 S= 0.5037
 <L.S>=  0.00000000000    
 Annihilation of the first spin contaminant:
 S**2 before annihilation     0.7574,   after     0.7500
 DoSCS=T DFT=T ScalE2(SS,OS)=  0.270000  0.270000
 ExpMin= 1.03D-01 ExpMax= 1.53D+04 ExpMxC= 5.22D+02 IAcc=3 IRadAn=         5 AccDes= 0.00D+00
 HarFok:  IExCor=  205 AccDes= 0.00D+00 IRadAn=         5 IDoV=-2 UseB2=F ITyADJ=14
 ICtDFT= 12500011 ScaDFX=  1.000000  1.000000  1.000000  1.000000
 Range of M.O.s used for correlation:     4   132
 NBasis=   132 NAE=    13 NBE=    12 NFC=     3 NFV=     0
 NROrb=    129 NOA=    10 NOB=     9 NVA=   119 NVB=   120

 **** Warning!!: The largest alpha MO coefficient is  0.12016102D+02


 **** Warning!!: The largest beta MO coefficient is  0.12015748D+02

 DoSCS=T DFT=T ScalE2(SS,OS)=  0.270000  0.270000
 Fully direct method using O(ONN) memory.
 JobTyp=2 Pass  1:  I=   4 to  13 NPSUse= 40 ParTrn=T ParDer=T DoDerP=T.
 JobTyp=3 Pass  1:  I=   4 to  12 NPSUse= 40 ParTrn=T ParDer=T DoDerP=T.
 Spin components of T(2) and E(2):
     alpha-alpha T2 =       0.2898642918D-01 E2=     -0.2555920874D-01
     alpha-beta  T2 =       0.1854881847D+00 E2=     -0.1534999722D+00
     beta-beta   T2 =       0.3794628542D-01 E2=     -0.2567595068D-01
 (S**2,0)=  0.75740D+00           (S**2,1)=  0.74564D+00
 Scaling Projection term by:   0.270000
 E(PUHF)=      -0.18995417584D+03        E(PMP2)=      -0.19015508338D+03
 E2(B2PLYPD3) =    -0.2047351317D+00 E(B2PLYPD3) =    -0.19015485627277D+03
          IDoAtm=111111
          Differentiating once with respect to electric field.
                with respect to dipole field.
          Differentiating once with respect to nuclear coordinates.
 Keep R1 and R2 ints in memory in canonical form, NReq=116120968.
          There are     1 degrees of freedom in the 1st order CPHF.  IDoFFX=0 NUNeed=     1.
 LinEq1:  Iter=  0 NonCon=     1 RMS=1.72D-03 Max=6.91D-02 NDo=     1
 AX will form     1 AO Fock derivatives at one time.
 LinEq1:  Iter=  1 NonCon=     1 RMS=6.16D-04 Max=1.17D-02 NDo=     1
 LinEq1:  Iter=  2 NonCon=     1 RMS=5.76D-04 Max=1.58D-02 NDo=     1
 LinEq1:  Iter=  3 NonCon=     1 RMS=2.33D-04 Max=2.42D-03 NDo=     1
 LinEq1:  Iter=  4 NonCon=     1 RMS=8.26D-05 Max=1.07D-03 NDo=     1
 LinEq1:  Iter=  5 NonCon=     1 RMS=2.31D-05 Max=3.20D-04 NDo=     1
 LinEq1:  Iter=  6 NonCon=     1 RMS=1.55D-05 Max=2.87D-04 NDo=     1
 LinEq1:  Iter=  7 NonCon=     1 RMS=5.01D-06 Max=7.10D-05 NDo=     1
 LinEq1:  Iter=  8 NonCon=     1 RMS=1.25D-06 Max=1.83D-05 NDo=     1
 LinEq1:  Iter=  9 NonCon=     1 RMS=2.99D-07 Max=6.91D-06 NDo=     1
 LinEq1:  Iter= 10 NonCon=     1 RMS=7.18D-08 Max=1.61D-06 NDo=     1
 LinEq1:  Iter= 11 NonCon=     1 RMS=2.09D-08 Max=3.22D-07 NDo=     1
 LinEq1:  Iter= 12 NonCon=     1 RMS=5.66D-09 Max=1.72D-07 NDo=     1
 LinEq1:  Iter= 13 NonCon=     1 RMS=2.24D-09 Max=8.00D-08 NDo=     1
 LinEq1:  Iter= 14 NonCon=     1 RMS=7.79D-10 Max=1.45D-08 NDo=     1
 LinEq1:  Iter= 15 NonCon=     1 RMS=1.93D-10 Max=2.09D-09 NDo=     1
 LinEq1:  Iter= 16 NonCon=     0 RMS=5.39D-11 Max=7.58D-10 NDo=     1
 Linear equations converged to 1.000D-10 1.000D-09 after    16 iterations.
 End of Minotr F.D. properties file   721 does not exist.
 End of Minotr F.D. properties file   722 does not exist.
 End of Minotr F.D. properties file   788 does not exist.
 Calling FoFJK, ICntrl=  10002127 FMM=F ISym2X=0 I1Cent= 0 IOpClX= 1 NMat=1 NMatS=1 NMatT=0.
 ***** Axes restored to original set *****
 -------------------------------------------------------------------
 Center     Atomic                   Forces (Hartrees/Bohr)
 Number     Number              X              Y              Z
 -------------------------------------------------------------------
      1        6          -0.000101566   -0.000097159    0.000012733
      2        1           0.000047423   -0.000004746   -0.000011391
      3        1          -0.000055140   -0.000000694    0.000001373
      4        1           0.000038904   -0.000009688    0.000000963
      5        8          -0.000135968    0.000040308   -0.000014627
      6        8           0.000206347    0.000071980    0.000010950
 -------------------------------------------------------------------
 Cartesian Forces:  Max     0.000206347 RMS     0.000072716

 GradGradGradGradGradGradGradGradGradGradGradGradGradGradGradGradGradGrad
 Berny optimization.
 Using GEDIIS/GDIIS optimizer.
 FormGI is forming the generalized inverse of G from B-inverse, IUseBI=4.
 Internal  Forces:  Max     0.000205509 RMS     0.000081086
 Search for a local minimum.
 Step number   4 out of a maximum of  100
 All quantities printed in internal units (Hartrees-Bohrs-Radians)
 Mixed Optimization -- En-DIIS/RFO-DIIS
 Swapping is turned off.
 Update second derivatives using D2CorX and points    1    2    3    4
 DE= -1.47D-06 DEPred=-1.93D-06 R= 7.61D-01
 TightC=F SS=  1.41D+00  RLast= 4.22D-03 DXNew= 5.0454D-01 1.2659D-02
 Trust test= 7.61D-01 RLast= 4.22D-03 DXMaxT set to 3.00D-01
 The second derivative matrix:
                          R1        R2        R3        R4        R5
           R1           0.35147
           R2          -0.00050   0.35502
           R3          -0.00014  -0.00019   0.35097
           R4           0.00077  -0.00150   0.00077   0.40503
           R5           0.00541   0.00233   0.00664  -0.03323   0.49846
           A1           0.00047   0.00005   0.00051  -0.00419  -0.00571
           A2           0.00019   0.00202   0.00050  -0.00613  -0.01172
           A3           0.00029  -0.00312  -0.00018   0.00552   0.00269
           A4           0.00071  -0.00043   0.00075  -0.00471  -0.00801
           A5          -0.00206   0.00444  -0.00154   0.00526   0.02218
           A6           0.00029  -0.00303  -0.00016   0.00525   0.00266
           A7          -0.00648   0.01069  -0.00564   0.02400   0.07520
           D1           0.00133  -0.00334   0.00119  -0.00204  -0.00695
           D2           0.00024  -0.00050   0.00023  -0.00043  -0.00261
           D3          -0.00096   0.00274  -0.00081   0.00088   0.00231
                          A1        A2        A3        A4        A5
           A1           0.16131
           A2           0.00072   0.16176
           A3          -0.00097  -0.00326   0.16505
           A4           0.00140   0.00040  -0.00033   0.16144
           A5          -0.00175   0.00338  -0.00512  -0.00281   0.17146
           A6          -0.00089  -0.00312   0.00486  -0.00028  -0.00506
           A7          -0.00662   0.00676  -0.01089  -0.00848   0.03057
           D1           0.00111  -0.00171   0.00403   0.00105  -0.00844
           D2           0.00003  -0.00040   0.00072  -0.00002  -0.00101
           D3          -0.00097   0.00130  -0.00323  -0.00101   0.00711
                          A6        A7        D1        D2        D3
           A6           0.16469
           A7          -0.01082   0.33038
           D1           0.00390  -0.01807   0.01361
           D2           0.00069  -0.00165   0.00000   0.01225
           D3          -0.00313   0.01586  -0.00143  -0.00008   0.01369
 ITU=  1  1  1  0
     Eigenvalues ---    0.01212   0.10621   0.10752   0.15998   0.16333
     Eigenvalues ---    0.17212   0.29431   0.35128   0.35189   0.35786
     Eigenvalues ---    0.41343   0.53514
 En-DIIS/RFO-DIIS/Sim-DIIS IScMMF=       -3 using points:     4    3
 RFO step:  Lambda=-2.65598374D-07.
 DidBck=F Rises=F RFO-DIIS coefs:    0.89574    0.10426
 Iteration  1 RMS(Cart)=  0.00035315 RMS(Int)=  0.00000009
 Iteration  2 RMS(Cart)=  0.00000008 RMS(Int)=  0.00000001
 Variable       Old X    -DE/DX   Delta X   Delta X   Delta X     New X
                                 (Linear)    (Quad)   (Total)
    R1        2.05162   0.00001   0.00002   0.00002   0.00003   2.05166
    R2        2.05115  -0.00004  -0.00005  -0.00004  -0.00008   2.05106
    R3        2.05171   0.00001   0.00001   0.00001   0.00002   2.05173
    R4        2.72964  -0.00000  -0.00000  -0.00002  -0.00002   2.72962
    R5        2.48978  -0.00021  -0.00002  -0.00032  -0.00033   2.48945
    A1        1.94056  -0.00002   0.00002  -0.00020  -0.00018   1.94038
    A2        1.93281  -0.00001  -0.00005   0.00006   0.00001   1.93281
    A3        1.90152   0.00007   0.00013   0.00025   0.00037   1.90190
    A4        1.94028  -0.00001   0.00001  -0.00016  -0.00015   1.94013
    A5        1.84434  -0.00009  -0.00023  -0.00017  -0.00040   1.84394
    A6        1.90155   0.00007   0.00012   0.00024   0.00036   1.90191
    A7        1.93045  -0.00018  -0.00028  -0.00011  -0.00040   1.93005
    D1        1.05044   0.00004  -0.00003   0.00083   0.00079   1.05123
    D2        3.13699   0.00001  -0.00007   0.00062   0.00055   3.13754
    D3       -1.05996  -0.00002  -0.00012   0.00046   0.00034  -1.05962
         Item               Value     Threshold  Converged?
 Maximum Force            0.000206     0.000450     YES
 RMS     Force            0.000081     0.000300     YES
 Maximum Displacement     0.000655     0.001800     YES
 RMS     Displacement     0.000353     0.001200     YES
 Predicted change in Energy=-1.328040D-07
 Optimization completed.
    -- Stationary point found.
                           ----------------------------
                           !   Optimized Parameters   !
                           ! (Angstroms and Degrees)  !
 --------------------------                            --------------------------
 ! Name  Definition              Value          Derivative Info.                !
 --------------------------------------------------------------------------------
 ! R1    R(1,2)                  1.0857         -DE/DX =    0.0                 !
 ! R2    R(1,3)                  1.0854         -DE/DX =    0.0                 !
 ! R3    R(1,4)                  1.0857         -DE/DX =    0.0                 !
 ! R4    R(1,5)                  1.4445         -DE/DX =    0.0                 !
 ! R5    R(5,6)                  1.3175         -DE/DX =   -0.0002              !
 ! A1    A(2,1,3)              111.1861         -DE/DX =    0.0                 !
 ! A2    A(2,1,4)              110.7416         -DE/DX =    0.0                 !
 ! A3    A(2,1,5)              108.9492         -DE/DX =    0.0001              !
 ! A4    A(3,1,4)              111.1699         -DE/DX =    0.0                 !
 ! A5    A(3,1,5)              105.6729         -DE/DX =   -0.0001              !
 ! A6    A(4,1,5)              108.9507         -DE/DX =    0.0001              !
 ! A7    A(1,5,6)              110.6067         -DE/DX =   -0.0002              !
 ! D1    D(2,1,5,6)             60.1859         -DE/DX =    0.0                 !
 ! D2    D(3,1,5,6)            179.7366         -DE/DX =    0.0                 !
 ! D3    D(4,1,5,6)            -60.7311         -DE/DX =    0.0                 !
 --------------------------------------------------------------------------------
 GradGradGradGradGradGradGradGradGradGradGradGradGradGradGradGradGradGrad

                          Input orientation:                          
 ---------------------------------------------------------------------
 Center     Atomic      Atomic             Coordinates (Angstroms)
 Number     Number       Type             X           Y           Z
 ---------------------------------------------------------------------
      1          6           0        1.086982   -0.180851   -0.000412
      2          1           0        1.132840   -0.802453   -0.889339
      3          1           0        1.867483    0.573397   -0.008482
      4          1           0        1.138936   -0.789256    0.897325
      5          8           0       -0.160078    0.548058   -0.001575
      6          8           0       -1.182734   -0.282639    0.002184
 ---------------------------------------------------------------------
                    Distance matrix (angstroms):
                    1          2          3          4          5
     1  C    0.000000
     2  H    1.085672   0.000000
     3  H    1.085420   1.791249   0.000000
     4  H    1.085719   1.786723   1.791114   0.000000
     5  O    1.444461   2.069696   2.027732   2.069750   0.000000
     6  O    2.271999   2.535134   3.168081   2.539309   1.317535
                    6
     6  O    0.000000
 Stoichiometry    CH3O2(2)
 Framework group  C1[X(CH3O2)]
 Deg. of freedom    12
 Full point group                 C1      NOp   1
 Largest Abelian subgroup         C1      NOp   1
 Largest concise Abelian subgroup C1      NOp   1
                         Standard orientation:                         
 ---------------------------------------------------------------------
 Center     Atomic      Atomic             Coordinates (Angstroms)
 Number     Number       Type             X           Y           Z
 ---------------------------------------------------------------------
      1          6           0        1.089717   -0.184737   -0.000025
      2          1           0        1.134691   -0.803509   -0.890971
      3          1           0        1.872360    0.567315   -0.004823
      4          1           0        1.139060   -0.796268    0.895732
      5          8           0       -0.155271    0.547706    0.000016
      6          8           0       -1.180280   -0.280095    0.000010
 ---------------------------------------------------------------------
 Rotational constants (GHZ):          52.4103166          11.4014390           9.9579560

 **********************************************************************

            Population analysis using the SCF Density.

 **********************************************************************

 Orbital symmetries:
 Alpha Orbitals:
       Occupied  (A) (A) (A) (A) (A) (A) (A) (A) (A) (A) (A) (A)
                 (A)
       Virtual   (A) (A) (A) (A) (A) (A) (A) (A) (A) (A) (A) (A)
                 (A) (A) (A) (A) (A) (A) (A) (A) (A) (A) (A) (A)
                 (A) (A) (A) (A) (A) (A) (A) (A) (A) (A) (A) (A)
                 (A) (A) (A) (A) (A) (A) (A) (A) (A) (A) (A) (A)
                 (A) (A) (A) (A) (A) (A) (A) (A) (A) (A) (A) (A)
                 (A) (A) (A) (A) (A) (A) (A) (A) (A) (A) (A) (A)
                 (A) (A) (A) (A) (A) (A) (A) (A) (A) (A) (A) (A)
                 (A) (A) (A) (A) (A) (A) (A) (A) (A) (A) (A) (A)
                 (A) (A) (A) (A) (A) (A) (A) (A) (A) (A) (A) (A)
                 (A) (A) (A) (A) (A) (A) (A) (A) (A) (A) (A)
 Beta  Orbitals:
       Occupied  (A) (A) (A) (A) (A) (A) (A) (A) (A) (A) (A) (A)
       Virtual   (A) (A) (A) (A) (A) (A) (A) (A) (A) (A) (A) (A)
                 (A) (A) (A) (A) (A) (A) (A) (A) (A) (A) (A) (A)
                 (A) (A) (A) (A) (A) (A) (A) (A) (A) (A) (A) (A)
                 (A) (A) (A) (A) (A) (A) (A) (A) (A) (A) (A) (A)
                 (A) (A) (A) (A) (A) (A) (A) (A) (A) (A) (A) (A)
                 (A) (A) (A) (A) (A) (A) (A) (A) (A) (A) (A) (A)
                 (A) (A) (A) (A) (A) (A) (A) (A) (A) (A) (A) (A)
                 (A) (A) (A) (A) (A) (A) (A) (A) (A) (A) (A) (A)
                 (A) (A) (A) (A) (A) (A) (A) (A) (A) (A) (A) (A)
                 (A) (A) (A) (A) (A) (A) (A) (A) (A) (A) (A) (A)
 The electronic state is 2-A.
 Alpha  occ. eigenvalues --  -19.84230 -19.81496 -10.68154  -1.35005  -1.01953
 Alpha  occ. eigenvalues --   -0.79839  -0.61919  -0.59362  -0.58601  -0.49891
 Alpha  occ. eigenvalues --   -0.47675  -0.37457  -0.37227
 Alpha virt. eigenvalues --    0.08239   0.13414   0.13930   0.14807   0.22219
[...]
  Atom  AN      X      Y      Z        X      Y      Z        X      Y      Z
     1   6    -0.00   0.00   0.13    -0.01   0.18  -0.00    -0.09  -0.13  -0.00
     2   1    -0.52   0.39  -0.16    -0.39   0.01   0.10     0.52   0.05  -0.10
     3   1    -0.00   0.00  -0.28     0.60  -0.45   0.00    -0.47   0.29   0.00
     4   1     0.52  -0.39  -0.16    -0.39   0.00  -0.10     0.52   0.06   0.09
     5   8     0.00   0.00  -0.06     0.19  -0.00   0.00     0.16   0.21   0.00
     6   8    -0.00  -0.00  -0.00    -0.17  -0.10   0.00    -0.14  -0.14  -0.00
                      7                      8                      9
                      A                      A                      A
 Frequencies --   1454.1467              1489.3158              1501.2613
 Red. masses --      1.1655                 1.0481                 1.0475
 Frc consts  --      1.4520                 1.3697                 1.3909
 IR Inten    --      1.9852                 8.7932                 8.7028
  Atom  AN      X      Y      Z        X      Y      Z        X      Y      Z
     1   6    -0.09   0.05   0.00    -0.00   0.00  -0.06    -0.02  -0.05  -0.00
     2   1     0.52  -0.15   0.15    -0.43  -0.19   0.07     0.05   0.53  -0.38
     3   1     0.40  -0.45  -0.00     0.00   0.00   0.74     0.22  -0.28   0.01
     4   1     0.51  -0.15  -0.16     0.44   0.18   0.06     0.06   0.54   0.38
     5   8    -0.04  -0.01   0.00    -0.00   0.00  -0.01    -0.01  -0.02  -0.00
     6   8     0.02   0.01  -0.00     0.00  -0.00   0.00     0.00   0.01   0.00
                     10                     11                     12
                      A                      A                      A
 Frequencies --   3077.3311              3174.3318              3183.9095
 Red. masses --      1.0267                 1.1087                 1.1078
 Frc consts  --      5.7284                 6.5824                 6.6167
 IR Inten    --     15.3554                11.3029                 8.0784
  Atom  AN      X      Y      Z        X      Y      Z        X      Y      Z
     1   6    -0.03   0.02  -0.00     0.00   0.00  -0.10    -0.05  -0.08  -0.00
     2   1     0.02  -0.33  -0.49    -0.02   0.40   0.57    -0.02   0.21   0.33
     3   1     0.39   0.38  -0.00    -0.01  -0.01  -0.02     0.60   0.59  -0.00
     4   1     0.02  -0.33   0.50     0.02  -0.40   0.58    -0.02   0.19  -0.31
     5   8    -0.00   0.00   0.00    -0.00   0.00   0.00    -0.00  -0.00   0.00
     6   8     0.00  -0.00   0.00    -0.00  -0.00   0.00     0.00   0.00   0.00

 -------------------
 - Thermochemistry -
 -------------------
 Temperature   298.150 Kelvin.  Pressure   1.00000 Atm.
 Atom     1 has atomic number  6 and mass  12.00000
 Atom     2 has atomic number  1 and mass   1.00783
 Atom     3 has atomic number  1 and mass   1.00783
 Atom     4 has atomic number  1 and mass   1.00783
 Atom     5 has atomic number  8 and mass  15.99491
 Atom     6 has atomic number  8 and mass  15.99491
 Molecular mass:    47.01330 amu.
 Principal axes and moments of inertia in atomic units:
                           1         2         3
     Eigenvalues --    34.43485 158.29065 181.23611
           X            0.99971  -0.02419   0.00001
           Y            0.02419   0.99971  -0.00001
           Z           -0.00001   0.00001   1.00000
 This molecule is an asymmetric top.
 Rotational symmetry number  1.
 Rotational temperatures (Kelvin)      2.51530     0.54718     0.47791
 Rotational constants (GHZ):          52.41032    11.40144     9.95796
 Zero-point vibrational energy     113594.2 (Joules/Mol)
                                   27.14966 (Kcal/Mol)
 Warning -- explicit consideration of   2 degrees of freedom as
           vibrations may cause significant error
 Vibrational temperatures:    193.60   710.75  1340.75  1643.28  1691.88
          (Kelvin)           1773.57  2092.19  2142.79  2159.98  4427.59
                             4567.16  4580.94
 
 Zero-point correction=                           0.043266 (Hartree/Particle)
 Thermal correction to Energy=                    0.047116
 Thermal correction to Enthalpy=                  0.048060
 Thermal correction to Gibbs Free Energy=         0.017550
 Sum of electronic and zero-point Energies=           -190.111591
 Sum of electronic and thermal Energies=              -190.107741
 Sum of electronic and thermal Enthalpies=            -190.106797
 Sum of electronic and thermal Free Energies=         -190.137306
 
                     E (Thermal)             CV                S
                      KCal/Mol        Cal/Mol-Kelvin    Cal/Mol-Kelvin
 Total                   29.565             10.494             64.212
 Electronic               0.000              0.000              1.377
 Translational            0.889              2.981             37.468
 Rotational               0.889              2.981             21.518
 Vibrational             27.788              4.532              3.849
 Vibration     1          0.613              1.919              2.880
 Vibration     2          0.850              1.263              0.673
                       Q            Log10(Q)             Ln(Q)
 Total Bot       0.846038D-08         -8.072610        -18.587872
 Total V=0       0.673329D+12         11.828227         27.235499
 Vib (Bot)       0.296743D-19        -19.527620        -44.964006
 Vib (Bot)    1  0.151331D+01          0.179929          0.414301
 Vib (Bot)    2  0.334468D+00         -0.475646         -1.095215
 Vib (V=0)       0.236166D+01          0.373217          0.859365
 Vib (V=0)    1  0.209377D+01          0.320930          0.738968
 Vib (V=0)    2  0.110156D+01          0.042006          0.096723
 Electronic      0.200000D+01          0.301030          0.693147
 Translational   0.126702D+08          7.102785         16.354767
 Rotational      0.112511D+05          4.051195          9.328220
 ***** Axes restored to original set *****
 -------------------------------------------------------------------
 Center     Atomic                   Forces (Hartrees/Bohr)
 Number     Number              X              Y              Z
 -------------------------------------------------------------------
      1        6          -0.000101567   -0.000097168    0.000012740
      2        1           0.000047423   -0.000004746   -0.000011392
      3        1          -0.000055137   -0.000000690    0.000001372
      4        1           0.000038904   -0.000009686    0.000000958
      5        8          -0.000135968    0.000040308   -0.000014638
      6        8           0.000206346    0.000071981    0.000010959
 -------------------------------------------------------------------
 Cartesian Forces:  Max     0.000206346 RMS     0.000072716
 FormGI is forming the generalized inverse of G from B-inverse, IUseBI=4.

 GradGradGradGradGradGradGradGradGradGradGradGradGradGradGradGradGradGrad
 Berny optimization.
 Internal  Forces:  Max     0.000205508 RMS     0.000081085
 Search for a local minimum.
 Step number   1 out of a maximum of    2
 All quantities printed in internal units (Hartrees-Bohrs-Radians)
 Second derivative matrix not updated -- analytic derivatives used.
 The second derivative matrix:
                          R1        R2        R3        R4        R5
           R1           0.34943
           R2           0.00184   0.35229
           R3           0.00240   0.00185   0.34931
           R4           0.00909   0.00603   0.00914   0.28269
           R5          -0.00012   0.00024  -0.00011   0.02894   0.45636
           A1           0.00634   0.00528  -0.00495  -0.02497   0.00114
           A2           0.00714  -0.00492   0.00715  -0.02675   0.00274
           A3          -0.00063  -0.00494  -0.00464   0.03130  -0.01036
           A4          -0.00494   0.00530   0.00636  -0.02499   0.00110
           A5          -0.00401   0.00420  -0.00401   0.01911   0.01553
           A6          -0.00464  -0.00495  -0.00064   0.03126  -0.01027
           A7          -0.00731   0.01052  -0.00719   0.03452   0.06650
           D1          -0.00052  -0.00598   0.00603   0.00265  -0.00456
           D2           0.00440   0.00000  -0.00442   0.00003   0.00002
           D3          -0.00603   0.00600   0.00052  -0.00264   0.00460
                          A1        A2        A3        A4        A5
           A1           0.06768
           A2           0.00337   0.06895
           A3          -0.03628  -0.03915   0.13805
           A4           0.00314   0.00337  -0.00392   0.06772
           A5          -0.03823  -0.00365  -0.02599  -0.03824   0.13797
           A6          -0.00392  -0.03914  -0.02782  -0.03629  -0.02596
           A7          -0.00575   0.00528  -0.01300  -0.00581   0.03272
           D1          -0.01934   0.01831   0.00140  -0.00091  -0.01794
           D2           0.02040   0.00000   0.01570  -0.02042   0.00003
           D3           0.00091  -0.01829  -0.01768   0.01934   0.01799
                          A6        A7        D1        D2        D3
           A6           0.13805
           A7          -0.01287   0.32947
           D1           0.01765  -0.00455   0.02236
           D2          -0.01572   0.00007  -0.00961   0.02254
           D3          -0.00143   0.00469  -0.01149  -0.00961   0.02238
 ITU=  0
     Eigenvalues ---    0.00190   0.08315   0.08365   0.12868   0.16748
     Eigenvalues ---    0.17743   0.28631   0.32100   0.34783   0.35408
     Eigenvalues ---    0.35695   0.49678
 Angle between quadratic step and forces=  81.44 degrees.
 Linear search not attempted -- first point.
 Iteration  1 RMS(Cart)=  0.00182474 RMS(Int)=  0.00000377
 Iteration  2 RMS(Cart)=  0.00000357 RMS(Int)=  0.00000005
 Iteration  3 RMS(Cart)=  0.00000000 RMS(Int)=  0.00000005
 Variable       Old X    -DE/DX   Delta X   Delta X   Delta X     New X
                                 (Linear)    (Quad)   (Total)
    R1        2.05162   0.00001   0.00000   0.00006   0.00006   2.05169
    R2        2.05115  -0.00004   0.00000  -0.00007  -0.00007   2.05107
    R3        2.05171   0.00001   0.00000  -0.00003  -0.00003   2.05169
    R4        2.72964  -0.00000   0.00000  -0.00001  -0.00001   2.72963
    R5        2.48978  -0.00021   0.00000  -0.00035  -0.00035   2.48943
    A1        1.94056  -0.00002   0.00000  -0.00032  -0.00032   1.94024
    A2        1.93281  -0.00001   0.00000   0.00008   0.00008   1.93288
    A3        1.90152   0.00007   0.00000   0.00036   0.00036   1.90189
    A4        1.94028  -0.00001   0.00000  -0.00004  -0.00004   1.94024
    A5        1.84434  -0.00009   0.00000  -0.00042  -0.00042   1.84392
    A6        1.90155   0.00007   0.00000   0.00034   0.00034   1.90189
    A7        1.93045  -0.00018   0.00000  -0.00042  -0.00042   1.93003
    D1        1.05044   0.00004   0.00000   0.00506   0.00506   1.05550
    D2        3.13699   0.00001   0.00000   0.00464   0.00464  -3.14155
    D3       -1.05996  -0.00002   0.00000   0.00454   0.00454  -1.05542
         Item               Value     Threshold  Converged?
 Maximum Force            0.000206     0.000450     YES
 RMS     Force            0.000081     0.000300     YES
 Maximum Displacement     0.004387     0.001800     NO 
 RMS     Displacement     0.001825     0.001200     NO 
 Predicted change in Energy=-1.936473D-07
                           ----------------------------
                           ! Non-Optimized Parameters !
                           ! (Angstroms and Degrees)  !
 --------------------------                            --------------------------
 ! Name  Definition              Value          Derivative Info.                !
 --------------------------------------------------------------------------------
 ! R1    R(1,2)                  1.0857         -DE/DX =    0.0                 !
 ! R2    R(1,3)                  1.0854         -DE/DX =    0.0                 !
 ! R3    R(1,4)                  1.0857         -DE/DX =    0.0                 !
 ! R4    R(1,5)                  1.4445         -DE/DX =    0.0                 !
 ! R5    R(5,6)                  1.3173         -DE/DX =   -0.0002              !
 ! A1    A(2,1,3)              111.1676         -DE/DX =    0.0                 !
 ! A2    A(2,1,4)              110.7461         -DE/DX =    0.0                 !
 ! A3    A(2,1,5)              108.97           -DE/DX =    0.0001              !
 ! A4    A(3,1,4)              111.1677         -DE/DX =    0.0                 !
 ! A5    A(3,1,5)              105.6491         -DE/DX =   -0.0001              !
 ! A6    A(4,1,5)              108.97           -DE/DX =    0.0001              !
 ! A7    A(1,5,6)              110.5826         -DE/DX =   -0.0002              !
 ! D1    D(2,1,5,6)             60.4759         -DE/DX =    0.0                 !
 ! D2    D(3,1,5,6)           -179.9975         -DE/DX =    0.0                 !
 ! D3    D(4,1,5,6)            -60.4709         -DE/DX =    0.0                 !
 --------------------------------------------------------------------------------
 GradGradGradGradGradGradGradGradGradGradGradGradGradGradGradGradGradGrad


 ----------------------------------------------------------------------

 Electric dipole moment (input orientation):
 (Debye = 10**-18 statcoulomb cm , SI units = C m)
                  (au)            (Debye)         (10**-30 SI)
   Tot        0.107342D+01      0.272837D+01      0.910085D+01
   x          0.106382D+01      0.270395D+01      0.901941D+01
   y         -0.143284D+00     -0.364192D+00     -0.121482D+01
   z         -0.664345D-03     -0.168860D-02     -0.563255D-02

 Dipole polarizability, Alpha (input orientation).
 (esu units = cm**3 , SI units = C**2 m**2 J**-1)
 Alpha(0;0):
               (au)            (10**-24 esu)      (10**-40 SI)
   iso        0.223193D+02      0.330738D+01      0.367996D+01
   aniso      0.126008D+02      0.186724D+01      0.207758D+01
   xx         0.298174D+02      0.441849D+01      0.491623D+01
   yx         0.304341D+01      0.450987D+00      0.501791D+00
   yy         0.197940D+02      0.293316D+01      0.326358D+01
   zx        -0.190429D-01     -0.282187D-02     -0.313975D-02
   zy        -0.107728D-01     -0.159637D-02     -0.177620D-02
   zz         0.173466D+02      0.257050D+01      0.286007D+01

 ----------------------------------------------------------------------

 Dipole orientation:
     6         -0.00911698         -0.06386578          2.08133542
     1          1.50167980         -1.43033990          2.32505595
     1          0.22005210          1.52924559          3.35282227
     1         -1.84091052         -0.95363877          2.33105439
     8          0.13483667          0.97677468         -0.43804104
     8         -0.11325660         -0.81989184         -2.14374938

 Electric dipole moment (dipole orientation):
 (Debye = 10**-18 statcoulomb cm , SI units = C m)
                  (au)            (Debye)         (10**-30 SI)
   Tot        0.107342D+01      0.272837D+01      0.910085D+01
   x          0.000000D+00      0.000000D+00      0.000000D+00
   y          0.000000D+00      0.000000D+00      0.000000D+00
   z          0.107342D+01      0.272837D+01      0.910085D+01

 Dipole polarizability, Alpha (dipole orientation).
 (esu units = cm**3 , SI units = C**2 m**2 J**-1)
 Alpha(0;0):
               (au)            (10**-24 esu)      (10**-40 SI)
   iso        0.223193D+02      0.330738D+01      0.367996D+01
   aniso      0.126008D+02      0.186724D+01      0.207758D+01
   xx         0.174105D+02      0.257997D+01      0.287061D+01
   yx         0.464116D+00      0.687748D-01      0.765223D-01
   yy         0.207138D+02      0.306948D+01      0.341525D+01
   zx         0.579002D+00      0.857992D-01      0.954645D-01
   zy         0.422145D+01      0.625555D+00      0.696023D+00
   zz         0.288336D+02      0.427270D+01      0.475402D+01

 ----------------------------------------------------------------------
 1\1\GINC-N68\Freq\UB2PLYPD3-FC\CC-pVTZ\C1H3O2(2)\ROOT\01-Jun-2019\0\\#
 N Geom=AllCheck Guess=TCheck SCRF=Check GenChk UB2PLYPD3(FC)/CC-pVTZ F
 req\\Title Card Required\\0,2\C,1.0869820097,-0.180850638,-0.000411588
 6\H,1.1328398296,-0.8024530923,-0.8893389076\H,1.8674833836,0.57339651
 84,-0.008481977\H,1.1389360242,-0.7892557578,0.897324745\O,-0.16007808
 96,0.5480580567,-0.0015745393\O,-1.1827341574,-0.2826390868,0.00218426
 75\\Version=ES64L-G16RevB.01\State=2-A\HF=-189.9501211\MP2=-190.154856
 3\PUHF=-189.9541758\PMP2-0=-190.1550834\S2=0.757402\S2-1=0.745637\S2A=
 0.750034\RMSD=6.559e-10\RMSF=7.272e-05\ZeroPoint=0.0432657\Thermal=0.0
 471155\Dipole=1.0638162,-0.1432843,-0.0006643\DipoleDeriv=0.5078585,-0
 .0284951,0.0002525,-0.0390622,0.2916241,-0.0003546,-0.0007885,-0.00043
 68,0.2988063,-0.00975,-0.0215551,-0.038323,0.0578733,0.0348945,-0.0542
 648,0.0247638,-0.0716889,-0.0346698,-0.0361739,-0.0302406,0.0005108,-0
 .0719707,-0.0220974,0.0011392,0.0010327,0.0010169,0.088452,-0.0098925,
 -0.020477,0.0379956,0.0580114,0.0365783,0.0532417,-0.0255056,0.0710745
 ,-0.0368842,-0.3310882,-0.1177858,0.0002035,-0.1260575,-0.2956426,0.00
 06633,0.000991,0.0005919,-0.147632,-0.120954,0.2185536,-0.0006395,0.12
 12058,-0.0453569,-0.0004248,-0.0004934,-0.0005576,-0.1680723\Polar=29.
 8174245,3.0434144,19.7939681,-0.0190429,-0.0107728,17.3465953\PG=C01 [
 X(C1H3O2)]\NImag=0\\0.46090691,0.09868891,0.58364135,-0.00016359,0.000
 02714,0.59103132,-0.04738661,-0.00570083,-0.00097750,0.05475910,0.0015
 3400,-0.13490680,-0.12687698,-0.00910371,0.14623555,0.00466617,-0.1284
 6018,-0.24198369,-0.00512555,0.14024269,0.25224569,-0.18375417,-0.1300
 7758,0.00142102,0.00374218,0.00120081,-0.00035976,0.20946138,-0.145042
 60,-0.19501087,0.00149601,-0.01171529,-0.00985316,0.00265861,0.1473812
 4,0.20017252,0.00150897,0.00146374,-0.05279945,-0.01974900,-0.01764957
 ,0.00270039,-0.00160219,-0.00161122,0.04749441,-0.04742958,-0.00481772
 ,-0.00031374,0.00177261,-0.00121152,-0.00044830,0.00387122,-0.01145207
 ,0.01991749,0.05485206,0.00225615,-0.13114603,0.12518612,-0.00130804,0
 .01251073,-0.01603166,0.00130700,-0.00963786,0.01784293,-0.00994019,0.
 14207259,-0.00598057,0.12677367,-0.24561442,0.00033244,0.01557886,-0.0
 1923531,0.00032897,-0.00238942,0.00232656,0.00661629,-0.13850008,0.256
 20545,-0.12128027,0.07973791,-0.00021090,-0.01888201,0.01026593,0.0014
 4749,-0.02418827,0.01548534,-0.00003261,-0.01901593,0.01032345,-0.0014
 7518,0.44733924,0.04606182,-0.13946426,0.00021422,0.02554099,-0.016012
 89,0.00019342,-0.02299779,0.01312938,-0.00003356,0.02515328,-0.0157744
 2,-0.00005058,0.08024828,0.36758205,-0.00013169,0.00020316,-0.04813122
 ,0.02588351,-0.01185418,0.00556529,0.00019016,-0.00014699,-0.00117574,
 -0.02609867,0.01204625,0.00559071,-0.00063874,-0.00111937,0.03968432,-
 0.06105627,-0.03783068,0.00024472,0.00599472,-0.00268551,-0.00018005,-
 0.00913234,0.00534337,-0.00004266,0.00594962,-0.00263836,0.00017805,-0
 .26397275,-0.15400658,0.00079542,0.32221702,-0.00349828,0.01688661,-0.
 00004651,0.00228688,0.00202656,0.00139713,0.00318633,0.00119998,-0.000
 01232,0.00226822,0.00197499,-0.00141245,-0.19606091,-0.20945986,0.0008
 7113,0.19181776,0.18737172,0.00010073,-0.00000752,-0.00250253,-0.00036
 391,0.00055918,0.00070763,0.00002180,-0.00000699,0.00145383,0.00032692
 ,-0.00054356,0.00072701,0.00090993,0.00079587,-0.00153335,-0.00099548,
 -0.00079697,0.00114742\\0.00010157,0.00009717,-0.00001274,-0.00004742,
 0.00000475,0.00001139,0.00005514,0.00000069,-0.00000137,-0.00003890,0.
 00000969,-0.00000096,0.00013597,-0.00004031,0.00001464,-0.00020635,-0.
 00007198,-0.00001096\\\@


 LEARN FROM YESTERDAY,
 LIVE FOR TODAY,
 LOOK TO TOMORROW,
 REST THIS AFTERNOON.

           -- SNOOPY
 Job cpu time:       0 days  1 hours 25 minutes 10.9 seconds.
 Elapsed time:       0 days  0 hours  2 minutes 13.8 seconds.
 File lengths (MBytes):  RWF=   2875 Int=      0 D2E=      0 Chk=      4 Scr=      1
 Normal termination of Gaussian 16 at Sat Jun  1 01:22:48 2019.
