 Entering Gaussian System, Link 0=g16
 Initial command:
 /ichec/packages/gaussian/16b01/l1.exe "/localscratch/339542/Gau-35384.inp" -scrdir="/localscratch/339542/"
 Entering Link 1 = /ichec/packages/gaussian/16b01/l1.exe PID=     35402.
  
 Copyright (c) 1988-2017, Gaussian, Inc.  All Rights Reserved.
  
 This is part of the Gaussian(R) 16 program.  It is based on
 the Gaussian(R) 09 system (copyright 2009, Gaussian, Inc.),
 the Gaussian(R) 03 system (copyright 2003, Gaussian, Inc.),
 the Gaussian(R) 98 system (copyright 1998, Gaussian, Inc.),
 the Gaussian(R) 94 system (copyright 1995, Gaussian, Inc.),
 the Gaussian 92(TM) system (copyright 1992, Gaussian, Inc.),
 the Gaussian 90(TM) system (copyright 1990, Gaussian, Inc.),
 the Gaussian 88(TM) system (copyright 1988, Gaussian, Inc.),
 the Gaussian 86(TM) system (copyright 1986, Carnegie Mellon
 University), and the Gaussian 82(TM) system (copyright 1983,
 Carnegie Mellon University). Gaussian is a federally registered
 trademark of Gaussian, Inc.
  
 This software contains proprietary and confidential information,
 including trade secrets, belonging to Gaussian, Inc.
  
 This software is provided under written license and may be
 used, copied, transmitted, or stored only in accord with that
 written license.
  
 The following legend is applicable only to US Government
 contracts under FAR:
  
                    RESTRICTED RIGHTS LEGEND
  
 Use, reproduction and disclosure by the US Government is
 subject to restrictions as set forth in subparagraphs (a)
 and (c) of the Commercial Computer Software - Restricted
 Rights clause in FAR 52.227-19.
  
 Gaussian, Inc.
 340 Quinnipiac St., Bldg. 40, Wallingford CT 06492
  
  
 ---------------------------------------------------------------
 Warning -- This program may not be used in any manner that
 competes with the business of Gaussian, Inc. or will provide
 assistance to any competitor of Gaussian, Inc.  The licensee
 of this program is prohibited from giving any competitor of
 Gaussian, Inc. access to this program.  By using this program,
 the user acknowledges that Gaussian, Inc. is engaged in the
 business of creating and licensing software in the field of
 computational chemistry and represents and warrants to the
 licensee that it is not a competitor of Gaussian, Inc. and that
 it will not use this program in any manner prohibited above.
 ---------------------------------------------------------------
  

 Cite this work as:
 Gaussian 16, Revision B.01,
 M. J. Frisch, G. W. Trucks, H. B. Schlegel, G. E. Scuseria, 
 M. A. Robb, J. R. Cheeseman, G. Scalmani, V. Barone, 
 G. A. Petersson, H. Nakatsuji, X. Li, M. Caricato, A. V. Marenich, 
 J. Bloino, B. G. Janesko, R. Gomperts, B. Mennucci, H. P. Hratchian, 
 J. V. Ortiz, A. F. Izmaylov, J. L. Sonnenberg, D. Williams-Young, 
 F. Ding, F. Lipparini, F. Egidi, J. Goings, B. Peng, A. Petrone, 
 T. Henderson, D. Ranasinghe, V. G. Zakrzewski, J. Gao, N. Rega, 
 G. Zheng, W. Liang, M. Hada, M. Ehara, K. Toyota, R. Fukuda, 
 J. Hasegawa, M. Ishida, T. Nakajima, Y. Honda, O. Kitao, H. Nakai, 
 T. Vreven, K. Throssell, J. A. Montgomery, Jr., J. E. Peralta, 
 F. Ogliaro, M. J. Bearpark, J. J. Heyd, E. N. Brothers, K. N. Kudin, 
 V. N. Staroverov, T. A. Keith, R. Kobayashi, J. Normand, 
 K. Raghavachari, A. P. Rendell, J. C. Burant, S. S. Iyengar, 
 J. Tomasi, M. Cossi, J. M. Millam, M. Klene, C. Adamo, R. Cammi, 
 J. W. Ochterski, R. L. Martin, K. Morokuma, O. Farkas, 
 J. B. Foresman, and D. J. Fox, Gaussian, Inc., Wallingford CT, 2016.
 
 ******************************************
 Gaussian 16:  ES64L-G16RevB.01 20-Dec-2017
                 1-Jun-2019 
 ******************************************
 %mem=80GB
 %nproc=40
 Will use up to   40 processors via shared memory.
 -----------------------------------------------
 # opt=maxcyc=500 freq=noraman uB2PLYPD3/cc-pvtz
 -----------------------------------------------
 1/6=500,18=20,19=15,38=1/1,3;
 2/9=110,12=2,17=6,18=5,40=1/2;
 3/5=16,6=1,11=2,25=1,30=1,71=1,74=-60,116=2/1,2,3;
 4//1;
 5/5=2,38=5/2;
 8/6=4,10=1/1;
 9/15=2,16=-3/6;
 10/5=1/2;
 6/7=2,8=2,9=2,10=2/1;
 7/12=2/1,2,3,16;
 1/6=500,18=20,19=15/3(2);
 2/9=110/2;
 99//99;
 2/9=110/2;
 3/5=16,6=1,11=2,25=1,30=1,71=1,74=-60,116=2/1,2,3;
 4/5=5,16=3,69=1/1;
 5/5=2,38=5/2;
 8/6=4,10=1/1;
 9/15=2,16=-3/6;
 10/5=1/2;
 7/12=2/1,2,3,16;
 1/6=500,18=20,19=15/3(-8);
 2/9=110/2;
 6/7=2,8=2,9=2,10=2/1;
 99/9=10/99;
 -------------------
 Title Card Required
 -------------------
 Symbolic Z-matrix:
 Charge =  0 Multiplicity = 1
 C                    -1.11807  -0.22195   0.02041 
 H                    -1.1286   -0.84008   0.92029 
 H                    -1.96251   0.46519   0.03129 
 H                    -1.16468  -0.8552   -0.86593 
 O                     0.02532   0.60194  -0.01678 
 O                     1.14901  -0.2661   -0.10337 
 H                     1.56957  -0.12491   0.7531 
 

 GradGradGradGradGradGradGradGradGradGradGradGradGradGradGradGradGradGrad
 Berny optimization.
 Initialization pass.
                           ----------------------------
                           !    Initial Parameters    !
                           ! (Angstroms and Degrees)  !
 --------------------------                            --------------------------
 ! Name  Definition              Value          Derivative Info.                !
 --------------------------------------------------------------------------------
 ! R1    R(1,2)                  1.0918         estimate D2E/DX2                !
 ! R2    R(1,3)                  1.0887         estimate D2E/DX2                !
 ! R3    R(1,4)                  1.0903         estimate D2E/DX2                !
 ! R4    R(1,5)                  1.4098         estimate D2E/DX2                !
 ! R5    R(5,6)                  1.4226         estimate D2E/DX2                !
 ! R6    R(6,7)                  0.9645         estimate D2E/DX2                !
 ! A1    A(2,1,3)              109.9748         estimate D2E/DX2                !
 ! A2    A(2,1,4)              109.9254         estimate D2E/DX2                !
 ! A3    A(2,1,5)              111.1273         estimate D2E/DX2                !
 ! A4    A(3,1,4)              109.9697         estimate D2E/DX2                !
 ! A5    A(3,1,5)              105.0984         estimate D2E/DX2                !
 ! A6    A(4,1,5)              110.6493         estimate D2E/DX2                !
 ! A7    A(1,5,6)              106.5974         estimate D2E/DX2                !
 ! A8    A(5,6,7)              101.5978         estimate D2E/DX2                !
 ! D1    D(2,1,5,6)             64.0876         estimate D2E/DX2                !
 ! D2    D(3,1,5,6)           -176.9937         estimate D2E/DX2                !
 ! D3    D(4,1,5,6)            -58.3284         estimate D2E/DX2                !
 ! D4    D(1,5,6,7)           -112.4387         estimate D2E/DX2                !
 --------------------------------------------------------------------------------
 Trust Radius=3.00D-01 FncErr=1.00D-07 GrdErr=1.00D-07 EigMax=2.50D+02 EigMin=1.00D-04
 Number of steps in this run=    100 maximum allowed number of steps=    100.
 GradGradGradGradGradGradGradGradGradGradGradGradGradGradGradGradGradGrad

                          Input orientation:                          
 ---------------------------------------------------------------------
 Center     Atomic      Atomic             Coordinates (Angstroms)
 Number     Number       Type             X           Y           Z
 ---------------------------------------------------------------------
      1          6           0       -1.118067   -0.221948    0.020412
      2          1           0       -1.128603   -0.840076    0.920287
      3          1           0       -1.962505    0.465187    0.031290
      4          1           0       -1.164679   -0.855202   -0.865934
      5          8           0        0.025323    0.601938   -0.016780
      6          8           0        1.149005   -0.266102   -0.103372
      7          1           0        1.569565   -0.124907    0.753098
 ---------------------------------------------------------------------
                    Distance matrix (angstroms):
                    1          2          3          4          5
     1  C    0.000000
     2  H    1.091773   0.000000
     3  H    1.088737   1.785895   0.000000
     4  H    1.090318   1.786649   1.784647   0.000000
     5  O    1.409792   2.071001   1.993106   2.064080   0.000000
     6  O    2.270878   2.562191   3.199127   2.506327   1.422552
     7  H    2.787402   2.796342   3.653045   3.260473   1.872351
                    6          7
     6  O    0.000000
     7  H    0.964545   0.000000
 Stoichiometry    CH4O2
 Framework group  C1[X(CH4O2)]
 Deg. of freedom    15
 Full point group                 C1      NOp   1
 Largest Abelian subgroup         C1      NOp   1
 Largest concise Abelian subgroup C1      NOp   1
                         Standard orientation:                         
 ---------------------------------------------------------------------
 Center     Atomic      Atomic             Coordinates (Angstroms)
 Number     Number       Type             X           Y           Z
 ---------------------------------------------------------------------
      1          6           0       -1.118067   -0.221948    0.020412
      2          1           0       -1.128603   -0.840076    0.920287
      3          1           0       -1.962505    0.465187    0.031290
      4          1           0       -1.164679   -0.855202   -0.865934
      5          8           0        0.025323    0.601938   -0.016780
      6          8           0        1.149005   -0.266102   -0.103372
      7          1           0        1.569565   -0.124908    0.753098
 ---------------------------------------------------------------------
 Rotational constants (GHZ):          44.0850573          10.6699812           9.3266587
 Standard basis: CC-pVTZ (5D, 7F)
 There are   165 symmetry adapted cartesian basis functions of A   symmetry.
 There are   146 symmetry adapted basis functions of A   symmetry.
   146 basis functions,   224 primitive gaussians,   165 cartesian basis functions
    13 alpha electrons       13 beta electrons
       nuclear repulsion energy        81.8048588160 Hartrees.
 NAtoms=    7 NActive=    7 NUniq=    7 SFac= 1.00D+00 NAtFMM=   60 NAOKFM=F Big=F
 Integral buffers will be    131072 words long.
 Raffenetti 2 integral format.
 Two-electron integral symmetry is turned on.
 Nuclear repulsion after empirical dispersion term =       81.8029892353 Hartrees.
 One-electron integrals computed using PRISM.
 NBasis=   146 RedAO= T EigKep=  1.88D-03  NBF=   146
 NBsUse=   146 1.00D-06 EigRej= -1.00D+00 NBFU=   146
 ExpMin= 1.03D-01 ExpMax= 1.53D+04 ExpMxC= 5.22D+02 IAcc=3 IRadAn=         5 AccDes= 0.00D+00
 Harris functional with IExCor=  419 and IRadAn=       5 diagonalized for initial guess.
 HarFok:  IExCor=  419 AccDes= 0.00D+00 IRadAn=         5 IDoV= 1 UseB2=F ITyADJ=14
 ICtDFT=  3500011 ScaDFX=  1.000000  1.000000  1.000000  1.000000
 FoFCou: FMM=F IPFlag=           0 FMFlag=      100000 FMFlg1=           0
         NFxFlg=           0 DoJE=T BraDBF=F KetDBF=T FulRan=T
         wScrn=  0.000000 ICntrl=       500 IOpCl=  0 I1Cent=   200000004 NGrid=           0
         NMat0=    1 NMatS0=      1 NMatT0=    0 NMatD0=    1 NMtDS0=    0 NMtDT0=    0
 Petite list used in FoFCou.
 Initial guess <Sx>= 0.0000 <Sy>= 0.0000 <Sz>= 0.0000 <S**2>=-0.0000 S=-0.0000
 Keep R1 and R2 ints in memory in canonical form, NReq=154881865.
 Requested convergence on RMS density matrix=1.00D-08 within 128 cycles.
 Requested convergence on MAX density matrix=1.00D-06.
 Requested convergence on             energy=1.00D-06.
 No special actions if energy rises.
 Integral accuracy reduced to 1.0D-05 until final iterations.
 Initial convergence to 1.0D-05 achieved.  Increase integral accuracy.
 SCF Done:  E(UB2PLYPD3) =  -190.577598354     A.U. after   13 cycles
            NFock= 13  Conv=0.47D-08     -V/T= 2.0039
 <Sx>= 0.0000 <Sy>= 0.0000 <Sz>= 0.0000 <S**2>=-0.0000 S=-0.0000
 <L.S>=  0.00000000000    
 Annihilation of the first spin contaminant:
 S**2 before annihilation    -0.0000,   after    -0.0000
 DoSCS=T DFT=T ScalE2(SS,OS)=  0.270000  0.270000
 ExpMin= 1.03D-01 ExpMax= 1.53D+04 ExpMxC= 5.22D+02 IAcc=3 IRadAn=         5 AccDes= 0.00D+00
 HarFok:  IExCor=  205 AccDes= 0.00D+00 IRadAn=         5 IDoV=-2 UseB2=F ITyADJ=14
 ICtDFT= 12500011 ScaDFX=  1.000000  1.000000  1.000000  1.000000
 Range of M.O.s used for correlation:     4   146
 NBasis=   146 NAE=    13 NBE=    13 NFC=     3 NFV=     0
 NROrb=    143 NOA=    10 NOB=    10 NVA=   133 NVB=   133

 **** Warning!!: The largest alpha MO coefficient is  0.11965685D+02


 **** Warning!!: The largest beta MO coefficient is  0.11965685D+02

 DoSCS=T DFT=T ScalE2(SS,OS)=  0.270000  0.270000
 Fully direct method using O(ONN) memory.
 JobTyp=2 Pass  1:  I=   4 to  13 NPSUse= 40 ParTrn=T ParDer=T DoDerP=T.
 JobTyp=3 Pass  1:  I=   4 to  13 NPSUse= 40 ParTrn=T ParDer=T DoDerP=T.
 Spin components of T(2) and E(2):
     alpha-alpha T2 =       0.3223177374D-01 E2=     -0.2616036784D-01
     alpha-beta  T2 =       0.1968140653D+00 E2=     -0.1635520922D+00
     beta-beta   T2 =       0.3223177374D-01 E2=     -0.2616036784D-01
 (S**2,0)=  0.00000D+00           (S**2,1)=  0.00000D+00
 E(PUHF)=      -0.19057759835D+03        E(PMP2)=      -0.19079347118D+03
 E2(B2PLYPD3) =    -0.2158728278D+00 E(B2PLYPD3) =    -0.19079347118205D+03
          IDoAtm=1111111
          Differentiating once with respect to electric field.
                with respect to dipole field.
          Differentiating once with respect to nuclear coordinates.
 Keep R1 and R2 ints in memory in canonical form, NReq=154886747.
          There are     1 degrees of freedom in the 1st order CPHF.  IDoFFX=0 NUNeed=     1.
 LinEq1:  Iter=  0 NonCon=     1 RMS=8.86D-04 Max=8.97D-03 NDo=     1
 AX will form     1 AO Fock derivatives at one time.
 LinEq1:  Iter=  1 NonCon=     1 RMS=2.11D-04 Max=2.26D-03 NDo=     1
 LinEq1:  Iter=  2 NonCon=     1 RMS=7.45D-05 Max=1.13D-03 NDo=     1
 LinEq1:  Iter=  3 NonCon=     1 RMS=3.13D-05 Max=3.09D-04 NDo=     1
 LinEq1:  Iter=  4 NonCon=     1 RMS=1.69D-05 Max=1.84D-04 NDo=     1
 LinEq1:  Iter=  5 NonCon=     1 RMS=8.67D-06 Max=9.61D-05 NDo=     1
 LinEq1:  Iter=  6 NonCon=     1 RMS=3.84D-06 Max=5.60D-05 NDo=     1
 LinEq1:  Iter=  7 NonCon=     1 RMS=1.11D-06 Max=9.71D-06 NDo=     1
 LinEq1:  Iter=  8 NonCon=     1 RMS=2.41D-07 Max=2.59D-06 NDo=     1
 LinEq1:  Iter=  9 NonCon=     1 RMS=4.73D-08 Max=3.68D-07 NDo=     1
 LinEq1:  Iter= 10 NonCon=     1 RMS=7.72D-09 Max=8.23D-08 NDo=     1
 LinEq1:  Iter= 11 NonCon=     1 RMS=1.64D-09 Max=1.88D-08 NDo=     1
 LinEq1:  Iter= 12 NonCon=     1 RMS=3.01D-10 Max=4.13D-09 NDo=     1
 LinEq1:  Iter= 13 NonCon=     0 RMS=6.35D-11 Max=6.38D-10 NDo=     1
 Linear equations converged to 1.000D-10 1.000D-09 after    13 iterations.
 End of Minotr F.D. properties file   721 does not exist.
 End of Minotr F.D. properties file   722 does not exist.
 End of Minotr F.D. properties file   788 does not exist.

 **********************************************************************

            Population analysis using the SCF Density.

 **********************************************************************

 Orbital symmetries:
 Alpha Orbitals:
       Occupied  (A) (A) (A) (A) (A) (A) (A) (A) (A) (A) (A) (A)
                 (A)
       Virtual   (A) (A) (A) (A) (A) (A) (A) (A) (A) (A) (A) (A)
                 (A) (A) (A) (A) (A) (A) (A) (A) (A) (A) (A) (A)
                 (A) (A) (A) (A) (A) (A) (A) (A) (A) (A) (A) (A)
                 (A) (A) (A) (A) (A) (A) (A) (A) (A) (A) (A) (A)
                 (A) (A) (A) (A) (A) (A) (A) (A) (A) (A) (A) (A)
                 (A) (A) (A) (A) (A) (A) (A) (A) (A) (A) (A) (A)
                 (A) (A) (A) (A) (A) (A) (A) (A) (A) (A) (A) (A)
                 (A) (A) (A) (A) (A) (A) (A) (A) (A) (A) (A) (A)
                 (A) (A) (A) (A) (A) (A) (A) (A) (A) (A) (A) (A)
                 (A) (A) (A) (A) (A) (A) (A) (A) (A) (A) (A) (A)
                 (A) (A) (A) (A) (A) (A) (A) (A) (A) (A) (A) (A)
                 (A)
 Beta  Orbitals:
       Occupied  (A) (A) (A) (A) (A) (A) (A) (A) (A) (A) (A) (A)
                 (A)
       Virtual   (A) (A) (A) (A) (A) (A) (A) (A) (A) (A) (A) (A)
                 (A) (A) (A) (A) (A) (A) (A) (A) (A) (A) (A) (A)
                 (A) (A) (A) (A) (A) (A) (A) (A) (A) (A) (A) (A)
                 (A) (A) (A) (A) (A) (A) (A) (A) (A) (A) (A) (A)
                 (A) (A) (A) (A) (A) (A) (A) (A) (A) (A) (A) (A)
                 (A) (A) (A) (A) (A) (A) (A) (A) (A) (A) (A) (A)
                 (A) (A) (A) (A) (A) (A) (A) (A) (A) (A) (A) (A)
                 (A) (A) (A) (A) (A) (A) (A) (A) (A) (A) (A) (A)
                 (A) (A) (A) (A) (A) (A) (A) (A) (A) (A) (A) (A)
                 (A) (A) (A) (A) (A) (A) (A) (A) (A) (A) (A) (A)
                 (A) (A) (A) (A) (A) (A) (A) (A) (A) (A) (A) (A)
                 (A)
 The electronic state is 1-A.
 Alpha  occ. eigenvalues --  -19.78527 -19.78110 -10.66189  -1.27865  -1.04178
 Alpha  occ. eigenvalues --   -0.77845  -0.61572  -0.55673  -0.54759  -0.49258
 Alpha  occ. eigenvalues --   -0.44070  -0.38450  -0.34398
 Alpha virt. eigenvalues --    0.07650   0.10146   0.13096   0.15225   0.16093
 Alpha virt. eigenvalues --    0.21609   0.30940   0.32528   0.44466   0.47134
 Alpha virt. eigenvalues --    0.50111   0.51108   0.52108   0.54563   0.56729
 Alpha virt. eigenvalues --    0.60086   0.64825   0.69544   0.72278   0.75200
 Alpha virt. eigenvalues --    0.76034   0.79716   0.90619   0.94626   0.94974
 Alpha virt. eigenvalues --    1.04304   1.05769   1.07788   1.13677   1.16343
 Alpha virt. eigenvalues --    1.19772   1.28305   1.33815   1.37777   1.38334
 Alpha virt. eigenvalues --    1.41158   1.42875   1.52916   1.61644   1.63704
 Alpha virt. eigenvalues --    1.77511   1.86198   1.94333   1.98771   2.05957
 Alpha virt. eigenvalues --    2.11039   2.18833   2.22799   2.36041   2.37870
 Alpha virt. eigenvalues --    2.45041   2.48146   2.63520   2.74296   2.83304
 Alpha virt. eigenvalues --    2.89789   2.91885   2.99547   3.03701   3.09377
 Alpha virt. eigenvalues --    3.10976   3.14469   3.16566   3.19967   3.35308
 Alpha virt. eigenvalues --    3.38944   3.41084   3.43797   3.49170   3.52059
 Alpha virt. eigenvalues --    3.52538   3.55999   3.59846   3.63391   3.74764
 Alpha virt. eigenvalues --    3.80190   3.84249   3.87624   3.88713   3.92027
 Alpha virt. eigenvalues --    3.94877   3.98549   4.09608   4.11161   4.16311
 Alpha virt. eigenvalues --    4.18384   4.23538   4.29715   4.35061   4.36277
 Alpha virt. eigenvalues --    4.43791   4.56703   4.63761   4.79576   4.83131
 Alpha virt. eigenvalues --    4.92469   4.96331   4.99449   5.01551   5.09158
 Alpha virt. eigenvalues --    5.17073   5.26523   5.31016   5.33849   5.35704
 Alpha virt. eigenvalues --    5.38281   5.45811   5.53738   5.68306   5.86613
 Alpha virt. eigenvalues --    5.91569   5.95804   6.09857   6.12825   6.23985
 Alpha virt. eigenvalues --    6.34891   6.47969   6.57649   6.59626   6.71983
 Alpha virt. eigenvalues --    6.81225   6.84111   6.94181   7.02536   7.05932
 Alpha virt. eigenvalues --    7.13237   7.30441   7.42053   7.60187   7.82101
 Alpha virt. eigenvalues --   10.03538  11.32801  13.37611
  Beta  occ. eigenvalues --  -19.78527 -19.78110 -10.66189  -1.27865  -1.04178
  Beta  occ. eigenvalues --   -0.77845  -0.61572  -0.55673  -0.54759  -0.49258
  Beta  occ. eigenvalues --   -0.44070  -0.38450  -0.34398
  Beta virt. eigenvalues --    0.07650   0.10146   0.13096   0.15225   0.16093
  Beta virt. eigenvalues --    0.21609   0.30940   0.32528   0.44466   0.47134
  Beta virt. eigenvalues --    0.50111   0.51108   0.52108   0.54563   0.56729
  Beta virt. eigenvalues --    0.60086   0.64825   0.69544   0.72278   0.75200
  Beta virt. eigenvalues --    0.76034   0.79716   0.90619   0.94626   0.94974
  Beta virt. eigenvalues --    1.04304   1.05769   1.07788   1.13677   1.16343
  Beta virt. eigenvalues --    1.19772   1.28305   1.33815   1.37777   1.38334
  Beta virt. eigenvalues --    1.41158   1.42875   1.52916   1.61644   1.63704
  Beta virt. eigenvalues --    1.77511   1.86198   1.94333   1.98771   2.05957
  Beta virt. eigenvalues --    2.11039   2.18833   2.22799   2.36041   2.37870
  Beta virt. eigenvalues --    2.45041   2.48146   2.63520   2.74296   2.83304
  Beta virt. eigenvalues --    2.89789   2.91885   2.99547   3.03701   3.09377
  Beta virt. eigenvalues --    3.10976   3.14469   3.16566   3.19967   3.35308
  Beta virt. eigenvalues --    3.38944   3.41084   3.43797   3.49170   3.52059
  Beta virt. eigenvalues --    3.52538   3.55999   3.59846   3.63391   3.74764
  Beta virt. eigenvalues --    3.80190   3.84249   3.87624   3.88713   3.92027
  Beta virt. eigenvalues --    3.94877   3.98549   4.09608   4.11161   4.16311
  Beta virt. eigenvalues --    4.18384   4.23538   4.29715   4.35061   4.36277
  Beta virt. eigenvalues --    4.43791   4.56703   4.63761   4.79576   4.83131
  Beta virt. eigenvalues --    4.92469   4.96331   4.99449   5.01551   5.09158
  Beta virt. eigenvalues --    5.17073   5.26523   5.31016   5.33849   5.35704
  Beta virt. eigenvalues --    5.38281   5.45811   5.53738   5.68306   5.86613
  Beta virt. eigenvalues --    5.91569   5.95804   6.09857   6.12825   6.23985
  Beta virt. eigenvalues --    6.34891   6.47969   6.57649   6.59626   6.71983
  Beta virt. eigenvalues --    6.81225   6.84111   6.94181   7.02536   7.05932
  Beta virt. eigenvalues --    7.13237   7.30441   7.42053   7.60187   7.82101
  Beta virt. eigenvalues --   10.03538  11.32801  13.37611
          Condensed to atoms (all electrons):
               1          2          3          4          5          6
     1  C    4.568532   0.388834   0.393537   0.413895   0.313242  -0.045597
     2  H    0.388834   0.684463  -0.029698  -0.063773  -0.049718   0.005217
     3  H    0.393537  -0.029698   0.597349  -0.032200  -0.026636   0.007112
     4  H    0.413895  -0.063773  -0.032200   0.648903  -0.045494   0.000053
     5  O    0.313242  -0.049718  -0.026636  -0.045494   7.961109   0.066180
     6  O   -0.045597   0.005217   0.007112   0.000053   0.066180   7.883295
     7  H   -0.002279   0.003698  -0.000892  -0.000570  -0.022134   0.328902
               7
     1  C   -0.002279
     2  H    0.003698
     3  H   -0.000892
     4  H   -0.000570
     5  O   -0.022134
     6  O    0.328902
     7  H    0.452993
          Atomic-Atomic Spin Densities.
               1          2          3          4          5          6
     1  C    0.000000  -0.000000   0.000000   0.000000  -0.000000  -0.000000
     2  H   -0.000000  -0.000000   0.000000   0.000000  -0.000000   0.000000
     3  H    0.000000   0.000000   0.000000   0.000000   0.000000  -0.000000
     4  H    0.000000   0.000000   0.000000  -0.000000  -0.000000   0.000000
     5  O   -0.000000  -0.000000   0.000000  -0.000000   0.000000  -0.000000
     6  O   -0.000000   0.000000  -0.000000   0.000000  -0.000000   0.000000
     7  H    0.000000  -0.000000   0.000000   0.000000   0.000000  -0.000000
               7
     1  C    0.000000
     2  H   -0.000000
     3  H    0.000000
     4  H    0.000000
     5  O    0.000000
     6  O   -0.000000
     7  H   -0.000000
 Mulliken charges and spin densities:
               1          2
     1  C   -0.030163   0.000000
     2  H    0.060978  -0.000000
     3  H    0.091428   0.000000
     4  H    0.079187   0.000000
     5  O   -0.196549  -0.000000
     6  O   -0.245161   0.000000
     7  H    0.240281  -0.000000
 Sum of Mulliken charges =  -0.00000   0.00000
 Mulliken charges and spin densities with hydrogens summed into heavy atoms:
               1          2
     1  C    0.201430   0.000000
     5  O   -0.196549  -0.000000
     6  O   -0.004880   0.000000
 Electronic spatial extent (au):  <R**2>=            162.7476
 Charge=             -0.0000 electrons
 Dipole moment (field-independent basis, Debye):
    X=             -0.7341    Y=             -0.6778    Z=              1.4761  Tot=              1.7825
 Quadrupole moment (field-independent basis, Debye-Ang):
   XX=            -15.1854   YY=            -19.6256   ZZ=            -17.4316
   XY=              0.1797   XZ=              2.6965   YZ=             -0.1077
 Traceless Quadrupole moment (field-independent basis, Debye-Ang):
   XX=              2.2288   YY=             -2.2114   ZZ=             -0.0174
   XY=              0.1797   XZ=              2.6965   YZ=             -0.1077
 Octapole moment (field-independent basis, Debye-Ang**2):
  XXX=              6.6952  YYY=              0.9167  ZZZ=              1.1711  XYY=              0.7564
  XXY=              1.1533  XXZ=              4.3888  XZZ=              3.3032  YZZ=             -0.4477
  YYZ=              0.0664  XYZ=             -0.3807
 Hexadecapole moment (field-independent basis, Debye-Ang**3):
 XXXX=           -121.5453 YYYY=            -40.6747 ZZZZ=            -23.9733 XXXY=             -4.0208
 XXXZ=              8.0780 YYYX=             -1.1797 YYYZ=              0.1247 ZZZX=              2.8625
 ZZZY=             -0.0041 XXYY=            -27.5415 XXZZ=            -24.0736 YYZZ=            -10.4744
 XXYZ=             -0.3667 YYXZ=              0.4336 ZZXY=              0.1802
 N-N= 8.180298923528D+01 E-N=-6.128970321172D+02  KE= 1.898369855424D+02
                          Isotropic Fermi Contact Couplings
        Atom                 a.u.       MegaHertz       Gauss      10(-4) cm-1
     1  C(13)              0.00000       0.00000       0.00000       0.00000
     2  H(1)              -0.00000      -0.00000      -0.00000      -0.00000
     3  H(1)               0.00000       0.00000       0.00000       0.00000
     4  H(1)               0.00000       0.00000       0.00000       0.00000
     5  O(17)             -0.00000       0.00000       0.00000       0.00000
     6  O(17)              0.00000      -0.00000      -0.00000      -0.00000
     7  H(1)              -0.00000      -0.00000      -0.00000      -0.00000
 --------------------------------------------------------
       Center         ----  Spin Dipole Couplings  ----
                      3XX-RR        3YY-RR        3ZZ-RR
 --------------------------------------------------------
     1   Atom        0.000000      0.000000      0.000000
     2   Atom        0.000000      0.000000      0.000000
     3   Atom        0.000000      0.000000      0.000000
     4   Atom        0.000000      0.000000      0.000000
     5   Atom        0.000000      0.000000      0.000000
     6   Atom        0.000000      0.000000      0.000000
     7   Atom        0.000000      0.000000      0.000000
 --------------------------------------------------------
                        XY            XZ            YZ
 --------------------------------------------------------
     1   Atom        0.000000      0.000000      0.000000
     2   Atom        0.000000      0.000000      0.000000
     3   Atom        0.000000      0.000000      0.000000
     4   Atom        0.000000      0.000000      0.000000
     5   Atom        0.000000      0.000000      0.000000
     6   Atom        0.000000      0.000000      0.000000
     7   Atom        0.000000      0.000000      0.000000
 --------------------------------------------------------


 ---------------------------------------------------------------------------------
              Anisotropic Spin Dipole Couplings in Principal Axis System
 ---------------------------------------------------------------------------------

       Atom             a.u.   MegaHertz   Gauss  10(-4) cm-1        Axes

              Baa     0.0000     0.000     0.000     0.000  1.0000  0.0000  0.0000
     1 C(13)  Bbb     0.0000     0.000     0.000     0.000 -0.0000  1.0000  0.0000
              Bcc     0.0000     0.000     0.000     0.000  0.0000  0.0000  1.0000
 
              Baa     0.0000     0.000     0.000     0.000  1.0000  0.0000  0.0000
     2 H(1)   Bbb     0.0000     0.000     0.000     0.000 -0.0000  1.0000  0.0000
              Bcc     0.0000     0.000     0.000     0.000  0.0000  0.0000  1.0000
 
              Baa     0.0000     0.000     0.000     0.000  1.0000  0.0000  0.0000
     3 H(1)   Bbb     0.0000     0.000     0.000     0.000 -0.0000  1.0000  0.0000
              Bcc     0.0000     0.000     0.000     0.000  0.0000  0.0000  1.0000
 
              Baa     0.0000     0.000     0.000     0.000  1.0000  0.0000  0.0000
     4 H(1)   Bbb     0.0000     0.000     0.000     0.000 -0.0000  1.0000  0.0000
              Bcc     0.0000     0.000     0.000     0.000  0.0000  0.0000  1.0000
 
              Baa     0.0000    -0.000    -0.000    -0.000  1.0000  0.0000  0.0000
     5 O(17)  Bbb     0.0000    -0.000    -0.000    -0.000 -0.0000  1.0000  0.0000
              Bcc     0.0000    -0.000    -0.000    -0.000  0.0000  0.0000  1.0000
 
              Baa     0.0000    -0.000    -0.000    -0.000  1.0000  0.0000  0.0000
     6 O(17)  Bbb     0.0000    -0.000    -0.000    -0.000 -0.0000  1.0000  0.0000
              Bcc     0.0000    -0.000    -0.000    -0.000  0.0000  0.0000  1.0000
 
              Baa     0.0000     0.000     0.000     0.000  1.0000  0.0000  0.0000
     7 H(1)   Bbb     0.0000     0.000     0.000     0.000 -0.0000  1.0000  0.0000
              Bcc     0.0000     0.000     0.000     0.000  0.0000  0.0000  1.0000
 

 ---------------------------------------------------------------------------------

 Calling FoFJK, ICntrl=  10002127 FMM=F ISym2X=0 I1Cent= 0 IOpClX= 1 NMat=1 NMatS=1 NMatT=0.
 ***** Axes restored to original set *****
 -------------------------------------------------------------------
 Center     Atomic                   Forces (Hartrees/Bohr)
 Number     Number              X              Y              Z
 -------------------------------------------------------------------
      1        6          -0.001415655   -0.002253885   -0.000011284
      2        1          -0.000748936   -0.000313813   -0.000418572
      3        1           0.000421828   -0.000231671   -0.000038831
      4        1          -0.000808425   -0.000224182    0.000598724
      5        8          -0.008981881    0.012584977    0.001531926
      6        8           0.012179883   -0.010373868   -0.002629057
      7        1          -0.000646813    0.000812442    0.000967093
 -------------------------------------------------------------------
 Cartesian Forces:  Max     0.012584977 RMS     0.004954599

 GradGradGradGradGradGradGradGradGradGradGradGradGradGradGradGradGradGrad
 Berny optimization.
 FormGI is forming the generalized inverse of G from B-inverse, IUseBI=4.
 Internal  Forces:  Max     0.015045598 RMS     0.003743135
 Search for a local minimum.
 Step number   1 out of a maximum of  100
 All quantities printed in internal units (Hartrees-Bohrs-Radians)
 Mixed Optimization -- RFO/linear search
 Second derivative matrix not updated -- first step.
 The second derivative matrix:
                          R1        R2        R3        R4        R5
           R1           0.34609
           R2           0.00000   0.34959
           R3           0.00000   0.00000   0.34776
           R4           0.00000   0.00000   0.00000   0.44036
           R5           0.00000   0.00000   0.00000   0.00000   0.42078
           R6           0.00000   0.00000   0.00000   0.00000   0.00000
           A1           0.00000   0.00000   0.00000   0.00000   0.00000
           A2           0.00000   0.00000   0.00000   0.00000   0.00000
           A3           0.00000   0.00000   0.00000   0.00000   0.00000
           A4           0.00000   0.00000   0.00000   0.00000   0.00000
           A5           0.00000   0.00000   0.00000   0.00000   0.00000
           A6           0.00000   0.00000   0.00000   0.00000   0.00000
           A7           0.00000   0.00000   0.00000   0.00000   0.00000
           A8           0.00000   0.00000   0.00000   0.00000   0.00000
           D1           0.00000   0.00000   0.00000   0.00000   0.00000
           D2           0.00000   0.00000   0.00000   0.00000   0.00000
           D3           0.00000   0.00000   0.00000   0.00000   0.00000
           D4           0.00000   0.00000   0.00000   0.00000   0.00000
                          R6        A1        A2        A3        A4
           R6           0.54507
           A1           0.00000   0.16000
           A2           0.00000   0.00000   0.16000
           A3           0.00000   0.00000   0.00000   0.16000
           A4           0.00000   0.00000   0.00000   0.00000   0.16000
           A5           0.00000   0.00000   0.00000   0.00000   0.00000
           A6           0.00000   0.00000   0.00000   0.00000   0.00000
           A7           0.00000   0.00000   0.00000   0.00000   0.00000
           A8           0.00000   0.00000   0.00000   0.00000   0.00000
           D1           0.00000   0.00000   0.00000   0.00000   0.00000
           D2           0.00000   0.00000   0.00000   0.00000   0.00000
           D3           0.00000   0.00000   0.00000   0.00000   0.00000
           D4           0.00000   0.00000   0.00000   0.00000   0.00000
                          A5        A6        A7        A8        D1
           A5           0.16000
           A6           0.00000   0.16000
           A7           0.00000   0.00000   0.25000
           A8           0.00000   0.00000   0.00000   0.16000
           D1           0.00000   0.00000   0.00000   0.00000   0.01562
           D2           0.00000   0.00000   0.00000   0.00000   0.00000
           D3           0.00000   0.00000   0.00000   0.00000   0.00000
           D4           0.00000   0.00000   0.00000   0.00000   0.00000
                          D2        D3        D4
           D2           0.01562
           D3           0.00000   0.01562
           D4           0.00000   0.00000   0.00996
 ITU=  0
     Eigenvalues ---    0.00996   0.01562   0.10206   0.10815   0.16000
     Eigenvalues ---    0.16000   0.16000   0.16000   0.25000   0.34609
     Eigenvalues ---    0.34776   0.34959   0.42078   0.44036   0.54507
 RFO step:  Lambda=-6.41244201D-04 EMin= 9.96491465D-03
 Linear search not attempted -- first point.
 Iteration  1 RMS(Cart)=  0.01016632 RMS(Int)=  0.00012302
 Iteration  2 RMS(Cart)=  0.00011082 RMS(Int)=  0.00001496
 Iteration  3 RMS(Cart)=  0.00000001 RMS(Int)=  0.00001496
 Variable       Old X    -DE/DX   Delta X   Delta X   Delta X     New X
                                 (Linear)    (Quad)   (Total)
    R1        2.06315  -0.00016   0.00000  -0.00046  -0.00046   2.06269
    R2        2.05741  -0.00047   0.00000  -0.00135  -0.00135   2.05606
    R3        2.06040  -0.00032   0.00000  -0.00092  -0.00092   2.05948
    R4        2.66412   0.00384   0.00000   0.00871   0.00871   2.67283
    R5        2.68823   0.01505   0.00000   0.03570   0.03570   2.72393
    R6        1.82273   0.00070   0.00000   0.00127   0.00127   1.82400
    A1        1.91942  -0.00042   0.00000  -0.00324  -0.00324   1.91618
    A2        1.91856  -0.00092   0.00000  -0.00462  -0.00466   1.91390
    A3        1.93954   0.00117   0.00000   0.00760   0.00758   1.94712
    A4        1.91933  -0.00049   0.00000  -0.00369  -0.00369   1.91564
    A5        1.83431  -0.00063   0.00000  -0.00452  -0.00452   1.82979
    A6        1.93119   0.00130   0.00000   0.00843   0.00841   1.93960
    A7        1.86048  -0.00055   0.00000  -0.00221  -0.00221   1.85826
    A8        1.77322  -0.00224   0.00000  -0.01396  -0.01396   1.75925
    D1        1.11854   0.00027   0.00000   0.00257   0.00261   1.12114
    D2       -3.08912   0.00000   0.00000   0.00000   0.00000  -3.08912
    D3       -1.01802  -0.00027   0.00000  -0.00266  -0.00269  -1.02071
    D4       -1.96243   0.00022   0.00000   0.02104   0.02104  -1.94139
         Item               Value     Threshold  Converged?
 Maximum Force            0.015046     0.000450     NO 
 RMS     Force            0.003743     0.000300     NO 
 Maximum Displacement     0.031008     0.001800     NO 
 RMS     Displacement     0.010157     0.001200     NO 
 Predicted change in Energy=-3.213544D-04
 GradGradGradGradGradGradGradGradGradGradGradGradGradGradGradGradGradGrad

                          Input orientation:                          
 ---------------------------------------------------------------------
 Center     Atomic      Atomic             Coordinates (Angstroms)
 Number     Number       Type             X           Y           Z
 ---------------------------------------------------------------------
      1          6           0       -1.118425   -0.222378    0.020344
      2          1           0       -1.132475   -0.841461    0.919218
      3          1           0       -1.963009    0.463426    0.032170
      4          1           0       -1.172210   -0.857870   -0.863389
      5          8           0        0.024016    0.610555   -0.019339
      6          8           0        1.165414   -0.265239   -0.108534
      7          1           0        1.566728   -0.128143    0.758531
 ---------------------------------------------------------------------
                    Distance matrix (angstroms):
                    1          2          3          4          5
     1  C    0.000000
     2  H    1.091529   0.000000
     3  H    1.088021   1.783079   0.000000
     4  H    1.089829   1.783125   1.781351   0.000000
     5  O    1.414399   2.080075   1.993130   2.073559   0.000000
     6  O    2.287874   2.582364   3.215242   2.526955   1.441444
     7  H    2.786368   2.796487   3.651931   3.265716   1.879020
                    6          7
     6  O    0.000000
     7  H    0.965220   0.000000
 Stoichiometry    CH4O2
 Framework group  C1[X(CH4O2)]
 Deg. of freedom    15
 Full point group                 C1      NOp   1
 Largest Abelian subgroup         C1      NOp   1
 Largest concise Abelian subgroup C1      NOp   1
                         Standard orientation:                         
 ---------------------------------------------------------------------
 Center     Atomic      Atomic             Coordinates (Angstroms)
 Number     Number       Type             X           Y           Z
 ---------------------------------------------------------------------
      1          6           0       -1.122309   -0.225684    0.019511
      2          1           0       -1.137912   -0.846520    0.917148
      3          1           0       -1.967404    0.459500    0.030794
      4          1           0       -1.173683   -0.859495   -0.865571
      5          8           0        0.019625    0.608132   -0.016023
      6          8           0        1.161840   -0.266681   -0.104386
      7          1           0        1.561134   -0.130986    0.763831
 ---------------------------------------------------------------------
 Rotational constants (GHZ):          43.4446546          10.5300469           9.1951762
 Standard basis: CC-pVTZ (5D, 7F)
 There are   165 symmetry adapted cartesian basis functions of A   symmetry.
 There are   146 symmetry adapted basis functions of A   symmetry.
   146 basis functions,   224 primitive gaussians,   165 cartesian basis functions
    13 alpha electrons       13 beta electrons
       nuclear repulsion energy        81.2939785774 Hartrees.
 NAtoms=    7 NActive=    7 NUniq=    7 SFac= 1.00D+00 NAtFMM=   60 NAOKFM=F Big=F
 Integral buffers will be    131072 words long.
 Raffenetti 2 integral format.
 Two-electron integral symmetry is turned on.
 Nuclear repulsion after empirical dispersion term =       81.2921112273 Hartrees.
 One-electron integrals computed using PRISM.
 NBasis=   146 RedAO= T EigKep=  1.88D-03  NBF=   146
 NBsUse=   146 1.00D-06 EigRej= -1.00D+00 NBFU=   146
 Initial guess from the checkpoint file:  "/localscratch/339542/Gau-35402.chk"
 B after Tr=    -0.000000    0.000000    0.000000
         Rot=    0.999999   -0.001005    0.000602   -0.001068 Ang=  -0.18 deg.
 Initial guess <Sx>= 0.0000 <Sy>= 0.0000 <Sz>= 0.0000 <S**2>= 0.0000 S= 0.0000
 ExpMin= 1.03D-01 ExpMax= 1.53D+04 ExpMxC= 5.22D+02 IAcc=3 IRadAn=         5 AccDes= 0.00D+00
 Harris functional with IExCor=  419 and IRadAn=       5 diagonalized for initial guess.
 HarFok:  IExCor=  419 AccDes= 0.00D+00 IRadAn=         5 IDoV= 1 UseB2=F ITyADJ=14
 ICtDFT=  3500011 ScaDFX=  1.000000  1.000000  1.000000  1.000000
 FoFCou: FMM=F IPFlag=           0 FMFlag=      100000 FMFlg1=           0
         NFxFlg=           0 DoJE=T BraDBF=F KetDBF=T FulRan=T
         wScrn=  0.000000 ICntrl=       500 IOpCl=  0 I1Cent=   200000004 NGrid=           0
         NMat0=    1 NMatS0=      1 NMatT0=    0 NMatD0=    1 NMtDS0=    0 NMtDT0=    0
 Petite list used in FoFCou.
 Keep R1 and R2 ints in memory in canonical form, NReq=154881865.
 Requested convergence on RMS density matrix=1.00D-08 within 128 cycles.
 Requested convergence on MAX density matrix=1.00D-06.
 Requested convergence on             energy=1.00D-06.
 No special actions if energy rises.
 Integral accuracy reduced to 1.0D-05 until final iterations.
 Initial convergence to 1.0D-05 achieved.  Increase integral accuracy.
 SCF Done:  E(UB2PLYPD3) =  -190.577190525     A.U. after   10 cycles
            NFock= 10  Conv=0.33D-08     -V/T= 2.0041
 <Sx>= 0.0000 <Sy>= 0.0000 <Sz>= 0.0000 <S**2>=-0.0000 S=-0.0000
 <L.S>=  0.00000000000    
 Annihilation of the first spin contaminant:
 S**2 before annihilation    -0.0000,   after    -0.0000
 DoSCS=T DFT=T ScalE2(SS,OS)=  0.270000  0.270000
 ExpMin= 1.03D-01 ExpMax= 1.53D+04 ExpMxC= 5.22D+02 IAcc=3 IRadAn=         5 AccDes= 0.00D+00
 HarFok:  IExCor=  205 AccDes= 0.00D+00 IRadAn=         5 IDoV=-2 UseB2=F ITyADJ=14
 ICtDFT= 12500011 ScaDFX=  1.000000  1.000000  1.000000  1.000000
 Range of M.O.s used for correlation:     4   146
 NBasis=   146 NAE=    13 NBE=    13 NFC=     3 NFV=     0
 NROrb=    143 NOA=    10 NOB=    10 NVA=   133 NVB=   133

 **** Warning!!: The largest alpha MO coefficient is  0.11960733D+02


 **** Warning!!: The largest beta MO coefficient is  0.11960733D+02

 DoSCS=T DFT=T ScalE2(SS,OS)=  0.270000  0.270000
 Fully direct method using O(ONN) memory.
 JobTyp=2 Pass  1:  I=   4 to  13 NPSUse= 40 ParTrn=T ParDer=T DoDerP=T.
 JobTyp=3 Pass  1:  I=   4 to  13 NPSUse= 40 ParTrn=T ParDer=T DoDerP=T.
 Spin components of T(2) and E(2):
     alpha-alpha T2 =       0.3260234583D-01 E2=     -0.2623303340D-01
     alpha-beta  T2 =       0.1998050457D+00 E2=     -0.1642258647D+00
     beta-beta   T2 =       0.3260234583D-01 E2=     -0.2623303340D-01
 (S**2,0)=  0.00000D+00           (S**2,1)=  0.00000D+00
 E(PUHF)=      -0.19057719052D+03        E(PMP2)=      -0.19079388246D+03
 E2(B2PLYPD3) =    -0.2166919315D+00 E(B2PLYPD3) =    -0.19079388245634D+03
          IDoAtm=1111111
          Differentiating once with respect to electric field.
                with respect to dipole field.
          Differentiating once with respect to nuclear coordinates.
 Keep R1 and R2 ints in memory in canonical form, NReq=154886747.
          There are     1 degrees of freedom in the 1st order CPHF.  IDoFFX=0 NUNeed=     1.
 LinEq1:  Iter=  0 NonCon=     1 RMS=9.04D-04 Max=8.95D-03 NDo=     1
 AX will form     1 AO Fock derivatives at one time.
 LinEq1:  Iter=  1 NonCon=     1 RMS=2.14D-04 Max=2.24D-03 NDo=     1
 LinEq1:  Iter=  2 NonCon=     1 RMS=7.73D-05 Max=1.14D-03 NDo=     1
 LinEq1:  Iter=  3 NonCon=     1 RMS=3.35D-05 Max=3.14D-04 NDo=     1
 LinEq1:  Iter=  4 NonCon=     1 RMS=1.84D-05 Max=1.90D-04 NDo=     1
 LinEq1:  Iter=  5 NonCon=     1 RMS=9.51D-06 Max=9.62D-05 NDo=     1
 LinEq1:  Iter=  6 NonCon=     1 RMS=4.22D-06 Max=5.76D-05 NDo=     1
 LinEq1:  Iter=  7 NonCon=     1 RMS=1.23D-06 Max=1.05D-05 NDo=     1
 LinEq1:  Iter=  8 NonCon=     1 RMS=2.70D-07 Max=2.72D-06 NDo=     1
 LinEq1:  Iter=  9 NonCon=     1 RMS=5.22D-08 Max=4.86D-07 NDo=     1
 LinEq1:  Iter= 10 NonCon=     1 RMS=8.51D-09 Max=8.83D-08 NDo=     1
 LinEq1:  Iter= 11 NonCon=     1 RMS=1.80D-09 Max=2.00D-08 NDo=     1
 LinEq1:  Iter= 12 NonCon=     1 RMS=3.42D-10 Max=4.83D-09 NDo=     1
 LinEq1:  Iter= 13 NonCon=     0 RMS=7.43D-11 Max=7.17D-10 NDo=     1
 Linear equations converged to 1.000D-10 1.000D-09 after    13 iterations.
 End of Minotr F.D. properties file   721 does not exist.
 End of Minotr F.D. properties file   722 does not exist.
 End of Minotr F.D. properties file   788 does not exist.
 Calling FoFJK, ICntrl=  10002127 FMM=F ISym2X=0 I1Cent= 0 IOpClX= 1 NMat=1 NMatS=1 NMatT=0.
 ***** Axes restored to original set *****
 -------------------------------------------------------------------
 Center     Atomic                   Forces (Hartrees/Bohr)
 Number     Number              X              Y              Z
 -------------------------------------------------------------------
      1        6           0.000092456   -0.001038032   -0.000077588
      2        1           0.000161081    0.000158592   -0.000034603
      3        1          -0.000010674    0.000313677    0.000013024
      4        1           0.000166271    0.000170717    0.000029182
      5        8          -0.003788203    0.003881562    0.000837630
      6        8           0.003839290   -0.004056020   -0.001071615
      7        1          -0.000460221    0.000569502    0.000303971
 -------------------------------------------------------------------
 Cartesian Forces:  Max     0.004056020 RMS     0.001751022

 GradGradGradGradGradGradGradGradGradGradGradGradGradGradGradGradGradGrad
 Berny optimization.
 Using GEDIIS/GDIIS optimizer.
 FormGI is forming the generalized inverse of G from B-inverse, IUseBI=4.
 Internal  Forces:  Max     0.004841548 RMS     0.001242018
 Search for a local minimum.
 Step number   2 out of a maximum of  100
 All quantities printed in internal units (Hartrees-Bohrs-Radians)
 Mixed Optimization -- RFO/linear search
 Update second derivatives using D2CorX and points    1    2
 DE= -4.11D-04 DEPred=-3.21D-04 R= 1.28D+00
 TightC=F SS=  1.41D+00  RLast= 4.70D-02 DXNew= 5.0454D-01 1.4090D-01
 Trust test= 1.28D+00 RLast= 4.70D-02 DXMaxT set to 3.00D-01
 The second derivative matrix:
                          R1        R2        R3        R4        R5
           R1           0.34605
           R2          -0.00006   0.35026
           R3          -0.00006   0.00005   0.34768
           R4           0.00061  -0.00308   0.00027   0.45165
           R5           0.00286  -0.00422   0.00325  -0.00126   0.29795
           R6           0.00013  -0.00029   0.00012   0.00047  -0.00430
           A1          -0.00008   0.00054  -0.00000  -0.00226  -0.00174
           A2          -0.00008   0.00119   0.00011  -0.00562  -0.00862
           A3           0.00019  -0.00113   0.00004   0.00448   0.00194
           A4          -0.00009   0.00062  -0.00000  -0.00257  -0.00195
           A5          -0.00015  -0.00002  -0.00022   0.00135   0.00925
           A6           0.00021  -0.00124   0.00005   0.00489   0.00197
           A7          -0.00021  -0.00166  -0.00063   0.01055   0.03173
           A8          -0.00049  -0.00040  -0.00077   0.00615   0.03370
           D1          -0.00001  -0.00036  -0.00009   0.00199   0.00483
           D2          -0.00000  -0.00003  -0.00001   0.00020   0.00052
           D3           0.00001   0.00033   0.00008  -0.00185  -0.00445
           D4           0.00002  -0.00035  -0.00004   0.00166   0.00264
                          R6        A1        A2        A3        A4
           R6           0.54494
           A1          -0.00016   0.16042
           A2          -0.00055   0.00098   0.16210
           A3           0.00027  -0.00086  -0.00204   0.16173
           A4          -0.00019   0.00048   0.00111  -0.00097   0.16054
           A5           0.00038  -0.00012   0.00004   0.00035  -0.00014
           A6           0.00029  -0.00094  -0.00225   0.00189  -0.00107
           A7           0.00158  -0.00158  -0.00277   0.00353  -0.00180
           A8           0.00145  -0.00068  -0.00047   0.00175  -0.00077
           D1           0.00026  -0.00032  -0.00061   0.00069  -0.00036
           D2           0.00003  -0.00003  -0.00006   0.00007  -0.00004
           D3          -0.00024   0.00029   0.00057  -0.00064   0.00034
           D4           0.00017  -0.00029  -0.00061   0.00060  -0.00033
                          A5        A6        A7        A8        D1
           A5           0.15944
           A6           0.00039   0.16207
           A7          -0.00126   0.00390   0.25105
           A8          -0.00190   0.00196  -0.00346   0.15373
           D1          -0.00015   0.00076   0.00051  -0.00033   0.01577
           D2          -0.00002   0.00008   0.00004  -0.00004   0.00001
           D3           0.00014  -0.00071  -0.00048   0.00030  -0.00013
           D4          -0.00002   0.00066   0.00080   0.00012   0.00018
                          D2        D3        D4
           D2           0.01562
           D3          -0.00001   0.01575
           D4           0.00002  -0.00016   0.01014
 ITU=  1  0
 Use linear search instead of GDIIS.
     Eigenvalues ---    0.01011   0.01562   0.10126   0.10810   0.14423
     Eigenvalues ---    0.16000   0.16000   0.16610   0.23832   0.31866
     Eigenvalues ---    0.34622   0.34791   0.35091   0.45279   0.54503
 RFO step:  Lambda=-4.49668848D-05 EMin= 1.01051025D-02
 Quartic linear search produced a step of  0.44570.
 Iteration  1 RMS(Cart)=  0.00540171 RMS(Int)=  0.00004055
 Iteration  2 RMS(Cart)=  0.00004171 RMS(Int)=  0.00000662
 Iteration  3 RMS(Cart)=  0.00000000 RMS(Int)=  0.00000662
 Variable       Old X    -DE/DX   Delta X   Delta X   Delta X     New X
                                 (Linear)    (Quad)   (Total)
    R1        2.06269  -0.00012  -0.00021  -0.00034  -0.00054   2.06215
    R2        2.05606   0.00021  -0.00060   0.00134   0.00073   2.05680
    R3        2.05948  -0.00013  -0.00041  -0.00022  -0.00063   2.05885
    R4        2.67283  -0.00010   0.00388  -0.00347   0.00041   2.67324
    R5        2.72393   0.00484   0.01591   0.00377   0.01968   2.74362
    R6        1.82400   0.00016   0.00057  -0.00003   0.00054   1.82454
    A1        1.91618   0.00020  -0.00144   0.00274   0.00130   1.91748
    A2        1.91390   0.00024  -0.00208   0.00390   0.00180   1.91570
    A3        1.94712  -0.00018   0.00338  -0.00417  -0.00080   1.94632
    A4        1.91564   0.00021  -0.00165   0.00310   0.00145   1.91709
    A5        1.82979  -0.00028  -0.00201  -0.00113  -0.00314   1.82665
    A6        1.93960  -0.00019   0.00375  -0.00448  -0.00074   1.93886
    A7        1.85826  -0.00139  -0.00099  -0.00724  -0.00823   1.85004
    A8        1.75925  -0.00141  -0.00622  -0.00803  -0.01425   1.74500
    D1        1.12114   0.00001   0.00116  -0.00176  -0.00059   1.12056
    D2       -3.08912  -0.00002   0.00000  -0.00133  -0.00132  -3.09045
    D3       -1.02071  -0.00003  -0.00120  -0.00060  -0.00181  -1.02252
    D4       -1.94139  -0.00011   0.00938  -0.01183  -0.00246  -1.94384
         Item               Value     Threshold  Converged?
 Maximum Force            0.004842     0.000450     NO 
 RMS     Force            0.001242     0.000300     NO 
 Maximum Displacement     0.014045     0.001800     NO 
 RMS     Displacement     0.005415     0.001200     NO 
 Predicted change in Energy=-6.222070D-05
 GradGradGradGradGradGradGradGradGradGradGradGradGradGradGradGradGradGrad

                          Input orientation:                          
 ---------------------------------------------------------------------
 Center     Atomic      Atomic             Coordinates (Angstroms)
 Number     Number       Type             X           Y           Z
 ---------------------------------------------------------------------
      1          6           0       -1.117993   -0.222454    0.020429
      2          1           0       -1.128380   -0.841298    0.919167
      3          1           0       -1.963180    0.463195    0.033748
      4          1           0       -1.170087   -0.856505   -0.864030
      5          8           0        0.021567    0.614755   -0.019875
      6          8           0        1.167115   -0.272672   -0.109839
      7          1           0        1.560996   -0.126131    0.759402
 ---------------------------------------------------------------------
                    Distance matrix (angstroms):
                    1          2          3          4          5
     1  C    0.000000
     2  H    1.091241   0.000000
     3  H    1.088409   1.783973   0.000000
     4  H    1.089496   1.783750   1.782305   0.000000
     5  O    1.414616   2.079487   1.991248   2.072979   0.000000
     6  O    2.289369   2.579048   3.218830   2.524317   1.451861
     7  H    2.780709   2.787424   3.646053   3.260030   1.877771
                    6          7
     6  O    0.000000
     7  H    0.965504   0.000000
 Stoichiometry    CH4O2
 Framework group  C1[X(CH4O2)]
 Deg. of freedom    15
 Full point group                 C1      NOp   1
 Largest Abelian subgroup         C1      NOp   1
 Largest concise Abelian subgroup C1      NOp   1
                         Standard orientation:                         
 ---------------------------------------------------------------------
 Center     Atomic      Atomic             Coordinates (Angstroms)
 Number     Number       Type             X           Y           Z
 ---------------------------------------------------------------------
      1          6           0       -1.120865   -0.229320    0.019811
      2          1           0       -1.130944   -0.847948    0.918702
      3          1           0       -1.969311    0.452340    0.030470
      4          1           0       -1.167400   -0.863864   -0.864604
      5          8           0        0.014847    0.613242   -0.017437
      6          8           0        1.164823   -0.268799   -0.103809
      7          1           0        1.555483   -0.120152    0.766528
 ---------------------------------------------------------------------
 Rotational constants (GHZ):          42.9236202          10.5223571           9.1672857
 Standard basis: CC-pVTZ (5D, 7F)
 There are   165 symmetry adapted cartesian basis functions of A   symmetry.
 There are   146 symmetry adapted basis functions of A   symmetry.
   146 basis functions,   224 primitive gaussians,   165 cartesian basis functions
    13 alpha electrons       13 beta electrons
       nuclear repulsion energy        81.1247978923 Hartrees.
 NAtoms=    7 NActive=    7 NUniq=    7 SFac= 1.00D+00 NAtFMM=   60 NAOKFM=F Big=F
 Integral buffers will be    131072 words long.
 Raffenetti 2 integral format.
 Two-electron integral symmetry is turned on.
 Nuclear repulsion after empirical dispersion term =       81.1229295086 Hartrees.
 One-electron integrals computed using PRISM.
 NBasis=   146 RedAO= T EigKep=  1.87D-03  NBF=   146
 NBsUse=   146 1.00D-06 EigRej= -1.00D+00 NBFU=   146
 Initial guess from the checkpoint file:  "/localscratch/339542/Gau-35402.chk"
 B after Tr=    -0.000000    0.000000   -0.000000
         Rot=    0.999998    0.001431    0.000172   -0.001313 Ang=   0.22 deg.
 Initial guess <Sx>= 0.0000 <Sy>= 0.0000 <Sz>= 0.0000 <S**2>=-0.0000 S=-0.0000
 Keep R1 and R2 ints in memory in canonical form, NReq=154881865.
 Requested convergence on RMS density matrix=1.00D-08 within 128 cycles.
 Requested convergence on MAX density matrix=1.00D-06.
 Requested convergence on             energy=1.00D-06.
 No special actions if energy rises.
 SCF Done:  E(UB2PLYPD3) =  -190.576803910     A.U. after    9 cycles
            NFock=  9  Conv=0.55D-08     -V/T= 2.0042
 <Sx>= 0.0000 <Sy>= 0.0000 <Sz>= 0.0000 <S**2>=-0.0000 S=-0.0000
 <L.S>=  0.00000000000    
 Annihilation of the first spin contaminant:
 S**2 before annihilation    -0.0000,   after     0.0000
 DoSCS=T DFT=T ScalE2(SS,OS)=  0.270000  0.270000
 ExpMin= 1.03D-01 ExpMax= 1.53D+04 ExpMxC= 5.22D+02 IAcc=3 IRadAn=         5 AccDes= 0.00D+00
 HarFok:  IExCor=  205 AccDes= 0.00D+00 IRadAn=         5 IDoV=-2 UseB2=F ITyADJ=14
 ICtDFT= 12500011 ScaDFX=  1.000000  1.000000  1.000000  1.000000
 Range of M.O.s used for correlation:     4   146
 NBasis=   146 NAE=    13 NBE=    13 NFC=     3 NFV=     0
 NROrb=    143 NOA=    10 NOB=    10 NVA=   133 NVB=   133

 **** Warning!!: The largest alpha MO coefficient is  0.11964716D+02


 **** Warning!!: The largest beta MO coefficient is  0.11964716D+02

 DoSCS=T DFT=T ScalE2(SS,OS)=  0.270000  0.270000
 Fully direct method using O(ONN) memory.
 JobTyp=2 Pass  1:  I=   4 to  13 NPSUse= 40 ParTrn=T ParDer=T DoDerP=T.
 JobTyp=3 Pass  1:  I=   4 to  13 NPSUse= 40 ParTrn=T ParDer=T DoDerP=T.
 Spin components of T(2) and E(2):
     alpha-alpha T2 =       0.3279529515D-01 E2=     -0.2627671556D-01
     alpha-beta  T2 =       0.2013997633D+00 E2=     -0.1645901449D+00
     beta-beta   T2 =       0.3279529515D-01 E2=     -0.2627671556D-01
 (S**2,0)=  0.00000D+00           (S**2,1)=  0.00000D+00
 E(PUHF)=      -0.19057680391D+03        E(PMP2)=      -0.19079394749D+03
 E2(B2PLYPD3) =    -0.2171435760D+00 E(B2PLYPD3) =    -0.19079394748594D+03
          IDoAtm=1111111
          Differentiating once with respect to electric field.
                with respect to dipole field.
          Differentiating once with respect to nuclear coordinates.
 Keep R1 and R2 ints in memory in canonical form, NReq=154886747.
          There are     1 degrees of freedom in the 1st order CPHF.  IDoFFX=0 NUNeed=     1.
 LinEq1:  Iter=  0 NonCon=     1 RMS=9.13D-04 Max=9.01D-03 NDo=     1
 AX will form     1 AO Fock derivatives at one time.
 LinEq1:  Iter=  1 NonCon=     1 RMS=2.14D-04 Max=2.24D-03 NDo=     1
 LinEq1:  Iter=  2 NonCon=     1 RMS=7.85D-05 Max=1.13D-03 NDo=     1
 LinEq1:  Iter=  3 NonCon=     1 RMS=3.41D-05 Max=3.36D-04 NDo=     1
 LinEq1:  Iter=  4 NonCon=     1 RMS=1.91D-05 Max=2.13D-04 NDo=     1
 LinEq1:  Iter=  5 NonCon=     1 RMS=9.81D-06 Max=1.07D-04 NDo=     1
 LinEq1:  Iter=  6 NonCon=     1 RMS=4.40D-06 Max=6.62D-05 NDo=     1
 LinEq1:  Iter=  7 NonCon=     1 RMS=1.30D-06 Max=1.16D-05 NDo=     1
 LinEq1:  Iter=  8 NonCon=     1 RMS=2.86D-07 Max=2.82D-06 NDo=     1
 LinEq1:  Iter=  9 NonCon=     1 RMS=5.51D-08 Max=5.56D-07 NDo=     1
 LinEq1:  Iter= 10 NonCon=     1 RMS=9.04D-09 Max=9.59D-08 NDo=     1
 LinEq1:  Iter= 11 NonCon=     1 RMS=1.93D-09 Max=2.09D-08 NDo=     1
 LinEq1:  Iter= 12 NonCon=     1 RMS=3.85D-10 Max=5.69D-09 NDo=     1
 LinEq1:  Iter= 13 NonCon=     0 RMS=8.61D-11 Max=9.23D-10 NDo=     1
 Linear equations converged to 1.000D-10 1.000D-09 after    13 iterations.
 End of Minotr F.D. properties file   721 does not exist.
 End of Minotr F.D. properties file   722 does not exist.
 End of Minotr F.D. properties file   788 does not exist.
 Calling FoFJK, ICntrl=  10002127 FMM=F ISym2X=0 I1Cent= 0 IOpClX= 1 NMat=1 NMatS=1 NMatT=0.
 ***** Axes restored to original set *****
 -------------------------------------------------------------------
 Center     Atomic                   Forces (Hartrees/Bohr)
 Number     Number              X              Y              Z
 -------------------------------------------------------------------
      1        6          -0.000016744    0.000120512   -0.000102074
      2        1           0.000012358    0.000062538   -0.000018619
      3        1          -0.000165045   -0.000050104    0.000012376
      4        1          -0.000005575    0.000057954   -0.000020462
      5        8          -0.000377237    0.000011501    0.000011096
      6        8           0.000284314   -0.000174844    0.000326212
      7        1           0.000267928   -0.000027558   -0.000208528
 -------------------------------------------------------------------
 Cartesian Forces:  Max     0.000377237 RMS     0.000160321

 GradGradGradGradGradGradGradGradGradGradGradGradGradGradGradGradGradGrad
 Berny optimization.
 Using GEDIIS/GDIIS optimizer.
 FormGI is forming the generalized inverse of G from B-inverse, IUseBI=4.
 Internal  Forces:  Max     0.000552171 RMS     0.000222932
 Search for a local minimum.
 Step number   3 out of a maximum of  100
 All quantities printed in internal units (Hartrees-Bohrs-Radians)
 Mixed Optimization -- En-DIIS/RFO-DIIS
 Update second derivatives using D2CorX and points    1    2    3
 DE= -6.50D-05 DEPred=-6.22D-05 R= 1.05D+00
 TightC=F SS=  1.41D+00  RLast= 2.63D-02 DXNew= 5.0454D-01 7.8774D-02
 Trust test= 1.05D+00 RLast= 2.63D-02 DXMaxT set to 3.00D-01
 The second derivative matrix:
                          R1        R2        R3        R4        R5
           R1           0.34599
           R2          -0.00000   0.35025
           R3          -0.00012   0.00013   0.34764
           R4           0.00084  -0.00345   0.00040   0.45147
           R5           0.00521  -0.00772   0.00460  -0.00579   0.24899
           R6           0.00018  -0.00044   0.00008   0.00064  -0.00241
           A1          -0.00007   0.00050  -0.00005  -0.00216   0.00021
           A2          -0.00011   0.00123   0.00008  -0.00560  -0.00736
           A3           0.00019  -0.00120   0.00001   0.00469   0.00320
           A4          -0.00008   0.00057  -0.00004  -0.00249  -0.00017
           A5          -0.00017   0.00020  -0.00005   0.00076   0.00215
           A6           0.00023  -0.00132   0.00004   0.00505   0.00251
           A7          -0.00045  -0.00097  -0.00044   0.01005   0.02293
           A8          -0.00083   0.00051  -0.00059   0.00557   0.02492
           D1           0.00004  -0.00042  -0.00004   0.00184   0.00308
           D2          -0.00001  -0.00003  -0.00002   0.00024   0.00091
           D3          -0.00007   0.00040  -0.00001  -0.00152  -0.00074
           D4          -0.00005  -0.00043  -0.00024   0.00241   0.01104
                          R6        A1        A2        A3        A4
           R6           0.54525
           A1           0.00003   0.16055
           A2          -0.00050   0.00102   0.16213
           A3           0.00040  -0.00081  -0.00207   0.16182
           A4           0.00000   0.00061   0.00116  -0.00093   0.16068
           A5          -0.00030  -0.00052  -0.00005   0.00010  -0.00054
           A6           0.00040  -0.00090  -0.00227   0.00198  -0.00104
           A7           0.00013  -0.00257  -0.00312   0.00302  -0.00278
           A8          -0.00027  -0.00183  -0.00086   0.00108  -0.00191
           D1           0.00024  -0.00031  -0.00059   0.00070  -0.00035
           D2           0.00005  -0.00002  -0.00006   0.00008  -0.00003
           D3          -0.00012   0.00033   0.00054  -0.00062   0.00038
           D4           0.00073   0.00001  -0.00059   0.00081  -0.00003
                          A5        A6        A7        A8        D1
           A5           0.16084
           A6           0.00017   0.16215
           A7           0.00205   0.00352   0.25828
           A8           0.00208   0.00145   0.00496   0.16356
           D1          -0.00019   0.00075   0.00059  -0.00019   0.01572
           D2          -0.00005   0.00008  -0.00005  -0.00016   0.00002
           D3           0.00002  -0.00066  -0.00105  -0.00046  -0.00006
           D4          -0.00106   0.00086  -0.00194  -0.00326   0.00028
                          D2        D3        D4
           D2           0.01562
           D3          -0.00002   0.01565
           D4           0.00003  -0.00019   0.01082
 ITU=  1  1  0
 Use linear search instead of GDIIS.
     Eigenvalues ---    0.01010   0.01561   0.10138   0.10831   0.15558
     Eigenvalues ---    0.16000   0.16237   0.16609   0.23308   0.28064
     Eigenvalues ---    0.34623   0.34785   0.35093   0.45266   0.54528
 RFO step:  Lambda=-1.71397959D-05 EMin= 1.01027262D-02
 Quartic linear search produced a step of  0.01102.
 Iteration  1 RMS(Cart)=  0.01249238 RMS(Int)=  0.00022638
 Iteration  2 RMS(Cart)=  0.00018548 RMS(Int)=  0.00000003
 Iteration  3 RMS(Cart)=  0.00000002 RMS(Int)=  0.00000002
 Variable       Old X    -DE/DX   Delta X   Delta X   Delta X     New X
                                 (Linear)    (Quad)   (Total)
    R1        2.06215  -0.00005  -0.00001  -0.00020  -0.00020   2.06194
    R2        2.05680   0.00010   0.00001   0.00030   0.00031   2.05711
    R3        2.05885  -0.00002  -0.00001  -0.00011  -0.00012   2.05873
    R4        2.67324   0.00002   0.00000   0.00027   0.00027   2.67351
    R5        2.74362   0.00055   0.00022   0.00346   0.00368   2.74730
    R6        1.82454  -0.00008   0.00001  -0.00009  -0.00008   1.82445
    A1        1.91748  -0.00007   0.00001  -0.00037  -0.00035   1.91713
    A2        1.91570   0.00005   0.00002   0.00025   0.00027   1.91598
    A3        1.94632  -0.00007  -0.00001  -0.00034  -0.00035   1.94597
    A4        1.91709  -0.00007   0.00002  -0.00040  -0.00039   1.91671
    A5        1.82665   0.00022  -0.00003   0.00114   0.00111   1.82776
    A6        1.93886  -0.00006  -0.00001  -0.00027  -0.00028   1.93858
    A7        1.85004   0.00037  -0.00009   0.00088   0.00079   1.85082
    A8        1.74500   0.00047  -0.00016   0.00169   0.00153   1.74654
    D1        1.12056  -0.00004  -0.00001  -0.00148  -0.00149   1.11907
    D2       -3.09045  -0.00002  -0.00001  -0.00142  -0.00143  -3.09188
    D3       -1.02252  -0.00001  -0.00002  -0.00137  -0.00139  -1.02391
    D4       -1.94384  -0.00037  -0.00003  -0.03694  -0.03697  -1.98081
         Item               Value     Threshold  Converged?
 Maximum Force            0.000552     0.000450     NO 
 RMS     Force            0.000223     0.000300     YES
 Maximum Displacement     0.031888     0.001800     NO 
 RMS     Displacement     0.012465     0.001200     NO 
 Predicted change in Energy=-8.582976D-06
 GradGradGradGradGradGradGradGradGradGradGradGradGradGradGradGradGradGrad

                          Input orientation:                          
 ---------------------------------------------------------------------
 Center     Atomic      Atomic             Coordinates (Angstroms)
 Number     Number       Type             X           Y           Z
 ---------------------------------------------------------------------
      1          6           0       -1.121391   -0.222994    0.019785
      2          1           0       -1.136139   -0.844369    0.916584
      3          1           0       -1.964891    0.464993    0.033019
      4          1           0       -1.173272   -0.853998   -0.866786
      5          8           0        0.021558    0.610076   -0.014951
      6          8           0        1.166303   -0.281781   -0.102766
      7          1           0        1.577870   -0.113039    0.754118
 ---------------------------------------------------------------------
                    Distance matrix (angstroms):
                    1          2          3          4          5
     1  C    0.000000
     2  H    1.091133   0.000000
     3  H    1.088574   1.783801   0.000000
     4  H    1.089433   1.783782   1.782146   0.000000
     5  O    1.414760   2.079286   1.992318   2.072861   0.000000
     6  O    2.291728   2.580081   3.221875   2.526809   1.453809
     7  H    2.799527   2.815508   3.661319   3.277977   1.880550
                    6          7
     6  O    0.000000
     7  H    0.965460   0.000000
 Stoichiometry    CH4O2
 Framework group  C1[X(CH4O2)]
 Deg. of freedom    15
 Full point group                 C1      NOp   1
 Largest Abelian subgroup         C1      NOp   1
 Largest concise Abelian subgroup C1      NOp   1
                         Standard orientation:                         
 ---------------------------------------------------------------------
 Center     Atomic      Atomic             Coordinates (Angstroms)
 Number     Number       Type             X           Y           Z
 ---------------------------------------------------------------------
      1          6           0       -1.122808   -0.228503    0.021479
      2          1           0       -1.132969   -0.842218    0.923600
      3          1           0       -1.971130    0.453614    0.029034
      4          1           0       -1.170446   -0.867470   -0.859609
      5          8           0        0.014236    0.612267   -0.020764
      6          8           0        1.165215   -0.272228   -0.101230
      7          1           0        1.575782   -0.093216    0.754049
 ---------------------------------------------------------------------
 Rotational constants (GHZ):          43.0176878          10.4940864           9.1424738
 Standard basis: CC-pVTZ (5D, 7F)
 There are   165 symmetry adapted cartesian basis functions of A   symmetry.
 There are   146 symmetry adapted basis functions of A   symmetry.
   146 basis functions,   224 primitive gaussians,   165 cartesian basis functions
    13 alpha electrons       13 beta electrons
       nuclear repulsion energy        81.0617831236 Hartrees.
 NAtoms=    7 NActive=    7 NUniq=    7 SFac= 1.00D+00 NAtFMM=   60 NAOKFM=F Big=F
 Integral buffers will be    131072 words long.
 Raffenetti 2 integral format.
 Two-electron integral symmetry is turned on.
 Nuclear repulsion after empirical dispersion term =       81.0599174370 Hartrees.
 One-electron integrals computed using PRISM.
 NBasis=   146 RedAO= T EigKep=  1.88D-03  NBF=   146
 NBsUse=   146 1.00D-06 EigRej= -1.00D+00 NBFU=   146
 Initial guess from the checkpoint file:  "/localscratch/339542/Gau-35402.chk"
 B after Tr=     0.000000   -0.000000    0.000000
         Rot=    0.999992    0.004075   -0.000529    0.000005 Ang=   0.47 deg.
 Initial guess <Sx>= 0.0000 <Sy>= 0.0000 <Sz>= 0.0000 <S**2>=-0.0000 S=-0.0000
 ExpMin= 1.03D-01 ExpMax= 1.53D+04 ExpMxC= 5.22D+02 IAcc=3 IRadAn=         5 AccDes= 0.00D+00
 Harris functional with IExCor=  419 and IRadAn=       5 diagonalized for initial guess.
 HarFok:  IExCor=  419 AccDes= 0.00D+00 IRadAn=         5 IDoV= 1 UseB2=F ITyADJ=14
 ICtDFT=  3500011 ScaDFX=  1.000000  1.000000  1.000000  1.000000
 FoFCou: FMM=F IPFlag=           0 FMFlag=      100000 FMFlg1=           0
         NFxFlg=           0 DoJE=T BraDBF=F KetDBF=T FulRan=T
         wScrn=  0.000000 ICntrl=       500 IOpCl=  0 I1Cent=   200000004 NGrid=           0
         NMat0=    1 NMatS0=      1 NMatT0=    0 NMatD0=    1 NMtDS0=    0 NMtDT0=    0
 Petite list used in FoFCou.
 Keep R1 and R2 ints in memory in canonical form, NReq=154881865.
 Requested convergence on RMS density matrix=1.00D-08 within 128 cycles.
 Requested convergence on MAX density matrix=1.00D-06.
 Requested convergence on             energy=1.00D-06.
 No special actions if energy rises.
 Integral accuracy reduced to 1.0D-05 until final iterations.
 Initial convergence to 1.0D-05 achieved.  Increase integral accuracy.
 SCF Done:  E(UB2PLYPD3) =  -190.576768183     A.U. after   10 cycles
            NFock= 10  Conv=0.67D-08     -V/T= 2.0042
 <Sx>= 0.0000 <Sy>= 0.0000 <Sz>= 0.0000 <S**2>=-0.0000 S=-0.0000
 <L.S>=  0.00000000000    
 Annihilation of the first spin contaminant:
 S**2 before annihilation    -0.0000,   after     0.0000
 DoSCS=T DFT=T ScalE2(SS,OS)=  0.270000  0.270000
 ExpMin= 1.03D-01 ExpMax= 1.53D+04 ExpMxC= 5.22D+02 IAcc=3 IRadAn=         5 AccDes= 0.00D+00
 HarFok:  IExCor=  205 AccDes= 0.00D+00 IRadAn=         5 IDoV=-2 UseB2=F ITyADJ=14
 ICtDFT= 12500011 ScaDFX=  1.000000  1.000000  1.000000  1.000000
 Range of M.O.s used for correlation:     4   146
 NBasis=   146 NAE=    13 NBE=    13 NFC=     3 NFV=     0
 NROrb=    143 NOA=    10 NOB=    10 NVA=   133 NVB=   133

 **** Warning!!: The largest alpha MO coefficient is  0.11964025D+02


 **** Warning!!: The largest beta MO coefficient is  0.11964025D+02

 DoSCS=T DFT=T ScalE2(SS,OS)=  0.270000  0.270000
 Fully direct method using O(ONN) memory.
 JobTyp=2 Pass  1:  I=   4 to  13 NPSUse= 40 ParTrn=T ParDer=T DoDerP=T.
 JobTyp=3 Pass  1:  I=   4 to  13 NPSUse= 40 ParTrn=T ParDer=T DoDerP=T.
 Spin components of T(2) and E(2):
     alpha-alpha T2 =       0.3281442271D-01 E2=     -0.2627752335D-01
     alpha-beta  T2 =       0.2016434769D+00 E2=     -0.1646337696D+00
     beta-beta   T2 =       0.3281442271D-01 E2=     -0.2627752335D-01
 (S**2,0)=  0.00000D+00           (S**2,1)=  0.00000D+00
 E(PUHF)=      -0.19057676818D+03        E(PMP2)=      -0.19079395700D+03
 E2(B2PLYPD3) =    -0.2171888163D+00 E(B2PLYPD3) =    -0.19079395699962D+03
          IDoAtm=1111111
          Differentiating once with respect to electric field.
                with respect to dipole field.
          Differentiating once with respect to nuclear coordinates.
 Keep R1 and R2 ints in memory in canonical form, NReq=154886747.
          There are     1 degrees of freedom in the 1st order CPHF.  IDoFFX=0 NUNeed=     1.
 LinEq1:  Iter=  0 NonCon=     1 RMS=9.14D-04 Max=9.10D-03 NDo=     1
 AX will form     1 AO Fock derivatives at one time.
 LinEq1:  Iter=  1 NonCon=     1 RMS=2.14D-04 Max=2.23D-03 NDo=     1
 LinEq1:  Iter=  2 NonCon=     1 RMS=7.87D-05 Max=1.12D-03 NDo=     1
 LinEq1:  Iter=  3 NonCon=     1 RMS=3.41D-05 Max=3.37D-04 NDo=     1
 LinEq1:  Iter=  4 NonCon=     1 RMS=1.92D-05 Max=2.16D-04 NDo=     1
 LinEq1:  Iter=  5 NonCon=     1 RMS=9.78D-06 Max=1.06D-04 NDo=     1
 LinEq1:  Iter=  6 NonCon=     1 RMS=4.43D-06 Max=6.73D-05 NDo=     1
 LinEq1:  Iter=  7 NonCon=     1 RMS=1.31D-06 Max=1.17D-05 NDo=     1
 LinEq1:  Iter=  8 NonCon=     1 RMS=2.88D-07 Max=2.77D-06 NDo=     1
 LinEq1:  Iter=  9 NonCon=     1 RMS=5.51D-08 Max=5.44D-07 NDo=     1
 LinEq1:  Iter= 10 NonCon=     1 RMS=9.11D-09 Max=9.84D-08 NDo=     1
 LinEq1:  Iter= 11 NonCon=     1 RMS=1.95D-09 Max=2.10D-08 NDo=     1
 LinEq1:  Iter= 12 NonCon=     1 RMS=3.93D-10 Max=5.69D-09 NDo=     1
 LinEq1:  Iter= 13 NonCon=     0 RMS=8.79D-11 Max=9.16D-10 NDo=     1
 Linear equations converged to 1.000D-10 1.000D-09 after    13 iterations.
 End of Minotr F.D. properties file   721 does not exist.
 End of Minotr F.D. properties file   722 does not exist.
 End of Minotr F.D. properties file   788 does not exist.
 Calling FoFJK, ICntrl=  10002127 FMM=F ISym2X=0 I1Cent= 0 IOpClX= 1 NMat=1 NMatS=1 NMatT=0.
 ***** Axes restored to original set *****
 -------------------------------------------------------------------
 Center     Atomic                   Forces (Hartrees/Bohr)
 Number     Number              X              Y              Z
 -------------------------------------------------------------------
      1        6           0.000360400   -0.000106233    0.000062121
      2        1           0.000018004    0.000021702   -0.000032925
      3        1           0.000080092    0.000025513   -0.000040282
      4        1          -0.000036843   -0.000004498   -0.000065666
      5        8           0.000222416   -0.000054713    0.000173034
      6        8          -0.000472551   -0.000064039    0.000003293
      7        1          -0.000171518    0.000182267   -0.000099575
 -------------------------------------------------------------------
 Cartesian Forces:  Max     0.000472551 RMS     0.000160900

 GradGradGradGradGradGradGradGradGradGradGradGradGradGradGradGradGradGrad
 Berny optimization.
 Using GEDIIS/GDIIS optimizer.
 FormGI is forming the generalized inverse of G from B-inverse, IUseBI=4.
 Internal  Forces:  Max     0.000643261 RMS     0.000243751
 Search for a local minimum.
 Step number   4 out of a maximum of  100
 All quantities printed in internal units (Hartrees-Bohrs-Radians)
 Mixed Optimization -- En-DIIS/RFO-DIIS
 Swapping is turned off.
 Update second derivatives using D2CorX and points    1    2    3    4
 DE= -9.51D-06 DEPred=-8.58D-06 R= 1.11D+00
 TightC=F SS=  1.41D+00  RLast= 3.73D-02 DXNew= 5.0454D-01 1.1190D-01
 Trust test= 1.11D+00 RLast= 3.73D-02 DXMaxT set to 3.00D-01
 The second derivative matrix:
                          R1        R2        R3        R4        R5
           R1           0.34583
           R2           0.00020   0.35095
           R3          -0.00014  -0.00054   0.34811
           R4           0.00063   0.00004  -0.00169   0.46014
           R5           0.00689   0.00236  -0.00309   0.02887   0.35770
           R6          -0.00007   0.00072  -0.00049   0.00259   0.00911
           A1          -0.00010  -0.00033   0.00054  -0.00492  -0.00897
           A2           0.00000   0.00119   0.00003  -0.00543  -0.00719
           A3           0.00003  -0.00139   0.00033   0.00291  -0.00134
           A4          -0.00018   0.00042   0.00011  -0.00332  -0.00124
           A5           0.00015   0.00182  -0.00148   0.00826   0.02379
           A6           0.00010  -0.00169   0.00044   0.00296  -0.00388
           A7          -0.00051   0.00590  -0.00523   0.03268   0.10401
           A8          -0.00050   0.00521  -0.00422   0.02358   0.08346
           D1           0.00004  -0.00077   0.00017   0.00115  -0.00013
           D2          -0.00004  -0.00024   0.00014  -0.00049  -0.00143
           D3          -0.00020   0.00111  -0.00035  -0.00057   0.00573
           D4          -0.00092  -0.00025   0.00023  -0.00075   0.01166
                          R6        A1        A2        A3        A4
           R6           0.54553
           A1          -0.00067   0.16135
           A2          -0.00021   0.00109   0.16225
           A3          -0.00030  -0.00048  -0.00207   0.16181
           A4          -0.00028   0.00084   0.00131  -0.00091   0.16069
           A5           0.00191  -0.00244  -0.00032  -0.00034  -0.00102
           A6          -0.00037  -0.00047  -0.00234   0.00207  -0.00098
           A7           0.00562  -0.00905  -0.00319   0.00020  -0.00492
           A8           0.00450  -0.00674  -0.00121  -0.00057  -0.00338
           D1          -0.00001  -0.00011  -0.00071   0.00093  -0.00036
           D2          -0.00019   0.00017  -0.00007   0.00017  -0.00000
           D3           0.00008  -0.00001   0.00081  -0.00110   0.00029
           D4          -0.00118   0.00046  -0.00014   0.00042  -0.00047
                          A5        A6        A7        A8        D1
           A5           0.16482
           A6          -0.00057   0.16236
           A7           0.01758  -0.00008   0.30933
           A8           0.01311  -0.00087   0.04394   0.19240
           D1          -0.00080   0.00104  -0.00135  -0.00169   0.01584
           D2          -0.00048   0.00021  -0.00169  -0.00134   0.00009
           D3           0.00124  -0.00120   0.00197   0.00218  -0.00024
           D4          -0.00108   0.00077  -0.00772  -0.00576   0.00048
                          D2        D3        D4
           D2           0.01567
           D3          -0.00016   0.01582
           D4           0.00004  -0.00122   0.00673
 ITU=  1  1  1  0
     Eigenvalues ---    0.00544   0.01558   0.10156   0.10833   0.15498
     Eigenvalues ---    0.15999   0.16491   0.16701   0.23091   0.34578
     Eigenvalues ---    0.34781   0.35071   0.41918   0.51453   0.54937
 En-DIIS/RFO-DIIS/Sim-DIIS IScMMF=       -3 using points:     4    3
 RFO step:  Lambda=-6.91214676D-06.
 DidBck=F Rises=F RFO-DIIS coefs:    1.77451   -0.77451
 Iteration  1 RMS(Cart)=  0.00870575 RMS(Int)=  0.00014276
 Iteration  2 RMS(Cart)=  0.00011909 RMS(Int)=  0.00000008
 Iteration  3 RMS(Cart)=  0.00000002 RMS(Int)=  0.00000008
 Variable       Old X    -DE/DX   Delta X   Delta X   Delta X     New X
                                 (Linear)    (Quad)   (Total)
    R1        2.06194  -0.00004  -0.00016  -0.00006  -0.00022   2.06173
    R2        2.05711  -0.00005   0.00024  -0.00031  -0.00007   2.05704
    R3        2.05873   0.00006  -0.00009   0.00021   0.00011   2.05884
    R4        2.67351  -0.00031   0.00021  -0.00064  -0.00043   2.67308
    R5        2.74730  -0.00057   0.00285  -0.00200   0.00085   2.74815
    R6        1.82445  -0.00013  -0.00006  -0.00020  -0.00026   1.82419
    A1        1.91713   0.00006  -0.00027   0.00046   0.00019   1.91732
    A2        1.91598   0.00003   0.00021   0.00012   0.00033   1.91630
[...]
 -------------------
 - Thermochemistry -
 -------------------
 Temperature   298.150 Kelvin.  Pressure   1.00000 Atm.
 Atom     1 has atomic number  6 and mass  12.00000
 Atom     2 has atomic number  1 and mass   1.00783
 Atom     3 has atomic number  1 and mass   1.00783
 Atom     4 has atomic number  1 and mass   1.00783
 Atom     5 has atomic number  8 and mass  15.99491
 Atom     6 has atomic number  8 and mass  15.99491
 Atom     7 has atomic number  1 and mass   1.00783
 Molecular mass:    48.02113 amu.
 Principal axes and moments of inertia in atomic units:
                           1         2         3
     Eigenvalues --    41.95519 171.64801 197.26511
           X            0.99932   0.02873   0.02321
           Y           -0.02853   0.99955  -0.00889
           Z           -0.02346   0.00822   0.99969
 This molecule is an asymmetric top.
 Rotational symmetry number  1.
 Rotational temperatures (Kelvin)      2.06444     0.50460     0.43907
 Rotational constants (GHZ):          43.01592    10.51420     9.14881
 Zero-point vibrational energy     144317.7 (Joules/Mol)
                                   34.49276 (Kcal/Mol)
 Warning -- explicit consideration of   3 degrees of freedom as
           vibrations may cause significant error
 Vibrational temperatures:    273.88   368.22   645.67  1261.70  1512.81
          (Kelvin)           1701.76  1748.74  1973.93  2103.09  2127.54
                             2196.58  4366.77  4471.49  4516.68  5445.99
 
 Zero-point correction=                           0.054968 (Hartree/Particle)
 Thermal correction to Energy=                    0.059266
 Thermal correction to Enthalpy=                  0.060210
 Thermal correction to Gibbs Free Energy=         0.029567
 Sum of electronic and zero-point Energies=           -190.738994
 Sum of electronic and thermal Energies=              -190.734696
 Sum of electronic and thermal Enthalpies=            -190.733752
 Sum of electronic and thermal Free Energies=         -190.764395
 
                     E (Thermal)             CV                S
                      KCal/Mol        Cal/Mol-Kelvin    Cal/Mol-Kelvin
 Total                   37.190             12.550             64.493
 Electronic               0.000              0.000              0.000
 Translational            0.889              2.981             37.531
 Rotational               0.889              2.981             21.879
 Vibrational             35.413              6.589              5.083
 Vibration     1          0.634              1.853              2.224
 Vibration     2          0.666              1.753              1.689
 Vibration     3          0.808              1.364              0.800
                       Q            Log10(Q)             Ln(Q)
 Total Bot       0.251176D-13        -13.600022        -31.315207
 Total V=0       0.482333D+12         11.683347         26.901900
 Vib (Bot)       0.142329D-24        -24.846707        -57.211657
 Vib (Bot)    1  0.105125D+01          0.021707          0.049981
 Vib (Bot)    2  0.760437D+00         -0.118937         -0.273862
 Vib (Bot)    3  0.382515D+00         -0.417352         -0.960989
 Vib (V=0)       0.273314D+01          0.436661          1.005450
 Vib (V=0)    1  0.166410D+01          0.221179          0.509285
 Vib (V=0)    2  0.141009D+01          0.149247          0.343654
 Vib (V=0)    3  0.112954D+01          0.052901          0.121808
 Electronic      0.100000D+01          0.000000          0.000000
 Translational   0.130798D+08          7.116602         16.386583
 Rotational      0.134922D+05          4.130083          9.509867
 ***** Axes restored to original set *****
 -------------------------------------------------------------------
 Center     Atomic                   Forces (Hartrees/Bohr)
 Number     Number              X              Y              Z
 -------------------------------------------------------------------
      1        6           0.000022320    0.000031921    0.000030950
      2        1           0.000006393   -0.000010973   -0.000009854
      3        1           0.000012243   -0.000003766   -0.000011975
      4        1          -0.000011064   -0.000012722   -0.000011075
      5        8           0.000026665   -0.000037557   -0.000005350
      6        8          -0.000052563    0.000033164    0.000014766
      7        1          -0.000003995   -0.000000069   -0.000007463
 -------------------------------------------------------------------
 Cartesian Forces:  Max     0.000052563 RMS     0.000021548
 FormGI is forming the generalized inverse of G from B-inverse, IUseBI=4.

 GradGradGradGradGradGradGradGradGradGradGradGradGradGradGradGradGradGrad
 Berny optimization.
 Internal  Forces:  Max     0.000065220 RMS     0.000019452
 Search for a local minimum.
 Step number   1 out of a maximum of    2
 All quantities printed in internal units (Hartrees-Bohrs-Radians)
 Second derivative matrix not updated -- analytic derivatives used.
 The second derivative matrix:
                          R1        R2        R3        R4        R5
           R1           0.33471
           R2           0.00242   0.34515
           R3           0.00370   0.00243   0.33863
           R4           0.01561   0.00955   0.01475   0.33253
           R5           0.00165  -0.00228   0.00034   0.01277   0.28457
           R6          -0.00060  -0.00030  -0.00051   0.00165  -0.00460
           A1           0.00709   0.00496  -0.00525  -0.02498  -0.00042
           A2           0.00842  -0.00481   0.00777  -0.02784   0.00027
           A3          -0.00101  -0.00558  -0.00513   0.03099  -0.00727
           A4          -0.00550   0.00512   0.00679  -0.02543  -0.00012
           A5          -0.00435   0.00687  -0.00434   0.01520   0.01569
           A6          -0.00526  -0.00571  -0.00034   0.03263  -0.00752
           A7          -0.00562   0.00973  -0.00549   0.03375   0.05884
           A8           0.00112   0.00052  -0.00036   0.00308   0.06669
           D1          -0.00096  -0.00702   0.00698   0.00469  -0.00523
           D2           0.00439   0.00009  -0.00449  -0.00009  -0.00017
           D3          -0.00732   0.00725   0.00086  -0.00488   0.00498
           D4          -0.00102  -0.00083   0.00082  -0.00464   0.00277
                          R6        A1        A2        A3        A4
           R6           0.51358
           A1          -0.00005   0.06815
           A2           0.00033   0.00416   0.07324
           A3           0.00073  -0.03495  -0.04185   0.14036
           A4           0.00044   0.00345   0.00380  -0.00296   0.06809
           A5          -0.00047  -0.03754  -0.00149  -0.02715  -0.03720
           A6          -0.00101  -0.00305  -0.04147  -0.03378  -0.03468
           A7           0.00317  -0.00461   0.00394  -0.01332  -0.00419
           A8          -0.00323  -0.00095  -0.00049  -0.00136  -0.00115
           D1          -0.00012  -0.02076   0.01736   0.00076  -0.00081
           D2          -0.00008   0.02018  -0.00015   0.01536  -0.02028
           D3          -0.00035   0.00095  -0.01754  -0.02104   0.02126
           D4          -0.00271   0.00165   0.00043  -0.00053  -0.00012
                          A5        A6        A7        A8        D1
           A5           0.13315
           A6          -0.02625   0.13932
           A7           0.03250  -0.01340   0.31957
           A8           0.00519  -0.00105   0.02026   0.21364
           D1          -0.02042   0.02153  -0.00667  -0.00254   0.02780
           D2          -0.00018  -0.01509   0.00025  -0.00130  -0.00866
           D3           0.01966  -0.00080   0.00735  -0.00019  -0.01055
           D4          -0.00141  -0.00006  -0.01274  -0.00726  -0.00037
                          D2        D3        D4
           D2           0.02321
           D3          -0.00860   0.02762
           D4           0.00048  -0.00051   0.00502
 ITU=  0
     Eigenvalues ---    0.00399   0.00753   0.08503   0.08554   0.13369
     Eigenvalues ---    0.16483   0.17322   0.18497   0.26126   0.32647
     Eigenvalues ---    0.33417   0.34455   0.35871   0.41058   0.51380
 Angle between quadratic step and forces=  68.57 degrees.
 Linear search not attempted -- first point.
 Iteration  1 RMS(Cart)=  0.00031049 RMS(Int)=  0.00000011
 Iteration  2 RMS(Cart)=  0.00000010 RMS(Int)=  0.00000000
 Variable       Old X    -DE/DX   Delta X   Delta X   Delta X     New X
                                 (Linear)    (Quad)   (Total)
    R1        2.06161  -0.00000   0.00000  -0.00001  -0.00001   2.06160
    R2        2.05705  -0.00001   0.00000  -0.00004  -0.00004   2.05702
    R3        2.05898   0.00002   0.00000   0.00007   0.00007   2.05905
    R4        2.67252  -0.00003   0.00000  -0.00009  -0.00009   2.67242
    R5        2.74736  -0.00007   0.00000  -0.00022  -0.00022   2.74714
    R6        1.82399  -0.00001   0.00000  -0.00002  -0.00002   1.82397
    A1        1.91786   0.00001   0.00000   0.00016   0.00016   1.91802
    A2        1.91635  -0.00001   0.00000  -0.00013  -0.00013   1.91622
    A3        1.94579   0.00000   0.00000   0.00002   0.00002   1.94581
    A4        1.91599  -0.00001   0.00000  -0.00011  -0.00011   1.91588
    A5        1.82748  -0.00001   0.00000  -0.00000  -0.00000   1.82747
    A6        1.93861   0.00001   0.00000   0.00008   0.00008   1.93868
    A7        1.84754  -0.00002   0.00000  -0.00004  -0.00004   1.84750
    A8        1.74347  -0.00000   0.00000   0.00004   0.00004   1.74351
    D1        1.11675  -0.00001   0.00000  -0.00061  -0.00061   1.11614
    D2       -3.09357   0.00000   0.00000  -0.00042  -0.00042  -3.09399
    D3       -1.02661  -0.00001   0.00000  -0.00052  -0.00052  -1.02712
    D4       -2.02261  -0.00000   0.00000  -0.00053  -0.00053  -2.02314
         Item               Value     Threshold  Converged?
 Maximum Force            0.000065     0.000450     YES
 RMS     Force            0.000019     0.000300     YES
 Maximum Displacement     0.000632     0.001800     YES
 RMS     Displacement     0.000310     0.001200     YES
 Predicted change in Energy=-1.670374D-08
 Optimization completed.
    -- Stationary point found.
                           ----------------------------
                           !   Optimized Parameters   !
                           ! (Angstroms and Degrees)  !
 --------------------------                            --------------------------
 ! Name  Definition              Value          Derivative Info.                !
 --------------------------------------------------------------------------------
 ! R1    R(1,2)                  1.091          -DE/DX =    0.0                 !
 ! R2    R(1,3)                  1.0885         -DE/DX =    0.0                 !
 ! R3    R(1,4)                  1.0896         -DE/DX =    0.0                 !
 ! R4    R(1,5)                  1.4142         -DE/DX =    0.0                 !
 ! R5    R(5,6)                  1.4538         -DE/DX =   -0.0001              !
 ! R6    R(6,7)                  0.9652         -DE/DX =    0.0                 !
 ! A1    A(2,1,3)              109.8854         -DE/DX =    0.0                 !
 ! A2    A(2,1,4)              109.7988         -DE/DX =    0.0                 !
 ! A3    A(2,1,5)              111.4858         -DE/DX =    0.0                 !
 ! A4    A(3,1,4)              109.7781         -DE/DX =    0.0                 !
 ! A5    A(3,1,5)              104.7068         -DE/DX =    0.0                 !
 ! A6    A(4,1,5)              111.0739         -DE/DX =    0.0                 !
 ! A7    A(1,5,6)              105.8562         -DE/DX =    0.0                 !
 ! A8    A(5,6,7)               99.8935         -DE/DX =    0.0                 !
 ! D1    D(2,1,5,6)             63.9852         -DE/DX =    0.0                 !
 ! D2    D(3,1,5,6)           -177.2485         -DE/DX =    0.0                 !
 ! D3    D(4,1,5,6)            -58.8202         -DE/DX =    0.0                 !
 ! D4    D(1,5,6,7)           -115.8872         -DE/DX =    0.0                 !
 --------------------------------------------------------------------------------
 GradGradGradGradGradGradGradGradGradGradGradGradGradGradGradGradGradGrad


 ----------------------------------------------------------------------

 Electric dipole moment (input orientation):
 (Debye = 10**-18 statcoulomb cm , SI units = C m)
                  (au)            (Debye)         (10**-30 SI)
   Tot        0.654071D+00      0.166248D+01      0.554545D+01
   x         -0.272638D+00     -0.692977D+00     -0.231152D+01
   y         -0.225585D+00     -0.573380D+00     -0.191259D+01
   z          0.550081D+00      0.139817D+01      0.466378D+01

 Dipole polarizability, Alpha (input orientation).
 (esu units = cm**3 , SI units = C**2 m**2 J**-1)
 Alpha(0;0):
               (au)            (10**-24 esu)      (10**-40 SI)
   iso        0.241739D+02      0.358221D+01      0.398574D+01
   aniso      0.999886D+01      0.148168D+01      0.164859D+01
   xx         0.304211D+02      0.450794D+01      0.501576D+01
   yx        -0.164179D+01     -0.243288D+00     -0.270694D+00
   yy         0.212460D+02      0.314833D+01      0.350299D+01
   zx         0.113548D+01      0.168261D+00      0.187216D+00
   zy         0.180107D+00      0.266891D-01      0.296956D-01
   zz         0.208547D+02      0.309035D+01      0.343847D+01

 ----------------------------------------------------------------------

 Dipole orientation:
     6         -1.87367138         -0.21685949          1.06128781
     1         -1.10884501         -0.73505806          2.90431584
     1         -3.40471551          1.13699399          1.29463520
     1         -2.57074971         -1.89770606          0.09783662
     8         -0.05899290          1.06103199         -0.42743079
     8          1.95634961         -0.75184210         -0.87450879
     1          3.32502196          0.07936344         -0.00113882

 Electric dipole moment (dipole orientation):
 (Debye = 10**-18 statcoulomb cm , SI units = C m)
                  (au)            (Debye)         (10**-30 SI)
   Tot        0.654071D+00      0.166248D+01      0.554545D+01
   x          0.000000D+00      0.000000D+00      0.000000D+00
   y          0.000000D+00      0.000000D+00      0.000000D+00
   z          0.654071D+00      0.166248D+01      0.554545D+01

 Dipole polarizability, Alpha (dipole orientation).
 (esu units = cm**3 , SI units = C**2 m**2 J**-1)
 Alpha(0;0):
               (au)            (10**-24 esu)      (10**-40 SI)
   iso        0.241739D+02      0.358221D+01      0.398574D+01
   aniso      0.999886D+01      0.148168D+01      0.164859D+01
   xx         0.297807D+02      0.441305D+01      0.491018D+01
   yx        -0.172282D+01     -0.255296D+00     -0.284055D+00
   yy         0.215503D+02      0.319343D+01      0.355317D+01
   zx        -0.251153D+01     -0.372170D+00     -0.414096D+00
   zy         0.663506D+00      0.983215D-01      0.109397D+00
   zz         0.211907D+02      0.314014D+01      0.349388D+01

 ----------------------------------------------------------------------
 1\1\GINC-N68\Freq\UB2PLYPD3-FC\CC-pVTZ\C1H4O2\ROOT\01-Jun-2019\0\\#N G
 eom=AllCheck Guess=TCheck SCRF=Check GenChk UB2PLYPD3(FC)/CC-pVTZ Freq
 \\Title Card Required\\0,1\C,-1.1230645933,-0.2236122386,0.0194492568\
 H,-1.1416514552,-0.8480890257,0.9138049448\H,-1.9642111257,0.467205284
 6,0.0326756634\H,-1.1751549224,-0.8509628783,-0.8698600935\O,0.0221654
 657,0.605644017,-0.0095890749\O,1.1615171488,-0.2933869474,-0.09488505
 42\H,1.5904384821,-0.0979082116,0.7474053576\\Version=ES64L-G16RevB.01
 \State=1-A\HF=-190.5767856\MP2=-190.7939621\PUHF=-190.5767856\PMP2-0=-
 190.7939621\S2=0.\S2-1=0.\S2A=0.\RMSD=2.120e-09\RMSF=2.155e-05\ZeroPoi
 nt=0.0549677\Thermal=0.059266\Dipole=-0.2726381,-0.225585,0.5500807\Di
 poleDeriv=0.502365,0.1462218,-0.0063476,0.2383737,0.3968152,-0.0164041
 ,-0.0015324,-0.0218076,0.374273,0.0006573,0.0068622,-0.0352048,-0.0864
 355,-0.0274013,0.0852889,0.0280651,0.1108393,-0.1169875,-0.0686271,0.0
 537252,0.0022298,0.0575359,-0.0165087,-0.0027441,0.0019919,0.001406,0.
 0836266,0.0169965,0.0002988,0.0236593,-0.0893636,-0.0159364,-0.0736656
 ,-0.0316069,-0.0975759,-0.0920483,-0.2478743,-0.1779967,-0.0118309,-0.
 195716,-0.335551,0.0014506,0.0372055,-0.0400513,-0.3009204,-0.4872562,
 -0.0607722,0.0443546,0.032376,-0.2841692,0.067724,-0.031399,0.0985643,
 -0.123495,0.2837389,0.0316609,-0.0168605,0.0432296,0.2827515,-0.061649
 7,-0.0027241,-0.0513747,0.1755515\Polar=30.4210857,-1.6417876,21.24601
 36,1.1354828,0.1801071,20.8546869\PG=C01 [X(C1H4O2)]\NImag=0\\0.499626
 10,-0.07504652,0.57964780,0.00306534,0.00421543,0.58051782,-0.04991159
 ,0.01013861,-0.00851273,0.05467559,0.00361596,-0.12789958,0.11463456,0
 .00571765,0.14333950,-0.00595801,0.11643007,-0.23318208,0.00275437,-0.
 13159320,0.24431535,-0.19957641,0.12596656,0.00258077,0.00215238,0.000
 16700,-0.00036159,0.23000543,0.13736638,-0.16774202,-0.00209574,0.0124
 7191,-0.00946647,-0.00215399,-0.14105763,0.17223169,0.00234478,-0.0015
 4941,-0.05028595,-0.02079161,0.01644655,0.00185203,-0.00308828,0.00203
 768,0.04623820,-0.04848863,0.00597613,0.00133447,0.00220572,0.00053449
 ,-0.00215058,0.00292113,0.01296934,0.02076741,0.05458071,-0.00115056,-
 0.13056655,-0.11745589,0.00128934,0.01143865,0.01556757,-0.00045483,-0
 .00972636,-0.01635289,0.01081169,0.14625433,-0.00219780,-0.12016498,-0
 .23482890,0.00097268,-0.01514980,-0.02126907,0.00035728,0.00183076,0.0
 0133736,0.00500637,0.13350179,0.24550050,-0.15120483,-0.10940858,-0.00
 008977,-0.01385333,-0.01014150,0.00531676,-0.02856043,-0.01396043,0.00
 031556,-0.01604172,-0.01161171,-0.00434359,0.38935049,-0.05646072,-0.1
 6276234,0.00130196,-0.02876322,-0.01983931,0.00323383,0.01903087,0.012
 50148,-0.00050831,-0.02931379,-0.01923849,-0.00091522,0.02388312,0.313
 45275,0.00254652,-0.00019773,-0.06278327,0.02549240,0.01832670,0.00810
 493,0.00097465,0.00080398,-0.00041240,-0.02468739,-0.01784507,0.009436
 46,0.01056160,0.00212930,0.07259113,-0.04505563,0.03856376,0.00424690,
 0.00483132,0.00058879,0.00015326,-0.00584311,-0.00694310,-0.00020260,0
 .00456085,0.00058663,-0.00015479,-0.15519542,0.07336232,0.01024528,0.3
 0215024,-0.00842536,0.01209176,0.00012070,-0.00009265,0.00203431,-0.00
 159794,-0.00406181,0.00157318,-0.00030261,-0.00119308,0.00187774,0.000
 51469,0.09158585,-0.11868629,-0.02682382,-0.05902066,0.14280085,0.0005
 3695,0.00384122,-0.00078361,0.00017582,-0.00316339,0.00093547,-0.00143
 164,-0.00077747,0.00138784,-0.00069381,0.00209838,-0.00005345,-0.02346
 134,-0.00376741,-0.03550570,0.18592131,0.12689311,0.43712404,-0.005389
 01,0.00381005,-0.00262498,-0.00010009,-0.00048240,0.00024580,-0.001098
 99,-0.00084648,0.00065474,0.00026194,0.00052944,0.00035985,-0.02449476
 ,-0.00173859,-0.02513306,-0.10544825,-0.01879228,-0.16104729,0.1362691
 5,0.00010081,-0.00276907,-0.00072102,-0.00076164,0.00039290,0.00011367
 ,0.00040984,0.00062849,0.00022899,0.00021522,-0.00003932,0.00038275,0.
 02965325,-0.00542779,0.02360664,-0.04713775,-0.04169154,-0.12512445,0.
 01752027,0.04890634,-0.00033778,-0.00257460,0.00134600,-0.00009094,0.0
 0049858,-0.00075662,0.00096882,0.00035478,-0.00011708,0.00042353,0.000
 48613,-0.00012290,0.01170078,-0.00147415,0.00856885,-0.20020935,-0.098
 80414,-0.40310458,0.18754494,0.10151341,0.39418633\\-0.00002232,-0.000
 03192,-0.00003095,-0.00000639,0.00001097,0.00000985,-0.00001224,0.0000
 0377,0.00001197,0.00001106,0.00001272,0.00001108,-0.00002667,0.0000375
 6,0.00000535,0.00005256,-0.00003316,-0.00001477,0.00000400,0.00000007,
 0.00000746\\\@


 IN THE UNIVERSE THE DIFFICULT THINGS ARE DONE AS IF THEY WERE EASY.

                                                          -- LAO-TSU
 Job cpu time:       0 days  1 hours 53 minutes  8.6 seconds.
 Elapsed time:       0 days  0 hours  2 minutes 55.5 seconds.
 File lengths (MBytes):  RWF=   3871 Int=      0 D2E=      0 Chk=      5 Scr=      1
 Normal termination of Gaussian 16 at Sat Jun  1 01:27:57 2019.
