 Entering Gaussian System, Link 0=g16
 Initial command:
 /ichec/packages/gaussian/16b01/l1.exe "/localscratch/386879/Gau-6721.inp" -scrdir="/localscratch/386879/"
 Entering Link 1 = /ichec/packages/gaussian/16b01/l1.exe PID=      6761.
  
 Copyright (c) 1988-2017, Gaussian, Inc.  All Rights Reserved.
  
 This is part of the Gaussian(R) 16 program.  It is based on
 the Gaussian(R) 09 system (copyright 2009, Gaussian, Inc.),
 the Gaussian(R) 03 system (copyright 2003, Gaussian, Inc.),
 the Gaussian(R) 98 system (copyright 1998, Gaussian, Inc.),
 the Gaussian(R) 94 system (copyright 1995, Gaussian, Inc.),
 the Gaussian 92(TM) system (copyright 1992, Gaussian, Inc.),
 the Gaussian 90(TM) system (copyright 1990, Gaussian, Inc.),
 the Gaussian 88(TM) system (copyright 1988, Gaussian, Inc.),
 the Gaussian 86(TM) system (copyright 1986, Carnegie Mellon
 University), and the Gaussian 82(TM) system (copyright 1983,
 Carnegie Mellon University). Gaussian is a federally registered
 trademark of Gaussian, Inc.
  
 This software contains proprietary and confidential information,
 including trade secrets, belonging to Gaussian, Inc.
  
 This software is provided under written license and may be
 used, copied, transmitted, or stored only in accord with that
 written license.
  
 The following legend is applicable only to US Government
 contracts under FAR:
  
                    RESTRICTED RIGHTS LEGEND
  
 Use, reproduction and disclosure by the US Government is
 subject to restrictions as set forth in subparagraphs (a)
 and (c) of the Commercial Computer Software - Restricted
 Rights clause in FAR 52.227-19.
  
 Gaussian, Inc.
 340 Quinnipiac St., Bldg. 40, Wallingford CT 06492
  
  
 ---------------------------------------------------------------
 Warning -- This program may not be used in any manner that
 competes with the business of Gaussian, Inc. or will provide
 assistance to any competitor of Gaussian, Inc.  The licensee
 of this program is prohibited from giving any competitor of
 Gaussian, Inc. access to this program.  By using this program,
 the user acknowledges that Gaussian, Inc. is engaged in the
 business of creating and licensing software in the field of
 computational chemistry and represents and warrants to the
 licensee that it is not a competitor of Gaussian, Inc. and that
 it will not use this program in any manner prohibited above.
 ---------------------------------------------------------------
  

 Cite this work as:
 Gaussian 16, Revision B.01,
 M. J. Frisch, G. W. Trucks, H. B. Schlegel, G. E. Scuseria, 
 M. A. Robb, J. R. Cheeseman, G. Scalmani, V. Barone, 
 G. A. Petersson, H. Nakatsuji, X. Li, M. Caricato, A. V. Marenich, 
 J. Bloino, B. G. Janesko, R. Gomperts, B. Mennucci, H. P. Hratchian, 
 J. V. Ortiz, A. F. Izmaylov, J. L. Sonnenberg, D. Williams-Young, 
 F. Ding, F. Lipparini, F. Egidi, J. Goings, B. Peng, A. Petrone, 
 T. Henderson, D. Ranasinghe, V. G. Zakrzewski, J. Gao, N. Rega, 
 G. Zheng, W. Liang, M. Hada, M. Ehara, K. Toyota, R. Fukuda, 
 J. Hasegawa, M. Ishida, T. Nakajima, Y. Honda, O. Kitao, H. Nakai, 
 T. Vreven, K. Throssell, J. A. Montgomery, Jr., J. E. Peralta, 
 F. Ogliaro, M. J. Bearpark, J. J. Heyd, E. N. Brothers, K. N. Kudin, 
 V. N. Staroverov, T. A. Keith, R. Kobayashi, J. Normand, 
 K. Raghavachari, A. P. Rendell, J. C. Burant, S. S. Iyengar, 
 J. Tomasi, M. Cossi, J. M. Millam, M. Klene, C. Adamo, R. Cammi, 
 J. W. Ochterski, R. L. Martin, K. Morokuma, O. Farkas, 
 J. B. Foresman, and D. J. Fox, Gaussian, Inc., Wallingford CT, 2016.
 
 ******************************************
 Gaussian 16:  ES64L-G16RevB.01 20-Dec-2017
                30-Jul-2019 
 ******************************************
 %mem=100GB
 %nproc=40
 Will use up to   40 processors via shared memory.
 -----------------------------------------------
 # opt=maxcyc=500 freq=noraman uB2PLYPD3/cc-pvtz
 -----------------------------------------------
 1/6=500,18=20,19=15,38=1/1,3;
 2/9=110,12=2,17=6,18=5,40=1/2;
 3/5=16,6=1,11=2,25=1,30=1,71=1,74=-60,116=2/1,2,3;
 4//1;
 5/5=2,38=5/2;
 8/6=4,10=1/1;
 9/15=2,16=-3/6;
 10/5=1/2;
 6/7=2,8=2,9=2,10=2/1;
 7/12=2/1,2,3,16;
 1/6=500,18=20,19=15/3(2);
 2/9=110/2;
 99//99;
 2/9=110/2;
 3/5=16,6=1,11=2,25=1,30=1,71=1,74=-60,116=2/1,2,3;
 4/5=5,16=3,69=1/1;
 5/5=2,38=5/2;
 8/6=4,10=1/1;
 9/15=2,16=-3/6;
 10/5=1/2;
 7/12=2/1,2,3,16;
 1/6=500,18=20,19=15/3(-8);
 2/9=110/2;
 6/7=2,8=2,9=2,10=2/1;
 99/9=10/99;
 -------------------
 Title Card Required
 -------------------
 Symbolic Z-matrix:
 Charge =  0 Multiplicity = 2
 C                     0.66293  -0.02061   0.00002 
 H                     1.02117  -0.53584   0.89448 
 H                     1.01961  -0.55345  -0.8847 
 H                     1.08314   0.98211  -0.01018 
 O                    -0.74422   0.12225  -0.00002 
 

 GradGradGradGradGradGradGradGradGradGradGradGradGradGradGradGradGradGrad
 Berny optimization.
 Initialization pass.
                           ----------------------------
                           !    Initial Parameters    !
                           ! (Angstroms and Degrees)  !
 --------------------------                            --------------------------
 ! Name  Definition              Value          Derivative Info.                !
 --------------------------------------------------------------------------------
 ! R1    R(1,2)                  1.0926         estimate D2E/DX2                !
 ! R2    R(1,3)                  1.0926         estimate D2E/DX2                !
 ! R3    R(1,4)                  1.0873         estimate D2E/DX2                !
 ! R4    R(1,5)                  1.4144         estimate D2E/DX2                !
 ! A1    A(2,1,3)              109.0181         estimate D2E/DX2                !
 ! A2    A(2,1,4)              108.4116         estimate D2E/DX2                !
 ! A3    A(2,1,5)              111.9524         estimate D2E/DX2                !
 ! A4    A(3,1,4)              108.4206         estimate D2E/DX2                !
 ! A5    A(3,1,5)              111.9633         estimate D2E/DX2                !
 ! A6    A(4,1,5)              106.9387         estimate D2E/DX2                !
 ! D1    D(2,1,4,3)            118.2203         estimate D2E/DX2                !
 ! D2    D(2,1,5,3)           -122.7777         estimate D2E/DX2                !
 ! D3    D(2,1,5,4)            118.6026         estimate D2E/DX2                !
 ! D4    D(3,1,5,4)           -118.6197         estimate D2E/DX2                !
 --------------------------------------------------------------------------------
 Trust Radius=3.00D-01 FncErr=1.00D-07 GrdErr=1.00D-07 EigMax=2.50D+02 EigMin=1.00D-04
 Number of steps in this run=    100 maximum allowed number of steps=    100.
 GradGradGradGradGradGradGradGradGradGradGradGradGradGradGradGradGradGrad

                          Input orientation:                          
 ---------------------------------------------------------------------
 Center     Atomic      Atomic             Coordinates (Angstroms)
 Number     Number       Type             X           Y           Z
 ---------------------------------------------------------------------
      1          6           0        0.662929   -0.020613    0.000016
      2          1           0        1.021165   -0.535841    0.894483
      3          1           0        1.019614   -0.553452   -0.884703
      4          1           0        1.083136    0.982113   -0.010176
      5          8           0       -0.744215    0.122254   -0.000017
 ---------------------------------------------------------------------
                    Distance matrix (angstroms):
                    1          2          3          4          5
     1  C    0.000000
     2  H    1.092641   0.000000
     3  H    1.092643   1.779274   0.000000
     4  H    1.087261   1.768172   1.768274   0.000000
     5  O    1.414378   2.085614   2.085747   2.019572   0.000000
 Stoichiometry    CH3O(2)
 Framework group  C1[X(CH3O)]
 Deg. of freedom     9
 Full point group                 C1      NOp   1
 Largest Abelian subgroup         C1      NOp   1
 Largest concise Abelian subgroup C1      NOp   1
                         Standard orientation:                         
 ---------------------------------------------------------------------
 Center     Atomic      Atomic             Coordinates (Angstroms)
 Number     Number       Type             X           Y           Z
 ---------------------------------------------------------------------
      1          6           0        0.598899    0.000023   -0.002360
      2          1           0        1.008772   -0.888112   -0.489273
      3          1           0        1.008959    0.891152   -0.483618
      4          1           0        0.912663   -0.003418    1.038638
      5          8           0       -0.815473    0.000030   -0.006448
 ---------------------------------------------------------------------
 Rotational constants (GHZ):         159.9284989          26.4253595          26.3832043
 Standard basis: CC-pVTZ (5D, 7F)
 There are   115 symmetry adapted cartesian basis functions of A   symmetry.
 There are   102 symmetry adapted basis functions of A   symmetry.
   102 basis functions,   155 primitive gaussians,   115 cartesian basis functions
     9 alpha electrons        8 beta electrons
       nuclear repulsion energy        33.7423934392 Hartrees.
 NAtoms=    5 NActive=    5 NUniq=    5 SFac= 1.00D+00 NAtFMM=   60 NAOKFM=F Big=F
 Integral buffers will be    131072 words long.
 Raffenetti 2 integral format.
 Two-electron integral symmetry is turned on.
 Nuclear repulsion after empirical dispersion term =       33.7413712005 Hartrees.
 One-electron integrals computed using PRISM.
 NBasis=   102 RedAO= T EigKep=  2.04D-03  NBF=   102
 NBsUse=   102 1.00D-06 EigRej= -1.00D+00 NBFU=   102
 ExpMin= 1.03D-01 ExpMax= 1.53D+04 ExpMxC= 5.22D+02 IAcc=3 IRadAn=         5 AccDes= 0.00D+00
 Harris functional with IExCor=  419 and IRadAn=       5 diagonalized for initial guess.
 HarFok:  IExCor=  419 AccDes= 0.00D+00 IRadAn=         5 IDoV= 1 UseB2=F ITyADJ=14
 ICtDFT=  3500011 ScaDFX=  1.000000  1.000000  1.000000  1.000000
 FoFCou: FMM=F IPFlag=           0 FMFlag=      100000 FMFlg1=           0
         NFxFlg=           0 DoJE=T BraDBF=F KetDBF=T FulRan=T
         wScrn=  0.000000 ICntrl=       500 IOpCl=  0 I1Cent=   200000004 NGrid=           0
         NMat0=    1 NMatS0=      1 NMatT0=    0 NMatD0=    1 NMtDS0=    0 NMtDT0=    0
 Petite list used in FoFCou.
 Initial guess <Sx>= 0.0000 <Sy>= 0.0000 <Sz>= 0.5000 <S**2>= 0.7500 S= 0.5000
 Keep R1 and R2 ints in memory in canonical form, NReq=65163573.
 Requested convergence on RMS density matrix=1.00D-08 within 128 cycles.
 Requested convergence on MAX density matrix=1.00D-06.
 Requested convergence on             energy=1.00D-06.
 No special actions if energy rises.
 Integral accuracy reduced to 1.0D-05 until final iterations.
 Initial convergence to 1.0D-05 achieved.  Increase integral accuracy.
 SCF Done:  E(UB2PLYPD3) =  -114.883740193     A.U. after   22 cycles
            NFock= 22  Conv=0.21D-08     -V/T= 2.0043
 <Sx>= 0.0000 <Sy>= 0.0000 <Sz>= 0.5000 <S**2>= 0.7551 S= 0.5026
 <L.S>=  0.00000000000    
 Annihilation of the first spin contaminant:
 S**2 before annihilation     0.7551,   after     0.7500
 DoSCS=T DFT=T ScalE2(SS,OS)=  0.270000  0.270000
 ExpMin= 1.03D-01 ExpMax= 1.53D+04 ExpMxC= 5.22D+02 IAcc=3 IRadAn=         5 AccDes= 0.00D+00
 HarFok:  IExCor=  205 AccDes= 0.00D+00 IRadAn=         5 IDoV=-2 UseB2=F ITyADJ=14
 ICtDFT= 12500011 ScaDFX=  1.000000  1.000000  1.000000  1.000000
 Range of M.O.s used for correlation:     3   102
 NBasis=   102 NAE=     9 NBE=     8 NFC=     2 NFV=     0
 NROrb=    100 NOA=     7 NOB=     6 NVA=    93 NVB=    94

 **** Warning!!: The largest alpha MO coefficient is  0.11861727D+02


 **** Warning!!: The largest beta MO coefficient is  0.11861250D+02

 DoSCS=T DFT=T ScalE2(SS,OS)=  0.270000  0.270000
 Fully direct method using O(ONN) memory.
 JobTyp=2 Pass  1:  I=   3 to   9 NPSUse= 40 ParTrn=T ParDer=T DoDerP=T.
 JobTyp=3 Pass  1:  I=   3 to   8 NPSUse= 40 ParTrn=T ParDer=T DoDerP=T.
 Spin components of T(2) and E(2):
     alpha-alpha T2 =       0.1844226652D-01 E2=     -0.1585357047D-01
     alpha-beta  T2 =       0.1102568340D+00 E2=     -0.9246739347D-01
     beta-beta   T2 =       0.1609516629D-01 E2=     -0.1160445646D-01
 (S**2,0)=  0.75511D+00           (S**2,1)=  0.74770D+00
 Scaling Projection term by:   0.270000
 E(PUHF)=      -0.11488669135D+03        E(PMP2)=      -0.11500388635D+03
 E2(B2PLYPD3) =    -0.1199254204D+00 E(B2PLYPD3) =    -0.11500366561346D+03
          IDoAtm=11111
          Differentiating once with respect to electric field.
                with respect to dipole field.
          Differentiating once with respect to nuclear coordinates.
 Keep R1 and R2 ints in memory in canonical form, NReq=65167009.
          There are     1 degrees of freedom in the 1st order CPHF.  IDoFFX=0 NUNeed=     1.
 LinEq1:  Iter=  0 NonCon=     1 RMS=1.41D-03 Max=4.37D-02 NDo=     1
 AX will form     1 AO Fock derivatives at one time.
 LinEq1:  Iter=  1 NonCon=     1 RMS=3.46D-04 Max=5.14D-03 NDo=     1
 LinEq1:  Iter=  2 NonCon=     1 RMS=1.45D-04 Max=1.57D-03 NDo=     1
 LinEq1:  Iter=  3 NonCon=     1 RMS=4.37D-05 Max=4.53D-04 NDo=     1
 LinEq1:  Iter=  4 NonCon=     1 RMS=2.38D-05 Max=3.36D-04 NDo=     1
 LinEq1:  Iter=  5 NonCon=     1 RMS=4.75D-06 Max=4.67D-05 NDo=     1
 LinEq1:  Iter=  6 NonCon=     1 RMS=1.34D-06 Max=2.30D-05 NDo=     1
 LinEq1:  Iter=  7 NonCon=     1 RMS=4.05D-07 Max=8.69D-06 NDo=     1
 LinEq1:  Iter=  8 NonCon=     1 RMS=1.18D-07 Max=2.39D-06 NDo=     1
 LinEq1:  Iter=  9 NonCon=     1 RMS=3.02D-08 Max=3.20D-07 NDo=     1
 LinEq1:  Iter= 10 NonCon=     1 RMS=6.65D-09 Max=1.57D-07 NDo=     1
 LinEq1:  Iter= 11 NonCon=     1 RMS=2.80D-09 Max=7.40D-08 NDo=     1
 LinEq1:  Iter= 12 NonCon=     1 RMS=8.84D-10 Max=9.98D-09 NDo=     1
 LinEq1:  Iter= 13 NonCon=     1 RMS=2.41D-10 Max=2.43D-09 NDo=     1
 LinEq1:  Iter= 14 NonCon=     0 RMS=4.66D-11 Max=4.44D-10 NDo=     1
 Linear equations converged to 1.000D-10 1.000D-09 after    14 iterations.
 End of Minotr F.D. properties file   721 does not exist.
 End of Minotr F.D. properties file   722 does not exist.
 End of Minotr F.D. properties file   788 does not exist.

 **********************************************************************

            Population analysis using the SCF Density.

 **********************************************************************

 Orbital symmetries:
 Alpha Orbitals:
       Occupied  (A) (A) (A) (A) (A) (A) (A) (A) (A)
       Virtual   (A) (A) (A) (A) (A) (A) (A) (A) (A) (A) (A) (A)
                 (A) (A) (A) (A) (A) (A) (A) (A) (A) (A) (A) (A)
                 (A) (A) (A) (A) (A) (A) (A) (A) (A) (A) (A) (A)
                 (A) (A) (A) (A) (A) (A) (A) (A) (A) (A) (A) (A)
                 (A) (A) (A) (A) (A) (A) (A) (A) (A) (A) (A) (A)
                 (A) (A) (A) (A) (A) (A) (A) (A) (A) (A) (A) (A)
                 (A) (A) (A) (A) (A) (A) (A) (A) (A) (A) (A) (A)
                 (A) (A) (A) (A) (A) (A) (A) (A) (A)
 Beta  Orbitals:
       Occupied  (A) (A) (A) (A) (A) (A) (A) (A)
       Virtual   (A) (A) (A) (A) (A) (A) (A) (A) (A) (A) (A) (A)
                 (A) (A) (A) (A) (A) (A) (A) (A) (A) (A) (A) (A)
                 (A) (A) (A) (A) (A) (A) (A) (A) (A) (A) (A) (A)
                 (A) (A) (A) (A) (A) (A) (A) (A) (A) (A) (A) (A)
                 (A) (A) (A) (A) (A) (A) (A) (A) (A) (A) (A) (A)
                 (A) (A) (A) (A) (A) (A) (A) (A) (A) (A) (A) (A)
                 (A) (A) (A) (A) (A) (A) (A) (A) (A) (A) (A) (A)
                 (A) (A) (A) (A) (A) (A) (A) (A) (A) (A)
 The electronic state is 2-A.
 Alpha  occ. eigenvalues --  -19.78068 -10.66908  -1.16935  -0.78543  -0.57001
 Alpha  occ. eigenvalues --   -0.53411  -0.50848  -0.42562  -0.37384
 Alpha virt. eigenvalues --    0.08288   0.14694   0.15204   0.16064   0.29747
 Alpha virt. eigenvalues --    0.31107   0.42623   0.50235   0.50525   0.50628
 Alpha virt. eigenvalues --    0.53680   0.58789   0.60340   0.65559   0.75753
 Alpha virt. eigenvalues --    0.77732   0.93524   1.00759   1.01643   1.06243
 Alpha virt. eigenvalues --    1.08299   1.12992   1.18673   1.31109   1.31586
 Alpha virt. eigenvalues --    1.36095   1.37574   1.38980   1.58927   1.68963
 Alpha virt. eigenvalues --    1.70393   1.96567   2.02655   2.16097   2.28336
 Alpha virt. eigenvalues --    2.30626   2.32487   2.60697   2.83283   2.83718
 Alpha virt. eigenvalues --    2.90608   2.96667   2.98333   3.07292   3.07731
 Alpha virt. eigenvalues --    3.08757   3.13699   3.14406   3.39027   3.40909
 Alpha virt. eigenvalues --    3.49052   3.49542   3.50046   3.50349   3.61575
 Alpha virt. eigenvalues --    3.78661   3.79843   3.88667   3.89674   3.93502
 Alpha virt. eigenvalues --    4.08154   4.09417   4.18732   4.30763   4.32909
 Alpha virt. eigenvalues --    4.35262   4.41637   4.75875   4.79144   4.92008
 Alpha virt. eigenvalues --    5.01676   5.02793   5.05734   5.08058   5.20261
 Alpha virt. eigenvalues --    5.28749   5.29052   5.39656   5.41518   5.61135
 Alpha virt. eigenvalues --    5.64161   5.91120   5.95824   6.04911   6.09699
 Alpha virt. eigenvalues --    6.18912   6.47927   6.48567   6.92568   6.98592
 Alpha virt. eigenvalues --    7.13899   9.37715  13.20012
  Beta  occ. eigenvalues --  -19.75063 -10.67032  -1.08325  -0.76370  -0.52646
  Beta  occ. eigenvalues --   -0.50551  -0.48238  -0.34823
  Beta virt. eigenvalues --   -0.03456   0.08367   0.15129   0.15215   0.16874
  Beta virt. eigenvalues --    0.30682   0.31327   0.43552   0.50668   0.50671
  Beta virt. eigenvalues --    0.51168   0.54145   0.60810   0.63263   0.66432
  Beta virt. eigenvalues --    0.78192   0.80003   0.93813   1.02083   1.02152
  Beta virt. eigenvalues --    1.06716   1.08679   1.13516   1.18923   1.31963
  Beta virt. eigenvalues --    1.33718   1.37021   1.37689   1.41480   1.59422
  Beta virt. eigenvalues --    1.73475   1.74810   2.00422   2.03185   2.18164
  Beta virt. eigenvalues --    2.28848   2.31956   2.33044   2.60690   2.83706
  Beta virt. eigenvalues --    2.83810   2.90753   2.96716   2.98850   3.07408
  Beta virt. eigenvalues --    3.07605   3.09715   3.14582   3.14791   3.39654
  Beta virt. eigenvalues --    3.41348   3.49751   3.49960   3.50899   3.52602
  Beta virt. eigenvalues --    3.62084   3.79148   3.80477   3.89942   3.93282
  Beta virt. eigenvalues --    3.94379   4.09056   4.10451   4.19163   4.32015
  Beta virt. eigenvalues --    4.36110   4.36865   4.42437   4.76940   4.79596
  Beta virt. eigenvalues --    4.92630   5.02550   5.04281   5.07835   5.10298
  Beta virt. eigenvalues --    5.23047   5.29356   5.29480   5.43688   5.45088
  Beta virt. eigenvalues --    5.64039   5.67353   5.93339   5.96408   6.08912
  Beta virt. eigenvalues --    6.10730   6.20851   6.57135   6.57307   6.99858
  Beta virt. eigenvalues --    7.00415   7.16813   9.41682  13.20022
          Condensed to atoms (all electrons):
               1          2          3          4          5
     1  C    4.508759   0.398029   0.398028   0.396203   0.327865
     2  H    0.398029   0.670172  -0.067582  -0.032123  -0.044499
     3  H    0.398028  -0.067582   0.670357  -0.032203  -0.044527
     4  H    0.396203  -0.032123  -0.032203   0.588351  -0.027756
     5  O    0.327865  -0.044499  -0.044527  -0.027756   8.019491
          Atomic-Atomic Spin Densities.
               1          2          3          4          5
     1  C   -0.073420   0.005130   0.005124   0.012360  -0.031204
     2  H    0.005130   0.017781   0.009045  -0.012138  -0.002551
     3  H    0.005124   0.009045   0.017557  -0.012083  -0.002518
     4  H    0.012360  -0.012138  -0.012083   0.107734  -0.021104
     5  O   -0.031204  -0.002551  -0.002518  -0.021104   1.030225
 Mulliken charges and spin densities:
               1          2
     1  C   -0.028884  -0.082010
     2  H    0.076002   0.017267
     3  H    0.075928   0.017126
     4  H    0.107529   0.074769
     5  O   -0.230575   0.972848
 Sum of Mulliken charges =  -0.00000   1.00000
 Mulliken charges and spin densities with hydrogens summed into heavy atoms:
               1          2
     1  C    0.230575   0.027152
     5  O   -0.230575   0.972848
 Electronic spatial extent (au):  <R**2>=             76.1896
 Charge=             -0.0000 electrons
 Dipole moment (field-independent basis, Debye):
    X=              1.9926    Y=             -0.0007    Z=              0.1276  Tot=              1.9967
 Quadrupole moment (field-independent basis, Debye-Ang):
   XX=            -13.4223   YY=            -12.7558   ZZ=            -11.5718
   XY=             -0.0008   XZ=              0.1512   YZ=             -0.0027
 Traceless Quadrupole moment (field-independent basis, Debye-Ang):
   XX=             -0.8390   YY=             -0.1725   ZZ=              1.0115
   XY=             -0.0008   XZ=              0.1512   YZ=             -0.0027
 Octapole moment (field-independent basis, Debye-Ang**2):
  XXX=             -1.0136  YYY=              0.0045  ZZZ=              0.8779  XYY=             -0.0126
  XXY=             -0.0007  XXZ=              0.0947  XZZ=             -0.7300  YZZ=             -0.0064
  YYZ=             -0.5305  XYZ=              0.0014
 Hexadecapole moment (field-independent basis, Debye-Ang**3):
 XXXX=            -57.6469 YYYY=            -18.6720 ZZZZ=            -16.6966 XXXY=             -0.0011
 XXXZ=              0.2135 YYYX=              0.0050 YYYZ=             -0.0011 ZZZX=              1.0525
 ZZZY=             -0.0034 XXYY=            -12.6868 XXZZ=            -11.5645 YYZZ=             -5.9927
 XXYZ=             -0.0025 YYXZ=             -0.5912 ZZXY=             -0.0074
 N-N= 3.374137120050D+01 E-N=-3.375081666553D+02  KE= 1.143970776126D+02
                          Isotropic Fermi Contact Couplings
        Atom                 a.u.       MegaHertz       Gauss      10(-4) cm-1
     1  C(13)             -0.03177     -35.71103     -12.74258     -11.91192
     2  H(1)               0.00847      37.86040      13.50953      12.62887
     3  H(1)               0.00839      37.52180      13.38871      12.51593
     4  H(1)               0.04012     179.31849      63.98530      59.81421
     5  O(17)              0.04555     -27.61290      -9.85297      -9.21067
 --------------------------------------------------------
       Center         ----  Spin Dipole Couplings  ----
                      3XX-RR        3YY-RR        3ZZ-RR
 --------------------------------------------------------
     1   Atom        0.024031     -0.040715      0.016684
     2   Atom        0.012762     -0.001106     -0.011656
     3   Atom        0.012760     -0.001088     -0.011672
     4   Atom        0.012192     -0.016476      0.004284
     5   Atom       -1.829044     -1.863330      3.692374
 --------------------------------------------------------
                        XY            XZ            YZ
 --------------------------------------------------------
     1   Atom        0.000011     -0.000800     -0.000122
     2   Atom       -0.013844     -0.007071      0.002462
     3   Atom        0.013883     -0.006981     -0.002393
     4   Atom       -0.000056      0.016769     -0.000079
     5   Atom       -0.000180      0.095115     -0.011675
 --------------------------------------------------------


 ---------------------------------------------------------------------------------
              Anisotropic Spin Dipole Couplings in Principal Axis System
 ---------------------------------------------------------------------------------

       Atom             a.u.   MegaHertz   Gauss  10(-4) cm-1        Axes

              Baa    -0.0407    -5.464    -1.950    -1.822 -0.0001  1.0000  0.0021
     1 C(13)  Bbb     0.0166     2.227     0.795     0.743  0.1070 -0.0021  0.9943
              Bcc     0.0241     3.236     1.155     1.080  0.9943  0.0004 -0.1070
 
              Baa    -0.0138    -7.368    -2.629    -2.458  0.3494  0.2035  0.9146
     2 H(1)   Bbb    -0.0091    -4.830    -1.724    -1.611  0.4197  0.8387 -0.3470
              Bcc     0.0229    12.199     4.353     4.069  0.8377 -0.5051 -0.2076
 
              Baa    -0.0138    -7.362    -2.627    -2.456  0.3499 -0.2104  0.9128
     3 H(1)   Bbb    -0.0091    -4.832    -1.724    -1.612 -0.4191  0.8363  0.3534
              Bcc     0.0229    12.193     4.351     4.067  0.8378  0.5062 -0.2045
 
              Baa    -0.0165    -8.791    -3.137    -2.932 -0.0006  1.0000  0.0043
     4 H(1)   Bbb    -0.0090    -4.797    -1.712    -1.600 -0.6207 -0.0037  0.7840
              Bcc     0.0255    13.588     4.849     4.532  0.7841 -0.0022  0.6207
 
              Baa    -1.8634   134.831    48.111    44.975 -0.0006  1.0000  0.0021
     5 O(17)  Bbb    -1.8307   132.467    47.267    44.186  0.9999  0.0007 -0.0172
              Bcc     3.6940  -267.298   -95.379   -89.161  0.0172 -0.0021  0.9998
 

 ---------------------------------------------------------------------------------

 Calling FoFJK, ICntrl=  10002127 FMM=F ISym2X=0 I1Cent= 0 IOpClX= 1 NMat=1 NMatS=1 NMatT=0.
 ***** Axes restored to original set *****
 -------------------------------------------------------------------
 Center     Atomic                   Forces (Hartrees/Bohr)
 Number     Number              X              Y              Z
 -------------------------------------------------------------------
      1        6          -0.022331204   -0.010849405    0.000118386
      2        1          -0.001181128    0.002738253    0.002026886
      3        1          -0.001186879    0.002698811   -0.002071956
      4        1           0.000257006    0.005835083   -0.000054779
      5        8           0.024442206   -0.000422743   -0.000018537
 -------------------------------------------------------------------
 Cartesian Forces:  Max     0.024442206 RMS     0.009216329

 GradGradGradGradGradGradGradGradGradGradGradGradGradGradGradGradGradGrad
 Berny optimization.
 FormGI is forming the generalized inverse of G from B-inverse, IUseBI=4.
 Internal  Forces:  Max     0.024359895 RMS     0.006810806
 Search for a local minimum.
 Step number   1 out of a maximum of  100
 All quantities printed in internal units (Hartrees-Bohrs-Radians)
 Mixed Optimization -- RFO/linear search
 Second derivative matrix not updated -- first step.
 The second derivative matrix:
                          R1        R2        R3        R4        A1
           R1           0.34509
           R2           0.00000   0.34509
           R3           0.00000   0.00000   0.35131
           R4           0.00000   0.00000   0.00000   0.43318
           A1           0.00000   0.00000   0.00000   0.00000   0.16000
           A2           0.00000   0.00000   0.00000   0.00000   0.00000
           A3           0.00000   0.00000   0.00000   0.00000   0.00000
           A4           0.00000   0.00000   0.00000   0.00000   0.00000
           A5           0.00000   0.00000   0.00000   0.00000   0.00000
           A6           0.00000   0.00000   0.00000   0.00000   0.00000
           D1           0.00000   0.00000   0.00000   0.00000   0.00000
           D2           0.00000   0.00000   0.00000   0.00000   0.00000
           D3           0.00000   0.00000   0.00000   0.00000   0.00000
           D4           0.00000   0.00000   0.00000   0.00000   0.00000
                          A2        A3        A4        A5        A6
           A2           0.16000
           A3           0.00000   0.16000
           A4           0.00000   0.00000   0.16000
           A5           0.00000   0.00000   0.00000   0.16000
           A6           0.00000   0.00000   0.00000   0.00000   0.16000
           D1           0.00000   0.00000   0.00000   0.00000   0.00000
           D2           0.00000   0.00000   0.00000   0.00000   0.00000
           D3           0.00000   0.00000   0.00000   0.00000   0.00000
           D4           0.00000   0.00000   0.00000   0.00000   0.00000
                          D1        D2        D3        D4
           D1           0.00271
           D2           0.00000   0.01502
           D3           0.00000   0.00000   0.01502
           D4           0.00000   0.00000   0.00000   0.01502
 ITU=  0
     Eigenvalues ---    0.05595   0.06670   0.08652   0.16000   0.16000
     Eigenvalues ---    0.34509   0.34509   0.35131   0.43318
 RFO step:  Lambda=-1.86078681D-03 EMin= 5.59457322D-02
 Linear search not attempted -- first point.
 Iteration  1 RMS(Cart)=  0.02042094 RMS(Int)=  0.00023653
 Iteration  2 RMS(Cart)=  0.00017425 RMS(Int)=  0.00014628
 Iteration  3 RMS(Cart)=  0.00000001 RMS(Int)=  0.00014628
 Variable       Old X    -DE/DX   Delta X   Delta X   Delta X     New X
                                 (Linear)    (Quad)   (Total)
    R1        2.06479  -0.00002   0.00000  -0.00006  -0.00006   2.06474
    R2        2.06480  -0.00003   0.00000  -0.00007  -0.00007   2.06472
    R3        2.05463   0.00548   0.00000   0.01552   0.01552   2.07015
    R4        2.67279  -0.02436   0.00000  -0.05599  -0.05599   2.61679
    A1        1.90272   0.00183   0.00000   0.03591   0.03589   1.93861
    A2        1.89214   0.00019   0.00000  -0.00396  -0.00414   1.88800
    A3        1.95394   0.00014   0.00000  -0.00039  -0.00065   1.95329
    A4        1.89230   0.00019   0.00000  -0.00393  -0.00410   1.88819
    A5        1.95413   0.00014   0.00000  -0.00037  -0.00063   1.95350
    A6        1.86643  -0.00258   0.00000  -0.02905  -0.02932   1.83711
    D1        2.06333   0.00239   0.00000   0.03841   0.03824   2.10157
    D2       -2.14288  -0.00260   0.00000  -0.04639  -0.04635  -2.18923
    D3        2.07001  -0.00130   0.00000  -0.02321  -0.02319   2.04681
    D4       -2.07030   0.00130   0.00000   0.02318   0.02316  -2.04714
         Item               Value     Threshold  Converged?
 Maximum Force            0.024360     0.000450     NO 
 RMS     Force            0.006811     0.000300     NO 
 Maximum Displacement     0.056650     0.001800     NO 
 RMS     Displacement     0.020480     0.001200     NO 
 Predicted change in Energy=-9.385669D-04
 GradGradGradGradGradGradGradGradGradGradGradGradGradGradGradGradGradGrad

                          Input orientation:                          
 ---------------------------------------------------------------------
 Center     Atomic      Atomic             Coordinates (Angstroms)
 Number     Number       Type             X           Y           Z
 ---------------------------------------------------------------------
      1          6           0        0.661351   -0.032903    0.000132
      2          1           0        1.013998   -0.532351    0.905666
      3          1           0        1.012426   -0.550190   -0.895939
      4          1           0        1.069091    0.983810   -0.010174
      5          8           0       -0.714237    0.126095   -0.000082
 ---------------------------------------------------------------------
                    Distance matrix (angstroms):
                    1          2          3          4          5
     1  C    0.000000
     2  H    1.092612   0.000000
     3  H    1.092604   1.801694   0.000000
     4  H    1.095474   1.772158   1.772272   0.000000
     5  O    1.384747   2.059303   2.059439   1.978898   0.000000
 Stoichiometry    CH3O(2)
 Framework group  C1[X(CH3O)]
 Deg. of freedom     9
 Full point group                 C1      NOp   1
 Largest Abelian subgroup         C1      NOp   1
 Largest concise Abelian subgroup C1      NOp   1
                         Standard orientation:                         
 ---------------------------------------------------------------------
 Center     Atomic      Atomic             Coordinates (Angstroms)
 Number     Number       Type             X           Y           Z
 ---------------------------------------------------------------------
      1          6           0        0.586698    0.000029   -0.007542
      2          1           0        0.994475   -0.900195   -0.473497
      3          1           0        0.994674    0.901498   -0.470891
      4          1           0        0.875063   -0.001648    1.049296
      5          8           0       -0.798050    0.000021   -0.007457
 ---------------------------------------------------------------------
 Rotational constants (GHZ):         158.1270199          27.4905978          27.3782002
 Standard basis: CC-pVTZ (5D, 7F)
 There are   115 symmetry adapted cartesian basis functions of A   symmetry.
 There are   102 symmetry adapted basis functions of A   symmetry.
   102 basis functions,   155 primitive gaussians,   115 cartesian basis functions
     9 alpha electrons        8 beta electrons
       nuclear repulsion energy        34.1948626133 Hartrees.
 NAtoms=    5 NActive=    5 NUniq=    5 SFac= 1.00D+00 NAtFMM=   60 NAOKFM=F Big=F
 Integral buffers will be    131072 words long.
 Raffenetti 2 integral format.
 Two-electron integral symmetry is turned on.
 Nuclear repulsion after empirical dispersion term =       34.1938393860 Hartrees.
 One-electron integrals computed using PRISM.
 NBasis=   102 RedAO= T EigKep=  2.05D-03  NBF=   102
 NBsUse=   102 1.00D-06 EigRej= -1.00D+00 NBFU=   102
 Initial guess from the checkpoint file:  "/localscratch/386879/Gau-6761.chk"
 B after Tr=    -0.000000   -0.000000   -0.000000
         Rot=    0.999997    0.000865    0.002242    0.000007 Ang=   0.28 deg.
 Initial guess <Sx>= 0.0000 <Sy>= 0.0000 <Sz>= 0.5000 <S**2>= 0.7551 S= 0.5025
 ExpMin= 1.03D-01 ExpMax= 1.53D+04 ExpMxC= 5.22D+02 IAcc=3 IRadAn=         5 AccDes= 0.00D+00
 Harris functional with IExCor=  419 and IRadAn=       5 diagonalized for initial guess.
 HarFok:  IExCor=  419 AccDes= 0.00D+00 IRadAn=         5 IDoV= 1 UseB2=F ITyADJ=14
 ICtDFT=  3500011 ScaDFX=  1.000000  1.000000  1.000000  1.000000
 FoFCou: FMM=F IPFlag=           0 FMFlag=      100000 FMFlg1=           0
         NFxFlg=           0 DoJE=T BraDBF=F KetDBF=T FulRan=T
         wScrn=  0.000000 ICntrl=       500 IOpCl=  0 I1Cent=   200000004 NGrid=           0
         NMat0=    1 NMatS0=      1 NMatT0=    0 NMatD0=    1 NMtDS0=    0 NMtDT0=    0
 Petite list used in FoFCou.
 Keep R1 and R2 ints in memory in canonical form, NReq=65163573.
 Requested convergence on RMS density matrix=1.00D-08 within 128 cycles.
 Requested convergence on MAX density matrix=1.00D-06.
 Requested convergence on             energy=1.00D-06.
 No special actions if energy rises.
 Integral accuracy reduced to 1.0D-05 until final iterations.
 Initial convergence to 1.0D-05 achieved.  Increase integral accuracy.
 SCF Done:  E(UB2PLYPD3) =  -114.884870229     A.U. after   19 cycles
            NFock= 19  Conv=0.34D-08     -V/T= 2.0039
 <Sx>= 0.0000 <Sy>= 0.0000 <Sz>= 0.5000 <S**2>= 0.7553 S= 0.5027
 <L.S>=  0.00000000000    
 Annihilation of the first spin contaminant:
 S**2 before annihilation     0.7553,   after     0.7500
 DoSCS=T DFT=T ScalE2(SS,OS)=  0.270000  0.270000
 ExpMin= 1.03D-01 ExpMax= 1.53D+04 ExpMxC= 5.22D+02 IAcc=3 IRadAn=         5 AccDes= 0.00D+00
 HarFok:  IExCor=  205 AccDes= 0.00D+00 IRadAn=         5 IDoV=-2 UseB2=F ITyADJ=14
 ICtDFT= 12500011 ScaDFX=  1.000000  1.000000  1.000000  1.000000
 Range of M.O.s used for correlation:     3   102
 NBasis=   102 NAE=     9 NBE=     8 NFC=     2 NFV=     0
 NROrb=    100 NOA=     7 NOB=     6 NVA=    93 NVB=    94

 **** Warning!!: The largest alpha MO coefficient is  0.11884767D+02


 **** Warning!!: The largest beta MO coefficient is  0.11883878D+02

 DoSCS=T DFT=T ScalE2(SS,OS)=  0.270000  0.270000
 Fully direct method using O(ONN) memory.
 JobTyp=2 Pass  1:  I=   3 to   9 NPSUse= 40 ParTrn=T ParDer=T DoDerP=T.
 JobTyp=3 Pass  1:  I=   3 to   8 NPSUse= 40 ParTrn=T ParDer=T DoDerP=T.
 Spin components of T(2) and E(2):
     alpha-alpha T2 =       0.1824369718D-01 E2=     -0.1583027050D-01
     alpha-beta  T2 =       0.1094439329D+00 E2=     -0.9241128605D-01
     beta-beta   T2 =       0.1626707208D-01 E2=     -0.1176548859D-01
 (S**2,0)=  0.75533D+00           (S**2,1)=  0.74751D+00
 Scaling Projection term by:   0.270000
 E(PUHF)=      -0.11488790942D+03        E(PMP2)=      -0.11500509745D+03
 E2(B2PLYPD3) =    -0.1200070451D+00 E(B2PLYPD3) =    -0.11500487727378D+03
          IDoAtm=11111
          Differentiating once with respect to electric field.
                with respect to dipole field.
          Differentiating once with respect to nuclear coordinates.
 Keep R1 and R2 ints in memory in canonical form, NReq=65167009.
          There are     1 degrees of freedom in the 1st order CPHF.  IDoFFX=0 NUNeed=     1.
 LinEq1:  Iter=  0 NonCon=     1 RMS=1.44D-03 Max=4.49D-02 NDo=     1
 AX will form     1 AO Fock derivatives at one time.
 LinEq1:  Iter=  1 NonCon=     1 RMS=3.38D-04 Max=4.56D-03 NDo=     1
 LinEq1:  Iter=  2 NonCon=     1 RMS=1.48D-04 Max=1.62D-03 NDo=     1
 LinEq1:  Iter=  3 NonCon=     1 RMS=3.59D-05 Max=3.50D-04 NDo=     1
 LinEq1:  Iter=  4 NonCon=     1 RMS=2.29D-05 Max=2.94D-04 NDo=     1
 LinEq1:  Iter=  5 NonCon=     1 RMS=4.97D-06 Max=5.31D-05 NDo=     1
 LinEq1:  Iter=  6 NonCon=     1 RMS=1.50D-06 Max=2.78D-05 NDo=     1
 LinEq1:  Iter=  7 NonCon=     1 RMS=4.57D-07 Max=9.34D-06 NDo=     1
 LinEq1:  Iter=  8 NonCon=     1 RMS=1.27D-07 Max=2.23D-06 NDo=     1
 LinEq1:  Iter=  9 NonCon=     1 RMS=3.20D-08 Max=3.45D-07 NDo=     1
 LinEq1:  Iter= 10 NonCon=     1 RMS=6.88D-09 Max=1.43D-07 NDo=     1
 LinEq1:  Iter= 11 NonCon=     1 RMS=2.72D-09 Max=7.35D-08 NDo=     1
 LinEq1:  Iter= 12 NonCon=     1 RMS=9.28D-10 Max=1.34D-08 NDo=     1
 LinEq1:  Iter= 13 NonCon=     1 RMS=2.82D-10 Max=2.73D-09 NDo=     1
 LinEq1:  Iter= 14 NonCon=     0 RMS=5.49D-11 Max=4.14D-10 NDo=     1
 Linear equations converged to 1.000D-10 1.000D-09 after    14 iterations.
 End of Minotr F.D. properties file   721 does not exist.
 End of Minotr F.D. properties file   722 does not exist.
 End of Minotr F.D. properties file   788 does not exist.
 Calling FoFJK, ICntrl=  10002127 FMM=F ISym2X=0 I1Cent= 0 IOpClX= 1 NMat=1 NMatS=1 NMatT=0.
 ***** Axes restored to original set *****
 -------------------------------------------------------------------
 Center     Atomic                   Forces (Hartrees/Bohr)
 Number     Number              X              Y              Z
 -------------------------------------------------------------------
      1        6          -0.012434017   -0.004585917    0.000063821
      2        1           0.001576672    0.001213553    0.000678241
      3        1           0.001570615    0.001201347   -0.000706463
      4        1           0.001743501    0.001967379   -0.000022071
      5        8           0.007543228    0.000203638   -0.000013529
 -------------------------------------------------------------------
 Cartesian Forces:  Max     0.012434017 RMS     0.004068743

 GradGradGradGradGradGradGradGradGradGradGradGradGradGradGradGradGradGrad
 Berny optimization.
 Using GEDIIS/GDIIS optimizer.
 FormGI is forming the generalized inverse of G from B-inverse, IUseBI=4.
 Internal  Forces:  Max     0.007469957 RMS     0.002285747
 Search for a local minimum.
 Step number   2 out of a maximum of  100
 All quantities printed in internal units (Hartrees-Bohrs-Radians)
 Mixed Optimization -- RFO/linear search
 Update second derivatives using D2CorX and points    1    2
 DE= -1.21D-03 DEPred=-9.39D-04 R= 1.29D+00
 TightC=F SS=  1.41D+00  RLast= 1.01D-01 DXNew= 5.0454D-01 3.0363D-01
 Trust test= 1.29D+00 RLast= 1.01D-01 DXMaxT set to 3.04D-01
 The second derivative matrix:
                          R1        R2        R3        R4        A1
           R1           0.34531
           R2           0.00022   0.34531
           R3          -0.00116  -0.00115   0.34201
           R4           0.00657   0.00655   0.03342   0.32927
           A1          -0.00067  -0.00065  -0.01289   0.05258   0.14457
           A2          -0.00055  -0.00055   0.00498  -0.02569   0.00387
           A3           0.00037   0.00037  -0.00177   0.01032  -0.00092
           A4          -0.00055  -0.00055   0.00497  -0.02564   0.00386
           A5           0.00036   0.00037  -0.00176   0.01021  -0.00092
           A6           0.00098   0.00098   0.00809  -0.02921   0.01114
           D1          -0.00148  -0.00150   0.00801  -0.04538   0.00466
           D2           0.00036   0.00037  -0.00003   0.00255   0.00092
           D3           0.00018   0.00018  -0.00002   0.00131   0.00046
           D4          -0.00018  -0.00018   0.00001  -0.00123  -0.00046
                          A2        A3        A4        A5        A6
           A2           0.16110
           A3          -0.00096   0.16063
           A4           0.00111  -0.00096   0.16111
           A5          -0.00095   0.00062  -0.00095   0.16061
           A6          -0.00425   0.00150  -0.00424   0.00149   0.15297
           D1           0.00373  -0.00253   0.00373  -0.00250  -0.00680
           D2          -0.00117   0.00060  -0.00117   0.00059  -0.00000
           D3          -0.00059   0.00030  -0.00059   0.00030   0.00000
           D4           0.00058  -0.00030   0.00058  -0.00029   0.00001
                          D1        D2        D3        D4
           D1           0.01286
           D2          -0.00250   0.01539
           D3          -0.00126   0.00019   0.01511
           D4           0.00124  -0.00018  -0.00009   0.01511
 ITU=  1  0
 Use linear search instead of GDIIS.
     Eigenvalues ---    0.04916   0.06889   0.09141   0.16000   0.16133
     Eigenvalues ---    0.30575   0.34509   0.34619   0.37220
 RFO step:  Lambda=-2.50865726D-04 EMin= 4.91570376D-02
 Quartic linear search produced a step of  0.37002.
 Iteration  1 RMS(Cart)=  0.00992999 RMS(Int)=  0.00029377
 Iteration  2 RMS(Cart)=  0.00017729 RMS(Int)=  0.00022872
 Iteration  3 RMS(Cart)=  0.00000002 RMS(Int)=  0.00022872
 Variable       Old X    -DE/DX   Delta X   Delta X   Delta X     New X
                                 (Linear)    (Quad)   (Total)
    R1        2.06474   0.00052  -0.00002   0.00206   0.00204   2.06678
    R2        2.06472   0.00052  -0.00003   0.00206   0.00204   2.06676
    R3        2.07015   0.00248   0.00574   0.00579   0.01153   2.08168
    R4        2.61679  -0.00747  -0.02072  -0.00985  -0.03057   2.58622
    A1        1.93861   0.00003   0.01328  -0.00620   0.00645   1.94506
    A2        1.88800  -0.00114  -0.00153  -0.01815  -0.01971   1.86830
    A3        1.95329   0.00106  -0.00024   0.01786   0.01728   1.97057
    A4        1.88819  -0.00114  -0.00152  -0.01818  -0.01972   1.86847
    A5        1.95350   0.00105  -0.00023   0.01775   0.01719   1.97069
    A6        1.83711  -0.00003  -0.01085   0.00467  -0.00616   1.83094
    D1        2.10157  -0.00128   0.01415  -0.02827  -0.01405   2.08752
    D2       -2.18923  -0.00168  -0.01715  -0.01953  -0.03695  -2.22618
    D3        2.04681  -0.00084  -0.00858  -0.00972  -0.01844   2.02837
    D4       -2.04714   0.00084   0.00857   0.00981   0.01851  -2.02863
         Item               Value     Threshold  Converged?
 Maximum Force            0.007470     0.000450     NO 
 RMS     Force            0.002286     0.000300     NO 
 Maximum Displacement     0.020488     0.001800     NO 
 RMS     Displacement     0.009904     0.001200     NO 
 Predicted change in Energy=-2.360812D-04
 GradGradGradGradGradGradGradGradGradGradGradGradGradGradGradGradGradGrad

                          Input orientation:                          
 ---------------------------------------------------------------------
 Center     Atomic      Atomic             Coordinates (Angstroms)
 Number     Number       Type             X           Y           Z
 ---------------------------------------------------------------------
      1          6           0        0.650510   -0.041557    0.000243
      2          1           0        1.017523   -0.527895    0.908505
      3          1           0        1.015902   -0.545780   -0.898861
      4          1           0        1.065830    0.978676   -0.010119
      5          8           0       -0.707135    0.131018   -0.000164
 ---------------------------------------------------------------------
                    Distance matrix (angstroms):
                    1          2          3          4          5
     1  C    0.000000
     2  H    1.093692   0.000000
     3  H    1.093681   1.807454   0.000000
     4  H    1.101578   1.765208   1.765311   0.000000
     5  O    1.368570   2.057740   2.057807   1.965205   0.000000
 Stoichiometry    CH3O(2)
 Framework group  C1[X(CH3O)]
 Deg. of freedom     9
 Full point group                 C1      NOp   1
 Largest Abelian subgroup         C1      NOp   1
 Largest concise Abelian subgroup C1      NOp   1
                         Standard orientation:                         
 ---------------------------------------------------------------------
 Center     Atomic      Atomic             Coordinates (Angstroms)
 Number     Number       Type             X           Y           Z
 ---------------------------------------------------------------------
      1          6           0        0.577248    0.000028   -0.011867
      2          1           0        1.001684   -0.903302   -0.459095
      3          1           0        1.001777    0.904152   -0.457369
      4          1           0        0.863588   -0.001110    1.051845
      5          8           0       -0.791317    0.000012   -0.008023
 ---------------------------------------------------------------------
 Rotational constants (GHZ):         158.5930243          27.9696417          27.8067999
 Standard basis: CC-pVTZ (5D, 7F)
 There are   115 symmetry adapted cartesian basis functions of A   symmetry.
 There are   102 symmetry adapted basis functions of A   symmetry.
   102 basis functions,   155 primitive gaussians,   115 cartesian basis functions
     9 alpha electrons        8 beta electrons
       nuclear repulsion energy        34.4094124430 Hartrees.
 NAtoms=    5 NActive=    5 NUniq=    5 SFac= 1.00D+00 NAtFMM=   60 NAOKFM=F Big=F
 Integral buffers will be    131072 words long.
 Raffenetti 2 integral format.
 Two-electron integral symmetry is turned on.
 Nuclear repulsion after empirical dispersion term =       34.4083889703 Hartrees.
 One-electron integrals computed using PRISM.
 NBasis=   102 RedAO= T EigKep=  2.05D-03  NBF=   102
 NBsUse=   102 1.00D-06 EigRej= -1.00D+00 NBFU=   102
 Initial guess from the checkpoint file:  "/localscratch/386879/Gau-6761.chk"
 B after Tr=    -0.000000    0.000000    0.000000
         Rot=    0.999999    0.000247    0.001634   -0.000006 Ang=   0.19 deg.
 Initial guess <Sx>= 0.0000 <Sy>= 0.0000 <Sz>= 0.5000 <S**2>= 0.7553 S= 0.5027
 ExpMin= 1.03D-01 ExpMax= 1.53D+04 ExpMxC= 5.22D+02 IAcc=3 IRadAn=         5 AccDes= 0.00D+00
 Harris functional with IExCor=  419 and IRadAn=       5 diagonalized for initial guess.
 HarFok:  IExCor=  419 AccDes= 0.00D+00 IRadAn=         5 IDoV= 1 UseB2=F ITyADJ=14
 ICtDFT=  3500011 ScaDFX=  1.000000  1.000000  1.000000  1.000000
 FoFCou: FMM=F IPFlag=           0 FMFlag=      100000 FMFlg1=           0
         NFxFlg=           0 DoJE=T BraDBF=F KetDBF=T FulRan=T
         wScrn=  0.000000 ICntrl=       500 IOpCl=  0 I1Cent=   200000004 NGrid=           0
         NMat0=    1 NMatS0=      1 NMatT0=    0 NMatD0=    1 NMtDS0=    0 NMtDT0=    0
 Petite list used in FoFCou.
 Keep R1 and R2 ints in memory in canonical form, NReq=65163573.
 Requested convergence on RMS density matrix=1.00D-08 within 128 cycles.
 Requested convergence on MAX density matrix=1.00D-06.
 Requested convergence on             energy=1.00D-06.
 No special actions if energy rises.
 Integral accuracy reduced to 1.0D-05 until final iterations.
 Initial convergence to 1.0D-05 achieved.  Increase integral accuracy.
 SCF Done:  E(UB2PLYPD3) =  -114.884943762     A.U. after   18 cycles
            NFock= 18  Conv=0.21D-08     -V/T= 2.0037
 <Sx>= 0.0000 <Sy>= 0.0000 <Sz>= 0.5000 <S**2>= 0.7556 S= 0.5028
 <L.S>=  0.00000000000    
 Annihilation of the first spin contaminant:
 S**2 before annihilation     0.7556,   after     0.7500
 DoSCS=T DFT=T ScalE2(SS,OS)=  0.270000  0.270000
 ExpMin= 1.03D-01 ExpMax= 1.53D+04 ExpMxC= 5.22D+02 IAcc=3 IRadAn=         5 AccDes= 0.00D+00
 HarFok:  IExCor=  205 AccDes= 0.00D+00 IRadAn=         5 IDoV=-2 UseB2=F ITyADJ=14
 ICtDFT= 12500011 ScaDFX=  1.000000  1.000000  1.000000  1.000000
 Range of M.O.s used for correlation:     3   102
 NBasis=   102 NAE=     9 NBE=     8 NFC=     2 NFV=     0
 NROrb=    100 NOA=     7 NOB=     6 NVA=    93 NVB=    94

 **** Warning!!: The largest alpha MO coefficient is  0.11851434D+02


 **** Warning!!: The largest beta MO coefficient is  0.11850190D+02

 DoSCS=T DFT=T ScalE2(SS,OS)=  0.270000  0.270000
 Fully direct method using O(ONN) memory.
 JobTyp=2 Pass  1:  I=   3 to   9 NPSUse= 40 ParTrn=T ParDer=T DoDerP=T.
 JobTyp=3 Pass  1:  I=   3 to   8 NPSUse= 40 ParTrn=T ParDer=T DoDerP=T.
 Spin components of T(2) and E(2):
     alpha-alpha T2 =       0.1818291638D-01 E2=     -0.1582993995D-01
     alpha-beta  T2 =       0.1093393176D+00 E2=     -0.9246964379D-01
     beta-beta   T2 =       0.1645037935D-01 E2=     -0.1188991332D-01
 (S**2,0)=  0.75558D+00           (S**2,1)=  0.74738D+00
 Scaling Projection term by:   0.270000
 E(PUHF)=      -0.11488806243D+03        E(PMP2)=      -0.11500535841D+03
 E2(B2PLYPD3) =    -0.1201894971D+00 E(B2PLYPD3) =    -0.11500513325933D+03
          IDoAtm=11111
          Differentiating once with respect to electric field.
                with respect to dipole field.
          Differentiating once with respect to nuclear coordinates.
 Keep R1 and R2 ints in memory in canonical form, NReq=65167009.
          There are     1 degrees of freedom in the 1st order CPHF.  IDoFFX=0 NUNeed=     1.
 LinEq1:  Iter=  0 NonCon=     1 RMS=1.47D-03 Max=4.46D-02 NDo=     1
 AX will form     1 AO Fock derivatives at one time.
 LinEq1:  Iter=  1 NonCon=     1 RMS=3.38D-04 Max=4.13D-03 NDo=     1
 LinEq1:  Iter=  2 NonCon=     1 RMS=1.52D-04 Max=1.65D-03 NDo=     1
 LinEq1:  Iter=  3 NonCon=     1 RMS=3.18D-05 Max=2.84D-04 NDo=     1
 LinEq1:  Iter=  4 NonCon=     1 RMS=2.18D-05 Max=2.70D-04 NDo=     1
 LinEq1:  Iter=  5 NonCon=     1 RMS=5.35D-06 Max=5.92D-05 NDo=     1
 LinEq1:  Iter=  6 NonCon=     1 RMS=1.65D-06 Max=2.99D-05 NDo=     1
 LinEq1:  Iter=  7 NonCon=     1 RMS=4.95D-07 Max=9.34D-06 NDo=     1
 LinEq1:  Iter=  8 NonCon=     1 RMS=1.34D-07 Max=2.20D-06 NDo=     1
 LinEq1:  Iter=  9 NonCon=     1 RMS=3.47D-08 Max=3.67D-07 NDo=     1
 LinEq1:  Iter= 10 NonCon=     1 RMS=7.60D-09 Max=1.37D-07 NDo=     1
 LinEq1:  Iter= 11 NonCon=     1 RMS=2.75D-09 Max=7.37D-08 NDo=     1
 LinEq1:  Iter= 12 NonCon=     1 RMS=1.03D-09 Max=1.82D-08 NDo=     1
 LinEq1:  Iter= 13 NonCon=     1 RMS=3.22D-10 Max=2.83D-09 NDo=     1
 LinEq1:  Iter= 14 NonCon=     0 RMS=5.77D-11 Max=4.28D-10 NDo=     1
 Linear equations converged to 1.000D-10 1.000D-09 after    14 iterations.
 End of Minotr F.D. properties file   721 does not exist.
 End of Minotr F.D. properties file   722 does not exist.
 End of Minotr F.D. properties file   788 does not exist.
 Calling FoFJK, ICntrl=  10002127 FMM=F ISym2X=0 I1Cent= 0 IOpClX= 1 NMat=1 NMatS=1 NMatT=0.
 ***** Axes restored to original set *****
 -------------------------------------------------------------------
 Center     Atomic                   Forces (Hartrees/Bohr)
 Number     Number              X              Y              Z
 -------------------------------------------------------------------
      1        6          -0.002193781   -0.000444892    0.000016775
      2        1           0.000676749    0.000124948    0.000322951
      3        1           0.000676000    0.000120959   -0.000330766
      4        1           0.000882121    0.000227194   -0.000006814
      5        8          -0.000041088   -0.000028210   -0.000002146
 -------------------------------------------------------------------
 Cartesian Forces:  Max     0.002193781 RMS     0.000683232

 GradGradGradGradGradGradGradGradGradGradGradGradGradGradGradGradGradGrad
 Berny optimization.
 Using GEDIIS/GDIIS optimizer.
 FormGI is forming the generalized inverse of G from B-inverse, IUseBI=4.
 Internal  Forces:  Max     0.000637793 RMS     0.000408506
 Search for a local minimum.
 Step number   3 out of a maximum of  100
 All quantities printed in internal units (Hartrees-Bohrs-Radians)
 Mixed Optimization -- En-DIIS/RFO-DIIS
 Update second derivatives using D2CorX and points    1    2    3
 DE= -2.56D-04 DEPred=-2.36D-04 R= 1.08D+00
 TightC=F SS=  1.41D+00  RLast= 6.91D-02 DXNew= 5.1065D-01 2.0726D-01
 Trust test= 1.08D+00 RLast= 6.91D-02 DXMaxT set to 3.04D-01
 The second derivative matrix:
                          R1        R2        R3        R4        A1
           R1           0.34505
           R2          -0.00004   0.34506
           R3          -0.00358  -0.00359   0.33789
           R4           0.01546   0.01550   0.03818   0.35526
           A1          -0.00022  -0.00022  -0.00606   0.02609   0.14416
           A2           0.00084   0.00082   0.01476  -0.05974   0.00101
           A3          -0.00123  -0.00122  -0.01128   0.04209   0.00263
           A4           0.00084   0.00082   0.01479  -0.05988   0.00100
           A5          -0.00123  -0.00122  -0.01122   0.04185   0.00262
           A6           0.00127   0.00127   0.00263  -0.00474   0.00951
           D1          -0.00261  -0.00262  -0.00261  -0.00638   0.00664
           D2           0.00120   0.00121  -0.00371   0.02241  -0.00213
           D3           0.00060   0.00061  -0.00186   0.01125  -0.00107
           D4          -0.00060  -0.00060   0.00185  -0.01116   0.00106
                          A2        A3        A4        A5        A6
           A2           0.15423
           A3           0.00667   0.15234
           A4          -0.00578   0.00669   0.15421
           A5           0.00665  -0.00763   0.00667   0.15240
           A6          -0.00437   0.00085  -0.00437   0.00084   0.15619
           D1           0.00981  -0.00955   0.00982  -0.00949  -0.00559
           D2          -0.00364   0.00235  -0.00366   0.00233   0.00407
           D3          -0.00183   0.00118  -0.00184   0.00117   0.00204
           D4           0.00181  -0.00117   0.00182  -0.00116  -0.00203
                          D1        D2        D3        D4
           D1           0.00751
           D2           0.00098   0.01973
           D3           0.00049   0.00236   0.01620
           D4          -0.00049  -0.00235  -0.00118   0.01619
 ITU=  1  1  0
 Use linear search instead of GDIIS.
     Eigenvalues ---    0.04903   0.06895   0.08244   0.16000   0.16086
     Eigenvalues ---    0.30926   0.34509   0.34779   0.39600
 RFO step:  Lambda=-1.28505533D-05 EMin= 4.90283112D-02
 Quartic linear search produced a step of  0.14467.
 Iteration  1 RMS(Cart)=  0.00268318 RMS(Int)=  0.00004685
 Iteration  2 RMS(Cart)=  0.00001297 RMS(Int)=  0.00004475
 Iteration  3 RMS(Cart)=  0.00000000 RMS(Int)=  0.00004475
 Variable       Old X    -DE/DX   Delta X   Delta X   Delta X     New X
                                 (Linear)    (Quad)   (Total)
    R1        2.06678   0.00044   0.00030   0.00116   0.00146   2.06823
    R2        2.06676   0.00044   0.00029   0.00117   0.00146   2.06822
    R3        2.08168   0.00054   0.00167   0.00092   0.00259   2.08427
    R4        2.58622   0.00004  -0.00442   0.00157  -0.00285   2.58337
    A1        1.94506  -0.00005   0.00093  -0.00126  -0.00046   1.94459
    A2        1.86830  -0.00054  -0.00285  -0.00347  -0.00632   1.86197
    A3        1.97057   0.00023   0.00250   0.00177   0.00423   1.97481
    A4        1.86847  -0.00055  -0.00285  -0.00352  -0.00638   1.86209
    A5        1.97069   0.00022   0.00249   0.00173   0.00419   1.97487
    A6        1.83094   0.00064  -0.00089   0.00443   0.00357   1.83451
    D1        2.08752  -0.00063  -0.00203  -0.00516  -0.00713   2.08039
    D2       -2.22618  -0.00031  -0.00535  -0.00126  -0.00665  -2.23283
    D3        2.02837  -0.00015  -0.00267  -0.00059  -0.00328   2.02509
    D4       -2.02863   0.00016   0.00268   0.00067   0.00337  -2.02527
         Item               Value     Threshold  Converged?
 Maximum Force            0.000638     0.000450     NO 
 RMS     Force            0.000409     0.000300     NO 
 Maximum Displacement     0.005946     0.001800     NO 
 RMS     Displacement     0.002687     0.001200     NO 
 Predicted change in Energy=-1.075944D-05
 GradGradGradGradGradGradGradGradGradGradGradGradGradGradGradGradGradGrad

                          Input orientation:                          
 ---------------------------------------------------------------------
 Center     Atomic      Atomic             Coordinates (Angstroms)
 Number     Number       Type             X           Y           Z
 ---------------------------------------------------------------------
      1          6           0        0.647364   -0.042665    0.000270
      2          1           0        1.018872   -0.526464    0.908988
      3          1           0        1.017237   -0.544341   -0.899367
      4          1           0        1.067781    0.976962   -0.010116
      5          8           0       -0.708625    0.130970   -0.000172
 ---------------------------------------------------------------------
                    Distance matrix (angstroms):
                    1          2          3          4          5
     1  C    0.000000
     2  H    1.094463   0.000000
     3  H    1.094455   1.808444   0.000000
     4  H    1.102950   1.762792   1.762863   0.000000
     5  O    1.367060   2.059863   2.059902   1.967592   0.000000
 Stoichiometry    CH3O(2)
 Framework group  C1[X(CH3O)]
 Deg. of freedom     9
 Full point group                 C1      NOp   1
 Largest Abelian subgroup         C1      NOp   1
 Largest concise Abelian subgroup C1      NOp   1
                         Standard orientation:                         
 ---------------------------------------------------------------------
 Center     Atomic      Atomic             Coordinates (Angstroms)
 Number     Number       Type             X           Y           Z
 ---------------------------------------------------------------------
      1          6           0        0.575746    0.000019   -0.012805
      2          1           0        1.004357   -0.903944   -0.456643
      3          1           0        1.004410    0.904500   -0.455517
      4          1           0        0.867188   -0.000726    1.050943
      5          8           0       -0.791304    0.000007   -0.007744
 ---------------------------------------------------------------------
 Rotational constants (GHZ):         158.7873847          27.9873020          27.8127620
 Standard basis: CC-pVTZ (5D, 7F)
 There are   115 symmetry adapted cartesian basis functions of A   symmetry.
 There are   102 symmetry adapted basis functions of A   symmetry.
   102 basis functions,   155 primitive gaussians,   115 cartesian basis functions
     9 alpha electrons        8 beta electrons
       nuclear repulsion energy        34.4160697616 Hartrees.
 NAtoms=    5 NActive=    5 NUniq=    5 SFac= 1.00D+00 NAtFMM=   60 NAOKFM=F Big=F
 Integral buffers will be    131072 words long.
 Raffenetti 2 integral format.
 Two-electron integral symmetry is turned on.
 Nuclear repulsion after empirical dispersion term =       34.4150463311 Hartrees.
 One-electron integrals computed using PRISM.
 NBasis=   102 RedAO= T EigKep=  2.05D-03  NBF=   102
 NBsUse=   102 1.00D-06 EigRej= -1.00D+00 NBFU=   102
 Initial guess from the checkpoint file:  "/localscratch/386879/Gau-6761.chk"
 B after Tr=    -0.000000    0.000000   -0.000000
         Rot=    1.000000    0.000171   -0.000130   -0.000003 Ang=   0.02 deg.
 Initial guess <Sx>= 0.0000 <Sy>= 0.0000 <Sz>= 0.5000 <S**2>= 0.7556 S= 0.5028
 Keep R1 and R2 ints in memory in canonical form, NReq=65163573.
 Requested convergence on RMS density matrix=1.00D-08 within 128 cycles.
 Requested convergence on MAX density matrix=1.00D-06.
 Requested convergence on             energy=1.00D-06.
 No special actions if energy rises.
 SCF Done:  E(UB2PLYPD3) =  -114.884907215     A.U. after   16 cycles
            NFock= 16  Conv=0.69D-08     -V/T= 2.0038
 <Sx>= 0.0000 <Sy>= 0.0000 <Sz>= 0.5000 <S**2>= 0.7556 S= 0.5028
 <L.S>=  0.00000000000    
 Annihilation of the first spin contaminant:
 S**2 before annihilation     0.7556,   after     0.7500
 DoSCS=T DFT=T ScalE2(SS,OS)=  0.270000  0.270000
 ExpMin= 1.03D-01 ExpMax= 1.53D+04 ExpMxC= 5.22D+02 IAcc=3 IRadAn=         5 AccDes= 0.00D+00
 HarFok:  IExCor=  205 AccDes= 0.00D+00 IRadAn=         5 IDoV=-2 UseB2=F ITyADJ=14
 ICtDFT= 12500011 ScaDFX=  1.000000  1.000000  1.000000  1.000000
 Range of M.O.s used for correlation:     3   102
 NBasis=   102 NAE=     9 NBE=     8 NFC=     2 NFV=     0
 NROrb=    100 NOA=     7 NOB=     6 NVA=    93 NVB=    94

 **** Warning!!: The largest alpha MO coefficient is  0.11829153D+02


 **** Warning!!: The largest beta MO coefficient is  0.11827854D+02

 DoSCS=T DFT=T ScalE2(SS,OS)=  0.270000  0.270000
 Fully direct method using O(ONN) memory.
 JobTyp=2 Pass  1:  I=   3 to   9 NPSUse= 40 ParTrn=T ParDer=T DoDerP=T.
 JobTyp=3 Pass  1:  I=   3 to   8 NPSUse= 40 ParTrn=T ParDer=T DoDerP=T.
 Spin components of T(2) and E(2):
     alpha-alpha T2 =       0.1818989433D-01 E2=     -0.1583250911D-01
     alpha-beta  T2 =       0.1094280532D+00 E2=     -0.9249675124D-01
     beta-beta   T2 =       0.1648917318D-01 E2=     -0.1190878623D-01
 (S**2,0)=  0.75564D+00           (S**2,1)=  0.74736D+00
 Scaling Projection term by:   0.270000
 E(PUHF)=      -0.11488804011D+03        E(PMP2)=      -0.11500537210D+03
 E2(B2PLYPD3) =    -0.1202380466D+00 E(B2PLYPD3) =    -0.11500514526207D+03
          IDoAtm=11111
          Differentiating once with respect to electric field.
                with respect to dipole field.
          Differentiating once with respect to nuclear coordinates.
 Keep R1 and R2 ints in memory in canonical form, NReq=65167009.
          There are     1 degrees of freedom in the 1st order CPHF.  IDoFFX=0 NUNeed=     1.
 LinEq1:  Iter=  0 NonCon=     1 RMS=1.48D-03 Max=4.42D-02 NDo=     1
 AX will form     1 AO Fock derivatives at one time.
 LinEq1:  Iter=  1 NonCon=     1 RMS=3.39D-04 Max=4.05D-03 NDo=     1
 LinEq1:  Iter=  2 NonCon=     1 RMS=1.53D-04 Max=1.65D-03 NDo=     1
 LinEq1:  Iter=  3 NonCon=     1 RMS=3.14D-05 Max=2.86D-04 NDo=     1
 LinEq1:  Iter=  4 NonCon=     1 RMS=2.17D-05 Max=2.68D-04 NDo=     1
 LinEq1:  Iter=  5 NonCon=     1 RMS=5.40D-06 Max=5.67D-05 NDo=     1
 LinEq1:  Iter=  6 NonCon=     1 RMS=1.65D-06 Max=2.93D-05 NDo=     1
 LinEq1:  Iter=  7 NonCon=     1 RMS=4.94D-07 Max=9.16D-06 NDo=     1
 LinEq1:  Iter=  8 NonCon=     1 RMS=1.34D-07 Max=2.23D-06 NDo=     1
 LinEq1:  Iter=  9 NonCon=     1 RMS=3.51D-08 Max=3.70D-07 NDo=     1
 LinEq1:  Iter= 10 NonCon=     1 RMS=7.30D-09 Max=9.58D-08 NDo=     1
 LinEq1:  Iter= 11 NonCon=     1 RMS=2.34D-09 Max=5.85D-08 NDo=     1
 LinEq1:  Iter= 12 NonCon=     1 RMS=9.41D-10 Max=2.12D-08 NDo=     1
 LinEq1:  Iter= 13 NonCon=     1 RMS=3.22D-10 Max=3.39D-09 NDo=     1
 LinEq1:  Iter= 14 NonCon=     0 RMS=5.83D-11 Max=4.27D-10 NDo=     1
 Linear equations converged to 1.000D-10 1.000D-09 after    14 iterations.
 End of Minotr F.D. properties file   721 does not exist.
 End of Minotr F.D. properties file   722 does not exist.
 End of Minotr F.D. properties file   788 does not exist.
 Calling FoFJK, ICntrl=  10002127 FMM=F ISym2X=0 I1Cent= 0 IOpClX= 1 NMat=1 NMatS=1 NMatT=0.
 ***** Axes restored to original set *****
 -------------------------------------------------------------------
 Center     Atomic                   Forces (Hartrees/Bohr)
 Number     Number              X              Y              Z
 -------------------------------------------------------------------
      1        6          -0.000214662    0.000152940    0.000005587
      2        1           0.000096711   -0.000005053    0.000028340
      3        1           0.000097248   -0.000003726   -0.000031234
      4        1           0.000147579   -0.000089786   -0.000002087
      5        8          -0.000126875   -0.000054375   -0.000000607
 -------------------------------------------------------------------
 Cartesian Forces:  Max     0.000214662 RMS     0.000096274

 GradGradGradGradGradGradGradGradGradGradGradGradGradGradGradGradGradGrad
 Berny optimization.
 Using GEDIIS/GDIIS optimizer.
 FormGI is forming the generalized inverse of G from B-inverse, IUseBI=4.
 Internal  Forces:  Max     0.000192676 RMS     0.000081679
 Search for a local minimum.
 Step number   4 out of a maximum of  100
 All quantities printed in internal units (Hartrees-Bohrs-Radians)
 Mixed Optimization -- En-DIIS/RFO-DIIS
 Swapping is turned off.
 Update second derivatives using D2CorX and points    1    2    3    4
 DE= -1.20D-05 DEPred=-1.08D-05 R= 1.12D+00
 TightC=F SS=  1.41D+00  RLast= 1.63D-02 DXNew= 5.1065D-01 4.8868D-02
 Trust test= 1.12D+00 RLast= 1.63D-02 DXMaxT set to 3.04D-01
 The second derivative matrix:
                          R1        R2        R3        R4        A1
           R1           0.34379
           R2          -0.00133   0.34373
           R3          -0.00320  -0.00325   0.34153
           R4           0.01270   0.01276   0.03469   0.34824
           A1           0.00173   0.00175  -0.00509   0.03283   0.14024
           A2           0.00635   0.00639   0.01876  -0.05303  -0.00490
           A3          -0.00528  -0.00531  -0.01417   0.03524   0.00774
           A4           0.00648   0.00652   0.01899  -0.05326  -0.00495
           A5          -0.00521  -0.00523  -0.01403   0.03497   0.00769
           A6          -0.00262  -0.00266   0.00025  -0.00997   0.01406
           D1          -0.00641  -0.00639  -0.00875  -0.01043   0.00822
           D2          -0.00174  -0.00171  -0.00858   0.02100  -0.00052
           D3          -0.00086  -0.00085  -0.00429   0.01054  -0.00026
           D4           0.00087   0.00086   0.00429  -0.01046   0.00026
                          A2        A3        A4        A5        A6
           A2           0.13928
           A3           0.01767   0.14391
           A4          -0.02095   0.01782   0.13882
           A5           0.01751  -0.01597   0.01765   0.14415
           A6           0.00700  -0.00758   0.00718  -0.00748   0.14767
           D1           0.01308  -0.01166   0.01298  -0.01161  -0.00930
           D2          -0.00045   0.00009  -0.00054   0.00007   0.00092
           D3          -0.00023   0.00005  -0.00028   0.00004   0.00047
           D4           0.00022  -0.00004   0.00027  -0.00003  -0.00045
                          D1        D2        D3        D4
           D1           0.01931
           D2           0.00702   0.02323
           D3           0.00349   0.00410   0.01707
           D4          -0.00353  -0.00411  -0.00205   0.01707
 ITU=  1  1  1  0
     Eigenvalues ---    0.05043   0.06867   0.07351   0.15318   0.16000
     Eigenvalues ---    0.31201   0.34509   0.34603   0.38538
 En-DIIS/RFO-DIIS/Sim-DIIS IScMMF=       -3 using points:     4    3
 RFO step:  Lambda=-6.91899045D-07.
 DidBck=F Rises=F RFO-DIIS coefs:    1.12413   -0.12413
 Iteration  1 RMS(Cart)=  0.00060690 RMS(Int)=  0.00000256
 Iteration  2 RMS(Cart)=  0.00000046 RMS(Int)=  0.00000251
 Variable       Old X    -DE/DX   Delta X   Delta X   Delta X     New X
                                 (Linear)    (Quad)   (Total)
    R1        2.06823   0.00006   0.00018   0.00002   0.00020   2.06844
    R2        2.06822   0.00006   0.00018   0.00003   0.00021   2.06843
    R3        2.08427  -0.00003   0.00032  -0.00031   0.00002   2.08429
    R4        2.58337   0.00012  -0.00035   0.00035  -0.00000   2.58337
    A1        1.94459  -0.00001  -0.00006  -0.00040  -0.00046   1.94413
    A2        1.86197  -0.00010  -0.00079  -0.00015  -0.00093   1.86104
    A3        1.97481   0.00001   0.00053  -0.00012   0.00041   1.97522
    A4        1.86209  -0.00010  -0.00079  -0.00018  -0.00097   1.86112
    A5        1.97487   0.00001   0.00052  -0.00013   0.00039   1.97526
    A6        1.83451   0.00019   0.00044   0.00106   0.00150   1.83601
    D1        2.08039  -0.00011  -0.00089  -0.00063  -0.00151   2.07888
    D2       -2.23283  -0.00000  -0.00083   0.00077  -0.00006  -2.23289
    D3        2.02509   0.00000  -0.00041   0.00041   0.00000   2.02509
    D4       -2.02527   0.00000   0.00042  -0.00036   0.00006  -2.02521
         Item               Value     Threshold  Converged?
 Maximum Force            0.000193     0.000450     YES
 RMS     Force            0.000082     0.000300     YES
 Maximum Displacement     0.001349     0.001800     YES
 RMS     Displacement     0.000607     0.001200     YES
 Predicted change in Energy=-3.458865D-07
 Optimization completed.
    -- Stationary point found.
                           ----------------------------
                           !   Optimized Parameters   !
                           ! (Angstroms and Degrees)  !
 --------------------------                            --------------------------
 ! Name  Definition              Value          Derivative Info.                !
 --------------------------------------------------------------------------------
 ! R1    R(1,2)                  1.0945         -DE/DX =    0.0001              !
 ! R2    R(1,3)                  1.0945         -DE/DX =    0.0001              !
 ! R3    R(1,4)                  1.1029         -DE/DX =    0.0                 !
 ! R4    R(1,5)                  1.3671         -DE/DX =    0.0001              !
 ! A1    A(2,1,3)              111.417          -DE/DX =    0.0                 !
 ! A2    A(2,1,4)              106.6832         -DE/DX =   -0.0001              !
 ! A3    A(2,1,5)              113.148          -DE/DX =    0.0                 !
 ! A4    A(3,1,4)              106.6899         -DE/DX =   -0.0001              !
 ! A5    A(3,1,5)              113.1519         -DE/DX =    0.0                 !
 ! A6    A(4,1,5)              105.1096         -DE/DX =    0.0002              !
 ! D1    D(2,1,4,3)            119.1973         -DE/DX =   -0.0001              !
 ! D2    D(2,1,5,3)           -127.9317         -DE/DX =    0.0                 !
 ! D3    D(2,1,5,4)            116.0291         -DE/DX =    0.0                 !
 ! D4    D(3,1,5,4)           -116.0392         -DE/DX =    0.0                 !
 --------------------------------------------------------------------------------
 GradGradGradGradGradGradGradGradGradGradGradGradGradGradGradGradGradGrad

                          Input orientation:                          
 ---------------------------------------------------------------------
 Center     Atomic      Atomic             Coordinates (Angstroms)
 Number     Number       Type             X           Y           Z
 ---------------------------------------------------------------------
      1          6           0        0.647364   -0.042665    0.000270
      2          1           0        1.018872   -0.526464    0.908988
      3          1           0        1.017237   -0.544341   -0.899367
      4          1           0        1.067781    0.976962   -0.010116
      5          8           0       -0.708625    0.130970   -0.000172
 ---------------------------------------------------------------------
                    Distance matrix (angstroms):
                    1          2          3          4          5
     1  C    0.000000
     2  H    1.094463   0.000000
     3  H    1.094455   1.808444   0.000000
     4  H    1.102950   1.762792   1.762863   0.000000
     5  O    1.367060   2.059863   2.059902   1.967592   0.000000
 Stoichiometry    CH3O(2)
 Framework group  C1[X(CH3O)]
 Deg. of freedom     9
 Full point group                 C1      NOp   1
 Largest Abelian subgroup         C1      NOp   1
 Largest concise Abelian subgroup C1      NOp   1
                         Standard orientation:                         
 ---------------------------------------------------------------------
 Center     Atomic      Atomic             Coordinates (Angstroms)
 Number     Number       Type             X           Y           Z
 ---------------------------------------------------------------------
      1          6           0        0.575746    0.000019   -0.012805
      2          1           0        1.004357   -0.903944   -0.456643
      3          1           0        1.004410    0.904500   -0.455517
      4          1           0        0.867188   -0.000726    1.050943
      5          8           0       -0.791304    0.000007   -0.007744
 ---------------------------------------------------------------------
 Rotational constants (GHZ):         158.7873847          27.9873020          27.8127620

 **********************************************************************

            Population analysis using the SCF Density.

 **********************************************************************

 Orbital symmetries:
 Alpha Orbitals:
       Occupied  (A) (A) (A) (A) (A) (A) (A) (A) (A)
       Virtual   (A) (A) (A) (A) (A) (A) (A) (A) (A) (A) (A) (A)
                 (A) (A) (A) (A) (A) (A) (A) (A) (A) (A) (A) (A)
                 (A) (A) (A) (A) (A) (A) (A) (A) (A) (A) (A) (A)
                 (A) (A) (A) (A) (A) (A) (A) (A) (A) (A) (A) (A)
                 (A) (A) (A) (A) (A) (A) (A) (A) (A) (A) (A) (A)
                 (A) (A) (A) (A) (A) (A) (A) (A) (A) (A) (A) (A)
                 (A) (A) (A) (A) (A) (A) (A) (A) (A) (A) (A) (A)
                 (A) (A) (A) (A) (A) (A) (A) (A) (A)
 Beta  Orbitals:
       Occupied  (A) (A) (A) (A) (A) (A) (A) (A)
       Virtual   (A) (A) (A) (A) (A) (A) (A) (A) (A) (A) (A) (A)
                 (A) (A) (A) (A) (A) (A) (A) (A) (A) (A) (A) (A)
                 (A) (A) (A) (A) (A) (A) (A) (A) (A) (A) (A) (A)
                 (A) (A) (A) (A) (A) (A) (A) (A) (A) (A) (A) (A)
                 (A) (A) (A) (A) (A) (A) (A) (A) (A) (A) (A) (A)
                 (A) (A) (A) (A) (A) (A) (A) (A) (A) (A) (A) (A)
                 (A) (A) (A) (A) (A) (A) (A) (A) (A) (A) (A) (A)
                 (A) (A) (A) (A) (A) (A) (A) (A) (A) (A)
 The electronic state is 2-A.
 Alpha  occ. eigenvalues --  -19.77808 -10.66863  -1.18557  -0.78059  -0.57546
 Alpha  occ. eigenvalues --   -0.54363  -0.51806  -0.41423  -0.37096
 Alpha virt. eigenvalues --    0.08245   0.14571   0.15234   0.16897   0.29113
 Alpha virt. eigenvalues --    0.31760   0.44938   0.49588   0.50547   0.50702
 Alpha virt. eigenvalues --    0.53524   0.59462   0.60073   0.65350   0.75961
 Alpha virt. eigenvalues --    0.77613   0.93255   1.00078   1.01792   1.06025
 Alpha virt. eigenvalues --    1.08922   1.13877   1.18960   1.30289   1.30622
 Alpha virt. eigenvalues --    1.36115   1.37135   1.41943   1.57504   1.70340
 Alpha virt. eigenvalues --    1.72240   1.96039   2.06392   2.17982   2.27968
 Alpha virt. eigenvalues --    2.32095   2.34919   2.60061   2.83937   2.84016
 Alpha virt. eigenvalues --    2.89875   2.96347   2.98635   3.05564   3.07034
 Alpha virt. eigenvalues --    3.09539   3.17257   3.17481   3.39960   3.41099
 Alpha virt. eigenvalues --    3.47689   3.49041   3.49500   3.51171   3.61996
 Alpha virt. eigenvalues --    3.75358   3.80592   3.88880   3.91204   3.95135
 Alpha virt. eigenvalues --    4.07654   4.09363   4.18357   4.29293   4.33807
 Alpha virt. eigenvalues --    4.39590   4.39816   4.71995   4.81695   4.92299
 Alpha virt. eigenvalues --    5.00236   5.00543   5.03626   5.05778   5.21923
 Alpha virt. eigenvalues --    5.27369   5.28832   5.40241   5.42289   5.64650
 Alpha virt. eigenvalues --    5.71030   5.92721   5.95912   6.12414   6.23070
 Alpha virt. eigenvalues --    6.23151   6.49677   6.50812   6.95176   7.03120
 Alpha virt. eigenvalues --    7.12895   9.69003  13.27647
  Beta  occ. eigenvalues --  -19.74853 -10.66995  -1.10368  -0.75658  -0.53540
  Beta  occ. eigenvalues --   -0.50176  -0.49079  -0.34600
  Beta virt. eigenvalues --   -0.03629   0.08354   0.15126   0.15252   0.17614
  Beta virt. eigenvalues --    0.29962   0.32032   0.45889   0.49998   0.50627
  Beta virt. eigenvalues --    0.51614   0.54033   0.60540   0.64019   0.66608
  Beta virt. eigenvalues --    0.78055   0.79811   0.93617   1.01395   1.02304
  Beta virt. eigenvalues --    1.06452   1.09465   1.14514   1.19268   1.31478
  Beta virt. eigenvalues --    1.32431   1.36557   1.37249   1.44891   1.58392
  Beta virt. eigenvalues --    1.74391   1.76505   1.99892   2.06926   2.19911
  Beta virt. eigenvalues --    2.28557   2.32428   2.36824   2.60153   2.84142
  Beta virt. eigenvalues --    2.84417   2.90074   2.96411   2.99129   3.05790
  Beta virt. eigenvalues --    3.06903   3.10691   3.17680   3.18407   3.40776
  Beta virt. eigenvalues --    3.41668   3.47947   3.49663   3.50128   3.53940
  Beta virt. eigenvalues --    3.62700   3.75933   3.81271   3.90377   3.94366
  Beta virt. eigenvalues --    3.96033   4.08729   4.10567   4.18945   4.30122
  Beta virt. eigenvalues --    4.38641   4.40489   4.40679   4.73016   4.82213
  Beta virt. eigenvalues --    4.92931   5.01596   5.01621   5.05501   5.08288
  Beta virt. eigenvalues --    5.24230   5.28155   5.29364   5.44467   5.46112
  Beta virt. eigenvalues --    5.67176   5.73805   5.95136   5.96746   6.16766
  Beta virt. eigenvalues --    6.24371   6.24888   6.58760   6.59009   7.02702
  Beta virt. eigenvalues --    7.04298   7.15749   9.72797  13.27693
          Condensed to atoms (all electrons):
               1          2          3          4          5
     1  C    4.483861   0.396138   0.396144   0.387627   0.354530
     2  H    0.396138   0.692074  -0.072014  -0.032753  -0.051177
     3  H    0.396144  -0.072014   0.692108  -0.032773  -0.051181
     4  H    0.387627  -0.032753  -0.032773   0.607187  -0.032893
     5  O    0.354530  -0.051177  -0.051181  -0.032893   8.001476
          Atomic-Atomic Spin Densities.
               1          2          3          4          5
     1  C   -0.078703   0.006499   0.006496   0.016878  -0.038282
     2  H    0.006499   0.020250   0.010071  -0.014789  -0.002152
     3  H    0.006496   0.010071   0.020186  -0.014772  -0.002144
     4  H    0.016878  -0.014789  -0.014772   0.139120  -0.027465
     5  O   -0.038282  -0.002152  -0.002144  -0.027465   1.018469
 Mulliken charges and spin densities:
               1          2
     1  C   -0.018299  -0.087113
     2  H    0.067732   0.019878
     3  H    0.067716   0.019837
     4  H    0.103606   0.098972
     5  O   -0.220755   0.948425
 Sum of Mulliken charges =  -0.00000   1.00000
 Mulliken charges and spin densities with hydrogens summed into heavy atoms:
               1          2
     1  C    0.220755   0.051575
     5  O   -0.220755   0.948425
 Electronic spatial extent (au):  <R**2>=             74.2551
 Charge=             -0.0000 electrons
 Dipole moment (field-independent basis, Debye):
    X=              1.9303    Y=             -0.0002    Z=              0.1580  Tot=              1.9368
 Quadrupole moment (field-independent basis, Debye-Ang):
   XX=            -13.4811   YY=            -12.6803   ZZ=            -11.6329
   XY=             -0.0002   XZ=              0.1928   YZ=             -0.0005
 Traceless Quadrupole moment (field-independent basis, Debye-Ang):
   XX=             -0.8830   YY=             -0.0822   ZZ=              0.9652
   XY=             -0.0002   XZ=              0.1928   YZ=             -0.0005
 Octapole moment (field-independent basis, Debye-Ang**2):
  XXX=             -1.1763  YYY=              0.0008  ZZZ=              0.9161  XYY=             -0.0159
  XXY=             -0.0002  XXZ=              0.0865  XZZ=             -0.8104  YZZ=             -0.0013
  YYZ=             -0.4925  XYZ=              0.0002
[...]
              Bcc     0.0226    12.082     4.311     4.030  0.8183 -0.5393 -0.1989
 
              Baa    -0.0139    -7.402    -2.641    -2.469  0.3646 -0.2205  0.9047
     3 H(1)   Bbb    -0.0088    -4.678    -1.669    -1.560 -0.4443  0.8126  0.3771
              Bcc     0.0226    12.080     4.310     4.029  0.8183  0.5394 -0.1983
 
              Baa    -0.0175    -9.317    -3.324    -3.108 -0.0002  1.0000  0.0010
     4 H(1)   Bbb    -0.0079    -4.234    -1.511    -1.412 -0.6780 -0.0008  0.7350
              Bcc     0.0254    13.550     4.835     4.520  0.7350 -0.0005  0.6780
 
              Baa    -1.8176   131.518    46.929    43.870 -0.0004  1.0000  0.0004
     5 O(17)  Bbb    -1.8050   130.609    46.605    43.567  0.9994  0.0004 -0.0351
              Bcc     3.6226  -262.127   -93.533   -87.436  0.0352 -0.0004  0.9994
 

 ---------------------------------------------------------------------------------

 Calling FoFJK, ICntrl=  10100127 FMM=F ISym2X=0 I1Cent= 0 IOpClX= 1 NMat=1 NMatS=1 NMatT=0.
 Full mass-weighted force constant matrix:
 Low frequencies ---  -21.6194  -12.2138  -11.9651   -0.0019   -0.0016   -0.0011
 Low frequencies ---  746.8736  966.2790 1118.4313
 Diagonal vibrational polarizability:
        0.3841884       3.3292798       0.2419456
 Harmonic frequencies (cm**-1), IR intensities (KM/Mole), Raman scattering
 activities (A**4/AMU), depolarization ratios for plane and unpolarized
 incident light, reduced masses (AMU), force constants (mDyne/A),
 and normal coordinates:
                      1                      2                      3
                      A                      A                      A
 Frequencies --    746.8615               966.2790              1118.4313
 Red. masses --      1.3268                 1.5826                 3.6677
 Frc consts  --      0.4360                 0.8706                 2.7031
 IR Inten    --     62.4503                 0.5573                 9.4626
  Atom  AN      X      Y      Z        X      Y      Z        X      Y      Z
     1   6    -0.00  -0.16  -0.00     0.11  -0.00   0.14     0.35   0.00  -0.09
     2   1     0.48   0.21  -0.23    -0.23   0.06  -0.29     0.48   0.02   0.08
     3   1    -0.48   0.21   0.23    -0.23  -0.06  -0.29     0.48  -0.02   0.08
     4   1    -0.00   0.57   0.00     0.81   0.00  -0.11    -0.55  -0.00   0.12
     5   8     0.00   0.06   0.00    -0.11   0.00  -0.06    -0.28  -0.00   0.05
                      4                      5                      6
                      A                      A                      A
 Frequencies --   1388.1526              1388.6141              1531.0425
 Red. masses --      1.0236                 1.0950                 1.1074
 Frc consts  --      1.1621                 1.2441                 1.5294
 IR Inten    --     15.7322                16.2029                 5.5775
  Atom  AN      X      Y      Z        X      Y      Z        X      Y      Z
     1   6     0.00  -0.00   0.00    -0.06  -0.00  -0.05    -0.08  -0.00   0.05
     2   1    -0.49  -0.02  -0.36     0.31  -0.06   0.41     0.46   0.41  -0.33
     3   1     0.45  -0.02   0.32     0.36   0.06   0.45     0.46  -0.41  -0.33
     4   1    -0.03   0.57   0.01     0.60   0.03  -0.20     0.01   0.00   0.01
     5   8     0.00  -0.03   0.00    -0.04  -0.00  -0.00     0.00  -0.00   0.01
                      7                      8                      9
                      A                      A                      A
 Frequencies --   2939.8427              3015.4862              3060.2465
 Red. masses --      1.0427                 1.0744                 1.1032
 Frc consts  --      5.3093                 5.7564                 6.0870
 IR Inten    --      0.0110                39.2876                33.6442
  Atom  AN      X      Y      Z        X      Y      Z        X      Y      Z
     1   6    -0.03   0.00  -0.05     0.03  -0.00  -0.07    -0.00  -0.09   0.00
     2   1     0.10  -0.25  -0.14    -0.24   0.55   0.25    -0.27   0.57   0.31
     3   1     0.10   0.25  -0.14    -0.24  -0.55   0.25     0.27   0.58  -0.30
     4   1     0.24  -0.00   0.87     0.12  -0.00   0.38    -0.00  -0.04  -0.00
     5   8    -0.01   0.00  -0.00     0.00  -0.00  -0.00    -0.00  -0.00  -0.00

 -------------------
 - Thermochemistry -
 -------------------
 Temperature   298.150 Kelvin.  Pressure   1.00000 Atm.
 Atom     1 has atomic number  6 and mass  12.00000
 Atom     2 has atomic number  1 and mass   1.00783
 Atom     3 has atomic number  1 and mass   1.00783
 Atom     4 has atomic number  1 and mass   1.00783
 Atom     5 has atomic number  8 and mass  15.99491
 Molecular mass:    31.01839 amu.
 Principal axes and moments of inertia in atomic units:
                           1         2         3
     Eigenvalues --    11.36577  64.48429  64.88896
           X            1.00000  -0.00000   0.00053
           Y            0.00000   1.00000   0.00001
           Z           -0.00053  -0.00001   1.00000
 This molecule is an asymmetric top.
 Rotational symmetry number  1.
 Rotational temperatures (Kelvin)      7.62059     1.34318     1.33480
 Rotational constants (GHZ):         158.78738    27.98730    27.81276
 Zero-point vibrational energy      96628.1 (Joules/Mol)
                                   23.09467 (Kcal/Mol)
 Vibrational temperatures:   1074.57  1390.26  1609.17  1997.24  1997.91
          (Kelvin)           2202.83  4229.78  4338.61  4403.01
 
 Zero-point correction=                           0.036804 (Hartree/Particle)
 Thermal correction to Energy=                    0.039817
 Thermal correction to Enthalpy=                  0.040761
 Thermal correction to Gibbs Free Energy=         0.013879
 Sum of electronic and zero-point Energies=           -114.968342
 Sum of electronic and thermal Energies=              -114.965329
 Sum of electronic and thermal Enthalpies=            -114.964385
 Sum of electronic and thermal Free Energies=         -114.991267
 
                     E (Thermal)             CV                S
                      KCal/Mol        Cal/Mol-Kelvin    Cal/Mol-Kelvin
 Total                   24.985              7.672             56.578
 Electronic               0.000              0.000              1.377
 Translational            0.889              2.981             36.229
 Rotational               0.889              2.981             18.504
 Vibrational             23.208              1.710              0.468
                       Q            Log10(Q)             Ln(Q)
 Total Bot       0.413304D-06         -6.383730        -14.699082
 Total V=0       0.350575D+11         10.544781         24.280256
 Vib (Bot)       0.123282D-16        -16.909100        -38.934643
 Vib (V=0)       0.104571D+01          0.019411          0.044695
 Electronic      0.200000D+01          0.301030          0.693147
 Translational   0.679020D+07          6.831883         15.730991
 Rotational      0.246864D+04          3.392457          7.811422
 ***** Axes restored to original set *****
 -------------------------------------------------------------------
 Center     Atomic                   Forces (Hartrees/Bohr)
 Number     Number              X              Y              Z
 -------------------------------------------------------------------
      1        6          -0.000214662    0.000152940    0.000005587
      2        1           0.000096711   -0.000005053    0.000028341
      3        1           0.000097248   -0.000003726   -0.000031234
      4        1           0.000147578   -0.000089786   -0.000002087
      5        8          -0.000126876   -0.000054375   -0.000000607
 -------------------------------------------------------------------
 Cartesian Forces:  Max     0.000214662 RMS     0.000096274
 FormGI is forming the generalized inverse of G from B-inverse, IUseBI=4.

 GradGradGradGradGradGradGradGradGradGradGradGradGradGradGradGradGradGrad
 Berny optimization.
 Internal  Forces:  Max     0.000192676 RMS     0.000081679
 Search for a local minimum.
 Step number   1 out of a maximum of    2
 All quantities printed in internal units (Hartrees-Bohrs-Radians)
 Second derivative matrix not updated -- analytic derivatives used.
 The second derivative matrix:
                          R1        R2        R3        R4        A1
           R1           0.32665
           R2           0.00354   0.32667
           R3           0.00305   0.00305   0.31105
           R4           0.02337   0.02336   0.02788   0.35586
           A1           0.00326   0.00326  -0.00103  -0.01022   0.02331
           A2           0.00502  -0.00301   0.00264  -0.01853  -0.00641
           A3           0.00022  -0.00247  -0.00557   0.01697  -0.01601
           A4          -0.00301   0.00502   0.00264  -0.01852  -0.00641
           A5          -0.00248   0.00021  -0.00557   0.01697  -0.01602
           A6          -0.00315  -0.00315   0.00867   0.00968   0.02238
           D1           0.00481   0.00481   0.00149  -0.03081   0.02054
           D2          -0.00257  -0.00257   0.01119  -0.01544  -0.00451
           D3           0.00423  -0.00679   0.00560  -0.00772  -0.00226
           D4           0.00679  -0.00422  -0.00560   0.00771   0.00226
                          A2        A3        A4        A5        A6
           A2           0.03628
           A3          -0.02787   0.08241
           A4           0.00164   0.02905   0.03629
           A5           0.02905  -0.04698  -0.02786   0.08245
           A6          -0.03146  -0.02313  -0.03147  -0.02318   0.08925
           D1           0.01193  -0.01800   0.01193  -0.01800  -0.00615
           D2           0.00791  -0.00866   0.00791  -0.00868   0.00930
           D3           0.01026  -0.00555  -0.00236  -0.00312   0.00467
           D4           0.00235   0.00310  -0.01027   0.00555  -0.00464
                          D1        D2        D3        D4
           D1           0.03606
           D2           0.00284   0.02147
           D3           0.00142   0.01074   0.01233
           D4          -0.00142  -0.01073   0.00159   0.01232
 ITU=  0
     Eigenvalues ---    0.02085   0.04067   0.06810   0.13302   0.15648
     Eigenvalues ---    0.29944   0.31840   0.32376   0.39168
 Angle between quadratic step and forces=  31.00 degrees.
 Linear search not attempted -- first point.
 Iteration  1 RMS(Cart)=  0.00065639 RMS(Int)=  0.00000077
 Iteration  2 RMS(Cart)=  0.00000054 RMS(Int)=  0.00000054
 Variable       Old X    -DE/DX   Delta X   Delta X   Delta X     New X
                                 (Linear)    (Quad)   (Total)
    R1        2.06823   0.00006   0.00000   0.00023   0.00023   2.06847
    R2        2.06822   0.00006   0.00000   0.00025   0.00025   2.06847
    R3        2.08427  -0.00003   0.00000  -0.00011  -0.00011   2.08416
    R4        2.58337   0.00012   0.00000  -0.00002  -0.00002   2.58335
    A1        1.94459  -0.00001   0.00000  -0.00059  -0.00059   1.94401
    A2        1.86197  -0.00010   0.00000  -0.00089  -0.00089   1.86109
    A3        1.97481   0.00001   0.00000   0.00040   0.00040   1.97520
    A4        1.86209  -0.00010   0.00000  -0.00100  -0.00101   1.86108
    A5        1.97487   0.00001   0.00000   0.00033   0.00033   1.97520
    A6        1.83451   0.00019   0.00000   0.00172   0.00171   1.83622
    D1        2.08039  -0.00011   0.00000  -0.00165  -0.00165   2.07874
    D2       -2.23283  -0.00000   0.00000   0.00018   0.00018  -2.23264
    D3        2.02509   0.00000   0.00000   0.00018   0.00018   2.02527
    D4       -2.02527   0.00000   0.00000  -0.00000  -0.00000  -2.02527
         Item               Value     Threshold  Converged?
 Maximum Force            0.000193     0.000450     YES
 RMS     Force            0.000082     0.000300     YES
 Maximum Displacement     0.001475     0.001800     YES
 RMS     Displacement     0.000656     0.001200     YES
 Predicted change in Energy=-3.763222D-07
 Optimization completed.
    -- Stationary point found.
                           ----------------------------
                           !   Optimized Parameters   !
                           ! (Angstroms and Degrees)  !
 --------------------------                            --------------------------
 ! Name  Definition              Value          Derivative Info.                !
 --------------------------------------------------------------------------------
 ! R1    R(1,2)                  1.0945         -DE/DX =    0.0001              !
 ! R2    R(1,3)                  1.0945         -DE/DX =    0.0001              !
 ! R3    R(1,4)                  1.1029         -DE/DX =    0.0                 !
 ! R4    R(1,5)                  1.3671         -DE/DX =    0.0001              !
 ! A1    A(2,1,3)              111.417          -DE/DX =    0.0                 !
 ! A2    A(2,1,4)              106.6832         -DE/DX =   -0.0001              !
 ! A3    A(2,1,5)              113.148          -DE/DX =    0.0                 !
 ! A4    A(3,1,4)              106.6899         -DE/DX =   -0.0001              !
 ! A5    A(3,1,5)              113.1519         -DE/DX =    0.0                 !
 ! A6    A(4,1,5)              105.1096         -DE/DX =    0.0002              !
 ! D1    D(2,1,4,3)            119.1973         -DE/DX =   -0.0001              !
 ! D2    D(2,1,5,3)           -127.9317         -DE/DX =    0.0                 !
 ! D3    D(2,1,5,4)            116.0291         -DE/DX =    0.0                 !
 ! D4    D(3,1,5,4)           -116.0392         -DE/DX =    0.0                 !
 --------------------------------------------------------------------------------
 GradGradGradGradGradGradGradGradGradGradGradGradGradGradGradGradGradGrad


 ----------------------------------------------------------------------

 Electric dipole moment (input orientation):
 (Debye = 10**-18 statcoulomb cm , SI units = C m)
                  (au)            (Debye)         (10**-30 SI)
   Tot        0.776561D+00      0.197382D+01      0.658396D+01
   x          0.776266D+00      0.197307D+01      0.658146D+01
   y         -0.214000D-01     -0.543935D-01     -0.181437D+00
   z         -0.469463D-03     -0.119326D-02     -0.398027D-02

 Dipole polarizability, Alpha (input orientation).
 (esu units = cm**3 , SI units = C**2 m**2 J**-1)
 Alpha(0;0):
               (au)            (10**-24 esu)      (10**-40 SI)
   iso        0.177131D+02      0.262480D+01      0.292049D+01
   aniso      0.367106D+01      0.543994D+00      0.605275D+00
   xx         0.198409D+02      0.294011D+01      0.327132D+01
   yx        -0.412543D+00     -0.611326D-01     -0.680192D-01
   yy         0.156869D+02      0.232455D+01      0.258641D+01
   zx         0.223784D-02      0.331614D-03      0.368970D-03
   zy         0.187437D-01      0.277753D-02      0.309041D-02
   zz         0.176114D+02      0.260975D+01      0.290374D+01

 ----------------------------------------------------------------------

 Dipole orientation:
     6         -0.00254200         -0.04683085          1.22509650
     1         -1.74420831         -0.89371041          1.95103532
     1          1.67085666         -1.02172350          1.95094392
     1          0.07030985          1.89987939          1.96618181
     8          0.00693834          0.21038913         -1.34541781

 Electric dipole moment (dipole orientation):
 (Debye = 10**-18 statcoulomb cm , SI units = C m)
                  (au)            (Debye)         (10**-30 SI)
   Tot        0.776561D+00      0.197382D+01      0.658396D+01
   x          0.000000D+00      0.000000D+00      0.000000D+00
   y          0.000000D+00      0.000000D+00      0.000000D+00
   z          0.776561D+00      0.197382D+01      0.658396D+01

 Dipole polarizability, Alpha (dipole orientation).
 (esu units = cm**3 , SI units = C**2 m**2 J**-1)
 Alpha(0;0):
               (au)            (10**-24 esu)      (10**-40 SI)
   iso        0.177131D+02      0.262480D+01      0.292049D+01
   aniso      0.367106D+01      0.543994D+00      0.605275D+00
   xx         0.176089D+02      0.260938D+01      0.290332D+01
   yx        -0.721459D-01     -0.106909D-01     -0.118952D-01
   yy         0.156698D+02      0.232202D+01      0.258360D+01
   zx        -0.112772D-01     -0.167111D-02     -0.185936D-02
   zy        -0.297300D+00     -0.440553D-01     -0.490182D-01
   zz         0.198604D+02      0.294301D+01      0.327454D+01

 ----------------------------------------------------------------------
 1\1\GINC-N336\Freq\UB2PLYPD3-FC\CC-pVTZ\C1H3O1(2)\QUANDEWANG\30-Jul-20
 19\0\\#N Geom=AllCheck Guess=TCheck SCRF=Check GenChk UB2PLYPD3(FC)/CC
 -pVTZ Freq\\Title Card Required\\0,2\C,0.647363534,-0.0426653737,0.000
 2698137\H,1.0188720602,-0.5264644446,0.9089876549\H,1.0172372189,-0.54
 43409241,-0.8993670022\H,1.0677807924,0.9769620768,-0.0101157174\O,-0.
 7086246055,0.1309696656,-0.0001717489\\Version=ES64L-G16RevB.01\State=
 2-A\HF=-114.8849072\MP2=-115.0051453\PUHF=-114.8880401\PMP2-0=-115.005
 3721\S2=0.75564\S2-1=0.747364\S2A=0.750024\RMSD=0.000e+00\RMSF=9.627e-
 05\ZeroPoint=0.0368037\Thermal=0.0398165\Dipole=0.7762659,-0.0214,-0.0
 004695\DipoleDeriv=0.1493202,-0.1978492,0.0016933,-0.2457888,0.3089167
 ,-0.0029003,0.0021082,-0.0030382,-0.0407927,-0.0054103,0.0283417,-0.09
 67237,0.1040824,0.0236792,0.1502692,-0.048456,0.0889864,-0.0407241,-0.
 0051996,0.0300401,0.0960322,0.1047152,0.0189646,-0.1517577,0.0464023,-
 0.0902928,-0.0362435,0.0834117,0.0062535,0.0001685,0.0201442,-0.045614
 3,0.0027254,0.0000035,0.0027205,0.2389638,-0.222122,0.1332139,-0.00117
 03,0.016847,-0.3059463,0.0016634,-0.000058,0.0016241,-0.1212034\Polar=
 19.840864,-0.4125434,15.6868657,0.0022378,0.0187437,17.6114488\PG=C01 
 [X(C1H3O1)]\NImag=0\\0.43399137,-0.05394835,0.49007697,0.00052999,-0.0
 0015738,0.45824277,-0.06195161,0.03654532,-0.07009280,0.08419794,0.040
 91210,-0.09738488,0.11120336,-0.04051043,0.09723527,-0.05033885,0.0907
 1674,-0.21626963,0.07286675,-0.10669655,0.24137591,-0.06174439,0.03772
 870,0.06906541,0.00656311,-0.00798387,-0.00856508,0.08394791,0.0416862
 7,-0.10140875,-0.11358221,-0.00778998,0.01172833,0.01629033,-0.0417434
 7,0.10150573,0.04925602,-0.09308896,-0.21245698,0.00867152,-0.01694447
 ,-0.02224904,-0.07177363,0.10954908,0.23737286,-0.06404608,-0.08624951
 ,0.00092871,0.00552816,0.00721801,-0.00057991,0.00549702,0.00720209,0.
 00040795,0.08656018,-0.06557814,-0.24446439,0.00240447,-0.00590337,-0.
 01417889,-0.00038186,-0.00617117,-0.01453677,0.00055910,0.09514232,0.2
 7072668,0.00070939,0.00241644,-0.00386950,0.01394776,0.01862111,-0.006
 43347,-0.01384577,-0.01846663,-0.00605235,-0.00099562,-0.00245363,0.02
 920870,-0.24624930,0.06592383,-0.00043131,-0.03433760,0.00036420,-0.01
 338291,-0.03426365,0.00064510,0.01343813,-0.03353928,-0.01748965,0.000
 18424,0.34838983,0.03692812,-0.04681895,0.00013176,0.01765845,0.002600
 17,0.00007134,0.01816980,0.00271147,-0.00007475,-0.02331291,0.00245337
 ,-0.00011729,-0.04944347,0.03905394,-0.00015655,0.00011317,-0.02564666
 ,-0.02539323,-0.00618345,0.00357624,0.02511907,0.00620944,0.00338551,0
 .00023887,-0.00012809,-0.01285338,0.00019185,-0.00001106,0.03153829\\0
 .00021466,-0.00015294,-0.00000559,-0.00009671,0.00000505,-0.00002834,-
 0.00009725,0.00000373,0.00003123,-0.00014758,0.00008979,0.00000209,0.0
 0012688,0.00005438,0.00000061\\\@


 IF YOU WISH TO UNDERSTAND THE FRAGRANCE OF THE ROSE, 
 OR THE TENACITY OF THE OAK; 
 IF YOU ARE NOT SATISFIED UNTIL YOU KNOW THE SECRET PATHS 
 BY WHICH THE SUNSHINE AND THE AIR ACHIEVE THESE WONDERS; 
 IF YOU WISH TO SEE THE PATTERN WHICH UNDERLIES ONE LARGE FIELD OF 
 HUMAN EXPERIENCE AND HUMAN MEASUREMENT, THEN TAKE UP CHEMISTRY.

                                         -- C. A. COULSON, 1973.
 Job cpu time:       0 days  0 hours 36 minutes  4.9 seconds.
 Elapsed time:       0 days  0 hours  0 minutes 55.8 seconds.
 File lengths (MBytes):  RWF=   1007 Int=      0 D2E=      0 Chk=      3 Scr=      1
 Normal termination of Gaussian 16 at Tue Jul 30 15:20:23 2019.
