 Entering Gaussian System, Link 0=g16
 Initial command:
 /ichec/packages/gaussian/16b01/l1.exe "/localscratch/339543/Gau-77651.inp" -scrdir="/localscratch/339543/"
 Entering Link 1 = /ichec/packages/gaussian/16b01/l1.exe PID=     77681.
  
 Copyright (c) 1988-2017, Gaussian, Inc.  All Rights Reserved.
  
 This is part of the Gaussian(R) 16 program.  It is based on
 the Gaussian(R) 09 system (copyright 2009, Gaussian, Inc.),
 the Gaussian(R) 03 system (copyright 2003, Gaussian, Inc.),
 the Gaussian(R) 98 system (copyright 1998, Gaussian, Inc.),
 the Gaussian(R) 94 system (copyright 1995, Gaussian, Inc.),
 the Gaussian 92(TM) system (copyright 1992, Gaussian, Inc.),
 the Gaussian 90(TM) system (copyright 1990, Gaussian, Inc.),
 the Gaussian 88(TM) system (copyright 1988, Gaussian, Inc.),
 the Gaussian 86(TM) system (copyright 1986, Carnegie Mellon
 University), and the Gaussian 82(TM) system (copyright 1983,
 Carnegie Mellon University). Gaussian is a federally registered
 trademark of Gaussian, Inc.
  
 This software contains proprietary and confidential information,
 including trade secrets, belonging to Gaussian, Inc.
  
 This software is provided under written license and may be
 used, copied, transmitted, or stored only in accord with that
 written license.
  
 The following legend is applicable only to US Government
 contracts under FAR:
  
                    RESTRICTED RIGHTS LEGEND
  
 Use, reproduction and disclosure by the US Government is
 subject to restrictions as set forth in subparagraphs (a)
 and (c) of the Commercial Computer Software - Restricted
 Rights clause in FAR 52.227-19.
  
 Gaussian, Inc.
 340 Quinnipiac St., Bldg. 40, Wallingford CT 06492
  
  
 ---------------------------------------------------------------
 Warning -- This program may not be used in any manner that
 competes with the business of Gaussian, Inc. or will provide
 assistance to any competitor of Gaussian, Inc.  The licensee
 of this program is prohibited from giving any competitor of
 Gaussian, Inc. access to this program.  By using this program,
 the user acknowledges that Gaussian, Inc. is engaged in the
 business of creating and licensing software in the field of
 computational chemistry and represents and warrants to the
 licensee that it is not a competitor of Gaussian, Inc. and that
 it will not use this program in any manner prohibited above.
 ---------------------------------------------------------------
  

 Cite this work as:
 Gaussian 16, Revision B.01,
 M. J. Frisch, G. W. Trucks, H. B. Schlegel, G. E. Scuseria, 
 M. A. Robb, J. R. Cheeseman, G. Scalmani, V. Barone, 
 G. A. Petersson, H. Nakatsuji, X. Li, M. Caricato, A. V. Marenich, 
 J. Bloino, B. G. Janesko, R. Gomperts, B. Mennucci, H. P. Hratchian, 
 J. V. Ortiz, A. F. Izmaylov, J. L. Sonnenberg, D. Williams-Young, 
 F. Ding, F. Lipparini, F. Egidi, J. Goings, B. Peng, A. Petrone, 
 T. Henderson, D. Ranasinghe, V. G. Zakrzewski, J. Gao, N. Rega, 
 G. Zheng, W. Liang, M. Hada, M. Ehara, K. Toyota, R. Fukuda, 
 J. Hasegawa, M. Ishida, T. Nakajima, Y. Honda, O. Kitao, H. Nakai, 
 T. Vreven, K. Throssell, J. A. Montgomery, Jr., J. E. Peralta, 
 F. Ogliaro, M. J. Bearpark, J. J. Heyd, E. N. Brothers, K. N. Kudin, 
 V. N. Staroverov, T. A. Keith, R. Kobayashi, J. Normand, 
 K. Raghavachari, A. P. Rendell, J. C. Burant, S. S. Iyengar, 
 J. Tomasi, M. Cossi, J. M. Millam, M. Klene, C. Adamo, R. Cammi, 
 J. W. Ochterski, R. L. Martin, K. Morokuma, O. Farkas, 
 J. B. Foresman, and D. J. Fox, Gaussian, Inc., Wallingford CT, 2016.
 
 ******************************************
 Gaussian 16:  ES64L-G16RevB.01 20-Dec-2017
                 1-Jun-2019 
 ******************************************
 %mem=80GB
 %nproc=40
 Will use up to   40 processors via shared memory.
 ----------------------------------------------------------------------
 # opt=(maxcyc=500,modredundant) uB2PLYPD3/cc-pvtz scf=maxcyc=500 nosym
 m
 ----------------------------------------------------------------------
 1/6=500,18=120,19=15,38=1/1,3;
 2/9=110,12=2,15=1,17=6,18=5,40=1/2;
 3/5=16,6=1,11=2,25=1,30=1,71=1,74=-60,116=2/1,2,3;
 4//1;
 5/5=2,7=500,38=5/2;
 8/6=4,10=1/1;
 9/15=2,16=-3/6;
 10/5=1,31=1/2;
 6/7=2,8=2,9=2,10=2/1;
 7/12=2,30=1/1,2,3,16;
 1/6=500,18=20,19=15/3(2);
 2/9=110,15=1/2;
 99//99;
 2/9=110,15=1/2;
 3/5=16,6=1,11=2,25=1,30=1,71=1,74=-60,116=2/1,2,3;
 4/5=5,16=3,69=1/1;
 5/5=2,7=500,38=5/2;
 8/6=4,10=1/1;
 9/15=2,16=-3/6;
 10/5=1,31=1/2;
 7/12=2,30=1/1,2,3,16;
 1/6=500,18=20,19=15/3(-8);
 2/9=110,15=1/2;
 6/7=2,8=2,9=2,10=2/1;
 99/9=10/99;
 -------------------
 Title Card Required
 -------------------
 Symbolic Z-matrix:
 Charge =  0 Multiplicity = 2
 C                     1.08311  -0.17983  -0.00007 
 H                     1.12847  -0.80244  -0.89006 
 H                     1.86316   0.57566  -0.00928 
 H                     1.13712  -0.78898   0.89902 
 O                    -0.15929   0.53818   0.00009 
 O                    -1.16914  -0.27634   0.00001 
 
 The following ModRedundant input section has been read:
 D    *          1       5    *    R                                           
 D       2       1       5       6 S  36 10.000                                
 

 GradGradGradGradGradGradGradGradGradGradGradGradGradGradGradGradGradGrad
 Berny optimization.
 Initialization pass.
                           ----------------------------
                           !    Initial Parameters    !
                           ! (Angstroms and Degrees)  !
 --------------------------                            --------------------------
 ! Name  Definition              Value          Derivative Info.                !
 --------------------------------------------------------------------------------
 ! R1    R(1,2)                  1.0871         estimate D2E/DX2                !
 ! R2    R(1,3)                  1.086          estimate D2E/DX2                !
 ! R3    R(1,4)                  1.0874         estimate D2E/DX2                !
 ! R4    R(1,5)                  1.435          estimate D2E/DX2                !
 ! R5    R(5,6)                  1.2974         estimate D2E/DX2                !
 ! A1    A(2,1,3)              111.1936         estimate D2E/DX2                !
 ! A2    A(2,1,4)              110.733          estimate D2E/DX2                !
 ! A3    A(2,1,5)              108.8316         estimate D2E/DX2                !
 ! A4    A(3,1,4)              111.1657         estimate D2E/DX2                !
 ! A5    A(3,1,5)              105.8914         estimate D2E/DX2                !
 ! A6    A(4,1,5)              108.8585         estimate D2E/DX2                !
 ! A7    A(1,5,6)              111.087          estimate D2E/DX2                !
 ! D1    D(2,1,5,6)             59.8705         Scan                            !
 --------------------------------------------------------------------------------
 Trust Radius=3.00D-01 FncErr=1.00D-07 GrdErr=1.00D-07 EigMax=2.50D+02 EigMin=1.00D-04
 Number of optimizations in scan=  37
 Number of steps in this run=    100 maximum allowed number of steps=    100.
 GradGradGradGradGradGradGradGradGradGradGradGradGradGradGradGradGradGrad

                          Input orientation:                          
 ---------------------------------------------------------------------
 Center     Atomic      Atomic             Coordinates (Angstroms)
 Number     Number       Type             X           Y           Z
 ---------------------------------------------------------------------
      1          6           0        1.083109   -0.179828   -0.000068
      2          1           0        1.128466   -0.802441   -0.890058
      3          1           0        1.863156    0.575661   -0.009284
      4          1           0        1.137123   -0.788976    0.899021
      5          8           0       -0.159290    0.538176    0.000086
      6          8           0       -1.169135   -0.276336    0.000005
 ---------------------------------------------------------------------
                    Distance matrix (angstroms):
                    1          2          3          4          5
     1  C    0.000000
     2  H    1.087100   0.000000
     3  H    1.085966   1.792958   0.000000
     4  H    1.087355   1.789151   1.792868   0.000000
     5  O    1.434951   2.061050   2.022815   2.061578   0.000000
     6  O    2.254311   2.519518   3.149726   2.527816   1.297388
                    6
     6  O    0.000000
 Symmetry turned off by external request.
 Stoichiometry    CH3O2(2)
 Framework group  C1[X(CH3O2)]
 Deg. of freedom    12
 Full point group                 C1      NOp   1
 Rotational constants (GHZ):          53.6227094          11.5626263          10.1264981
 Standard basis: CC-pVTZ (5D, 7F)
   132 basis functions,   207 primitive gaussians,   150 cartesian basis functions
    13 alpha electrons       12 beta electrons
       nuclear repulsion energy        75.6228958520 Hartrees.
 NAtoms=    6 NActive=    6 NUniq=    6 SFac= 1.00D+00 NAtFMM=   60 NAOKFM=F Big=F
 Integral buffers will be    131072 words long.
 Raffenetti 2 integral format.
 Two-electron integral symmetry is turned off.
 Nuclear repulsion after empirical dispersion term =       75.6213129256 Hartrees.
 One-electron integrals computed using PRISM.
 NBasis=   132 RedAO= T EigKep=  1.92D-03  NBF=   132
 NBsUse=   132 1.00D-06 EigRej= -1.00D+00 NBFU=   132
 ExpMin= 1.03D-01 ExpMax= 1.53D+04 ExpMxC= 5.22D+02 IAcc=3 IRadAn=         5 AccDes= 0.00D+00
 Harris functional with IExCor=  419 and IRadAn=       5 diagonalized for initial guess.
 HarFok:  IExCor=  419 AccDes= 0.00D+00 IRadAn=         5 IDoV= 1 UseB2=F ITyADJ=14
 ICtDFT=  3500011 ScaDFX=  1.000000  1.000000  1.000000  1.000000
 FoFCou: FMM=F IPFlag=           0 FMFlag=      100000 FMFlg1=           0
         NFxFlg=           0 DoJE=T BraDBF=F KetDBF=T FulRan=T
         wScrn=  0.000000 ICntrl=       500 IOpCl=  0 I1Cent=   200000004 NGrid=           0
         NMat0=    1 NMatS0=      1 NMatT0=    0 NMatD0=    1 NMtDS0=    0 NMtDT0=    0
 Symmetry not used in FoFCou.
 Initial guess <Sx>= 0.0000 <Sy>= 0.0000 <Sz>= 0.5000 <S**2>= 0.7500 S= 0.5000
 Keep R1 and R2 ints in memory in canonical form, NReq=116116466.
 Requested convergence on RMS density matrix=1.00D-08 within 500 cycles.
 Requested convergence on MAX density matrix=1.00D-06.
 Requested convergence on             energy=1.00D-06.
 No special actions if energy rises.
 Integral accuracy reduced to 1.0D-05 until final iterations.
 Initial convergence to 1.0D-05 achieved.  Increase integral accuracy.
 SCF Done:  E(UB2PLYPD3) =  -189.950554580     A.U. after   22 cycles
            NFock= 22  Conv=0.18D-08     -V/T= 2.0037
 <Sx>= 0.0000 <Sy>= 0.0000 <Sz>= 0.5000 <S**2>= 0.7574 S= 0.5037
 <L.S>=  0.00000000000    
 Annihilation of the first spin contaminant:
 S**2 before annihilation     0.7574,   after     0.7500
 DoSCS=T DFT=T ScalE2(SS,OS)=  0.270000  0.270000
 ExpMin= 1.03D-01 ExpMax= 1.53D+04 ExpMxC= 5.22D+02 IAcc=3 IRadAn=         5 AccDes= 0.00D+00
 HarFok:  IExCor=  205 AccDes= 0.00D+00 IRadAn=         5 IDoV=-2 UseB2=F ITyADJ=14
 ICtDFT= 12500011 ScaDFX=  1.000000  1.000000  1.000000  1.000000
 Range of M.O.s used for correlation:     4   132
 NBasis=   132 NAE=    13 NBE=    12 NFC=     3 NFV=     0
 NROrb=    129 NOA=    10 NOB=     9 NVA=   119 NVB=   120

 **** Warning!!: The largest alpha MO coefficient is  0.12003596D+02


 **** Warning!!: The largest beta MO coefficient is  0.12003050D+02

 DoSCS=T DFT=T ScalE2(SS,OS)=  0.270000  0.270000
 Fully direct method using O(ONN) memory.
 JobTyp=2 Pass  1:  I=   4 to  13 NPSUse= 40 ParTrn=T ParDer=T DoDerP=T.
 JobTyp=3 Pass  1:  I=   4 to  12 NPSUse= 40 ParTrn=T ParDer=T DoDerP=T.
 Spin components of T(2) and E(2):
     alpha-alpha T2 =       0.2863868540D-01 E2=     -0.2550101897D-01
     alpha-beta  T2 =       0.1823649113D+00 E2=     -0.1528311283D+00
     beta-beta   T2 =       0.3714763298D-01 E2=     -0.2557675091D-01
 (S**2,0)=  0.75736D+00           (S**2,1)=  0.74558D+00
 Scaling Projection term by:   0.270000
 E(PUHF)=      -0.18995462574D+03        E(PMP2)=      -0.19015468506D+03
 E2(B2PLYPD3) =    -0.2039088982D+00 E(B2PLYPD3) =    -0.19015446347793D+03
          IDoAtm=111111
          Differentiating once with respect to electric field.
                with respect to dipole field.
          Differentiating once with respect to nuclear coordinates.
 Keep R1 and R2 ints in memory in canonical form, NReq=116120638.
          There are     1 degrees of freedom in the 1st order CPHF.  IDoFFX=0 NUNeed=     1.
 LinEq1:  Iter=  0 NonCon=     1 RMS=1.62D-03 Max=6.33D-02 NDo=     1
 AX will form     1 AO Fock derivatives at one time.
 LinEq1:  Iter=  1 NonCon=     1 RMS=5.61D-04 Max=9.93D-03 NDo=     1
 LinEq1:  Iter=  2 NonCon=     1 RMS=5.27D-04 Max=1.48D-02 NDo=     1
 LinEq1:  Iter=  3 NonCon=     1 RMS=2.17D-04 Max=2.28D-03 NDo=     1
 LinEq1:  Iter=  4 NonCon=     1 RMS=7.71D-05 Max=1.05D-03 NDo=     1
 LinEq1:  Iter=  5 NonCon=     1 RMS=2.14D-05 Max=3.00D-04 NDo=     1
 LinEq1:  Iter=  6 NonCon=     1 RMS=1.39D-05 Max=2.52D-04 NDo=     1
 LinEq1:  Iter=  7 NonCon=     1 RMS=4.39D-06 Max=7.24D-05 NDo=     1
 LinEq1:  Iter=  8 NonCon=     1 RMS=1.08D-06 Max=1.38D-05 NDo=     1
 LinEq1:  Iter=  9 NonCon=     1 RMS=2.49D-07 Max=5.46D-06 NDo=     1
 LinEq1:  Iter= 10 NonCon=     1 RMS=5.95D-08 Max=1.25D-06 NDo=     1
 LinEq1:  Iter= 11 NonCon=     1 RMS=1.98D-08 Max=5.67D-07 NDo=     1
 LinEq1:  Iter= 12 NonCon=     1 RMS=7.32D-09 Max=2.60D-07 NDo=     1
 LinEq1:  Iter= 13 NonCon=     1 RMS=2.39D-09 Max=4.45D-08 NDo=     1
 LinEq1:  Iter= 14 NonCon=     1 RMS=6.27D-10 Max=1.25D-08 NDo=     1
 LinEq1:  Iter= 15 NonCon=     1 RMS=1.47D-10 Max=1.66D-09 NDo=     1
 LinEq1:  Iter= 16 NonCon=     0 RMS=4.06D-11 Max=5.42D-10 NDo=     1
 Linear equations converged to 1.000D-10 1.000D-09 after    16 iterations.
 End of Minotr F.D. properties file   721 does not exist.
 End of Minotr F.D. properties file   722 does not exist.
 End of Minotr F.D. properties file   788 does not exist.

 **********************************************************************

            Population analysis using the SCF Density.

 **********************************************************************

 Alpha  occ. eigenvalues --  -19.84395 -19.81114 -10.68116  -1.36402  -1.01924
 Alpha  occ. eigenvalues --   -0.79740  -0.62547  -0.59766  -0.59157  -0.49831
 Alpha  occ. eigenvalues --   -0.47763  -0.37072  -0.36842
 Alpha virt. eigenvalues --    0.08237   0.13798   0.13930   0.14807   0.23810
 Alpha virt. eigenvalues --    0.29228   0.30448   0.40818   0.48807   0.50090
 Alpha virt. eigenvalues --    0.50154   0.53733   0.56219   0.58373   0.62507
 Alpha virt. eigenvalues --    0.66331   0.71303   0.75217   0.77304   0.88236
 Alpha virt. eigenvalues --    0.92272   1.00565   1.01422   1.05711   1.07264
 Alpha virt. eigenvalues --    1.13352   1.17581   1.26099   1.29195   1.33651
 Alpha virt. eigenvalues --    1.36615   1.37230   1.49538   1.50317   1.56902
 Alpha virt. eigenvalues --    1.59002   1.65637   1.77218   1.94655   2.06112
 Alpha virt. eigenvalues --    2.07122   2.22127   2.25112   2.33787   2.35325
 Alpha virt. eigenvalues --    2.39025   2.48457   2.66976   2.79570   2.88427
 Alpha virt. eigenvalues --    2.90241   2.96787   3.01178   3.07924   3.09603
 Alpha virt. eigenvalues --    3.12337   3.13260   3.19586   3.37748   3.38061
 Alpha virt. eigenvalues --    3.48346   3.49417   3.51282   3.55541   3.58953
 Alpha virt. eigenvalues --    3.70898   3.78956   3.87263   3.89730   3.91210
 Alpha virt. eigenvalues --    3.92463   3.97581   4.08919   4.14179   4.14876
 Alpha virt. eigenvalues --    4.24757   4.28053   4.31397   4.41828   4.70312
 Alpha virt. eigenvalues --    4.75457   4.81684   4.84374   4.84866   4.94862
 Alpha virt. eigenvalues --    4.95188   5.02566   5.05730   5.21746   5.24876
 Alpha virt. eigenvalues --    5.24976   5.31710   5.32102   5.37183   5.37419
 Alpha virt. eigenvalues --    5.39829   5.51886   5.67239   5.84460   5.90696
 Alpha virt. eigenvalues --    5.93640   6.03942   6.19202   6.39046   6.41313
 Alpha virt. eigenvalues --    6.44322   6.51662   6.59381   6.59791   6.83779
 Alpha virt. eigenvalues --    6.91483   6.92736   7.13023   7.25247   7.47282
 Alpha virt. eigenvalues --    7.63509   8.91670  11.30748  13.34372
  Beta  occ. eigenvalues --  -19.83296 -19.78491 -10.68176  -1.32499  -0.96739
  Beta  occ. eigenvalues --   -0.78029  -0.58332  -0.57869  -0.55758  -0.47145
  Beta  occ. eigenvalues --   -0.42126  -0.34773
  Beta virt. eigenvalues --   -0.01759   0.08274   0.13949   0.14324   0.15418
  Beta virt. eigenvalues --    0.26039   0.29474   0.30527   0.41085   0.48911
  Beta virt. eigenvalues --    0.50173   0.50220   0.53874   0.58602   0.58716
  Beta virt. eigenvalues --    0.63238   0.66922   0.75716   0.75849   0.79870
  Beta virt. eigenvalues --    0.88382   0.92459   1.00876   1.01708   1.05860
  Beta virt. eigenvalues --    1.07726   1.13488   1.17708   1.27682   1.30475
  Beta virt. eigenvalues --    1.34283   1.36802   1.37552   1.50182   1.52919
  Beta virt. eigenvalues --    1.57487   1.62548   1.68411   1.77944   1.96232
  Beta virt. eigenvalues --    2.07494   2.07729   2.24334   2.26378   2.35448
  Beta virt. eigenvalues --    2.35880   2.39601   2.48708   2.67170   2.79635
  Beta virt. eigenvalues --    2.88576   2.90252   2.96907   3.01179   3.08091
  Beta virt. eigenvalues --    3.09819   3.12451   3.13615   3.19590   3.37941
  Beta virt. eigenvalues --    3.38143   3.49278   3.50006   3.51344   3.55775
  Beta virt. eigenvalues --    3.59056   3.76608   3.79576   3.87943   3.90653
  Beta virt. eigenvalues --    3.91345   3.96248   3.98285   4.10436   4.14272
  Beta virt. eigenvalues --    4.15194   4.25104   4.29388   4.31523   4.42207
  Beta virt. eigenvalues --    4.70856   4.76138   4.82116   4.86006   4.87186
  Beta virt. eigenvalues --    4.95824   4.95971   5.03212   5.07837   5.22897
  Beta virt. eigenvalues --    5.27887   5.28330   5.33393   5.34500   5.37702
  Beta virt. eigenvalues --    5.38054   5.40329   5.53390   5.69042   5.86054
  Beta virt. eigenvalues --    5.90774   5.94101   6.06020   6.21681   6.44763
  Beta virt. eigenvalues --    6.47387   6.48532   6.55045   6.63231   6.63695
  Beta virt. eigenvalues --    6.84906   6.94167   6.94613   7.14458   7.28454
  Beta virt. eigenvalues --    7.47714   7.64528   8.94707  11.32548  13.34361
          Condensed to atoms (all electrons):
               1          2          3          4          5          6
     1  C    4.630528   0.407470   0.394911   0.407485   0.271868  -0.045876
     2  H    0.407470   0.598776  -0.028116  -0.041297  -0.036113   0.001891
     3  H    0.394911  -0.028116   0.576096  -0.028443  -0.019568   0.006323
     4  H    0.407485  -0.041297  -0.028443   0.599306  -0.036048   0.001710
     5  O    0.271868  -0.036113  -0.019568  -0.036048   7.797992   0.102349
     6  O   -0.045876   0.001891   0.006323   0.001710   0.102349   8.080206
          Atomic-Atomic Spin Densities.
               1          2          3          4          5          6
     1  C   -0.031482  -0.001604   0.001780  -0.001425   0.011807  -0.005437
     2  H   -0.001604   0.026820  -0.000157  -0.009527  -0.007145   0.004819
     3  H    0.001780  -0.000157  -0.002979  -0.000114  -0.000267  -0.000297
     4  H   -0.001425  -0.009527  -0.000114   0.026719  -0.007184   0.004853
     5  O    0.011807  -0.007145  -0.000267  -0.007184   0.378617  -0.143257
     6  O   -0.005437   0.004819  -0.000297   0.004853  -0.143257   0.908613
 Mulliken charges and spin densities:
               1          2
     1  C   -0.066388  -0.026361
     2  H    0.097388   0.013206
     3  H    0.098797  -0.002033
     4  H    0.097287   0.013322
     5  O   -0.080480   0.232571
     6  O   -0.146605   0.769294
 Sum of Mulliken charges =  -0.00000   1.00000
 Mulliken charges and spin densities with hydrogens summed into heavy atoms:
               1          2
     1  C    0.227085  -0.001865
     5  O   -0.080480   0.232571
     6  O   -0.146605   0.769294
 Electronic spatial extent (au):  <R**2>=            147.9532
 Charge=             -0.0000 electrons
 Dipole moment (field-independent basis, Debye):
    X=              2.5370    Y=             -0.4804    Z=             -0.0008  Tot=              2.5820
 Quadrupole moment (field-independent basis, Debye-Ang):
   XX=            -17.2721   YY=            -18.1948   ZZ=            -16.8699
   XY=             -0.1691   XZ=             -0.0007   YZ=             -0.0006
 Traceless Quadrupole moment (field-independent basis, Debye-Ang):
   XX=              0.1735   YY=             -0.7492   ZZ=              0.5757
   XY=             -0.1691   XZ=             -0.0007   YZ=             -0.0006
 Octapole moment (field-independent basis, Debye-Ang**2):
  XXX=              0.0620  YYY=              0.9028  ZZZ=              0.0172  XYY=             -0.2934
  XXY=              0.9609  XXZ=             -0.0061  XZZ=             -1.4296  YZZ=             -0.5819
  YYZ=             -0.0151  XYZ=             -0.0079
 Hexadecapole moment (field-independent basis, Debye-Ang**3):
 XXXX=           -120.1100 YYYY=            -35.8058 ZZZZ=            -20.7681 XXXY=              3.0528
 XXXZ=             -0.0213 YYYX=              0.9092 YYYZ=              0.0172 ZZZX=              0.0261
 ZZZY=             -0.0072 XXYY=            -24.3415 XXZZ=            -23.3974 YYZZ=             -8.7299
 XXYZ=             -0.0246 YYXZ=             -0.0164 ZZXY=             -0.5729
 N-N= 7.562131292563D+01 E-N=-5.988707204000D+02  KE= 1.892470425598D+02
                          Isotropic Fermi Contact Couplings
        Atom                 a.u.       MegaHertz       Gauss      10(-4) cm-1
     1  C(13)             -0.01379     -15.49989      -5.53075      -5.17021
     2  H(1)               0.00575      25.71269       9.17493       8.57683
     3  H(1)              -0.00042      -1.87691      -0.66973      -0.62607
     4  H(1)               0.00587      26.22373       9.35728       8.74729
     5  O(17)              0.05029     -30.48386     -10.87740     -10.16832
     6  O(17)              0.04942     -29.96093     -10.69081      -9.99389
 --------------------------------------------------------
       Center         ----  Spin Dipole Couplings  ----
                      3XX-RR        3YY-RR        3ZZ-RR
 --------------------------------------------------------
     1   Atom        0.020300     -0.004425     -0.015875
     2   Atom        0.010545     -0.003631     -0.006914
     3   Atom        0.015859     -0.008777     -0.007082
     4   Atom        0.010551     -0.003732     -0.006819
     5   Atom       -0.813589     -0.870130      1.683719
     6   Atom       -1.513212     -1.492324      3.005536
 --------------------------------------------------------
                        XY            XZ            YZ
 --------------------------------------------------------
     1   Atom       -0.009069     -0.000021     -0.000069
     2   Atom       -0.008921     -0.008203      0.003792
     3   Atom        0.001300     -0.000084      0.000012
     4   Atom       -0.008778      0.008244     -0.003764
     5   Atom       -0.021993      0.000145     -0.001314
     6   Atom       -0.023600      0.001040     -0.003724
 --------------------------------------------------------


 ---------------------------------------------------------------------------------
              Anisotropic Spin Dipole Couplings in Principal Axis System
 ---------------------------------------------------------------------------------

       Atom             a.u.   MegaHertz   Gauss  10(-4) cm-1        Axes

              Baa    -0.0159    -2.130    -0.760    -0.711  0.0026  0.0080  1.0000
     1 C(13)  Bbb    -0.0074    -0.992    -0.354    -0.331  0.3112  0.9503 -0.0085
              Bcc     0.0233     3.123     1.114     1.042  0.9503 -0.3112  0.0000
 
              Baa    -0.0102    -5.434    -1.939    -1.813  0.3325 -0.0906  0.9387
     2 H(1)   Bbb    -0.0079    -4.230    -1.509    -1.411  0.4129  0.9089 -0.0585
              Bcc     0.0181     9.664     3.449     3.224  0.8479 -0.4071 -0.3396
 
              Baa    -0.0088    -4.720    -1.684    -1.574 -0.0526  0.9986 -0.0093
     3 H(1)   Bbb    -0.0071    -3.779    -1.348    -1.260  0.0031  0.0095  0.9999
              Bcc     0.0159     8.498     3.032     2.835  0.9986  0.0526 -0.0036
 
              Baa    -0.0101    -5.405    -1.929    -1.803 -0.3344  0.0929  0.9378
     4 H(1)   Bbb    -0.0079    -4.214    -1.504    -1.406  0.4087  0.9110  0.0554
              Bcc     0.0180     9.620     3.433     3.209  0.8492 -0.4018  0.3426
 
              Baa    -0.8777    63.508    22.661    21.184  0.3246  0.9459  0.0005
     5 O(17)  Bbb    -0.8060    58.325    20.812    19.455  0.9459 -0.3246 -0.0002
              Bcc     1.6837  -121.833   -43.473   -40.639  0.0001 -0.0005  1.0000
 
              Baa    -1.5286   110.607    39.467    36.894  0.8381  0.5456  0.0003
     6 O(17)  Bbb    -1.4770   106.872    38.135    35.649 -0.5456  0.8381  0.0008
              Bcc     3.0055  -217.479   -77.602   -72.543  0.0002 -0.0008  1.0000
 

 ---------------------------------------------------------------------------------

 Calling FoFJK, ICntrl=  10002127 FMM=F ISym2X=0 I1Cent= 0 IOpClX= 1 NMat=1 NMatS=1 NMatT=0.
 -------------------------------------------------------------------
 Center     Atomic                   Forces (Hartrees/Bohr)
 Number     Number              X              Y              Z
 -------------------------------------------------------------------
      1        6           0.004482222   -0.003306914    0.000073140
      2        1           0.000459280    0.000187918    0.000749513
      3        1          -0.000228918   -0.000387858    0.000013797
      4        1           0.000402093    0.000245805   -0.000853839
      5        8           0.009019788    0.014617728   -0.000004073
      6        8          -0.014134465   -0.011356678    0.000021462
 -------------------------------------------------------------------
 Cartesian Forces:  Max     0.014617728 RMS     0.006040538

 GradGradGradGradGradGradGradGradGradGradGradGradGradGradGradGradGradGrad
 Berny optimization.
 FormGI is forming the generalized inverse of G from B-inverse, IUseBI=4.
 Internal  Forces:  Max     0.018131669 RMS     0.005323084
 Search for a local minimum.
 Step number   1 out of a maximum of  100 on scan point     1 out of    37
 All quantities printed in internal units (Hartrees-Bohrs-Radians)
 Mixed Optimization -- RFO/linear search
 Second derivative matrix not updated -- first step.
 The second derivative matrix:
                          R1        R2        R3        R4        R5
           R1           0.35150
           R2           0.00000   0.35283
           R3           0.00000   0.00000   0.35120
           R4           0.00000   0.00000   0.00000   0.40286
           R5           0.00000   0.00000   0.00000   0.00000   0.67924
           A1           0.00000   0.00000   0.00000   0.00000   0.00000
           A2           0.00000   0.00000   0.00000   0.00000   0.00000
           A3           0.00000   0.00000   0.00000   0.00000   0.00000
           A4           0.00000   0.00000   0.00000   0.00000   0.00000
           A5           0.00000   0.00000   0.00000   0.00000   0.00000
           A6           0.00000   0.00000   0.00000   0.00000   0.00000
           A7           0.00000   0.00000   0.00000   0.00000   0.00000
           D1           0.00000   0.00000   0.00000   0.00000   0.00000
                          A1        A2        A3        A4        A5
           A1           0.16000
           A2           0.00000   0.16000
           A3           0.00000   0.00000   0.16000
           A4           0.00000   0.00000   0.00000   0.16000
           A5           0.00000   0.00000   0.00000   0.00000   0.16000
           A6           0.00000   0.00000   0.00000   0.00000   0.00000
           A7           0.00000   0.00000   0.00000   0.00000   0.00000
           D1           0.00000   0.00000   0.00000   0.00000   0.00000
                          A6        A7        D1
           A6           0.16000
           A7           0.00000   0.25000
           D1           0.00000   0.00000   0.01229
 ITU=  0
     Eigenvalues ---    0.16000   0.16000   0.16000   0.16000   0.16000
     Eigenvalues ---    0.25000   0.35120   0.35150   0.35283   0.40286
     Eigenvalues ---    0.679241000.000001000.00000
 RFO step:  Lambda=-5.87888628D-04 EMin= 1.60000000D-01
 Linear search not attempted -- first point.
 Iteration  1 RMS(Cart)=  0.01035870 RMS(Int)=  0.00000916
 Iteration  2 RMS(Cart)=  0.00001117 RMS(Int)=  0.00000306
 Iteration  3 RMS(Cart)=  0.00000000 RMS(Int)=  0.00000306
 Iteration  1 RMS(Cart)=  0.00000000 RMS(Int)=  0.00000000
 Variable       Old X    -DE/DX   Delta X   Delta X   Delta X     New X
                                 (Linear)    (Quad)   (Total)
    R1        2.05432  -0.00070   0.00000  -0.00199  -0.00199   2.05233
    R2        2.05218  -0.00043   0.00000  -0.00123  -0.00123   2.05095
    R3        2.05480  -0.00082   0.00000  -0.00234  -0.00234   2.05246
    R4        2.71166   0.00606   0.00000   0.01502   0.01502   2.72669
    R5        2.45171   0.01813   0.00000   0.02667   0.02667   2.47838
    A1        1.94069  -0.00035   0.00000  -0.00217  -0.00217   1.93852
    A2        1.93266  -0.00051   0.00000  -0.00317  -0.00317   1.92948
    A3        1.89947   0.00075   0.00000   0.00464   0.00464   1.90411
    A4        1.94021  -0.00037   0.00000  -0.00231  -0.00231   1.93789
    A5        1.84815  -0.00009   0.00000  -0.00058  -0.00058   1.84757
    A6        1.89994   0.00065   0.00000   0.00406   0.00406   1.90399
    A7        1.93883   0.00008   0.00000   0.00033   0.00033   1.93917
    D1        1.04494   0.00005   0.00000   0.00000   0.00000   1.04494
         Item               Value     Threshold  Converged?
 Maximum Force            0.018132     0.000450     NO 
 RMS     Force            0.005540     0.000300     NO 
 Maximum Displacement     0.029353     0.001800     NO 
 RMS     Displacement     0.010361     0.001200     NO 
 Predicted change in Energy=-2.942404D-04
 GradGradGradGradGradGradGradGradGradGradGradGradGradGradGradGradGradGrad

                          Input orientation:                          
 ---------------------------------------------------------------------
 Center     Atomic      Atomic             Coordinates (Angstroms)
 Number     Number       Type             X           Y           Z
 ---------------------------------------------------------------------
      1          6           0        1.085887   -0.180358   -0.000097
      2          1           0        1.134711   -0.803597   -0.888176
      3          1           0        1.866318    0.573799   -0.009306
      4          1           0        1.143334   -0.789838    0.897054
      5          8           0       -0.162153    0.543765    0.000424
      6          8           0       -1.184668   -0.277515   -0.000196
 ---------------------------------------------------------------------
                    Distance matrix (angstroms):
                    1          2          3          4          5
     1  C    0.000000
     2  H    1.086045   0.000000
     3  H    1.085315   1.790218   0.000000
     4  H    1.086115   1.785303   1.789889   0.000000
     5  O    1.442900   2.070471   2.028718   2.070444   0.000000
     6  O    2.272633   2.538659   3.167545   2.546983   1.311502
                    6
     6  O    0.000000
 Symmetry turned off by external request.
 Stoichiometry    CH3O2(2)
 Framework group  C1[X(CH3O2)]
 Deg. of freedom    12
 Full point group                 C1      NOp   1
 Rotational constants (GHZ):          53.0621871          11.3899121           9.9714113
 Standard basis: CC-pVTZ (5D, 7F)
   132 basis functions,   207 primitive gaussians,   150 cartesian basis functions
    13 alpha electrons       12 beta electrons
       nuclear repulsion energy        75.1060606082 Hartrees.
 NAtoms=    6 NActive=    6 NUniq=    6 SFac= 1.00D+00 NAtFMM=   60 NAOKFM=F Big=F
 Integral buffers will be    131072 words long.
 Raffenetti 2 integral format.
 Two-electron integral symmetry is turned off.
 Nuclear repulsion after empirical dispersion term =       75.1044804143 Hartrees.
 One-electron integrals computed using PRISM.
 NBasis=   132 RedAO= T EigKep=  1.91D-03  NBF=   132
 NBsUse=   132 1.00D-06 EigRej= -1.00D+00 NBFU=   132
 Initial guess from the checkpoint file:  "/localscratch/339543/Gau-77681.chk"
 B after Tr=    -0.008684    0.002133    0.000061
         Rot=    1.000000   -0.000133    0.000021    0.000278 Ang=  -0.04 deg.
 Initial guess <Sx>= 0.0000 <Sy>= 0.0000 <Sz>= 0.5000 <S**2>= 0.7574 S= 0.5037
 ExpMin= 1.03D-01 ExpMax= 1.53D+04 ExpMxC= 5.22D+02 IAcc=3 IRadAn=         5 AccDes= 0.00D+00
 Harris functional with IExCor=  419 and IRadAn=       5 diagonalized for initial guess.
 HarFok:  IExCor=  419 AccDes= 0.00D+00 IRadAn=         5 IDoV= 1 UseB2=F ITyADJ=14
 ICtDFT=  3500011 ScaDFX=  1.000000  1.000000  1.000000  1.000000
 FoFCou: FMM=F IPFlag=           0 FMFlag=      100000 FMFlg1=           0
         NFxFlg=           0 DoJE=T BraDBF=F KetDBF=T FulRan=T
         wScrn=  0.000000 ICntrl=       500 IOpCl=  0 I1Cent=   200000004 NGrid=           0
         NMat0=    1 NMatS0=      1 NMatT0=    0 NMatD0=    1 NMtDS0=    0 NMtDT0=    0
 Symmetry not used in FoFCou.
 Keep R1 and R2 ints in memory in canonical form, NReq=116116466.
 Requested convergence on RMS density matrix=1.00D-08 within 500 cycles.
 Requested convergence on MAX density matrix=1.00D-06.
 Requested convergence on             energy=1.00D-06.
 No special actions if energy rises.
 Integral accuracy reduced to 1.0D-05 until final iterations.
 Initial convergence to 1.0D-05 achieved.  Increase integral accuracy.
 SCF Done:  E(UB2PLYPD3) =  -189.950319032     A.U. after   16 cycles
            NFock= 16  Conv=0.53D-08     -V/T= 2.0039
 <Sx>= 0.0000 <Sy>= 0.0000 <Sz>= 0.5000 <S**2>= 0.7574 S= 0.5037
 <L.S>=  0.00000000000    
 Annihilation of the first spin contaminant:
 S**2 before annihilation     0.7574,   after     0.7500
 DoSCS=T DFT=T ScalE2(SS,OS)=  0.270000  0.270000
 ExpMin= 1.03D-01 ExpMax= 1.53D+04 ExpMxC= 5.22D+02 IAcc=3 IRadAn=         5 AccDes= 0.00D+00
 HarFok:  IExCor=  205 AccDes= 0.00D+00 IRadAn=         5 IDoV=-2 UseB2=F ITyADJ=14
 ICtDFT= 12500011 ScaDFX=  1.000000  1.000000  1.000000  1.000000
 Range of M.O.s used for correlation:     4   132
 NBasis=   132 NAE=    13 NBE=    12 NFC=     3 NFV=     0
 NROrb=    129 NOA=    10 NOB=     9 NVA=   119 NVB=   120

 **** Warning!!: The largest alpha MO coefficient is  0.12009355D+02


 **** Warning!!: The largest beta MO coefficient is  0.12008963D+02

 DoSCS=T DFT=T ScalE2(SS,OS)=  0.270000  0.270000
 Fully direct method using O(ONN) memory.
 JobTyp=2 Pass  1:  I=   4 to  13 NPSUse= 40 ParTrn=T ParDer=T DoDerP=T.
 JobTyp=3 Pass  1:  I=   4 to  12 NPSUse= 40 ParTrn=T ParDer=T DoDerP=T.
 Spin components of T(2) and E(2):
     alpha-alpha T2 =       0.2889008101D-01 E2=     -0.2554043092D-01
     alpha-beta  T2 =       0.1846119058D+00 E2=     -0.1533086636D+00
     beta-beta   T2 =       0.3772383598D-01 E2=     -0.2564878211D-01
 (S**2,0)=  0.75740D+00           (S**2,1)=  0.74561D+00
 Scaling Projection term by:   0.270000
 E(PUHF)=      -0.18995438157D+03        E(PMP2)=      -0.19015504244D+03
 E2(B2PLYPD3) =    -0.2044978766D+00 E(B2PLYPD3) =    -0.19015481690906D+03
          IDoAtm=111111
          Differentiating once with respect to electric field.
                with respect to dipole field.
          Differentiating once with respect to nuclear coordinates.
 Keep R1 and R2 ints in memory in canonical form, NReq=116120638.
          There are     1 degrees of freedom in the 1st order CPHF.  IDoFFX=0 NUNeed=     1.
 LinEq1:  Iter=  0 NonCon=     1 RMS=1.69D-03 Max=6.73D-02 NDo=     1
 AX will form     1 AO Fock derivatives at one time.
 LinEq1:  Iter=  1 NonCon=     1 RMS=5.99D-04 Max=1.11D-02 NDo=     1
 LinEq1:  Iter=  2 NonCon=     1 RMS=5.61D-04 Max=1.55D-02 NDo=     1
 LinEq1:  Iter=  3 NonCon=     1 RMS=2.28D-04 Max=2.43D-03 NDo=     1
 LinEq1:  Iter=  4 NonCon=     1 RMS=8.11D-05 Max=1.05D-03 NDo=     1
 LinEq1:  Iter=  5 NonCon=     1 RMS=2.28D-05 Max=3.18D-04 NDo=     1
 LinEq1:  Iter=  6 NonCon=     1 RMS=1.51D-05 Max=2.79D-04 NDo=     1
 LinEq1:  Iter=  7 NonCon=     1 RMS=4.83D-06 Max=7.45D-05 NDo=     1
 LinEq1:  Iter=  8 NonCon=     1 RMS=1.20D-06 Max=1.71D-05 NDo=     1
 LinEq1:  Iter=  9 NonCon=     1 RMS=2.84D-07 Max=6.51D-06 NDo=     1
 LinEq1:  Iter= 10 NonCon=     1 RMS=6.84D-08 Max=1.50D-06 NDo=     1
 LinEq1:  Iter= 11 NonCon=     1 RMS=2.12D-08 Max=4.71D-07 NDo=     1
 LinEq1:  Iter= 12 NonCon=     1 RMS=7.22D-09 Max=2.70D-07 NDo=     1
 LinEq1:  Iter= 13 NonCon=     1 RMS=2.68D-09 Max=6.76D-08 NDo=     1
 LinEq1:  Iter= 14 NonCon=     1 RMS=7.59D-10 Max=1.51D-08 NDo=     1
 LinEq1:  Iter= 15 NonCon=     1 RMS=1.79D-10 Max=1.85D-09 NDo=     1
 LinEq1:  Iter= 16 NonCon=     0 RMS=4.96D-11 Max=6.93D-10 NDo=     1
 Linear equations converged to 1.000D-10 1.000D-09 after    16 iterations.
 End of Minotr F.D. properties file   721 does not exist.
 End of Minotr F.D. properties file   722 does not exist.
 End of Minotr F.D. properties file   788 does not exist.
 Calling FoFJK, ICntrl=  10002127 FMM=F ISym2X=0 I1Cent= 0 IOpClX= 1 NMat=1 NMatS=1 NMatT=0.
 -------------------------------------------------------------------
 Center     Atomic                   Forces (Hartrees/Bohr)
 Number     Number              X              Y              Z
 -------------------------------------------------------------------
      1        6           0.000737637   -0.001736741    0.000030311
      2        1          -0.000241855    0.000182577   -0.000017381
      3        1          -0.000356760    0.000323542   -0.000002105
      4        1          -0.000247871    0.000156026    0.000005455
      5        8           0.003137375    0.004663278   -0.000036202
      6        8          -0.003028526   -0.003588682    0.000019921
 -------------------------------------------------------------------
 Cartesian Forces:  Max     0.004663278 RMS     0.001789053

 GradGradGradGradGradGradGradGradGradGradGradGradGradGradGradGradGradGrad
 Berny optimization.
 Using GEDIIS/GDIIS optimizer.
 FormGI is forming the generalized inverse of G from B-inverse, IUseBI=4.
 Internal  Forces:  Max     0.004608482 RMS     0.001451169
 Search for a local minimum.
 Step number   2 out of a maximum of  100 on scan point     1 out of    37
 All quantities printed in internal units (Hartrees-Bohrs-Radians)
 Mixed Optimization -- RFO/linear search
 Update second derivatives using D2CorX and points    1    2
 DE= -3.53D-04 DEPred=-2.94D-04 R= 1.20D+00
 TightC=F SS=  1.41D+00  RLast= 3.17D-02 DXNew= 5.0454D-01 9.5175D-02
 Trust test= 1.20D+00 RLast= 3.17D-02 DXMaxT set to 3.00D-01
 The second derivative matrix:
                          R1        R2        R3        R4        R5
           R1           0.35144
           R2           0.00000   0.35286
           R3          -0.00004   0.00003   0.35119
           R4          -0.00006  -0.00042  -0.00035   0.40861
           R5           0.00407   0.00161   0.00411  -0.02264   0.51545
           A1           0.00048   0.00034   0.00059  -0.00475  -0.00934
           A2           0.00055   0.00040   0.00069  -0.00557  -0.01036
           A3          -0.00039  -0.00031  -0.00051   0.00431   0.00591
           A4           0.00048   0.00035   0.00060  -0.00483  -0.00940
           A5          -0.00085  -0.00057  -0.00103   0.00788   0.01954
           A6          -0.00036  -0.00028  -0.00047   0.00395   0.00561
           A7          -0.00291  -0.00195  -0.00353   0.02725   0.06513
           D1           0.00000   0.00000   0.00000  -0.00001  -0.00002
                          A1        A2        A3        A4        A5
           A1           0.16081
           A2           0.00102   0.16127
           A3          -0.00102  -0.00126   0.16116
           A4           0.00084   0.00105  -0.00105   0.16086
           A5          -0.00090  -0.00118   0.00133  -0.00094   0.16069
           A6          -0.00092  -0.00113   0.00105  -0.00094   0.00118
           A7          -0.00339  -0.00439   0.00483  -0.00351   0.00287
           D1           0.00000   0.00000  -0.00000   0.00000  -0.00000
                          A6        A7        D1
           A6           0.16095
           A7           0.00430   0.26159
           D1          -0.00000  -0.00000   0.01229
 ITU=  1  0
 Use linear search instead of GDIIS.
     Eigenvalues ---    0.15869   0.16000   0.16000   0.16000   0.16374
     Eigenvalues ---    0.23978   0.35129   0.35153   0.35290   0.41377
     Eigenvalues ---    0.535201000.000001000.00000
 RFO step:  Lambda=-5.03447561D-05 EMin= 1.58688906D-01
 Quartic linear search produced a step of  0.28385.
 Iteration  1 RMS(Cart)=  0.00521843 RMS(Int)=  0.00002192
 Iteration  2 RMS(Cart)=  0.00003541 RMS(Int)=  0.00000390
 Iteration  3 RMS(Cart)=  0.00000000 RMS(Int)=  0.00000390
 Iteration  1 RMS(Cart)=  0.00000000 RMS(Int)=  0.00000000
 Variable       Old X    -DE/DX   Delta X   Delta X   Delta X     New X
                                 (Linear)    (Quad)   (Total)
    R1        2.05233  -0.00010  -0.00057  -0.00001  -0.00058   2.05175
    R2        2.05095  -0.00003  -0.00035   0.00011  -0.00024   2.05071
    R3        2.05246  -0.00010  -0.00066   0.00007  -0.00059   2.05187
    R4        2.72669   0.00045   0.00426  -0.00133   0.00293   2.72962
    R5        2.47838   0.00461   0.00757   0.00366   0.01123   2.48961
    A1        1.93852   0.00034  -0.00062   0.00306   0.00244   1.94096
    A2        1.92948   0.00038  -0.00090   0.00357   0.00266   1.93215
    A3        1.90411  -0.00024   0.00132  -0.00267  -0.00136   1.90275
    A4        1.93789   0.00034  -0.00066   0.00311   0.00245   1.94034
    A5        1.84757  -0.00066  -0.00017  -0.00523  -0.00540   1.84217
    A6        1.90399  -0.00023   0.00115  -0.00245  -0.00131   1.90269
    A7        1.93917  -0.00223   0.00009  -0.01153  -0.01143   1.92773
    D1        1.04494   0.00005   0.00000   0.00000   0.00000   1.04494
         Item               Value     Threshold  Converged?
 Maximum Force            0.004608     0.000450     NO 
 RMS     Force            0.001510     0.000300     NO 
 Maximum Displacement     0.010517     0.001800     NO 
 RMS     Displacement     0.005241     0.001200     NO 
 Predicted change in Energy=-4.180624D-05
 GradGradGradGradGradGradGradGradGradGradGradGradGradGradGradGradGradGrad

                          Input orientation:                          
 ---------------------------------------------------------------------
 Center     Atomic      Atomic             Coordinates (Angstroms)
 Number     Number       Type             X           Y           Z
 ---------------------------------------------------------------------
      1          6           0        1.086427   -0.181116   -0.000015
      2          1           0        1.131312   -0.803317   -0.888655
      3          1           0        1.866043    0.573697   -0.009469
      4          1           0        1.140450   -0.789507    0.897708
      5          8           0       -0.159723    0.549330    0.000749
      6          8           0       -1.181080   -0.282832   -0.000616
 ---------------------------------------------------------------------
                    Distance matrix (angstroms):
                    1          2          3          4          5
     1  C    0.000000
     2  H    1.085740   0.000000
     3  H    1.085187   1.791358   0.000000
     4  H    1.085801   1.786440   1.791028   0.000000
     5  O    1.444453   2.070620   2.025938   2.070621   0.000000
     6  O    2.269788   2.531142   3.165229   2.540316   1.317446
                    6
     6  O    0.000000
 Symmetry turned off by external request.
 Stoichiometry    CH3O2(2)
 Framework group  C1[X(CH3O2)]
 Deg. of freedom    12
 Full point group                 C1      NOp   1
 Rotational constants (GHZ):          52.2666578          11.4222513           9.9684122
 Standard basis: CC-pVTZ (5D, 7F)
   132 basis functions,   207 primitive gaussians,   150 cartesian basis functions
    13 alpha electrons       12 beta electrons
       nuclear repulsion energy        74.9989151166 Hartrees.
 NAtoms=    6 NActive=    6 NUniq=    6 SFac= 1.00D+00 NAtFMM=   60 NAOKFM=F Big=F
 Integral buffers will be    131072 words long.
 Raffenetti 2 integral format.
 Two-electron integral symmetry is turned off.
 Nuclear repulsion after empirical dispersion term =       74.9973342484 Hartrees.
 One-electron integrals computed using PRISM.
 NBasis=   132 RedAO= T EigKep=  1.91D-03  NBF=   132
 NBsUse=   132 1.00D-06 EigRej= -1.00D+00 NBFU=   132
 Initial guess from the checkpoint file:  "/localscratch/339543/Gau-77681.chk"
 B after Tr=     0.003391   -0.000145   -0.000018
         Rot=    1.000000   -0.000152    0.000068   -0.000543 Ang=  -0.07 deg.
 Initial guess <Sx>= 0.0000 <Sy>= 0.0000 <Sz>= 0.5000 <S**2>= 0.7574 S= 0.5037
 Keep R1 and R2 ints in memory in canonical form, NReq=116116466.
 Requested convergence on RMS density matrix=1.00D-08 within 500 cycles.
 Requested convergence on MAX density matrix=1.00D-06.
 Requested convergence on             energy=1.00D-06.
 No special actions if energy rises.
 SCF Done:  E(UB2PLYPD3) =  -189.950124669     A.U. after   15 cycles
            NFock= 15  Conv=0.45D-08     -V/T= 2.0040
 <Sx>= 0.0000 <Sy>= 0.0000 <Sz>= 0.5000 <S**2>= 0.7574 S= 0.5037
 <L.S>=  0.00000000000    
 Annihilation of the first spin contaminant:
 S**2 before annihilation     0.7574,   after     0.7500
 DoSCS=T DFT=T ScalE2(SS,OS)=  0.270000  0.270000
 ExpMin= 1.03D-01 ExpMax= 1.53D+04 ExpMxC= 5.22D+02 IAcc=3 IRadAn=         5 AccDes= 0.00D+00
 HarFok:  IExCor=  205 AccDes= 0.00D+00 IRadAn=         5 IDoV=-2 UseB2=F ITyADJ=14
 ICtDFT= 12500011 ScaDFX=  1.000000  1.000000  1.000000  1.000000
 Range of M.O.s used for correlation:     4   132
 NBasis=   132 NAE=    13 NBE=    12 NFC=     3 NFV=     0
 NROrb=    129 NOA=    10 NOB=     9 NVA=   119 NVB=   120

 **** Warning!!: The largest alpha MO coefficient is  0.12016394D+02


 **** Warning!!: The largest beta MO coefficient is  0.12016044D+02

 DoSCS=T DFT=T ScalE2(SS,OS)=  0.270000  0.270000
 Fully direct method using O(ONN) memory.
 JobTyp=2 Pass  1:  I=   4 to  13 NPSUse= 40 ParTrn=T ParDer=T DoDerP=T.
 JobTyp=3 Pass  1:  I=   4 to  12 NPSUse= 40 ParTrn=T ParDer=T DoDerP=T.
 Spin components of T(2) and E(2):
     alpha-alpha T2 =       0.2898628772D-01 E2=     -0.2556014440D-01
     alpha-beta  T2 =       0.1854683897D+00 E2=     -0.1534970550D+00
     beta-beta   T2 =       0.3793384729D-01 E2=     -0.2567271123D-01
 (S**2,0)=  0.75740D+00           (S**2,1)=  0.74564D+00
 Scaling Projection term by:   0.270000
 E(PUHF)=      -0.18995417757D+03        E(PMP2)=      -0.19015508155D+03
 E2(B2PLYPD3) =    -0.2047299107D+00 E(B2PLYPD3) =    -0.19015485458003D+03
          IDoAtm=111111
          Differentiating once with respect to electric field.
                with respect to dipole field.
          Differentiating once with respect to nuclear coordinates.
 Keep R1 and R2 ints in memory in canonical form, NReq=116120638.
          There are     1 degrees of freedom in the 1st order CPHF.  IDoFFX=0 NUNeed=     1.
 LinEq1:  Iter=  0 NonCon=     1 RMS=1.72D-03 Max=6.91D-02 NDo=     1
 AX will form     1 AO Fock derivatives at one time.
 LinEq1:  Iter=  1 NonCon=     1 RMS=6.16D-04 Max=1.17D-02 NDo=     1
 LinEq1:  Iter=  2 NonCon=     1 RMS=5.76D-04 Max=1.57D-02 NDo=     1
 LinEq1:  Iter=  3 NonCon=     1 RMS=2.32D-04 Max=2.42D-03 NDo=     1
 LinEq1:  Iter=  4 NonCon=     1 RMS=8.25D-05 Max=1.07D-03 NDo=     1
 LinEq1:  Iter=  5 NonCon=     1 RMS=2.31D-05 Max=3.19D-04 NDo=     1
 LinEq1:  Iter=  6 NonCon=     1 RMS=1.54D-05 Max=2.87D-04 NDo=     1
 LinEq1:  Iter=  7 NonCon=     1 RMS=5.01D-06 Max=7.04D-05 NDo=     1
 LinEq1:  Iter=  8 NonCon=     1 RMS=1.25D-06 Max=1.81D-05 NDo=     1
 LinEq1:  Iter=  9 NonCon=     1 RMS=2.99D-07 Max=6.86D-06 NDo=     1
 LinEq1:  Iter= 10 NonCon=     1 RMS=7.29D-08 Max=1.59D-06 NDo=     1
 LinEq1:  Iter= 11 NonCon=     1 RMS=2.25D-08 Max=4.99D-07 NDo=     1
 LinEq1:  Iter= 12 NonCon=     1 RMS=7.73D-09 Max=2.89D-07 NDo=     1
 LinEq1:  Iter= 13 NonCon=     1 RMS=2.87D-09 Max=7.20D-08 NDo=     1
 LinEq1:  Iter= 14 NonCon=     1 RMS=8.16D-10 Max=1.62D-08 NDo=     1
 LinEq1:  Iter= 15 NonCon=     1 RMS=1.94D-10 Max=2.14D-09 NDo=     1
 LinEq1:  Iter= 16 NonCon=     0 RMS=5.39D-11 Max=7.59D-10 NDo=     1
 Linear equations converged to 1.000D-10 1.000D-09 after    16 iterations.
 End of Minotr F.D. properties file   721 does not exist.
 End of Minotr F.D. properties file   722 does not exist.
 End of Minotr F.D. properties file   788 does not exist.
 Calling FoFJK, ICntrl=  10002127 FMM=F ISym2X=0 I1Cent= 0 IOpClX= 1 NMat=1 NMatS=1 NMatT=0.
 -------------------------------------------------------------------
 Center     Atomic                   Forces (Hartrees/Bohr)
 Number     Number              X              Y              Z
 -------------------------------------------------------------------
      1        6           0.000179049    0.000252584    0.000014056
      2        1          -0.000062781    0.000126038   -0.000011425
      3        1           0.000272669   -0.000048238    0.000001857
      4        1          -0.000070455    0.000093688    0.000008290
      5        8          -0.000014277   -0.000613419   -0.000039240
      6        8          -0.000304205    0.000189347    0.000026462
 -------------------------------------------------------------------
 Cartesian Forces:  Max     0.000613419 RMS     0.000199112

 GradGradGradGradGradGradGradGradGradGradGradGradGradGradGradGradGradGrad
 Berny optimization.
 Using GEDIIS/GDIIS optimizer.
 FormGI is forming the generalized inverse of G from B-inverse, IUseBI=4.
 Internal  Forces:  Max     0.000843864 RMS     0.000280895
 Search for a local minimum.
 Step number   3 out of a maximum of  100 on scan point     1 out of    37
 All quantities printed in internal units (Hartrees-Bohrs-Radians)
 Mixed Optimization -- En-DIIS/RFO-DIIS
 Update second derivatives using D2CorX and points    1    2    3
 DE= -3.77D-05 DEPred=-4.18D-05 R= 9.01D-01
 TightC=F SS=  1.41D+00  RLast= 1.78D-02 DXNew= 5.0454D-01 5.3498D-02
 Trust test= 9.01D-01 RLast= 1.78D-02 DXMaxT set to 3.00D-01
 The second derivative matrix:
                          R1        R2        R3        R4        R5
           R1           0.35122
           R2           0.00006   0.35337
           R3          -0.00026   0.00014   0.35098
           R4           0.00111  -0.00173   0.00071   0.40447
           R5           0.00964  -0.00616   0.00900  -0.03975   0.45516
           A1           0.00062  -0.00008   0.00070  -0.00481  -0.00810
           A2           0.00078   0.00019   0.00090  -0.00653  -0.01401
           A3          -0.00060  -0.00064  -0.00076   0.00619   0.01569
           A4           0.00062  -0.00009   0.00070  -0.00482  -0.00775
           A5          -0.00098   0.00122  -0.00097   0.00523   0.00100
           A6          -0.00057  -0.00060  -0.00072   0.00581   0.01524
           A7          -0.00375   0.00256  -0.00392   0.02359   0.03252
           D1           0.00001   0.00002   0.00001  -0.00009  -0.00049
                          A1        A2        A3        A4        A5
           A1           0.16104
           A2           0.00102   0.16113
           A3          -0.00064  -0.00097   0.16127
           A4           0.00108   0.00107  -0.00066   0.16112
           A5          -0.00217  -0.00163  -0.00002  -0.00227   0.16661
           A6          -0.00054  -0.00084   0.00115  -0.00056  -0.00013
           A7          -0.00622  -0.00502   0.00105  -0.00653   0.01725
           D1          -0.00002  -0.00001  -0.00001  -0.00002   0.00008
                          A6        A7        D1
           A6           0.16104
           A7           0.00060   0.29531
           D1          -0.00001   0.00022   0.01230
 ITU=  1  1  0
 Use linear search instead of GDIIS.
     Eigenvalues ---    0.15976   0.16000   0.16000   0.16025   0.16547
     Eigenvalues ---    0.28180   0.35080   0.35136   0.35332   0.39891
     Eigenvalues ---    0.481051000.000001000.00000
 RFO step:  Lambda=-2.81677902D-06 EMin= 1.59755441D-01
 Quartic linear search produced a step of -0.10505.
 Iteration  1 RMS(Cart)=  0.00146160 RMS(Int)=  0.00000118
 Iteration  2 RMS(Cart)=  0.00000136 RMS(Int)=  0.00000026
 Iteration  3 RMS(Cart)=  0.00000000 RMS(Int)=  0.00000026
 Iteration  1 RMS(Cart)=  0.00000000 RMS(Int)=  0.00000000
 Variable       Old X    -DE/DX   Delta X   Delta X   Delta X     New X
                                 (Linear)    (Quad)   (Total)
    R1        2.05175  -0.00007   0.00006  -0.00022  -0.00016   2.05159
    R2        2.05071   0.00016   0.00003   0.00040   0.00043   2.05114
    R3        2.05187  -0.00005   0.00006  -0.00018  -0.00011   2.05175
    R4        2.72962   0.00006  -0.00031   0.00033   0.00002   2.72964
    R5        2.48961   0.00012  -0.00118   0.00133   0.00015   2.48977
    A1        1.94096  -0.00004  -0.00026   0.00015  -0.00011   1.94086
    A2        1.93215   0.00006  -0.00028   0.00074   0.00046   1.93260
    A3        1.90275  -0.00020   0.00014  -0.00139  -0.00125   1.90150
    A4        1.94034  -0.00004  -0.00026   0.00011  -0.00014   1.94020
    A5        1.84217   0.00042   0.00057   0.00168   0.00225   1.84442
    A6        1.90269  -0.00019   0.00014  -0.00134  -0.00120   1.90149
    A7        1.92773   0.00084   0.00120   0.00152   0.00272   1.93045
    D1        1.04494   0.00006   0.00000   0.00000   0.00000   1.04494
         Item               Value     Threshold  Converged?
 Maximum Force            0.000844     0.000450     NO 
 RMS     Force            0.000292     0.000300     YES
 Maximum Displacement     0.003066     0.001800     NO 
 RMS     Displacement     0.001461     0.001200     NO 
 Predicted change in Energy=-1.924525D-06
 GradGradGradGradGradGradGradGradGradGradGradGradGradGradGradGradGradGrad

                          Input orientation:                          
 ---------------------------------------------------------------------
 Center     Atomic      Atomic             Coordinates (Angstroms)
 Number     Number       Type             X           Y           Z
 ---------------------------------------------------------------------
      1          6           0        1.087008   -0.180788   -0.000057
      2          1           0        1.131380   -0.802764   -0.888777
      3          1           0        1.867519    0.573428   -0.009378
      4          1           0        1.140308   -0.789012    0.897751
      5          8           0       -0.160084    0.548067    0.000554
      6          8           0       -1.182703   -0.282674   -0.000391
 ---------------------------------------------------------------------
                    Distance matrix (angstroms):
                    1          2          3          4          5
     1  C    0.000000
     2  H    1.085655   0.000000
     3  H    1.085415   1.791410   0.000000
     4  H    1.085742   1.786603   1.791078   0.000000
     5  O    1.444462   2.069670   2.027786   2.069725   0.000000
     6  O    2.271997   2.532727   3.168098   2.541538   1.317528
                    6
     6  O    0.000000
 Symmetry turned off by external request.
 Stoichiometry    CH3O2(2)
 Framework group  C1[X(CH3O2)]
 Deg. of freedom    12
 Full point group                 C1      NOp   1
 Rotational constants (GHZ):          52.4104073          11.4015891           9.9579875
 Standard basis: CC-pVTZ (5D, 7F)
   132 basis functions,   207 primitive gaussians,   150 cartesian basis functions
    13 alpha electrons       12 beta electrons
       nuclear repulsion energy        74.9829190027 Hartrees.
 NAtoms=    6 NActive=    6 NUniq=    6 SFac= 1.00D+00 NAtFMM=   60 NAOKFM=F Big=F
 Integral buffers will be    131072 words long.
 Raffenetti 2 integral format.
 Two-electron integral symmetry is turned off.
 Nuclear repulsion after empirical dispersion term =       74.9813384232 Hartrees.
 One-electron integrals computed using PRISM.
 NBasis=   132 RedAO= T EigKep=  1.91D-03  NBF=   132
 NBsUse=   132 1.00D-06 EigRej= -1.00D+00 NBFU=   132
 Initial guess from the checkpoint file:  "/localscratch/339543/Gau-77681.chk"
 B after Tr=    -0.000830   -0.000461    0.000000
         Rot=    1.000000    0.000089   -0.000036   -0.000010 Ang=   0.01 deg.
 Initial guess <Sx>= 0.0000 <Sy>= 0.0000 <Sz>= 0.5000 <S**2>= 0.7574 S= 0.5037
 Keep R1 and R2 ints in memory in canonical form, NReq=116116466.
 Requested convergence on RMS density matrix=1.00D-08 within 500 cycles.
 Requested convergence on MAX density matrix=1.00D-06.
 Requested convergence on             energy=1.00D-06.
 No special actions if energy rises.
 SCF Done:  E(UB2PLYPD3) =  -189.950120759     A.U. after   13 cycles
            NFock= 13  Conv=0.78D-08     -V/T= 2.0040
 <Sx>= 0.0000 <Sy>= 0.0000 <Sz>= 0.5000 <S**2>= 0.7574 S= 0.5037
 <L.S>=  0.00000000000    
 Annihilation of the first spin contaminant:
 S**2 before annihilation     0.7574,   after     0.7500
 DoSCS=T DFT=T ScalE2(SS,OS)=  0.270000  0.270000
 ExpMin= 1.03D-01 ExpMax= 1.53D+04 ExpMxC= 5.22D+02 IAcc=3 IRadAn=         5 AccDes= 0.00D+00
 HarFok:  IExCor=  205 AccDes= 0.00D+00 IRadAn=         5 IDoV=-2 UseB2=F ITyADJ=14
 ICtDFT= 12500011 ScaDFX=  1.000000  1.000000  1.000000  1.000000
 Range of M.O.s used for correlation:     4   132
 NBasis=   132 NAE=    13 NBE=    12 NFC=     3 NFV=     0
 NROrb=    129 NOA=    10 NOB=     9 NVA=   119 NVB=   120

 **** Warning!!: The largest alpha MO coefficient is  0.12016113D+02


 **** Warning!!: The largest beta MO coefficient is  0.12015759D+02

 DoSCS=T DFT=T ScalE2(SS,OS)=  0.270000  0.270000
 Fully direct method using O(ONN) memory.
 JobTyp=2 Pass  1:  I=   4 to  13 NPSUse= 40 ParTrn=T ParDer=T DoDerP=T.
 JobTyp=3 Pass  1:  I=   4 to  12 NPSUse= 40 ParTrn=T ParDer=T DoDerP=T.
 Spin components of T(2) and E(2):
     alpha-alpha T2 =       0.2898633264D-01 E2=     -0.2555918812D-01
     alpha-beta  T2 =       0.1854878541D+00 E2=     -0.1534999905D+00
     beta-beta   T2 =       0.3794648679D-01 E2=     -0.2567608503D-01
 (S**2,0)=  0.75740D+00           (S**2,1)=  0.74564D+00
 Scaling Projection term by:   0.270000
 E(PUHF)=      -0.18995417552D+03        E(PMP2)=      -0.19015508313D+03
 E2(B2PLYPD3) =    -0.2047352636D+00 E(B2PLYPD3) =    -0.19015485602256D+03
          IDoAtm=111111
          Differentiating once with respect to electric field.
                with respect to dipole field.
          Differentiating once with respect to nuclear coordinates.
 Keep R1 and R2 ints in memory in canonical form, NReq=116120638.
          There are     1 degrees of freedom in the 1st order CPHF.  IDoFFX=0 NUNeed=     1.
 LinEq1:  Iter=  0 NonCon=     1 RMS=1.72D-03 Max=6.91D-02 NDo=     1
 AX will form     1 AO Fock derivatives at one time.
 LinEq1:  Iter=  1 NonCon=     1 RMS=6.16D-04 Max=1.17D-02 NDo=     1
 LinEq1:  Iter=  2 NonCon=     1 RMS=5.76D-04 Max=1.58D-02 NDo=     1
 LinEq1:  Iter=  3 NonCon=     1 RMS=2.33D-04 Max=2.42D-03 NDo=     1
 LinEq1:  Iter=  4 NonCon=     1 RMS=8.26D-05 Max=1.07D-03 NDo=     1
 LinEq1:  Iter=  5 NonCon=     1 RMS=2.31D-05 Max=3.20D-04 NDo=     1
 LinEq1:  Iter=  6 NonCon=     1 RMS=1.55D-05 Max=2.87D-04 NDo=     1
 LinEq1:  Iter=  7 NonCon=     1 RMS=5.01D-06 Max=7.10D-05 NDo=     1
 LinEq1:  Iter=  8 NonCon=     1 RMS=1.25D-06 Max=1.83D-05 NDo=     1
 LinEq1:  Iter=  9 NonCon=     1 RMS=3.00D-07 Max=6.90D-06 NDo=     1
 LinEq1:  Iter= 10 NonCon=     1 RMS=7.31D-08 Max=1.60D-06 NDo=     1
 LinEq1:  Iter= 11 NonCon=     1 RMS=2.26D-08 Max=5.05D-07 NDo=     1
 LinEq1:  Iter= 12 NonCon=     1 RMS=7.78D-09 Max=2.92D-07 NDo=     1
 LinEq1:  Iter= 13 NonCon=     1 RMS=2.88D-09 Max=7.17D-08 NDo=     1
 LinEq1:  Iter= 14 NonCon=     1 RMS=8.18D-10 Max=1.62D-08 NDo=     1
 LinEq1:  Iter= 15 NonCon=     1 RMS=1.95D-10 Max=2.13D-09 NDo=     1
 LinEq1:  Iter= 16 NonCon=     0 RMS=5.40D-11 Max=7.59D-10 NDo=     1
 Linear equations converged to 1.000D-10 1.000D-09 after    16 iterations.
 End of Minotr F.D. properties file   721 does not exist.
 End of Minotr F.D. properties file   722 does not exist.
 End of Minotr F.D. properties file   788 does not exist.
 Calling FoFJK, ICntrl=  10002127 FMM=F ISym2X=0 I1Cent= 0 IOpClX= 1 NMat=1 NMatS=1 NMatT=0.
 -------------------------------------------------------------------
 Center     Atomic                   Forces (Hartrees/Bohr)
 Number     Number              X              Y              Z
 -------------------------------------------------------------------
      1        6          -0.000118207   -0.000129744    0.000028193
      2        1           0.000058274    0.000015173   -0.000023193
      3        1          -0.000056735   -0.000000942   -0.000000423
      4        1           0.000043566   -0.000005128    0.000006385
      5        8          -0.000131390    0.000050799   -0.000035216
      6        8           0.000204492    0.000069843    0.000024252
 -------------------------------------------------------------------
 Cartesian Forces:  Max     0.000204492 RMS     0.000077931

 GradGradGradGradGradGradGradGradGradGradGradGradGradGradGradGradGradGrad
 Berny optimization.
 Using GEDIIS/GDIIS optimizer.
 FormGI is forming the generalized inverse of G from B-inverse, IUseBI=4.
 Internal  Forces:  Max     0.000202765 RMS     0.000090239
 Search for a local minimum.
 Step number   4 out of a maximum of  100 on scan point     1 out of    37
 All quantities printed in internal units (Hartrees-Bohrs-Radians)
 Mixed Optimization -- En-DIIS/RFO-DIIS
 Swapping is turned off.
 Update second derivatives using D2CorX and points    1    2    3    4
 DE= -1.44D-06 DEPred=-1.92D-06 R= 7.50D-01
 TightC=F SS=  1.41D+00  RLast= 3.99D-03 DXNew= 5.0454D-01 1.1977D-02
 Trust test= 7.50D-01 RLast= 3.99D-03 DXMaxT set to 3.00D-01
 The second derivative matrix:
                          R1        R2        R3        R4        R5
           R1           0.35136
           R2          -0.00044   0.35506
           R3          -0.00013  -0.00028   0.35109
           R4           0.00101  -0.00155   0.00058   0.40486
           R5           0.00612   0.00226   0.00603  -0.03381   0.49666
           A1           0.00004   0.00121   0.00024  -0.00387  -0.00506
           A2           0.00121  -0.00053   0.00123  -0.00724  -0.01525
           A3           0.00047  -0.00384   0.00011   0.00541   0.00209
           A4           0.00006   0.00112   0.00026  -0.00390  -0.00510
           A5          -0.00238   0.00575  -0.00212   0.00561   0.02349
           A6           0.00046  -0.00368   0.00012   0.00503   0.00207
           A7          -0.00619   0.01065  -0.00590   0.02355   0.07407
           D1          -0.00007   0.00019  -0.00006   0.00009   0.00015
                          A1        A2        A3        A4        A5
           A1           0.16078
           A2           0.00148   0.16031
           A3          -0.00227  -0.00027   0.16680
           A4           0.00077   0.00155  -0.00216   0.16077
           A5           0.00120  -0.00310  -0.00851   0.00091   0.17823
           A6          -0.00212  -0.00016   0.00647  -0.00201  -0.00830
           A7           0.00045  -0.00767  -0.01450  -0.00021   0.03741
           D1          -0.00003   0.00000  -0.00023  -0.00004   0.00054
                          A6        A7        D1
           A6           0.16616
           A7          -0.01436   0.32924
           D1          -0.00022   0.00112   0.01230
 ITU=  1  1  1  0
     Eigenvalues ---    0.15798   0.16000   0.16000   0.16341   0.17680
     Eigenvalues ---    0.29526   0.35133   0.35185   0.35812   0.41304
     Eigenvalues ---    0.533531000.000001000.00000
 En-DIIS/RFO-DIIS/Sim-DIIS IScMMF=       -3 using points:     4    3
 RFO step:  Lambda=-2.62237134D-07.
 DidBck=F Rises=F RFO-DIIS coefs:    0.80973    0.19027
 Iteration  1 RMS(Cart)=  0.00033077 RMS(Int)=  0.00000007
 Iteration  2 RMS(Cart)=  0.00000010 RMS(Int)=  0.00000001
 Iteration  1 RMS(Cart)=  0.00000000 RMS(Int)=  0.00000000
 Variable       Old X    -DE/DX   Delta X   Delta X   Delta X     New X
                                 (Linear)    (Quad)   (Total)
    R1        2.05159   0.00001   0.00003   0.00000   0.00003   2.05162
    R2        2.05114  -0.00004  -0.00008  -0.00000  -0.00009   2.05105
    R3        2.05175   0.00001   0.00002   0.00000   0.00003   2.05178
    R4        2.72964  -0.00000  -0.00000  -0.00001  -0.00002   2.72962
    R5        2.48977  -0.00020  -0.00003  -0.00031  -0.00034   2.48943
    A1        1.94086  -0.00003   0.00002  -0.00020  -0.00018   1.94067
    A2        1.93260   0.00001  -0.00009   0.00012   0.00003   1.93264
    A3        1.90150   0.00008   0.00024   0.00015   0.00039   1.90189
    A4        1.94020  -0.00003   0.00003  -0.00020  -0.00018   1.94002
    A5        1.84442  -0.00011  -0.00043  -0.00000  -0.00043   1.84399
    A6        1.90149   0.00007   0.00023   0.00015   0.00038   1.90186
    A7        1.93045  -0.00019  -0.00052   0.00012  -0.00040   1.93005
    D1        1.04494   0.00006   0.00000   0.00000   0.00000   1.04494
         Item               Value     Threshold  Converged?
 Maximum Force            0.000203     0.000450     YES
 RMS     Force            0.000093     0.000300     YES
 Maximum Displacement     0.000696     0.001800     YES
 RMS     Displacement     0.000331     0.001200     YES
 Predicted change in Energy=-1.311170D-07
 Optimization completed.
    -- Stationary point found.
                           ----------------------------
                           !   Optimized Parameters   !
                           ! (Angstroms and Degrees)  !
 --------------------------                            --------------------------
 ! Name  Definition              Value          Derivative Info.                !
 --------------------------------------------------------------------------------
 ! R1    R(1,2)                  1.0857         -DE/DX =    0.0                 !
 ! R2    R(1,3)                  1.0854         -DE/DX =    0.0                 !
 ! R3    R(1,4)                  1.0857         -DE/DX =    0.0                 !
 ! R4    R(1,5)                  1.4445         -DE/DX =    0.0                 !
 ! R5    R(5,6)                  1.3175         -DE/DX =   -0.0002              !
 ! A1    A(2,1,3)              111.2028         -DE/DX =    0.0                 !
 ! A2    A(2,1,4)              110.7301         -DE/DX =    0.0                 !
 ! A3    A(2,1,5)              108.9481         -DE/DX =    0.0001              !
 ! A4    A(3,1,4)              111.1652         -DE/DX =    0.0                 !
 ! A5    A(3,1,5)              105.6773         -DE/DX =   -0.0001              !
 ! A6    A(4,1,5)              108.9473         -DE/DX =    0.0001              !
 ! A7    A(1,5,6)              110.6069         -DE/DX =   -0.0002              !
 ! D1    D(2,1,5,6)             59.8705         -DE/DX =    0.0001              !
 --------------------------------------------------------------------------------
 Iteration  1 RMS(Cart)=  0.07035210 RMS(Int)=  0.00535338
 Iteration  2 RMS(Cart)=  0.00515203 RMS(Int)=  0.00001580
 Iteration  3 RMS(Cart)=  0.00002649 RMS(Int)=  0.00000000
 Iteration  4 RMS(Cart)=  0.00000000 RMS(Int)=  0.00000000
 Iteration  1 RMS(Cart)=  0.00000000 RMS(Int)=  0.00000000
 GradGradGradGradGradGradGradGradGradGradGradGradGradGradGradGradGradGrad

                          Input orientation:                          
 ---------------------------------------------------------------------
 Center     Atomic      Atomic             Coordinates (Angstroms)
 Number     Number       Type             X           Y           Z
 ---------------------------------------------------------------------
      1          6           0        1.086590   -0.181864   -0.013732
      2          1           0        1.178447   -0.795250   -0.904801
      3          1           0        1.863696    0.574938    0.023464
      4          1           0        1.096894   -0.798332    0.879982
      5          8           0       -0.161350    0.543379   -0.069501
      6          8           0       -1.180847   -0.276614    0.084289
 ---------------------------------------------------------------------
                    Distance matrix (angstroms):
                    1          2          3          4          5
     1  C    0.000000
     2  H    1.085672   0.000000
     3  H    1.085369   1.791273   0.000000
     4  H    1.085755   1.786648   1.790944   0.000000
     5  O    1.444453   2.069954   2.027424   2.069996   0.000000
     6  O    2.271532   2.610277   3.161974   2.468486   1.317351
                    6
     6  O    0.000000
 Symmetry turned off by external request.
 Stoichiometry    CH3O2(2)
 Framework group  C1[X(CH3O2)]
 Deg. of freedom    12
 Full point group                 C1      NOp   1
 Rotational constants (GHZ):          52.3957569          11.4055310           9.9606322
 Standard basis: CC-pVTZ (5D, 7F)
   132 basis functions,   207 primitive gaussians,   150 cartesian basis functions
    13 alpha electrons       12 beta electrons
       nuclear repulsion energy        74.9909107750 Hartrees.
 NAtoms=    6 NActive=    6 NUniq=    6 SFac= 1.00D+00 NAtFMM=   60 NAOKFM=F Big=F
 Integral buffers will be    131072 words long.
 Raffenetti 2 integral format.
 Two-electron integral symmetry is turned off.
 Nuclear repulsion after empirical dispersion term =       74.9893302509 Hartrees.
 One-electron integrals computed using PRISM.
 NBasis=   132 RedAO= T EigKep=  1.92D-03  NBF=   132
 NBsUse=   132 1.00D-06 EigRej= -1.00D+00 NBFU=   132
 Initial guess from the checkpoint file:  "/localscratch/339543/Gau-77681.chk"
 B after Tr=     0.000151    0.000310    0.002507
         Rot=    0.999369    0.032921   -0.013300    0.000349 Ang=   4.07 deg.
 Initial guess <Sx>= 0.0000 <Sy>= 0.0000 <Sz>= 0.5000 <S**2>= 0.7574 S= 0.5037
 Keep R1 and R2 ints in memory in canonical form, NReq=116116466.
 Requested convergence on RMS density matrix=1.00D-08 within 500 cycles.
 Requested convergence on MAX density matrix=1.00D-06.
 Requested convergence on             energy=1.00D-06.
 No special actions if energy rises.
 SCF Done:  E(UB2PLYPD3) =  -189.950040774     A.U. after   15 cycles
            NFock= 15  Conv=0.50D-08     -V/T= 2.0040
 <Sx>= 0.0000 <Sy>= 0.0000 <Sz>= 0.5000 <S**2>= 0.7574 S= 0.5037
 <L.S>=  0.00000000000    
 Annihilation of the first spin contaminant:
 S**2 before annihilation     0.7574,   after     0.7500
 DoSCS=T DFT=T ScalE2(SS,OS)=  0.270000  0.270000
 ExpMin= 1.03D-01 ExpMax= 1.53D+04 ExpMxC= 5.22D+02 IAcc=3 IRadAn=         5 AccDes= 0.00D+00
 HarFok:  IExCor=  205 AccDes= 0.00D+00 IRadAn=         5 IDoV=-2 UseB2=F ITyADJ=14
 ICtDFT= 12500011 ScaDFX=  1.000000  1.000000  1.000000  1.000000
 Range of M.O.s used for correlation:     4   132
 NBasis=   132 NAE=    13 NBE=    12 NFC=     3 NFV=     0
 NROrb=    129 NOA=    10 NOB=     9 NVA=   119 NVB=   120

 **** Warning!!: The largest alpha MO coefficient is  0.12016065D+02


 **** Warning!!: The largest beta MO coefficient is  0.12015732D+02

 DoSCS=T DFT=T ScalE2(SS,OS)=  0.270000  0.270000
 Fully direct method using O(ONN) memory.
 JobTyp=2 Pass  1:  I=   4 to  13 NPSUse= 40 ParTrn=T ParDer=T DoDerP=T.
 JobTyp=3 Pass  1:  I=   4 to  12 NPSUse= 40 ParTrn=T ParDer=T DoDerP=T.
 Spin components of T(2) and E(2):
     alpha-alpha T2 =       0.2897637629D-01 E2=     -0.2555696249D-01
     alpha-beta  T2 =       0.1854672757D+00 E2=     -0.1534977764D+00
     beta-beta   T2 =       0.3795714979D-01 E2=     -0.2568222091D-01
 (S**2,0)=  0.75742D+00           (S**2,1)=  0.74563D+00
 Scaling Projection term by:   0.270000
 E(PUHF)=      -0.18995410265D+03        E(PMP2)=      -0.19015500546D+03
 E2(B2PLYPD3) =    -0.2047369598D+00 E(B2PLYPD3) =    -0.19015477773421D+03
          IDoAtm=111111
          Differentiating once with respect to electric field.
                with respect to dipole field.
          Differentiating once with respect to nuclear coordinates.
 Keep R1 and R2 ints in memory in canonical form, NReq=116120638.
          There are     1 degrees of freedom in the 1st order CPHF.  IDoFFX=0 NUNeed=     1.
 LinEq1:  Iter=  0 NonCon=     1 RMS=1.71D-03 Max=6.90D-02 NDo=     1
 AX will form     1 AO Fock derivatives at one time.
 LinEq1:  Iter=  1 NonCon=     1 RMS=6.15D-04 Max=1.16D-02 NDo=     1
 LinEq1:  Iter=  2 NonCon=     1 RMS=5.75D-04 Max=1.57D-02 NDo=     1
 LinEq1:  Iter=  3 NonCon=     1 RMS=2.32D-04 Max=2.38D-03 NDo=     1
 LinEq1:  Iter=  4 NonCon=     1 RMS=8.25D-05 Max=1.05D-03 NDo=     1
 LinEq1:  Iter=  5 NonCon=     1 RMS=2.31D-05 Max=3.18D-04 NDo=     1
 LinEq1:  Iter=  6 NonCon=     1 RMS=1.54D-05 Max=2.83D-04 NDo=     1
 LinEq1:  Iter=  7 NonCon=     1 RMS=5.05D-06 Max=6.99D-05 NDo=     1
 LinEq1:  Iter=  8 NonCon=     1 RMS=1.32D-06 Max=2.31D-05 NDo=     1
 LinEq1:  Iter=  9 NonCon=     1 RMS=4.37D-07 Max=1.57D-05 NDo=     1
 LinEq1:  Iter= 10 NonCon=     1 RMS=1.56D-07 Max=4.64D-06 NDo=     1
 LinEq1:  Iter= 11 NonCon=     1 RMS=4.58D-08 Max=6.61D-07 NDo=     1
 LinEq1:  Iter= 12 NonCon=     1 RMS=1.38D-08 Max=2.49D-07 NDo=     1
 LinEq1:  Iter= 13 NonCon=     1 RMS=3.30D-09 Max=5.60D-08 NDo=     1
 LinEq1:  Iter= 14 NonCon=     1 RMS=8.41D-10 Max=1.69D-08 NDo=     1
 LinEq1:  Iter= 15 NonCon=     1 RMS=1.98D-10 Max=2.17D-09 NDo=     1
 LinEq1:  Iter= 16 NonCon=     0 RMS=5.48D-11 Max=7.53D-10 NDo=     1
 Linear equations converged to 1.000D-10 1.000D-09 after    16 iterations.
 End of Minotr F.D. properties file   721 does not exist.
 End of Minotr F.D. properties file   722 does not exist.
 End of Minotr F.D. properties file   788 does not exist.
 Calling FoFJK, ICntrl=  10002127 FMM=F ISym2X=0 I1Cent= 0 IOpClX= 1 NMat=1 NMatS=1 NMatT=0.
 -------------------------------------------------------------------
 Center     Atomic                   Forces (Hartrees/Bohr)
 Number     Number              X              Y              Z
 -------------------------------------------------------------------
      1        6           0.000181204    0.000139293    0.000994576
      2        1           0.000118183   -0.000146597   -0.000312747
      3        1           0.000151217   -0.000052724   -0.000574801
      4        1          -0.000176363    0.000269287   -0.000280573
      5        8           0.000005943   -0.000236229    0.000575633
      6        8          -0.000280184    0.000026970   -0.000402089
 -------------------------------------------------------------------
 Cartesian Forces:  Max     0.000994576 RMS     0.000360645

 GradGradGradGradGradGradGradGradGradGradGradGradGradGradGradGradGradGrad
 Berny optimization.
 FormGI is forming the generalized inverse of G from B-inverse, IUseBI=4.
 Internal  Forces:  Max     0.000942446 RMS     0.000459398
 Search for a local minimum.
 Step number   1 out of a maximum of  100 on scan point     2 out of    37
 All quantities printed in internal units (Hartrees-Bohrs-Radians)
 Mixed Optimization -- RFO/linear search
 Second derivative matrix not updated -- first step.
 The second derivative matrix:
                          R1        R2        R3        R4        R5
           R1           0.35136
           R2          -0.00044   0.35506
           R3          -0.00013  -0.00028   0.35109
           R4           0.00101  -0.00155   0.00058   0.40486
           R5           0.00612   0.00226   0.00603  -0.03381   0.49666
           A1           0.00004   0.00121   0.00024  -0.00387  -0.00506
           A2           0.00121  -0.00053   0.00123  -0.00724  -0.01525
           A3           0.00047  -0.00384   0.00011   0.00541   0.00209
           A4           0.00006   0.00112   0.00026  -0.00390  -0.00510
           A5          -0.00238   0.00575  -0.00212   0.00561   0.02349
           A6           0.00046  -0.00368   0.00012   0.00503   0.00207
           A7          -0.00619   0.01065  -0.00590   0.02355   0.07407
           D1          -0.00007   0.00019  -0.00006   0.00009   0.00015
                          A1        A2        A3        A4        A5
           A1           0.16078
           A2           0.00148   0.16031
           A3          -0.00227  -0.00027   0.16680
           A4           0.00077   0.00155  -0.00216   0.16077
           A5           0.00120  -0.00310  -0.00851   0.00091   0.17823
           A6          -0.00212  -0.00016   0.00647  -0.00201  -0.00830
           A7           0.00045  -0.00767  -0.01450  -0.00021   0.03741
           D1          -0.00003   0.00000  -0.00023  -0.00004   0.00054
                          A6        A7        D1
           A6           0.16616
           A7          -0.01436   0.32924
           D1          -0.00022   0.00112   0.01230
 ITU=  0
     Eigenvalues ---    0.15798   0.16000   0.16000   0.16341   0.17680
     Eigenvalues ---    0.29526   0.35133   0.35185   0.35812   0.41304
     Eigenvalues ---    0.533531000.000001000.00000
 RFO step:  Lambda=-9.45371734D-06 EMin= 1.57979558D-01
 Linear search not attempted -- first point.
 Iteration  1 RMS(Cart)=  0.00266905 RMS(Int)=  0.00000613
 Iteration  2 RMS(Cart)=  0.00000557 RMS(Int)=  0.00000103
 Iteration  3 RMS(Cart)=  0.00000000 RMS(Int)=  0.00000103
 Iteration  1 RMS(Cart)=  0.00000000 RMS(Int)=  0.00000000
 Variable       Old X    -DE/DX   Delta X   Delta X   Delta X     New X
                                 (Linear)    (Quad)   (Total)
    R1        2.05162   0.00035   0.00000   0.00101   0.00101   2.05264
    R2        2.05105   0.00005   0.00000   0.00011   0.00011   2.05116
    R3        2.05178  -0.00039   0.00000  -0.00108  -0.00108   2.05070
    R4        2.72962   0.00013   0.00000   0.00024   0.00024   2.72986
    R5        2.48943   0.00015   0.00000   0.00012   0.00012   2.48955
    A1        1.94067  -0.00090   0.00000  -0.00564  -0.00564   1.93503
    A2        1.93264   0.00043   0.00000   0.00282   0.00282   1.93545
    A3        1.90189  -0.00007   0.00000  -0.00035  -0.00035   1.90155
    A4        1.94002   0.00045   0.00000   0.00281   0.00280   1.94283
    A5        1.84399   0.00004   0.00000  -0.00008  -0.00008   1.84391
    A6        1.90186   0.00004   0.00000   0.00034   0.00033   1.90220
    A7        1.93005   0.00058   0.00000   0.00179   0.00179   1.93184
    D1        1.21947  -0.00094   0.00000   0.00000   0.00000   1.21947
         Item               Value     Threshold  Converged?
 Maximum Force            0.000902     0.000450     NO 
 RMS     Force            0.000393     0.000300     NO 
 Maximum Displacement     0.005046     0.001800     NO 
 RMS     Displacement     0.002669     0.001200     NO 
 Predicted change in Energy=-4.726857D-06
 GradGradGradGradGradGradGradGradGradGradGradGradGradGradGradGradGradGrad

                          Input orientation:                          
 ---------------------------------------------------------------------
 Center     Atomic      Atomic             Coordinates (Angstroms)
 Number     Number       Type             X           Y           Z
 ---------------------------------------------------------------------
      1          6           0        1.086604   -0.182551   -0.012117
      2          1           0        1.179412   -0.793892   -0.905143
      3          1           0        1.863859    0.574379    0.020794
[...]
                          26        27        28        29        30
     Eigenvalues --    -0.15477  -0.15454  -0.15424  -0.15394  -0.15372
           R1           1.08504   1.08447   1.08408   1.08386   1.08374
           R2           1.08648   1.08706   1.08737   1.08739   1.08714
           R3           1.08528   1.08533   1.08551   1.08583   1.08625
           R4           1.44473   1.44527   1.44594   1.44662   1.44717
           R5           1.31735   1.31735   1.31742   1.31753   1.31763
           A1         110.58540 110.52900 110.59359 110.78956 111.09055
           A2         111.55813 111.87245 112.03112 112.00413 111.80972
           A3         108.88056 108.77998 108.64821 108.51092 108.40496
           A4         110.96655 110.75251 110.57881 110.45663 110.38646
           A5         108.89061 108.74812 108.53727 108.25526 107.90065
           A6         105.79503 105.99385 106.28215 106.64758 107.06534
           A7         110.66313 110.92091 111.25917 111.57488 111.79214
           D1         -50.12951 -40.12951 -30.12951 -20.12951 -10.12951
                          31        32        33        34        35
     Eigenvalues --    -0.15364  -0.15372  -0.15393  -0.15423  -0.15453
           R1           1.08371   1.08375   1.08386   1.08410   1.08449
           R2           1.08672   1.08625   1.08584   1.08553   1.08537
           R3           1.08670   1.08710   1.08735   1.08734   1.08703
           R4           1.44742   1.44726   1.44674   1.44600   1.44528
           R5           1.31766   1.31760   1.31750   1.31739   1.31731
           A1         111.43690 111.74864 111.95253 111.99479 111.85899
           A2         111.50059 111.15539 110.84890 110.63866 110.55698
           A3         108.36491 108.40580 108.51549 108.66379 108.80997
           A4         110.36637 110.39122 110.45930 110.57493 110.73764
           A5         107.48926 107.05777 106.64407 106.27723 105.98317
           A6         107.49674 107.89785 108.24221 108.52023 108.72795
           A7         111.86457 111.78237 111.56862 111.26513 110.94104
           D1          -0.12951   9.87049  19.87049  29.87049  39.87049
                          36        37
     Eigenvalues --    -0.15476  -0.15486
           R1           1.08503   1.08567
           R2           1.08534   1.08542
           R3           1.08645   1.08570
           R4           1.44476   1.44456
           R5           1.31728   1.31729
           A1         111.56843 111.18393
           A2         110.60464 110.74785
           A3         108.91855 108.96842
           A4         110.93930 111.16196
           A5         105.77913 105.67726
           A6         108.86499 108.93095
           A7         110.68439 110.57751
           D1          49.87049  59.87049
 GradGradGradGradGradGradGradGradGradGradGradGradGradGradGradGradGradGrad

                          Input orientation:                          
 ---------------------------------------------------------------------
 Center     Atomic      Atomic             Coordinates (Angstroms)
 Number     Number       Type             X           Y           Z
 ---------------------------------------------------------------------
      1          6           0        1.078455   -0.214930    0.066763
      2          1           0        1.360625    0.122514   -0.925804
      3          1           0        1.765342    0.160482    0.818682
      4          1           0        1.013861   -1.298173    0.100821
      5          8           0       -0.211162    0.342267    0.403172
      6          8           0       -1.123692   -0.045905   -0.463932
 ---------------------------------------------------------------------
                    Distance matrix (angstroms):
                    1          2          3          4          5
     1  C    0.000000
     2  H    1.085669   0.000000
     3  H    1.085417   1.791220   0.000000
     4  H    1.085701   1.786772   1.791011   0.000000
     5  O    1.444560   2.070020   2.027871   2.069575   0.000000
     6  O    2.271488   2.532492   3.167682   2.540916   1.317292
                    6
     6  O    0.000000
 Symmetry turned off by external request.
 Stoichiometry    CH3O2(2)
 Framework group  C1[X(CH3O2)]
 Deg. of freedom    12
 Full point group                 C1      NOp   1
 Rotational constants (GHZ):          52.3905653          11.4059666           9.9607301

 **********************************************************************

            Population analysis using the SCF Density.

 **********************************************************************

 Alpha  occ. eigenvalues --  -19.84234 -19.81490 -10.68154  -1.35021  -1.01944
 Alpha  occ. eigenvalues --   -0.79841  -0.61925  -0.59363  -0.58605  -0.49890
 Alpha  occ. eigenvalues --   -0.47677  -0.37452  -0.37224
 Alpha virt. eigenvalues --    0.08239   0.13416   0.13931   0.14808   0.22235
 Alpha virt. eigenvalues --    0.29300   0.30453   0.40425   0.48903   0.50162
 Alpha virt. eigenvalues --    0.50187   0.53791   0.56254   0.58223   0.62509
 Alpha virt. eigenvalues --    0.66266   0.71133   0.75201   0.77436   0.88172
 Alpha virt. eigenvalues --    0.92339   1.00605   1.01415   1.05687   1.07259
 Alpha virt. eigenvalues --    1.13198   1.17463   1.26300   1.28976   1.33115
 Alpha virt. eigenvalues --    1.36687   1.37199   1.49643   1.49701   1.57071
 Alpha virt. eigenvalues --    1.58878   1.65327   1.76719   1.94454   2.04967
 Alpha virt. eigenvalues --    2.06455   2.20939   2.23630   2.33066   2.34882
 Alpha virt. eigenvalues --    2.39404   2.48092   2.66778   2.79494   2.87896
 Alpha virt. eigenvalues --    2.90355   2.96625   3.01039   3.07402   3.09670
 Alpha virt. eigenvalues --    3.11929   3.12811   3.19166   3.37164   3.38122
 Alpha virt. eigenvalues --    3.48437   3.49604   3.51331   3.55126   3.58997
 Alpha virt. eigenvalues --    3.70386   3.78774   3.86161   3.89767   3.91122
 Alpha virt. eigenvalues --    3.92191   3.97015   4.08688   4.14376   4.14775
 Alpha virt. eigenvalues --    4.23716   4.27722   4.31592   4.42161   4.68919
 Alpha virt. eigenvalues --    4.76025   4.81298   4.84300   4.85635   4.95087
 Alpha virt. eigenvalues --    4.95878   5.00019   5.05608   5.21758   5.24814
 Alpha virt. eigenvalues --    5.24847   5.31503   5.32096   5.35868   5.37616
 Alpha virt. eigenvalues --    5.39863   5.49804   5.65782   5.82429   5.90507
 Alpha virt. eigenvalues --    5.93205   6.01404   6.18113   6.34184   6.40514
 Alpha virt. eigenvalues --    6.44054   6.47942   6.57306   6.62011   6.79488
 Alpha virt. eigenvalues --    6.90713   6.94771   7.12488   7.22168   7.45105
 Alpha virt. eigenvalues --    7.57954   8.88484  11.01534  13.32904
  Beta  occ. eigenvalues --  -19.83185 -19.78826 -10.68210  -1.31100  -0.96562
  Beta  occ. eigenvalues --   -0.78252  -0.57781  -0.57571  -0.55474  -0.47034
  Beta  occ. eigenvalues --   -0.41827  -0.35134
  Beta virt. eigenvalues --   -0.02106   0.08275   0.13943   0.14017   0.15378
  Beta virt. eigenvalues --    0.24413   0.29534   0.30528   0.40676   0.48997
  Beta virt. eigenvalues --    0.50221   0.50259   0.53934   0.58548   0.58648
  Beta virt. eigenvalues --    0.63240   0.66836   0.75698   0.75857   0.79882
  Beta virt. eigenvalues --    0.88321   0.92515   1.00915   1.01703   1.05831
  Beta virt. eigenvalues --    1.07698   1.13333   1.17585   1.27934   1.30269
  Beta virt. eigenvalues --    1.33789   1.36864   1.37461   1.50271   1.52227
  Beta virt. eigenvalues --    1.57699   1.62536   1.68082   1.77498   1.95958
  Beta virt. eigenvalues --    2.06224   2.07220   2.23247   2.24814   2.34588
  Beta virt. eigenvalues --    2.35390   2.40063   2.48333   2.66949   2.79554
  Beta virt. eigenvalues --    2.88027   2.90364   2.96742   3.01041   3.07571
  Beta virt. eigenvalues --    3.09917   3.12044   3.13094   3.19161   3.37341
  Beta virt. eigenvalues --    3.38197   3.49353   3.50139   3.51392   3.55365
  Beta virt. eigenvalues --    3.59089   3.76302   3.79414   3.86843   3.90819
  Beta virt. eigenvalues --    3.91244   3.95863   3.97718   4.10100   4.14460
  Beta virt. eigenvalues --    4.15067   4.24048   4.28964   4.31698   4.42521
  Beta virt. eigenvalues --    4.69494   4.76672   4.81694   4.86709   4.87125
  Beta virt. eigenvalues --    4.96087   4.96688   5.01046   5.07393   5.22938
  Beta virt. eigenvalues --    5.27968   5.28373   5.33004   5.34480   5.36884
  Beta virt. eigenvalues --    5.37897   5.40256   5.51257   5.67599   5.84020
  Beta virt. eigenvalues --    5.90552   5.93625   6.03336   6.20478   6.39614
  Beta virt. eigenvalues --    6.46482   6.47953   6.52426   6.61769   6.65080
  Beta virt. eigenvalues --    6.80631   6.93768   6.96088   7.14087   7.25456
  Beta virt. eigenvalues --    7.45547   7.58965   8.91579  11.03281  13.32891
          Condensed to atoms (all electrons):
               1          2          3          4          5          6
     1  C    4.629367   0.407585   0.395218   0.407681   0.268827  -0.044667
     2  H    0.407585   0.596569  -0.028159  -0.041456  -0.034946   0.001479
     3  H    0.395218  -0.028159   0.574715  -0.028507  -0.019277   0.006092
     4  H    0.407681  -0.041456  -0.028507   0.597085  -0.034984   0.001296
     5  O    0.268827  -0.034946  -0.019277  -0.034984   7.807206   0.107093
     6  O   -0.044667   0.001479   0.006092   0.001296   0.107093   8.068505
          Atomic-Atomic Spin Densities.
               1          2          3          4          5          6
     1  C   -0.029513  -0.001488   0.001690  -0.001320   0.011174  -0.005395
     2  H   -0.001488   0.024355  -0.000135  -0.008764  -0.006537   0.004490
     3  H    0.001690  -0.000135  -0.003050  -0.000082  -0.000220  -0.000288
     4  H   -0.001320  -0.008764  -0.000082   0.024269  -0.006600   0.004541
     5  O    0.011174  -0.006537  -0.000220  -0.006600   0.357000  -0.134985
     6  O   -0.005395   0.004490  -0.000288   0.004541  -0.134985   0.914779
 Mulliken charges and spin densities:
               1          2
     1  C   -0.064011  -0.024854
     2  H    0.098928   0.011921
     3  H    0.099917  -0.002086
     4  H    0.098884   0.012044
     5  O   -0.093920   0.219832
     6  O   -0.139798   0.783143
 Sum of Mulliken charges =  -0.00000   1.00000
 Mulliken charges and spin densities with hydrogens summed into heavy atoms:
               1          2
     1  C    0.233718  -0.002975
     5  O   -0.093920   0.219832
     6  O   -0.139798   0.783143
 Electronic spatial extent (au):  <R**2>=            149.5054
 Charge=             -0.0000 electrons
 Dipole moment (field-independent basis, Debye):
    X=              2.5169    Y=             -0.5639    Z=              0.0816  Tot=              2.5806
 Quadrupole moment (field-independent basis, Debye-Ang):
   XX=            -17.1699   YY=            -17.3425   ZZ=            -17.7936
   XY=              0.0302   XZ=             -0.0722   YZ=             -0.6176
 Traceless Quadrupole moment (field-independent basis, Debye-Ang):
   XX=              0.2654   YY=              0.0928   ZZ=             -0.3583
   XY=              0.0302   XZ=             -0.0722   YZ=             -0.6176
 Octapole moment (field-independent basis, Debye-Ang**2):
  XXX=             -0.2177  YYY=             -0.3361  ZZZ=             -0.1606  XYY=             -1.1096
  XXY=              0.0868  XXZ=              1.0473  XZZ=             -0.1553  YZZ=              0.8665
  YYZ=              0.0120  XYZ=              0.3763
 Hexadecapole moment (field-independent basis, Debye-Ang**3):
 XXXX=           -117.4311 YYYY=            -26.0305 ZZZZ=            -33.4411 XXXY=              6.9535
 XXXZ=             -7.4920 YYYX=              4.8424 YYYZ=             -2.5604 ZZZX=             -8.4116
 ZZZY=             -2.5635 XXYY=            -23.8501 XXZZ=            -23.2170 YYZZ=            -10.5856
 XXYZ=             -0.2458 YYXZ=             -2.7440 ZZXY=              2.5569
 N-N= 7.498777960602D+01 E-N=-5.975933246117D+02  KE= 1.891915766764D+02
                          Isotropic Fermi Contact Couplings
        Atom                 a.u.       MegaHertz       Gauss      10(-4) cm-1
     1  C(13)             -0.01323     -14.87718      -5.30855      -4.96249
     2  H(1)               0.00539      24.07299       8.58984       8.02988
     3  H(1)              -0.00043      -1.92004      -0.68512      -0.64046
     4  H(1)               0.00551      24.61970       8.78492       8.21225
     5  O(17)              0.05023     -30.44897     -10.86495     -10.15668
     6  O(17)              0.04817     -29.20075     -10.41956      -9.74032
 --------------------------------------------------------
       Center         ----  Spin Dipole Couplings  ----
                      3XX-RR        3YY-RR        3ZZ-RR
 --------------------------------------------------------
     1   Atom        0.019381     -0.009827     -0.009554
     2   Atom        0.014620     -0.009298     -0.005321
     3   Atom        0.014281     -0.007491     -0.006790
     4   Atom        0.008055      0.000300     -0.008356
     5   Atom       -0.703177      0.760225     -0.057047
     6   Atom       -1.341451      1.402771     -0.061320
 --------------------------------------------------------
                        XY            XZ            YZ
 --------------------------------------------------------
     1   Atom       -0.008958     -0.000678      0.004116
     2   Atom       -0.001047     -0.008517      0.001515
     3   Atom       -0.001352      0.005350     -0.001200
     4   Atom       -0.012985      0.001501      0.000171
     5   Atom        0.379883     -0.289772     -1.145708
     6   Atom        0.704908     -0.527933     -2.052711
 --------------------------------------------------------


 ---------------------------------------------------------------------------------
              Anisotropic Spin Dipole Couplings in Principal Axis System
 ---------------------------------------------------------------------------------

       Atom             a.u.   MegaHertz   Gauss  10(-4) cm-1        Axes

              Baa    -0.0150    -2.014    -0.719    -0.672  0.1956  0.7945 -0.5750
     1 C(13)  Bbb    -0.0070    -0.939    -0.335    -0.313  0.2045  0.5404  0.8162
              Bcc     0.0220     2.954     1.054     0.985  0.9591 -0.2772 -0.0568
 
              Baa    -0.0101    -5.376    -1.918    -1.793 -0.1475  0.8350 -0.5302
     2 H(1)   Bbb    -0.0078    -4.146    -1.479    -1.383  0.3198  0.5475  0.7733
              Bcc     0.0178     9.522     3.398     3.176  0.9360 -0.0555 -0.3477
 
              Baa    -0.0087    -4.652    -1.660    -1.552 -0.1467  0.6042  0.7832
     3 H(1)   Bbb    -0.0070    -3.710    -1.324    -1.238  0.1956  0.7938 -0.5758
              Bcc     0.0157     8.362     2.984     2.789  0.9696 -0.0688  0.2346
 
              Baa    -0.0100    -5.351    -1.909    -1.785  0.5214  0.6643 -0.5355
     4 H(1)   Bbb    -0.0077    -4.133    -1.475    -1.379  0.2909  0.4516  0.8435
              Bcc     0.0178     9.484     3.384     3.164  0.8022 -0.5956  0.0422
 
              Baa    -0.8692    62.898    22.444    20.980  0.2397  0.5204  0.8196
     5 O(17)  Bbb    -0.7950    57.528    20.528    19.189  0.9505 -0.2977 -0.0890
              Bcc     1.6643  -120.426   -42.971   -40.170  0.1977  0.8004 -0.5660
 
              Baa    -1.5390   111.363    39.737    37.147  0.7601  0.2394  0.6041
     6 O(17)  Bbb    -1.4884   107.701    38.431    35.925  0.6191 -0.5494 -0.5612
              Bcc     3.0275  -219.064   -78.168   -73.072  0.1975  0.8005 -0.5658
 

 ---------------------------------------------------------------------------------

 1\1\GINC-N69\Scan\UB2PLYPD3-FC\CC-pVTZ\C1H3O2(2)\ROOT\01-Jun-2019\0\\#
  opt=(maxcyc=500,modredundant) uB2PLYPD3/cc-pvtz scf=maxcyc=500 nosymm
 \\Title Card Required\\0,2\C,1.0784554981,-0.2149302465,0.0667628559\H
 ,1.3606245031,0.122514488,-0.9258041452\H,1.7653418261,0.1604819792,0.
 8186823596\H,1.013861097,-1.2981726454,0.1008207813\O,-0.2111621682,0.
 3422673981,0.4031724768\O,-1.1236917562,-0.0459049735,-0.4639323284\\V
 ersion=ES64L-G16RevB.01\HF=-189.9501208,-189.9500444,-189.9497896,-189
 .9494332,-189.9490729,-189.9488044,-189.9486971,-189.9487782,-189.9490
 277,-189.9493824,-189.949749,-189.9500251,-189.9501294,-189.9500306,-1
 89.9497581,-189.9493936,-189.949038,-189.9487844,-189.9486974,-189.948
 7985,-189.9490623,-189.9494209,-189.9497793,-189.9500389,-189.9501262,
 -189.9500178,-189.9497477,-189.9493909,-189.9490422,-189.9487897,-189.
 9486963,-189.9487852,-189.9490344,-189.9493825,-189.9497414,-189.95001
 54,-189.9501272\MP2=-190.154856,-190.1547831,-190.1545657,-190.1542642
 ,-190.1539605,-190.1537342,-190.1536433,-190.1537112,-190.1539219,-190
 .1542219,-190.1545328,-190.1547675,-190.1548564,-190.1547718,-190.1545
 401,-190.1542302,-190.1539289,-190.1537152,-190.1536431,-190.1537298,-
 190.1539533,-190.154256,-190.1545587,-190.1547792,-190.1548562,-190.15
 47685,-190.1545419,-190.1542393,-190.1539408,-190.1537235,-190.1536427
 ,-190.1537195,-190.1539338,-190.1542311,-190.1545348,-190.1547643,-190
 .154856\PUHF=-189.9541755,-189.9541068,-189.9538765,-189.9535554,-189.
 9532321,-189.9529919,-189.9528958,-189.9529681,-189.9531913,-189.95350
 96,-189.9538398,-189.9540894,-189.9541839,-189.9540943,-189.9538479,-1
 89.9535195,-189.9532004,-189.9529736,-189.9528961,-189.9529866,-189.95
 32228,-189.9535446,-189.9538673,-189.9541017,-189.9541808,-189.9540827
 ,-189.9538388,-189.9535176,-189.9532045,-189.9529784,-189.9528948,-189
 .9529744,-189.9531977,-189.9535103,-189.9538335,-189.954081,-189.95418
 21\PMP2-0=-190.1550831,-190.1550109,-190.1547957,-190.1544974,-190.154
 1971,-190.1539734,-190.1538836,-190.1539507,-190.1541589,-190.1544556,
 -190.1547631,-190.1549954,-190.1550835,-190.1549997,-190.1547703,-190.
 1544638,-190.1541659,-190.1539547,-190.1538834,-190.1539691,-190.15419
 ,-190.1544894,-190.1547888,-190.155007,-190.1550833,-190.1549964,-190.
 1547721,-190.1544727,-190.1541777,-190.1539628,-190.153883,-190.153958
 9,-190.1541707,-190.1544647,-190.1547651,-190.1549922,-190.155083\S2=0
 .757402,0.757425,0.7575,0.757609,0.757723,0.75781,0.757845,0.757818,0.
 757736,0.757624,0.757512,0.75743,0.7574,0.757429,0.757509,0.75762,0.75
 7733,0.757816,0.757845,0.757812,0.757726,0.757613,0.757503,0.757426,0.
 7574,0.757432,0.757512,0.757621,0.757731,0.757814,0.757845,0.757815,0.
 757734,0.757624,0.757514,0.757433,0.757401\S2-1=0.745637,0.745626,0.74
 5593,0.745546,0.745497,0.74546,0.745446,0.745458,0.745492,0.74554,0.74
 5588,0.745624,0.745637,0.745624,0.74559,0.745542,0.745494,0.745458,0.7
 45446,0.745459,0.745496,0.745544,0.745592,0.745626,0.745637,0.745622,0
 .745587,0.745539,0.745493,0.745459,0.745446,0.745458,0.745492,0.745538
 ,0.745585,0.745621,0.745636\S2A=0.750034,0.750034,0.750035,0.750035,0.
 750036,0.750037,0.750037,0.750037,0.750036,0.750036,0.750035,0.750034,
 0.750034,0.750034,0.750035,0.750036,0.750036,0.750037,0.750037,0.75003
 7,0.750036,0.750035,0.750035,0.750034,0.750034,0.750034,0.750035,0.750
 036,0.750036,0.750037,0.750037,0.750037,0.750036,0.750036,0.750035,0.7
 50034,0.750034\RMSD=7.818e-09,4.577e-09,2.622e-09,5.626e-09,6.563e-09,
 6.346e-09,4.463e-09,6.393e-09,6.742e-09,7.281e-09,4.940e-09,7.445e-09,
 4.377e-09,3.328e-09,5.644e-09,5.476e-09,6.503e-09,6.709e-09,5.263e-09,
 5.456e-09,6.647e-09,7.156e-09,9.206e-09,8.723e-09,5.317e-09,3.196e-09,
 8.530e-09,9.907e-09,6.757e-09,5.820e-09,5.499e-09,5.743e-09,6.570e-09,
 8.052e-09,7.338e-09,1.474e-09,8.420e-09\PG=C01 [X(C1H3O2)]\\@


 FAULTILY FAULTLESS, ICILY REGULAR, SPLENDIDLY NULL...
           MAUDE BY TENNYSON
 Job cpu time:       0 days 10 hours 38 minutes 59.6 seconds.
 Elapsed time:       0 days  0 hours 21 minutes  0.7 seconds.
 File lengths (MBytes):  RWF=     18 Int=      0 D2E=      0 Chk=      5 Scr=      1
 Normal termination of Gaussian 16 at Sat Jun  1 09:58:49 2019.
