 Entering Gaussian System, Link 0=g16
 Initial command:
 /ichec/packages/gaussian/16b01/l1.exe "/localscratch/339542/Gau-86413.inp" -scrdir="/localscratch/339542/"
 Entering Link 1 = /ichec/packages/gaussian/16b01/l1.exe PID=     86422.
  
 Copyright (c) 1988-2017, Gaussian, Inc.  All Rights Reserved.
  
 This is part of the Gaussian(R) 16 program.  It is based on
 the Gaussian(R) 09 system (copyright 2009, Gaussian, Inc.),
 the Gaussian(R) 03 system (copyright 2003, Gaussian, Inc.),
 the Gaussian(R) 98 system (copyright 1998, Gaussian, Inc.),
 the Gaussian(R) 94 system (copyright 1995, Gaussian, Inc.),
 the Gaussian 92(TM) system (copyright 1992, Gaussian, Inc.),
 the Gaussian 90(TM) system (copyright 1990, Gaussian, Inc.),
 the Gaussian 88(TM) system (copyright 1988, Gaussian, Inc.),
 the Gaussian 86(TM) system (copyright 1986, Carnegie Mellon
 University), and the Gaussian 82(TM) system (copyright 1983,
 Carnegie Mellon University). Gaussian is a federally registered
 trademark of Gaussian, Inc.
  
 This software contains proprietary and confidential information,
 including trade secrets, belonging to Gaussian, Inc.
  
 This software is provided under written license and may be
 used, copied, transmitted, or stored only in accord with that
 written license.
  
 The following legend is applicable only to US Government
 contracts under FAR:
  
                    RESTRICTED RIGHTS LEGEND
  
 Use, reproduction and disclosure by the US Government is
 subject to restrictions as set forth in subparagraphs (a)
 and (c) of the Commercial Computer Software - Restricted
 Rights clause in FAR 52.227-19.
  
 Gaussian, Inc.
 340 Quinnipiac St., Bldg. 40, Wallingford CT 06492
  
  
 ---------------------------------------------------------------
 Warning -- This program may not be used in any manner that
 competes with the business of Gaussian, Inc. or will provide
 assistance to any competitor of Gaussian, Inc.  The licensee
 of this program is prohibited from giving any competitor of
 Gaussian, Inc. access to this program.  By using this program,
 the user acknowledges that Gaussian, Inc. is engaged in the
 business of creating and licensing software in the field of
 computational chemistry and represents and warrants to the
 licensee that it is not a competitor of Gaussian, Inc. and that
 it will not use this program in any manner prohibited above.
 ---------------------------------------------------------------
  

 Cite this work as:
 Gaussian 16, Revision B.01,
 M. J. Frisch, G. W. Trucks, H. B. Schlegel, G. E. Scuseria, 
 M. A. Robb, J. R. Cheeseman, G. Scalmani, V. Barone, 
 G. A. Petersson, H. Nakatsuji, X. Li, M. Caricato, A. V. Marenich, 
 J. Bloino, B. G. Janesko, R. Gomperts, B. Mennucci, H. P. Hratchian, 
 J. V. Ortiz, A. F. Izmaylov, J. L. Sonnenberg, D. Williams-Young, 
 F. Ding, F. Lipparini, F. Egidi, J. Goings, B. Peng, A. Petrone, 
 T. Henderson, D. Ranasinghe, V. G. Zakrzewski, J. Gao, N. Rega, 
 G. Zheng, W. Liang, M. Hada, M. Ehara, K. Toyota, R. Fukuda, 
 J. Hasegawa, M. Ishida, T. Nakajima, Y. Honda, O. Kitao, H. Nakai, 
 T. Vreven, K. Throssell, J. A. Montgomery, Jr., J. E. Peralta, 
 F. Ogliaro, M. J. Bearpark, J. J. Heyd, E. N. Brothers, K. N. Kudin, 
 V. N. Staroverov, T. A. Keith, R. Kobayashi, J. Normand, 
 K. Raghavachari, A. P. Rendell, J. C. Burant, S. S. Iyengar, 
 J. Tomasi, M. Cossi, J. M. Millam, M. Klene, C. Adamo, R. Cammi, 
 J. W. Ochterski, R. L. Martin, K. Morokuma, O. Farkas, 
 J. B. Foresman, and D. J. Fox, Gaussian, Inc., Wallingford CT, 2016.
 
 ******************************************
 Gaussian 16:  ES64L-G16RevB.01 20-Dec-2017
                 1-Jun-2019 
 ******************************************
 %mem=80GB
 %nproc=40
 Will use up to   40 processors via shared memory.
 -----------------------------------------------
 # opt=maxcyc=500 freq=noraman uB2PLYPD3/cc-pvtz
 -----------------------------------------------
 1/6=500,18=20,19=15,38=1/1,3;
 2/9=110,12=2,17=6,18=5,40=1/2;
 3/5=16,6=1,11=2,25=1,30=1,71=1,74=-60,116=2/1,2,3;
 4//1;
 5/5=2,38=5/2;
 8/6=4,10=1/1;
 9/15=2,16=-3/6;
 10/5=1/2;
 6/7=2,8=2,9=2,10=2/1;
 7/12=2/1,2,3,16;
 1/6=500,18=20,19=15/3(2);
 2/9=110/2;
 99//99;
 2/9=110/2;
 3/5=16,6=1,11=2,25=1,30=1,71=1,74=-60,116=2/1,2,3;
 4/5=5,16=3,69=1/1;
 5/5=2,38=5/2;
 8/6=4,10=1/1;
 9/15=2,16=-3/6;
 10/5=1/2;
 7/12=2/1,2,3,16;
 1/6=500,18=20,19=15/3(-8);
 2/9=110/2;
 6/7=2,8=2,9=2,10=2/1;
 99/9=10/99;
 -------------------
 Title Card Required
 -------------------
 Symbolic Z-matrix:
 Charge =  0 Multiplicity = 1
 C                     0.       -0.00001   0.00002 
 H                     0.71855  -0.81554  -0.01706 
 H                    -0.41322   0.13976  -0.9956 
 H                     0.4962    0.9135    0.31783 
 H                    -0.80154  -0.23765   0.69473 
 

 GradGradGradGradGradGradGradGradGradGradGradGradGradGradGradGradGradGrad
 Berny optimization.
 Initialization pass.
                           ----------------------------
                           !    Initial Parameters    !
                           ! (Angstroms and Degrees)  !
 --------------------------                            --------------------------
 ! Name  Definition              Value          Derivative Info.                !
 --------------------------------------------------------------------------------
 ! R1    R(1,2)                  1.0871         estimate D2E/DX2                !
 ! R2    R(1,3)                  1.087          estimate D2E/DX2                !
 ! R3    R(1,4)                  1.0871         estimate D2E/DX2                !
 ! R4    R(1,5)                  1.087          estimate D2E/DX2                !
 ! A1    A(2,1,3)              109.473          estimate D2E/DX2                !
 ! A2    A(2,1,4)              109.4706         estimate D2E/DX2                !
 ! A3    A(2,1,5)              109.4781         estimate D2E/DX2                !
 ! A4    A(3,1,4)              109.466          estimate D2E/DX2                !
 ! A5    A(3,1,5)              109.4613         estimate D2E/DX2                !
 ! A6    A(4,1,5)              109.4784         estimate D2E/DX2                !
 ! D1    D(2,1,4,3)            119.9986         estimate D2E/DX2                !
 ! D2    D(2,1,5,3)           -120.0003         estimate D2E/DX2                !
 ! D3    D(2,1,5,4)            120.0078         estimate D2E/DX2                !
 ! D4    D(3,1,5,4)           -119.9919         estimate D2E/DX2                !
 --------------------------------------------------------------------------------
 Trust Radius=3.00D-01 FncErr=1.00D-07 GrdErr=1.00D-07 EigMax=2.50D+02 EigMin=1.00D-04
 Number of steps in this run=    100 maximum allowed number of steps=    100.
 GradGradGradGradGradGradGradGradGradGradGradGradGradGradGradGradGradGrad

                          Input orientation:                          
 ---------------------------------------------------------------------
 Center     Atomic      Atomic             Coordinates (Angstroms)
 Number     Number       Type             X           Y           Z
 ---------------------------------------------------------------------
      1          6           0        0.000004   -0.000011    0.000018
      2          1           0        0.718548   -0.815541   -0.017058
      3          1           0       -0.413224    0.139758   -0.995601
      4          1           0        0.496195    0.913498    0.317825
      5          1           0       -0.801541   -0.237647    0.694728
 ---------------------------------------------------------------------
                    Distance matrix (angstroms):
                    1          2          3          4          5
     1  C    0.000000
     2  H    1.087054   0.000000
     3  H    1.086991   1.775120   0.000000
     4  H    1.087063   1.775152   1.775051   0.000000
     5  H    1.086999   1.775182   1.774947   1.775193   0.000000
 Stoichiometry    CH4
 Framework group  C1[X(CH4)]
 Deg. of freedom     9
 Full point group                 C1      NOp   1
 Largest Abelian subgroup         C1      NOp   1
 Largest concise Abelian subgroup C1      NOp   1
                         Standard orientation:                         
 ---------------------------------------------------------------------
 Center     Atomic      Atomic             Coordinates (Angstroms)
 Number     Number       Type             X           Y           Z
 ---------------------------------------------------------------------
      1          6           0        0.000004    0.000011   -0.000018
      2          1           0        0.717253    0.816723    0.014861
      3          1           0       -0.412018   -0.138603    0.996262
      4          1           0        0.497349   -0.913279   -0.316649
      5          1           0       -0.802606    0.235092   -0.694367
 ---------------------------------------------------------------------
 Rotational constants (GHZ):         159.1533861         159.1458782         159.1245636
 Standard basis: CC-pVTZ (5D, 7F)
 There are    95 symmetry adapted cartesian basis functions of A   symmetry.
 There are    86 symmetry adapted basis functions of A   symmetry.
    86 basis functions,   120 primitive gaussians,    95 cartesian basis functions
     5 alpha electrons        5 beta electrons
       nuclear repulsion energy        13.4721374960 Hartrees.
 NAtoms=    5 NActive=    5 NUniq=    5 SFac= 1.00D+00 NAtFMM=   60 NAOKFM=F Big=F
 Integral buffers will be    131072 words long.
 Raffenetti 2 integral format.
 Two-electron integral symmetry is turned on.
 Nuclear repulsion after empirical dispersion term =       13.4713463208 Hartrees.
 One-electron integrals computed using PRISM.
 NBasis=    86 RedAO= T EigKep=  2.10D-03  NBF=    86
 NBsUse=    86 1.00D-06 EigRej= -1.00D+00 NBFU=    86
 ExpMin= 1.03D-01 ExpMax= 8.24D+03 ExpMxC= 2.81D+02 IAcc=3 IRadAn=         5 AccDes= 0.00D+00
 Harris functional with IExCor=  419 and IRadAn=       5 diagonalized for initial guess.
 HarFok:  IExCor=  419 AccDes= 0.00D+00 IRadAn=         5 IDoV= 1 UseB2=F ITyADJ=14
 ICtDFT=  3500011 ScaDFX=  1.000000  1.000000  1.000000  1.000000
 FoFCou: FMM=F IPFlag=           0 FMFlag=      100000 FMFlg1=           0
         NFxFlg=           0 DoJE=T BraDBF=F KetDBF=T FulRan=T
         wScrn=  0.000000 ICntrl=       500 IOpCl=  0 I1Cent=   200000004 NGrid=           0
         NMat0=    1 NMatS0=      1 NMatT0=    0 NMatD0=    1 NMtDS0=    0 NMtDT0=    0
 Petite list used in FoFCou.
 Initial guess <Sx>= 0.0000 <Sy>= 0.0000 <Sz>= 0.0000 <S**2>=-0.0000 S=-0.0000
 Keep R1 and R2 ints in memory in canonical form, NReq=50734745.
 Requested convergence on RMS density matrix=1.00D-08 within 128 cycles.
 Requested convergence on MAX density matrix=1.00D-06.
 Requested convergence on             energy=1.00D-06.
 No special actions if energy rises.
 Integral accuracy reduced to 1.0D-05 until final iterations.
 Initial convergence to 1.0D-05 achieved.  Increase integral accuracy.
 SCF Done:  E(UB2PLYPD3) =  -40.4231195591     A.U. after    8 cycles
            NFock=  8  Conv=0.76D-08     -V/T= 2.0051
 <Sx>= 0.0000 <Sy>= 0.0000 <Sz>= 0.0000 <S**2>=-0.0000 S=-0.0000
 <L.S>=  0.00000000000    
 Annihilation of the first spin contaminant:
 S**2 before annihilation    -0.0000,   after     0.0000
 DoSCS=T DFT=T ScalE2(SS,OS)=  0.270000  0.270000
 ExpMin= 1.03D-01 ExpMax= 8.24D+03 ExpMxC= 2.81D+02 IAcc=3 IRadAn=         5 AccDes= 0.00D+00
 HarFok:  IExCor=  205 AccDes= 0.00D+00 IRadAn=         5 IDoV=-2 UseB2=F ITyADJ=14
 ICtDFT= 12500011 ScaDFX=  1.000000  1.000000  1.000000  1.000000
 Range of M.O.s used for correlation:     2    86
 NBasis=    86 NAE=     5 NBE=     5 NFC=     1 NFV=     0
 NROrb=     85 NOA=     4 NOB=     4 NVA=    81 NVB=    81

 **** Warning!!: The largest alpha MO coefficient is  0.12803738D+02


 **** Warning!!: The largest beta MO coefficient is  0.12803738D+02

 DoSCS=T DFT=T ScalE2(SS,OS)=  0.270000  0.270000
 Fully direct method using O(ONN) memory.
 JobTyp=2 Pass  1:  I=   2 to   5 NPSUse= 40 ParTrn=T ParDer=T DoDerP=T.
 JobTyp=3 Pass  1:  I=   2 to   5 NPSUse= 40 ParTrn=T ParDer=T DoDerP=T.
 Spin components of T(2) and E(2):
     alpha-alpha T2 =       0.9202188609D-02 E2=     -0.5991624372D-02
     alpha-beta  T2 =       0.7192817053D-01 E2=     -0.5207224480D-01
     beta-beta   T2 =       0.9202188609D-02 E2=     -0.5991624372D-02
 (S**2,0)=  0.00000D+00           (S**2,1)=  0.00000D+00
 E(PUHF)=      -0.40423119559D+02        E(PMP2)=      -0.40487175053D+02
 E2(B2PLYPD3) =    -0.6405549354D-01 E(B2PLYPD3) =    -0.40487175052664D+02
          IDoAtm=11111
          Differentiating once with respect to electric field.
                with respect to dipole field.
          Differentiating once with respect to nuclear coordinates.
 Keep R1 and R2 ints in memory in canonical form, NReq=50738119.
          There are     1 degrees of freedom in the 1st order CPHF.  IDoFFX=0 NUNeed=     1.
 LinEq1:  Iter=  0 NonCon=     1 RMS=6.43D-04 Max=4.35D-03 NDo=     1
 AX will form     1 AO Fock derivatives at one time.
 LinEq1:  Iter=  1 NonCon=     1 RMS=3.27D-04 Max=2.51D-03 NDo=     1
 LinEq1:  Iter=  2 NonCon=     1 RMS=4.03D-05 Max=2.95D-04 NDo=     1
 LinEq1:  Iter=  3 NonCon=     1 RMS=2.26D-06 Max=1.26D-05 NDo=     1
 LinEq1:  Iter=  4 NonCon=     1 RMS=1.31D-07 Max=7.26D-07 NDo=     1
 LinEq1:  Iter=  5 NonCon=     1 RMS=6.58D-09 Max=8.39D-08 NDo=     1
 LinEq1:  Iter=  6 NonCon=     1 RMS=4.51D-10 Max=4.14D-09 NDo=     1
 LinEq1:  Iter=  7 NonCon=     0 RMS=2.98D-11 Max=2.04D-10 NDo=     1
 Linear equations converged to 1.000D-10 1.000D-09 after     7 iterations.
 End of Minotr F.D. properties file   721 does not exist.
 End of Minotr F.D. properties file   722 does not exist.
 End of Minotr F.D. properties file   788 does not exist.

 **********************************************************************

            Population analysis using the SCF Density.

 **********************************************************************

 Orbital symmetries:
 Alpha Orbitals:
       Occupied  (A) (A) (A) (A) (A)
       Virtual   (A) (A) (A) (A) (A) (A) (A) (A) (A) (A) (A) (A)
                 (A) (A) (A) (A) (A) (A) (A) (A) (A) (A) (A) (A)
                 (A) (A) (A) (A) (A) (A) (A) (A) (A) (A) (A) (A)
                 (A) (A) (A) (A) (A) (A) (A) (A) (A) (A) (A) (A)
                 (A) (A) (A) (A) (A) (A) (A) (A) (A) (A) (A) (A)
                 (A) (A) (A) (A) (A) (A) (A) (A) (A) (A) (A) (A)
                 (A) (A) (A) (A) (A) (A) (A) (A) (A)
 Beta  Orbitals:
       Occupied  (A) (A) (A) (A) (A)
       Virtual   (A) (A) (A) (A) (A) (A) (A) (A) (A) (A) (A) (A)
                 (A) (A) (A) (A) (A) (A) (A) (A) (A) (A) (A) (A)
                 (A) (A) (A) (A) (A) (A) (A) (A) (A) (A) (A) (A)
                 (A) (A) (A) (A) (A) (A) (A) (A) (A) (A) (A) (A)
                 (A) (A) (A) (A) (A) (A) (A) (A) (A) (A) (A) (A)
                 (A) (A) (A) (A) (A) (A) (A) (A) (A) (A) (A) (A)
                 (A) (A) (A) (A) (A) (A) (A) (A) (A)
 The electronic state is 1-A.
 Alpha  occ. eigenvalues --  -10.59355  -0.79970  -0.45772  -0.45770  -0.45768
 Alpha virt. eigenvalues --    0.08535   0.16630   0.16631   0.16631   0.28863
 Alpha virt. eigenvalues --    0.28864   0.28865   0.54053   0.54055   0.54056
 Alpha virt. eigenvalues --    0.54317   0.57946   0.57949   0.65435   0.96041
 Alpha virt. eigenvalues --    0.96044   0.96046   1.04034   1.04034   1.04036
 Alpha virt. eigenvalues --    1.20304   1.20312   1.20318   1.40482   1.40482
 Alpha virt. eigenvalues --    1.40487   1.47619   1.47622   1.64947   2.23797
 Alpha virt. eigenvalues --    2.23800   2.23802   2.38462   2.78812   2.78814
 Alpha virt. eigenvalues --    2.78818   2.94273   2.94278   2.95177   2.95179
 Alpha virt. eigenvalues --    2.95180   3.10814   3.10817   3.10819   3.43626
 Alpha virt. eigenvalues --    3.43634   3.43636   3.54356   3.54357   3.54369
 Alpha virt. eigenvalues --    3.62177   3.62183   3.68826   3.90259   3.90268
 Alpha virt. eigenvalues --    3.90275   3.92685   3.92691   4.20747   4.20760
 Alpha virt. eigenvalues --    4.20771   4.35553   4.35566   4.35568   4.60446
 Alpha virt. eigenvalues --    4.86339   4.86345   4.86349   5.27664   5.27668
 Alpha virt. eigenvalues --    5.27674   5.30756   5.30770   5.30802   5.35667
 Alpha virt. eigenvalues --    5.44324   5.44342   5.97809   5.97814   5.97829
 Alpha virt. eigenvalues --   14.07914
  Beta  occ. eigenvalues --  -10.59355  -0.79970  -0.45772  -0.45770  -0.45768
  Beta virt. eigenvalues --    0.08535   0.16630   0.16631   0.16631   0.28863
  Beta virt. eigenvalues --    0.28864   0.28865   0.54053   0.54055   0.54056
  Beta virt. eigenvalues --    0.54317   0.57946   0.57949   0.65435   0.96041
  Beta virt. eigenvalues --    0.96044   0.96046   1.04034   1.04034   1.04036
  Beta virt. eigenvalues --    1.20304   1.20312   1.20318   1.40482   1.40482
  Beta virt. eigenvalues --    1.40487   1.47619   1.47622   1.64947   2.23797
  Beta virt. eigenvalues --    2.23800   2.23802   2.38462   2.78812   2.78814
  Beta virt. eigenvalues --    2.78818   2.94273   2.94278   2.95177   2.95179
  Beta virt. eigenvalues --    2.95180   3.10814   3.10817   3.10819   3.43626
  Beta virt. eigenvalues --    3.43634   3.43636   3.54356   3.54357   3.54369
  Beta virt. eigenvalues --    3.62177   3.62183   3.68826   3.90259   3.90268
  Beta virt. eigenvalues --    3.90275   3.92685   3.92691   4.20747   4.20760
  Beta virt. eigenvalues --    4.20771   4.35553   4.35566   4.35568   4.60446
  Beta virt. eigenvalues --    4.86339   4.86345   4.86349   5.27664   5.27668
  Beta virt. eigenvalues --    5.27674   5.30756   5.30770   5.30802   5.35667
  Beta virt. eigenvalues --    5.44324   5.44342   5.97809   5.97814   5.97829
  Beta virt. eigenvalues --   14.07914
          Condensed to atoms (all electrons):
               1          2          3          4          5
     1  C    4.788937   0.402777   0.402776   0.402773   0.402782
     2  H    0.402777   0.580745  -0.027842  -0.027846  -0.027839
     3  H    0.402776  -0.027842   0.580756  -0.027850  -0.027860
     4  H    0.402773  -0.027846  -0.027850   0.580760  -0.027836
     5  H    0.402782  -0.027839  -0.027860  -0.027836   0.580730
          Atomic-Atomic Spin Densities.
               1          2          3          4          5
     1  C   -0.000000  -0.000000   0.000000  -0.000000   0.000000
     2  H   -0.000000  -0.000000   0.000000   0.000000  -0.000000
     3  H    0.000000   0.000000   0.000000   0.000000  -0.000000
     4  H   -0.000000   0.000000   0.000000  -0.000000   0.000000
     5  H    0.000000  -0.000000  -0.000000   0.000000   0.000000
 Mulliken charges and spin densities:
               1          2
     1  C   -0.400046  -0.000000
     2  H    0.100005  -0.000000
     3  H    0.100020   0.000000
     4  H    0.099999  -0.000000
     5  H    0.100023   0.000000
 Sum of Mulliken charges =  -0.00000  -0.00000
 Mulliken charges and spin densities with hydrogens summed into heavy atoms:
               1          2
     1  C   -0.000000  -0.000000
 Electronic spatial extent (au):  <R**2>=             35.7069
 Charge=             -0.0000 electrons
 Dipole moment (field-independent basis, Debye):
    X=             -0.0001    Y=             -0.0000    Z=              0.0001  Tot=              0.0001
 Quadrupole moment (field-independent basis, Debye-Ang):
   XX=             -8.4412   YY=             -8.4415   ZZ=             -8.4420
   XY=              0.0000   XZ=              0.0000   YZ=             -0.0000
 Traceless Quadrupole moment (field-independent basis, Debye-Ang):
   XX=              0.0004   YY=              0.0000   ZZ=             -0.0004
   XY=              0.0000   XZ=              0.0000   YZ=             -0.0000
 Octapole moment (field-independent basis, Debye-Ang**2):
  XXX=             -0.0669  YYY=             -0.1448  ZZZ=              0.4362  XYY=              0.5894
  XXY=              0.2258  XXZ=             -0.2444  XZZ=             -0.5228  YZZ=             -0.0810
  YYZ=             -0.1915  XYZ=              0.2386
 Hexadecapole moment (field-independent basis, Debye-Ang**3):
 XXXX=            -16.7111 YYYY=            -16.2459 ZZZZ=            -16.1401 XXXY=              0.0959
 XXXZ=              0.3181 YYYX=              0.0032 YYYZ=              0.2952 ZZZX=             -0.1920
 ZZZY=             -0.2322 XXYY=             -5.1580 XXZZ=             -5.2625 YYZZ=             -5.7280
 XXYZ=             -0.0632 YYXZ=             -0.1259 ZZXY=             -0.0991
 N-N= 1.347134632080D+01 E-N=-1.200943164124D+02  KE= 4.021673865025D+01
                          Isotropic Fermi Contact Couplings
        Atom                 a.u.       MegaHertz       Gauss      10(-4) cm-1
     1  C(13)             -0.00000      -0.00000      -0.00000      -0.00000
     2  H(1)              -0.00000      -0.00000      -0.00000      -0.00000
     3  H(1)               0.00000       0.00000       0.00000       0.00000
     4  H(1)              -0.00000      -0.00000      -0.00000      -0.00000
     5  H(1)               0.00000       0.00000       0.00000       0.00000
 --------------------------------------------------------
       Center         ----  Spin Dipole Couplings  ----
                      3XX-RR        3YY-RR        3ZZ-RR
 --------------------------------------------------------
     1   Atom        0.000000      0.000000      0.000000
     2   Atom        0.000000      0.000000      0.000000
     3   Atom        0.000000      0.000000      0.000000
     4   Atom        0.000000      0.000000      0.000000
     5   Atom        0.000000      0.000000      0.000000
 --------------------------------------------------------
                        XY            XZ            YZ
 --------------------------------------------------------
     1   Atom        0.000000      0.000000      0.000000
     2   Atom        0.000000      0.000000      0.000000
     3   Atom        0.000000      0.000000      0.000000
     4   Atom        0.000000      0.000000      0.000000
     5   Atom        0.000000      0.000000      0.000000
 --------------------------------------------------------


 ---------------------------------------------------------------------------------
              Anisotropic Spin Dipole Couplings in Principal Axis System
 ---------------------------------------------------------------------------------

       Atom             a.u.   MegaHertz   Gauss  10(-4) cm-1        Axes

              Baa     0.0000     0.000     0.000     0.000  1.0000  0.0000  0.0000
     1 C(13)  Bbb     0.0000     0.000     0.000     0.000 -0.0000  1.0000  0.0000
              Bcc     0.0000     0.000     0.000     0.000  0.0000  0.0000  1.0000
 
              Baa     0.0000     0.000     0.000     0.000  1.0000  0.0000  0.0000
     2 H(1)   Bbb     0.0000     0.000     0.000     0.000 -0.0000  1.0000  0.0000
              Bcc     0.0000     0.000     0.000     0.000  0.0000  0.0000  1.0000
 
              Baa     0.0000     0.000     0.000     0.000  1.0000  0.0000  0.0000
     3 H(1)   Bbb     0.0000     0.000     0.000     0.000 -0.0000  1.0000  0.0000
              Bcc     0.0000     0.000     0.000     0.000  0.0000  0.0000  1.0000
 
              Baa     0.0000     0.000     0.000     0.000  1.0000  0.0000  0.0000
     4 H(1)   Bbb     0.0000     0.000     0.000     0.000 -0.0000  1.0000  0.0000
              Bcc     0.0000     0.000     0.000     0.000  0.0000  0.0000  1.0000
 
              Baa     0.0000     0.000     0.000     0.000  1.0000  0.0000  0.0000
     5 H(1)   Bbb     0.0000     0.000     0.000     0.000 -0.0000  1.0000  0.0000
              Bcc     0.0000     0.000     0.000     0.000  0.0000  0.0000  1.0000
 

 ---------------------------------------------------------------------------------

 Calling FoFJK, ICntrl=  10002127 FMM=F ISym2X=0 I1Cent= 0 IOpClX= 1 NMat=1 NMatS=1 NMatT=0.
 ***** Axes restored to original set *****
 -------------------------------------------------------------------
 Center     Atomic                   Forces (Hartrees/Bohr)
 Number     Number              X              Y              Z
 -------------------------------------------------------------------
      1        6           0.000032149    0.000015884   -0.000002694
      2        1          -0.000285380    0.000315182    0.000009410
      3        1           0.000153690   -0.000053072    0.000341054
      4        1          -0.000199686   -0.000362334   -0.000114359
      5        1           0.000299228    0.000084339   -0.000233411
 -------------------------------------------------------------------
 Cartesian Forces:  Max     0.000362334 RMS     0.000209807

 GradGradGradGradGradGradGradGradGradGradGradGradGradGradGradGradGradGrad
 Berny optimization.
 FormGI is forming the generalized inverse of G from B-inverse, IUseBI=4.
 Internal  Forces:  Max     0.000429066 RMS     0.000217004
 Search for a local minimum.
 Step number   1 out of a maximum of  100
 All quantities printed in internal units (Hartrees-Bohrs-Radians)
 Mixed Optimization -- En-DIIS/RFO-DIIS
 Second derivative matrix not updated -- first step.
 The second derivative matrix:
                          R1        R2        R3        R4        A1
           R1           0.35155
           R2           0.00000   0.35163
           R3           0.00000   0.00000   0.35154
           R4           0.00000   0.00000   0.00000   0.35162
           A1           0.00000   0.00000   0.00000   0.00000   0.16000
           A2           0.00000   0.00000   0.00000   0.00000   0.00000
           A3           0.00000   0.00000   0.00000   0.00000   0.00000
           A4           0.00000   0.00000   0.00000   0.00000   0.00000
           A5           0.00000   0.00000   0.00000   0.00000   0.00000
           A6           0.00000   0.00000   0.00000   0.00000   0.00000
           D1           0.00000   0.00000   0.00000   0.00000   0.00000
           D2           0.00000   0.00000   0.00000   0.00000   0.00000
           D3           0.00000   0.00000   0.00000   0.00000   0.00000
           D4           0.00000   0.00000   0.00000   0.00000   0.00000
                          A2        A3        A4        A5        A6
           A2           0.16000
           A3           0.00000   0.16000
           A4           0.00000   0.00000   0.16000
           A5           0.00000   0.00000   0.00000   0.16000
           A6           0.00000   0.00000   0.00000   0.00000   0.16000
           D1           0.00000   0.00000   0.00000   0.00000   0.00000
           D2           0.00000   0.00000   0.00000   0.00000   0.00000
           D3           0.00000   0.00000   0.00000   0.00000   0.00000
           D4           0.00000   0.00000   0.00000   0.00000   0.00000
                          D1        D2        D3        D4
           D1           0.00274
           D2           0.00000   0.00275
           D3           0.00000   0.00000   0.00275
           D4           0.00000   0.00000   0.00000   0.00275
 ITU=  0
     Eigenvalues ---    0.05113   0.05744   0.08662   0.16000   0.16000
     Eigenvalues ---    0.35154   0.35155   0.35162   0.35163
 RFO step:  Lambda=-1.88001612D-06 EMin= 5.11291927D-02
 Linear search not attempted -- first point.
 Iteration  1 RMS(Cart)=  0.00062068 RMS(Int)=  0.00000004
 Iteration  2 RMS(Cart)=  0.00000003 RMS(Int)=  0.00000000
 Variable       Old X    -DE/DX   Delta X   Delta X   Delta X     New X
                                 (Linear)    (Quad)   (Total)
    R1        2.05423  -0.00043   0.00000  -0.00121  -0.00121   2.05302
    R2        2.05412  -0.00038   0.00000  -0.00107  -0.00107   2.05304
    R3        2.05425  -0.00043   0.00000  -0.00122  -0.00122   2.05303
    R4        2.05413  -0.00039   0.00000  -0.00110  -0.00110   2.05303
    A1        1.91066  -0.00001   0.00000  -0.00003  -0.00003   1.91064
    A2        1.91062   0.00001   0.00000   0.00000   0.00000   1.91063
    A3        1.91075  -0.00001   0.00000  -0.00009  -0.00009   1.91066
    A4        1.91054   0.00000   0.00000   0.00007   0.00007   1.91061
    A5        1.91046   0.00002   0.00000   0.00015   0.00015   1.91061
    A6        1.91076  -0.00002   0.00000  -0.00010  -0.00010   1.91065
    D1        2.09437   0.00000   0.00000   0.00001   0.00001   2.09438
    D2       -2.09440  -0.00000   0.00000  -0.00000  -0.00000  -2.09440
    D3        2.09453  -0.00001   0.00000  -0.00012  -0.00012   2.09442
    D4       -2.09425  -0.00001   0.00000  -0.00011  -0.00011  -2.09437
         Item               Value     Threshold  Converged?
 Maximum Force            0.000429     0.000450     YES
 RMS     Force            0.000217     0.000300     YES
 Maximum Displacement     0.001033     0.001800     YES
 RMS     Displacement     0.000621     0.001200     YES
 Predicted change in Energy=-9.400079D-07
 Optimization completed.
    -- Stationary point found.
                           ----------------------------
                           !   Optimized Parameters   !
                           ! (Angstroms and Degrees)  !
 --------------------------                            --------------------------
 ! Name  Definition              Value          Derivative Info.                !
 --------------------------------------------------------------------------------
 ! R1    R(1,2)                  1.0871         -DE/DX =   -0.0004              !
 ! R2    R(1,3)                  1.087          -DE/DX =   -0.0004              !
 ! R3    R(1,4)                  1.0871         -DE/DX =   -0.0004              !
 ! R4    R(1,5)                  1.087          -DE/DX =   -0.0004              !
 ! A1    A(2,1,3)              109.473          -DE/DX =    0.0                 !
 ! A2    A(2,1,4)              109.4706         -DE/DX =    0.0                 !
 ! A3    A(2,1,5)              109.4781         -DE/DX =    0.0                 !
 ! A4    A(3,1,4)              109.466          -DE/DX =    0.0                 !
 ! A5    A(3,1,5)              109.4613         -DE/DX =    0.0                 !
 ! A6    A(4,1,5)              109.4784         -DE/DX =    0.0                 !
 ! D1    D(2,1,4,3)            119.9986         -DE/DX =    0.0                 !
 ! D2    D(2,1,5,3)           -120.0003         -DE/DX =    0.0                 !
 ! D3    D(2,1,5,4)            120.0078         -DE/DX =    0.0                 !
 ! D4    D(3,1,5,4)           -119.9919         -DE/DX =    0.0                 !
 --------------------------------------------------------------------------------
 GradGradGradGradGradGradGradGradGradGradGradGradGradGradGradGradGradGrad

                          Input orientation:                          
 ---------------------------------------------------------------------
 Center     Atomic      Atomic             Coordinates (Angstroms)
 Number     Number       Type             X           Y           Z
 ---------------------------------------------------------------------
      1          6           0        0.000004   -0.000011    0.000018
      2          1           0        0.718548   -0.815541   -0.017058
      3          1           0       -0.413224    0.139758   -0.995601
      4          1           0        0.496195    0.913498    0.317825
      5          1           0       -0.801541   -0.237647    0.694728
 ---------------------------------------------------------------------
                    Distance matrix (angstroms):
                    1          2          3          4          5
     1  C    0.000000
     2  H    1.087054   0.000000
     3  H    1.086991   1.775120   0.000000
     4  H    1.087063   1.775152   1.775051   0.000000
     5  H    1.086999   1.775182   1.774947   1.775193   0.000000
 Stoichiometry    CH4
 Framework group  C1[X(CH4)]
 Deg. of freedom     9
 Full point group                 C1      NOp   1
 Largest Abelian subgroup         C1      NOp   1
 Largest concise Abelian subgroup C1      NOp   1
                         Standard orientation:                         
 ---------------------------------------------------------------------
 Center     Atomic      Atomic             Coordinates (Angstroms)
 Number     Number       Type             X           Y           Z
 ---------------------------------------------------------------------
      1          6           0        0.000004    0.000011   -0.000018
      2          1           0        0.717253    0.816723    0.014861
      3          1           0       -0.412018   -0.138603    0.996262
      4          1           0        0.497349   -0.913279   -0.316649
      5          1           0       -0.802606    0.235092   -0.694367
 ---------------------------------------------------------------------
 Rotational constants (GHZ):         159.1533861         159.1458782         159.1245636
 1\1\GINC-N68\FOpt\UB2PLYPD3-FC\CC-pVTZ\C1H4\ROOT\01-Jun-2019\0\\# opt=
 maxcyc=500 freq=noraman uB2PLYPD3/cc-pvtz\\Title Card Required\\0,1\C,
 0.000004,-0.000011,0.000018\H,0.718548,-0.815541,-0.017058\H,-0.413224
 ,0.139758,-0.995601\H,0.496195,0.913498,0.317825\H,-0.801541,-0.237647
 ,0.694728\\Version=ES64L-G16RevB.01\State=1-A\HF=-40.4231196\MP2=-40.4
 871751\PUHF=-40.4231196\PMP2-0=-40.4871751\S2=0.\S2-1=0.\S2A=0.\RMSD=7
 .599e-09\RMSF=2.098e-04\Dipole=-0.0000305,0.0000094,-0.0000313\PG=C01 
 [X(C1H4)]\\@


 TO DRY ONE'S EYES AND LAUGH AT A FALL
 AND BAFFLED, GET UP AND BEGIN AGAIN.
           R. BROWNING
 Job cpu time:       0 days  0 hours  4 minutes  7.8 seconds.
 Elapsed time:       0 days  0 hours  0 minutes  8.4 seconds.
 File lengths (MBytes):  RWF=     10 Int=      0 D2E=      0 Chk=      2 Scr=      1
 Normal termination of Gaussian 16 at Sat Jun  1 01:28:06 2019.
 Link1:  Proceeding to internal job step number  2.
 ----------------------------------------------------------------------
 #N Geom=AllCheck Guess=TCheck SCRF=Check GenChk UB2PLYPD3(FC)/CC-pVTZ 
 Freq
 ----------------------------------------------------------------------
 1/6=500,10=4,29=7,30=1,38=1,40=1/1,3;
 2/12=2,40=1/2;
 3/5=16,6=1,11=2,14=-4,25=1,30=1,70=2,71=2,74=-60,116=2,140=1/1,2,3;
 4/5=101/1;
 5/5=2,38=6,98=1/2;
 8/6=3,8=1,10=1,19=11,30=-1/1;
 9/15=3,16=-3/6;
 11/6=1,8=1,15=11,17=12,24=-1,27=1,28=-2,29=300,32=6,42=3/1,2,10;
 10/6=2,21=1/2;
 8/6=4,8=1,10=1,19=11,30=-1/11,4;
 10/5=1,20=4/2;
 11/12=2,14=11,16=1,17=2,28=-2,42=3,76=2/2,10,12;
 6/7=2,8=2,9=2,10=2/1;
 7/8=1,10=1,12=2,25=1,44=2/1,2,3,16;
 1/6=500,10=4,30=1/3;
 99//99;
 Structure from the checkpoint file:  "/localscratch/339542/Gau-86422.chk"
 -------------------
 Title Card Required
 -------------------
 Charge =  0 Multiplicity = 1
 Redundant internal coordinates found in file.  (old form).
 C,0,0.000004,-0.000011,0.000018
 H,0,0.718548,-0.815541,-0.017058
 H,0,-0.413224,0.139758,-0.995601
 H,0,0.496195,0.913498,0.317825
 H,0,-0.801541,-0.237647,0.694728
 Recover connectivity data from disk.

 GradGradGradGradGradGradGradGradGradGradGradGradGradGradGradGradGradGrad
 Berny optimization.
 Initialization pass.
                           ----------------------------
                           !    Initial Parameters    !
                           ! (Angstroms and Degrees)  !
 --------------------------                            --------------------------
 ! Name  Definition              Value          Derivative Info.                !
 --------------------------------------------------------------------------------
 ! R1    R(1,2)                  1.0871         calculate D2E/DX2 analytically  !
 ! R2    R(1,3)                  1.087          calculate D2E/DX2 analytically  !
 ! R3    R(1,4)                  1.0871         calculate D2E/DX2 analytically  !
 ! R4    R(1,5)                  1.087          calculate D2E/DX2 analytically  !
 ! A1    A(2,1,3)              109.473          calculate D2E/DX2 analytically  !
 ! A2    A(2,1,4)              109.4706         calculate D2E/DX2 analytically  !
 ! A3    A(2,1,5)              109.4781         calculate D2E/DX2 analytically  !
 ! A4    A(3,1,4)              109.466          calculate D2E/DX2 analytically  !
 ! A5    A(3,1,5)              109.4613         calculate D2E/DX2 analytically  !
 ! A6    A(4,1,5)              109.4784         calculate D2E/DX2 analytically  !
 ! D1    D(2,1,4,3)            119.9986         calculate D2E/DX2 analytically  !
 ! D2    D(2,1,5,3)           -120.0003         calculate D2E/DX2 analytically  !
 ! D3    D(2,1,5,4)            120.0078         calculate D2E/DX2 analytically  !
 ! D4    D(3,1,5,4)           -119.9919         calculate D2E/DX2 analytically  !
 --------------------------------------------------------------------------------
 Trust Radius=3.00D-01 FncErr=1.00D-07 GrdErr=1.00D-07 EigMax=2.50D+02 EigMin=1.00D-04
 Number of steps in this run=      2 maximum allowed number of steps=      2.
 GradGradGradGradGradGradGradGradGradGradGradGradGradGradGradGradGradGrad

                          Input orientation:                          
 ---------------------------------------------------------------------
 Center     Atomic      Atomic             Coordinates (Angstroms)
 Number     Number       Type             X           Y           Z
 ---------------------------------------------------------------------
      1          6           0        0.000004   -0.000011    0.000018
      2          1           0        0.718548   -0.815541   -0.017058
      3          1           0       -0.413224    0.139758   -0.995601
      4          1           0        0.496195    0.913498    0.317825
      5          1           0       -0.801541   -0.237647    0.694728
 ---------------------------------------------------------------------
                    Distance matrix (angstroms):
                    1          2          3          4          5
     1  C    0.000000
     2  H    1.087054   0.000000
     3  H    1.086991   1.775120   0.000000
     4  H    1.087063   1.775152   1.775051   0.000000
     5  H    1.086999   1.775182   1.774947   1.775193   0.000000
 Stoichiometry    CH4
 Framework group  C1[X(CH4)]
 Deg. of freedom     9
 Full point group                 C1      NOp   1
 Largest Abelian subgroup         C1      NOp   1
 Largest concise Abelian subgroup C1      NOp   1
                         Standard orientation:                         
 ---------------------------------------------------------------------
 Center     Atomic      Atomic             Coordinates (Angstroms)
 Number     Number       Type             X           Y           Z
 ---------------------------------------------------------------------
      1          6           0        0.000004    0.000011   -0.000018
      2          1           0        0.717253    0.816723    0.014861
      3          1           0       -0.412018   -0.138603    0.996262
      4          1           0        0.497349   -0.913279   -0.316649
      5          1           0       -0.802606    0.235092   -0.694367
 ---------------------------------------------------------------------
 Rotational constants (GHZ):         159.1533861         159.1458782         159.1245636
 Standard basis: CC-pVTZ (5D, 7F)
 There are    95 symmetry adapted cartesian basis functions of A   symmetry.
 There are    86 symmetry adapted basis functions of A   symmetry.
    86 basis functions,   120 primitive gaussians,    95 cartesian basis functions
     5 alpha electrons        5 beta electrons
       nuclear repulsion energy        13.4721374960 Hartrees.
 NAtoms=    5 NActive=    5 NUniq=    5 SFac= 1.00D+00 NAtFMM=   60 NAOKFM=F Big=F
 Integral buffers will be    131072 words long.
 Raffenetti 2 integral format.
 Two-electron integral symmetry is turned on.
 Nuclear repulsion after empirical dispersion term =       13.4713463208 Hartrees.
 One-electron integrals computed using PRISM.
 NBasis=    86 RedAO= T EigKep=  2.10D-03  NBF=    86
 NBsUse=    86 1.00D-06 EigRej= -1.00D+00 NBFU=    86
 Initial guess from the checkpoint file:  "/localscratch/339542/Gau-86422.chk"
 B after Tr=    -0.000000   -0.000000    0.000000
         Rot=    1.000000    0.000000   -0.000000   -0.000000 Ang=   0.00 deg.
 Initial guess <Sx>= 0.0000 <Sy>= 0.0000 <Sz>= 0.0000 <S**2>=-0.0000 S=-0.0000
 Keep R1 and R2 ints in memory in canonical form, NReq=50734745.
 Requested convergence on RMS density matrix=1.00D-08 within 128 cycles.
 Requested convergence on MAX density matrix=1.00D-06.
 Requested convergence on             energy=1.00D-06.
 No special actions if energy rises.
 SCF Done:  E(UB2PLYPD3) =  -40.4231195591     A.U. after    1 cycles
            NFock=  1  Conv=0.84D-09     -V/T= 2.0051
 <Sx>= 0.0000 <Sy>= 0.0000 <Sz>= 0.0000 <S**2>=-0.0000 S=-0.0000
 <L.S>=  0.00000000000    
 Annihilation of the first spin contaminant:
 S**2 before annihilation    -0.0000,   after     0.0000
 DoSCS=T DFT=T ScalE2(SS,OS)=  0.270000  0.270000
 ExpMin= 1.03D-01 ExpMax= 8.24D+03 ExpMxC= 2.81D+02 IAcc=3 IRadAn=         5 AccDes= 0.00D+00
 HarFok:  IExCor=  205 AccDes= 0.00D+00 IRadAn=         5 IDoV=-2 UseB2=F ITyADJ=14
 ICtDFT= 12500011 ScaDFX=  1.000000  1.000000  1.000000  1.000000
 Range of M.O.s used for correlation:     2    86
 NBasis=    86 NAE=     5 NBE=     5 NFC=     1 NFV=     0
 NROrb=     85 NOA=     4 NOB=     4 NVA=    81 NVB=    81

 **** Warning!!: The largest alpha MO coefficient is  0.12803738D+02


 **** Warning!!: The largest beta MO coefficient is  0.12803738D+02

 DoSCS=T DFT=T ScalE2(SS,OS)=  0.270000  0.270000
 Disk-based method using ON**2 memory for  4 occupieds at a time.
 Permanent disk used for amplitudes=      228825 words.
 Estimated scratch disk usage=     6553072 words.
 Actual    scratch disk usage=     6553072 words.
 JobTyp=2 Pass  1:  I=   2 to   5 NPSUse= 40 ParTrn=T ParDer=T DoDerP=T.
 (rs|ai) integrals will be sorted in core.
 Actual    scratch disk usage=     6553072 words.
 JobTyp=3 Pass  1:  I=   2 to   5 NPSUse= 40 ParTrn=T ParDer=T DoDerP=T.
 (rs|ai) integrals will be sorted in core.
 Spin components of T(2) and E(2):
     alpha-alpha T2 =       0.9202188538D-02 E2=     -0.5991624331D-02
     alpha-beta  T2 =       0.7192817060D-01 E2=     -0.5207224482D-01
     beta-beta   T2 =       0.9202188538D-02 E2=     -0.5991624331D-02
 (S**2,0)=  0.00000D+00           (S**2,1)=  0.00000D+00
 E(PUHF)=      -0.40423119559D+02        E(PMP2)=      -0.40487175053D+02
 E2(B2PLYPD3) =    -0.6405549348D-01 E(B2PLYPD3) =    -0.40487175052603D+02
 G2DrvN: will do     6 centers at a time, making    1 passes.
 Calling FoFCou, ICntrl=  3107 FMM=F I1Cent=   0 AccDes= 0.00D+00.
 End of G2Drv F.D. properties file   721 does not exist.
 End of G2Drv F.D. properties file   722 does not exist.
 End of G2Drv F.D. properties file   788 does not exist.
          IDoAtm=11111
          Differentiating once with respect to electric field.
                with respect to dipole field.
          Differentiating once with respect to nuclear coordinates.
 Keep R1 and R2 ints in memory in canonical form, NReq=50599163.
          There are    18 degrees of freedom in the 1st order CPHF.  IDoFFX=6 NUNeed=    18.
     15 vectors produced by pass  0 Test12= 4.50D-15 5.56D-09 XBig12= 1.06D+01 1.06D+00.
 AX will form    15 AO Fock derivatives at one time.
     15 vectors produced by pass  1 Test12= 4.50D-15 5.56D-09 XBig12= 1.71D-01 1.02D-01.
     15 vectors produced by pass  2 Test12= 4.50D-15 5.56D-09 XBig12= 1.12D-03 1.06D-02.
     15 vectors produced by pass  3 Test12= 4.50D-15 5.56D-09 XBig12= 2.01D-06 4.17D-04.
     15 vectors produced by pass  4 Test12= 4.50D-15 5.56D-09 XBig12= 1.31D-09 8.11D-06.
     10 vectors produced by pass  5 Test12= 4.50D-15 5.56D-09 XBig12= 9.37D-13 2.92D-07.
      3 vectors produced by pass  6 Test12= 4.50D-15 5.56D-09 XBig12= 1.02D-15 9.05D-09.
 InvSVY:  IOpt=1 It=  1 EMax= 9.99D-16
 Solved reduced A of dimension    88 with    15 vectors.
 End of Minotr F.D. properties file   721 does not exist.
 End of Minotr F.D. properties file   722 does not exist.
 End of Minotr F.D. properties file   788 does not exist.
 MDV= 10737418240.
 DoSCS=T DFT=T ScalE2(SS,OS)=  0.270000  0.270000
 Form MO integral derivatives with frozen-active canonical formalism.
 Discarding MO integrals.
 Reordered first order wavefunction length =       949320
 In DefCFB: NBatch=  1 ICI=  5 ICA= 81 LFMax= 81
            Large arrays: LIAPS=    26470800 LIARS=    18852750 words.
 In DefCFB: NBatch=  1 ICI=  5 ICA= 81 LFMax= 81
            Large arrays: LIAPS=    26470800 LIARS=    18852750 words.
 Semi-Direct transformation.
 ModeAB=           2 MOrb=             5 LenV=   10737017551
 LASXX=      1512730 LTotXX=     1512730 LenRXX=     1512730
 LTotAB=     1571220 MaxLAS=     1960800 LenRXY=     1960800
 NonZer=     3025460 LenScr=     5293568 LnRSAI=           0
 LnScr1=           0 LExtra=           0 Total=      8767098
 MaxDsk=          -1 SrtSym=           F ITran=            4
 JobTyp=1 Pass  1:  I=   1 to   5.
 (rs|ai) integrals will be sorted in core.
 ModeAB=           2 MOrb=             5 LenV=   10737017551
 LASXX=      1512730 LTotXX=     1512730 LenRXX=     1960800
 LTotAB=     1394820 MaxLAS=     1960800 LenRXY=     1394820
 NonZer=     3025460 LenScr=     5293568 LnRSAI=           0
 LnScr1=           0 LExtra=           0 Total=      8649188
 MaxDsk=          -1 SrtSym=           F ITran=            4
 JobTyp=2 Pass  1:  I=   1 to   5.
 (rs|ai) integrals will be sorted in core.
 SymMOI:  orbitals are not symmetric.
 DoSCS=T DFT=T ScalE2(SS,OS)=  0.270000  0.270000
 Spin components of T(2) and E(2):
     alpha-alpha T2 =       0.9202188538D-02 E2=     -0.5991624331D-02
     alpha-beta  T2 =       0.7192817060D-01 E2=     -0.5207224482D-01
     beta-beta   T2 =       0.9202188538D-02 E2=     -0.5991624331D-02
 E2(B2PLYPD3) =    -0.6405549348D-01 E(B2PLYPD3) =    -0.40487175052603D+02
 (S**2,0)=  0.00000D+00           (S**2,1)=  0.00000D+00
 E(PUHF)=      -0.40423119559D+02        E(PMP2)=      -0.40487175053D+02
          IDoAtm=11111
          Differentiating once with respect to electric field.
                with respect to dipole field.
          Differentiating once with respect to nuclear coordinates.
 Keep R1 and R2 ints in memory in canonical form, NReq=50738119.
          There are     1 degrees of freedom in the 1st order CPHF.  IDoFFX=0 NUNeed=     1.
 LinEq1:  Iter=  0 NonCon=     1 RMS=6.43D-04 Max=4.35D-03 NDo=     1
 AX will form     1 AO Fock derivatives at one time.
 LinEq1:  Iter=  1 NonCon=     1 RMS=3.27D-04 Max=2.51D-03 NDo=     1
 LinEq1:  Iter=  2 NonCon=     1 RMS=4.03D-05 Max=2.95D-04 NDo=     1
 LinEq1:  Iter=  3 NonCon=     1 RMS=2.26D-06 Max=1.26D-05 NDo=     1
 LinEq1:  Iter=  4 NonCon=     1 RMS=1.31D-07 Max=7.26D-07 NDo=     1
 LinEq1:  Iter=  5 NonCon=     1 RMS=6.58D-09 Max=8.39D-08 NDo=     1
 LinEq1:  Iter=  6 NonCon=     1 RMS=4.51D-10 Max=4.14D-09 NDo=     1
 LinEq1:  Iter=  7 NonCon=     0 RMS=2.98D-11 Max=2.04D-10 NDo=     1
 Linear equations converged to 1.000D-10 1.000D-09 after     7 iterations.
 End of Minotr F.D. properties file   721 does not exist.
 End of Minotr F.D. properties file   722 does not exist.
 End of Minotr F.D. properties file   788 does not exist.
 Symmetrizing basis deriv contribution to polar:
 IMax=3 JMax=2 DiffMx= 0.00D+00
 G2DrvN: will do     6 centers at a time, making    1 passes.
 Calling FoFCou, ICntrl=  3107 FMM=F I1Cent=   0 AccDes= 0.00D+00.
 End of G2Drv F.D. properties file   721 does not exist.
 End of G2Drv F.D. properties file   722 does not exist.
 End of G2Drv F.D. properties file   788 does not exist.
 DoSCS=T DFT=T ScalE2(SS,OS)=  0.270000  0.270000
 R2 and R3 integrals will be kept in memory, NReq=    22738160.
 DD1Dir will call FoFMem   1 times, MxPair=        70
 NAB=    25 NAA=    10 NBB=    10.
 Discarding MO integrals.

 **********************************************************************

            Population analysis using the SCF Density.

 **********************************************************************

 Orbital symmetries:
 Alpha Orbitals:
       Occupied  (A) (A) (A) (A) (A)
       Virtual   (A) (A) (A) (A) (A) (A) (A) (A) (A) (A) (A) (A)
                 (A) (A) (A) (A) (A) (A) (A) (A) (A) (A) (A) (A)
                 (A) (A) (A) (A) (A) (A) (A) (A) (A) (A) (A) (A)
                 (A) (A) (A) (A) (A) (A) (A) (A) (A) (A) (A) (A)
                 (A) (A) (A) (A) (A) (A) (A) (A) (A) (A) (A) (A)
                 (A) (A) (A) (A) (A) (A) (A) (A) (A) (A) (A) (A)
                 (A) (A) (A) (A) (A) (A) (A) (A) (A)
 Beta  Orbitals:
       Occupied  (A) (A) (A) (A) (A)
       Virtual   (A) (A) (A) (A) (A) (A) (A) (A) (A) (A) (A) (A)
                 (A) (A) (A) (A) (A) (A) (A) (A) (A) (A) (A) (A)
                 (A) (A) (A) (A) (A) (A) (A) (A) (A) (A) (A) (A)
                 (A) (A) (A) (A) (A) (A) (A) (A) (A) (A) (A) (A)
                 (A) (A) (A) (A) (A) (A) (A) (A) (A) (A) (A) (A)
                 (A) (A) (A) (A) (A) (A) (A) (A) (A) (A) (A) (A)
                 (A) (A) (A) (A) (A) (A) (A) (A) (A)
 The electronic state is 1-A.
 Alpha  occ. eigenvalues --  -10.59355  -0.79970  -0.45772  -0.45770  -0.45768
 Alpha virt. eigenvalues --    0.08535   0.16630   0.16631   0.16631   0.28863
 Alpha virt. eigenvalues --    0.28864   0.28865   0.54053   0.54055   0.54056
 Alpha virt. eigenvalues --    0.54317   0.57946   0.57949   0.65435   0.96041
 Alpha virt. eigenvalues --    0.96044   0.96046   1.04034   1.04034   1.04036
 Alpha virt. eigenvalues --    1.20304   1.20312   1.20318   1.40482   1.40482
 Alpha virt. eigenvalues --    1.40487   1.47619   1.47622   1.64947   2.23797
 Alpha virt. eigenvalues --    2.23800   2.23802   2.38462   2.78812   2.78814
 Alpha virt. eigenvalues --    2.78818   2.94273   2.94278   2.95177   2.95179
 Alpha virt. eigenvalues --    2.95180   3.10814   3.10817   3.10819   3.43626
 Alpha virt. eigenvalues --    3.43634   3.43636   3.54356   3.54357   3.54369
 Alpha virt. eigenvalues --    3.62177   3.62183   3.68826   3.90259   3.90268
 Alpha virt. eigenvalues --    3.90275   3.92685   3.92691   4.20747   4.20760
 Alpha virt. eigenvalues --    4.20771   4.35553   4.35566   4.35568   4.60446
 Alpha virt. eigenvalues --    4.86339   4.86345   4.86349   5.27664   5.27668
 Alpha virt. eigenvalues --    5.27674   5.30756   5.30770   5.30802   5.35667
 Alpha virt. eigenvalues --    5.44324   5.44342   5.97809   5.97814   5.97829
 Alpha virt. eigenvalues --   14.07914
  Beta  occ. eigenvalues --  -10.59355  -0.79970  -0.45772  -0.45770  -0.45768
  Beta virt. eigenvalues --    0.08535   0.16630   0.16631   0.16631   0.28863
  Beta virt. eigenvalues --    0.28864   0.28865   0.54053   0.54055   0.54056
  Beta virt. eigenvalues --    0.54317   0.57946   0.57949   0.65435   0.96041
  Beta virt. eigenvalues --    0.96044   0.96046   1.04034   1.04034   1.04036
  Beta virt. eigenvalues --    1.20304   1.20312   1.20318   1.40482   1.40482
  Beta virt. eigenvalues --    1.40487   1.47619   1.47622   1.64947   2.23797
  Beta virt. eigenvalues --    2.23800   2.23802   2.38462   2.78812   2.78814
  Beta virt. eigenvalues --    2.78818   2.94273   2.94278   2.95177   2.95179
  Beta virt. eigenvalues --    2.95180   3.10814   3.10817   3.10819   3.43626
  Beta virt. eigenvalues --    3.43634   3.43636   3.54356   3.54357   3.54369
  Beta virt. eigenvalues --    3.62177   3.62183   3.68826   3.90259   3.90268
  Beta virt. eigenvalues --    3.90275   3.92685   3.92691   4.20747   4.20760
  Beta virt. eigenvalues --    4.20771   4.35553   4.35566   4.35568   4.60446
  Beta virt. eigenvalues --    4.86339   4.86345   4.86349   5.27664   5.27668
  Beta virt. eigenvalues --    5.27674   5.30756   5.30770   5.30802   5.35667
  Beta virt. eigenvalues --    5.44324   5.44342   5.97809   5.97814   5.97829
  Beta virt. eigenvalues --   14.07914
          Condensed to atoms (all electrons):
               1          2          3          4          5
     1  C    4.788937   0.402777   0.402776   0.402773   0.402782
     2  H    0.402777   0.580745  -0.027842  -0.027846  -0.027839
     3  H    0.402776  -0.027842   0.580756  -0.027850  -0.027860
     4  H    0.402773  -0.027846  -0.027850   0.580760  -0.027836
     5  H    0.402782  -0.027839  -0.027860  -0.027836   0.580730
          Atomic-Atomic Spin Densities.
               1          2          3          4          5
     1  C    0.000000  -0.000000  -0.000000  -0.000000   0.000000
     2  H   -0.000000  -0.000000   0.000000   0.000000  -0.000000
     3  H   -0.000000   0.000000   0.000000  -0.000000  -0.000000
     4  H   -0.000000   0.000000  -0.000000  -0.000000   0.000000
     5  H    0.000000  -0.000000  -0.000000   0.000000   0.000000
 Mulliken charges and spin densities:
               1          2
     1  C   -0.400046   0.000000
     2  H    0.100005  -0.000000
     3  H    0.100020  -0.000000
     4  H    0.099999  -0.000000
     5  H    0.100023   0.000000
 Sum of Mulliken charges =  -0.00000   0.00000
 Mulliken charges and spin densities with hydrogens summed into heavy atoms:
               1          2
     1  C   -0.000000   0.000000
 APT charges:
               1
     1  C    0.008156
     2  H   -0.002031
     3  H   -0.002054
     4  H   -0.002041
     5  H   -0.002030
 Sum of APT charges =  -0.00000
 APT charges with hydrogens summed into heavy atoms:
               1
     1  C   -0.000000
 Electronic spatial extent (au):  <R**2>=             35.7069
 Charge=             -0.0000 electrons
 Dipole moment (field-independent basis, Debye):
    X=             -0.0001    Y=             -0.0000    Z=              0.0001  Tot=              0.0001
 Quadrupole moment (field-independent basis, Debye-Ang):
   XX=             -8.4412   YY=             -8.4415   ZZ=             -8.4420
   XY=              0.0000   XZ=              0.0000   YZ=             -0.0000
 Traceless Quadrupole moment (field-independent basis, Debye-Ang):
   XX=              0.0004   YY=              0.0000   ZZ=             -0.0004
   XY=              0.0000   XZ=              0.0000   YZ=             -0.0000
 Octapole moment (field-independent basis, Debye-Ang**2):
  XXX=             -0.0669  YYY=             -0.1448  ZZZ=              0.4362  XYY=              0.5894
  XXY=              0.2258  XXZ=             -0.2444  XZZ=             -0.5228  YZZ=             -0.0810
  YYZ=             -0.1915  XYZ=              0.2386
 Hexadecapole moment (field-independent basis, Debye-Ang**3):
 XXXX=            -16.7111 YYYY=            -16.2459 ZZZZ=            -16.1401 XXXY=              0.0959
 XXXZ=              0.3181 YYYX=              0.0032 YYYZ=              0.2952 ZZZX=             -0.1920
 ZZZY=             -0.2322 XXYY=             -5.1580 XXZZ=             -5.2625 YYZZ=             -5.7280
 XXYZ=             -0.0632 YYXZ=             -0.1259 ZZXY=             -0.0991
 N-N= 1.347134632080D+01 E-N=-1.200943163785D+02  KE= 4.021673864015D+01
  Exact polarizability:  15.071  -0.000  15.071  -0.000   0.000  15.069
 Approx polarizability:  15.517  -0.000  15.517  -0.000   0.000  15.515
                          Isotropic Fermi Contact Couplings
        Atom                 a.u.       MegaHertz       Gauss      10(-4) cm-1
     1  C(13)              0.00000       0.00000       0.00000       0.00000
     2  H(1)              -0.00000      -0.00000      -0.00000      -0.00000
     3  H(1)               0.00000       0.00000       0.00000       0.00000
     4  H(1)              -0.00000      -0.00000      -0.00000      -0.00000
     5  H(1)               0.00000       0.00000       0.00000       0.00000
 --------------------------------------------------------
       Center         ----  Spin Dipole Couplings  ----
                      3XX-RR        3YY-RR        3ZZ-RR
 --------------------------------------------------------
     1   Atom        0.000000      0.000000      0.000000
     2   Atom        0.000000      0.000000      0.000000
     3   Atom        0.000000      0.000000      0.000000
     4   Atom        0.000000      0.000000      0.000000
     5   Atom        0.000000      0.000000      0.000000
 --------------------------------------------------------
                        XY            XZ            YZ
 --------------------------------------------------------
     1   Atom        0.000000      0.000000      0.000000
     2   Atom        0.000000      0.000000      0.000000
     3   Atom        0.000000      0.000000      0.000000
     4   Atom        0.000000      0.000000      0.000000
     5   Atom        0.000000      0.000000      0.000000
 --------------------------------------------------------


 ---------------------------------------------------------------------------------
              Anisotropic Spin Dipole Couplings in Principal Axis System
 ---------------------------------------------------------------------------------

       Atom             a.u.   MegaHertz   Gauss  10(-4) cm-1        Axes

              Baa     0.0000     0.000     0.000     0.000  1.0000  0.0000  0.0000
     1 C(13)  Bbb     0.0000     0.000     0.000     0.000 -0.0000  1.0000  0.0000
              Bcc     0.0000     0.000     0.000     0.000  0.0000  0.0000  1.0000
 
              Baa     0.0000     0.000     0.000     0.000  1.0000  0.0000  0.0000
     2 H(1)   Bbb     0.0000     0.000     0.000     0.000 -0.0000  1.0000  0.0000
              Bcc     0.0000     0.000     0.000     0.000  0.0000  0.0000  1.0000
 
              Baa     0.0000     0.000     0.000     0.000  1.0000  0.0000  0.0000
     3 H(1)   Bbb     0.0000     0.000     0.000     0.000 -0.0000  1.0000  0.0000
              Bcc     0.0000     0.000     0.000     0.000  0.0000  0.0000  1.0000
 
              Baa     0.0000     0.000     0.000     0.000  1.0000  0.0000  0.0000
     4 H(1)   Bbb     0.0000     0.000     0.000     0.000 -0.0000  1.0000  0.0000
              Bcc     0.0000     0.000     0.000     0.000  0.0000  0.0000  1.0000
 
              Baa     0.0000     0.000     0.000     0.000  1.0000  0.0000  0.0000
     5 H(1)   Bbb     0.0000     0.000     0.000     0.000 -0.0000  1.0000  0.0000
              Bcc     0.0000     0.000     0.000     0.000  0.0000  0.0000  1.0000
 

 ---------------------------------------------------------------------------------

 Calling FoFJK, ICntrl=  10100127 FMM=F ISym2X=0 I1Cent= 0 IOpClX= 1 NMat=1 NMatS=1 NMatT=0.
 Full mass-weighted force constant matrix:
 Low frequencies ---   -0.0007    0.0010    0.0010   70.8353   71.2718   73.3564
 Low frequencies --- 1354.0143 1354.0701 1354.1224
 Diagonal vibrational polarizability:
        0.2353524       0.2353571       0.2355668
 Harmonic frequencies (cm**-1), IR intensities (KM/Mole), Raman scattering
 activities (A**4/AMU), depolarization ratios for plane and unpolarized
 incident light, reduced masses (AMU), force constants (mDyne/A),
 and normal coordinates:
                      1                      2                      3
                      A                      A                      A
 Frequencies --   1354.0143              1354.0701              1354.1224
 Red. masses --      1.1798                 1.1798                 1.1798
 Frc consts  --      1.2744                 1.2745                 1.2746
 IR Inten    --     11.8727                11.8727                11.8679
  Atom  AN      X      Y      Z        X      Y      Z        X      Y      Z
     1   6     0.04  -0.08  -0.09     0.03   0.10  -0.07    -0.12   0.00  -0.05
     2   1    -0.31   0.23   0.43     0.19  -0.08   0.36     0.28  -0.32   0.22
     3   1     0.01   0.45  -0.00     0.05  -0.40  -0.11     0.56  -0.01   0.23
     4   1     0.11  -0.13   0.26    -0.26  -0.25   0.43     0.46   0.18   0.29
     5   1    -0.23   0.40   0.38    -0.33  -0.41   0.19     0.09   0.13  -0.19
                      4                      5                      6
                      A                      A                      A
 Frequencies --   1576.3831              1576.4282              3047.7745
 Red. masses --      1.0078                 1.0078                 1.0078
 Frc consts  --      1.4756                 1.4757                 5.5157
 IR Inten    --      0.0000                 0.0000                 0.0002
  Atom  AN      X      Y      Z        X      Y      Z        X      Y      Z
     1   6     0.00  -0.00  -0.00     0.00  -0.00  -0.00    -0.00   0.00   0.00
     2   1     0.01  -0.01   0.50    -0.38   0.33   0.01     0.33   0.38   0.01
     3   1     0.19   0.44   0.14     0.42  -0.22   0.14    -0.19  -0.06   0.46
     4   1    -0.23   0.03  -0.45    -0.38  -0.27   0.17     0.23  -0.42  -0.15
     5   1     0.03  -0.46  -0.19     0.34   0.16  -0.33    -0.37   0.11  -0.32
                      7                      8                      9
                      A                      A                      A
 Frequencies --   3159.5343              3159.8731              3160.0991
 Red. masses --      1.1010                 1.1010                 1.1009
 Frc consts  --      6.4754                 6.4768                 6.4777
 IR Inten    --     22.7046                22.6971                22.7032
  Atom  AN      X      Y      Z        X      Y      Z        X      Y      Z
     1   6     0.00  -0.09  -0.02    -0.09  -0.01   0.02    -0.02   0.02  -0.09
     2   1     0.42   0.46   0.00     0.38   0.45   0.01    -0.02  -0.01  -0.02
     3   1    -0.03  -0.03   0.07     0.17   0.06  -0.45    -0.28  -0.09   0.65
     4   1    -0.36   0.64   0.22     0.16  -0.34  -0.11     0.00  -0.00  -0.02
     5   1    -0.04  -0.01  -0.04     0.36  -0.11   0.33     0.52  -0.15   0.44

 -------------------
 - Thermochemistry -
 -------------------
 Temperature   298.150 Kelvin.  Pressure   1.00000 Atm.
 Atom     1 has atomic number  6 and mass  12.00000
 Atom     2 has atomic number  1 and mass   1.00783
 Atom     3 has atomic number  1 and mass   1.00783
 Atom     4 has atomic number  1 and mass   1.00783
 Atom     5 has atomic number  1 and mass   1.00783
 Molecular mass:    16.03130 amu.
 Principal axes and moments of inertia in atomic units:
                           1         2         3
     Eigenvalues --    11.33963  11.34017  11.34169
           X            1.00000  -0.00000   0.00000
           Y            0.00000   1.00000   0.00000
           Z           -0.00000  -0.00000   1.00000
 This molecule is an asymmetric top.
 Rotational symmetry number  1.
 Rotational temperatures (Kelvin)      7.63816     7.63780     7.63678
 Rotational constants (GHZ):         159.15339   159.14588   159.12456
 Zero-point vibrational energy     118085.2 (Joules/Mol)
                                   28.22303 (Kcal/Mol)
 Vibrational temperatures:   1948.12  1948.20  1948.28  2268.06  2268.13
          (Kelvin)           4385.07  4545.87  4546.35  4546.68
 
 Zero-point correction=                           0.044976 (Hartree/Particle)
 Thermal correction to Energy=                    0.047843
 Thermal correction to Enthalpy=                  0.048787
 Thermal correction to Gibbs Free Energy=         0.025323
 Sum of electronic and zero-point Energies=            -40.442199
 Sum of electronic and thermal Energies=               -40.439332
 Sum of electronic and thermal Enthalpies=             -40.438388
 Sum of electronic and thermal Free Energies=          -40.461852
 
                     E (Thermal)             CV                S
                      KCal/Mol        Cal/Mol-Kelvin    Cal/Mol-Kelvin
 Total                   30.022              6.447             49.385
 Electronic               0.000              0.000              0.000
 Translational            0.889              2.981             34.261
 Rotational               0.889              2.981             15.041
 Vibrational             28.244              0.486              0.082
                       Q            Log10(Q)             Ln(Q)
 Total Bot       0.225112D-11        -11.647601        -26.819593
 Total V=0       0.109655D+10          9.040027         20.815431
 Vib (Bot)       0.206394D-20        -20.685302        -47.629668
 Vib (V=0)       0.100537D+01          0.002326          0.005356
 Electronic      0.100000D+01          0.000000          0.000000
 Translational   0.252294D+07          6.401907         14.740936
 Rotational      0.432308D+03          2.635794          6.069139
 ***** Axes restored to original set *****
 -------------------------------------------------------------------
 Center     Atomic                   Forces (Hartrees/Bohr)
 Number     Number              X              Y              Z
 -------------------------------------------------------------------
      1        6           0.000032147    0.000015885   -0.000002699
      2        1          -0.000285379    0.000315181    0.000009410
      3        1           0.000153691   -0.000053072    0.000341057
      4        1          -0.000199686   -0.000362333   -0.000114359
      5        1           0.000299227    0.000084339   -0.000233410
 -------------------------------------------------------------------
 Cartesian Forces:  Max     0.000362333 RMS     0.000209807
 FormGI is forming the generalized inverse of G from B-inverse, IUseBI=4.

 GradGradGradGradGradGradGradGradGradGradGradGradGradGradGradGradGradGrad
 Berny optimization.
 Internal  Forces:  Max     0.000429065 RMS     0.000217004
 Search for a local minimum.
 Step number   1 out of a maximum of    2
 All quantities printed in internal units (Hartrees-Bohrs-Radians)
 Second derivative matrix not updated -- analytic derivatives used.
 The second derivative matrix:
                          R1        R2        R3        R4        A1
           R1           0.34797
           R2           0.00208   0.34809
           R3           0.00209   0.00209   0.34795
           R4           0.00208   0.00209   0.00208   0.34808
           A1           0.00198   0.00198  -0.00125  -0.00272   0.01971
           A2           0.00311  -0.00080   0.00346  -0.00577  -0.00876
           A3           0.00607  -0.00488  -0.00540   0.00420  -0.01307
           A4          -0.00080   0.00311   0.00346  -0.00577  -0.00876
           A5          -0.00488   0.00608  -0.00540   0.00420  -0.01307
           A6          -0.00549  -0.00549   0.00512   0.00586   0.02395
           D1           0.00384   0.00384   0.00271  -0.01040   0.01341
           D2          -0.00316  -0.00317   0.00814  -0.00181  -0.00814
           D3           0.00417  -0.00733   0.00407  -0.00090  -0.00406
           D4           0.00733  -0.00417  -0.00407   0.00090   0.00407
                          A2        A3        A4        A5        A6
           A2           0.03716
           A3          -0.02259   0.07258
           A4          -0.00210   0.02485   0.03715
           A5           0.02485  -0.03521  -0.02259   0.07257
           A6          -0.02856  -0.02656  -0.02855  -0.02655   0.08627
           D1           0.01073  -0.01461   0.01073  -0.01463  -0.00563
           D2           0.00934  -0.00687   0.00935  -0.00687   0.00318
           D3           0.01418   0.00052  -0.00483  -0.00740   0.00159
           D4           0.00483   0.00739  -0.01418  -0.00052  -0.00159
                          D1        D2        D3        D4
           D1           0.02957
           D2           0.00148   0.01838
           D3           0.00074   0.00919   0.01866
           D4          -0.00074  -0.00919   0.00947   0.01866
 ITU=  0
     Eigenvalues ---    0.03766   0.04242   0.06443   0.13124   0.13179
     Eigenvalues ---    0.34683   0.34692   0.34722   0.35428
 Angle between quadratic step and forces=   6.35 degrees.
 Linear search not attempted -- first point.
 Iteration  1 RMS(Cart)=  0.00061743 RMS(Int)=  0.00000005
 Iteration  2 RMS(Cart)=  0.00000004 RMS(Int)=  0.00000001
 Variable       Old X    -DE/DX   Delta X   Delta X   Delta X     New X
                                 (Linear)    (Quad)   (Total)
    R1        2.05423  -0.00043   0.00000  -0.00119  -0.00119   2.05304
    R2        2.05412  -0.00038   0.00000  -0.00108  -0.00108   2.05304
    R3        2.05425  -0.00043   0.00000  -0.00121  -0.00121   2.05304
    R4        2.05413  -0.00039   0.00000  -0.00109  -0.00109   2.05304
    A1        1.91066  -0.00001   0.00000  -0.00003  -0.00003   1.91063
    A2        1.91062   0.00001   0.00000   0.00001   0.00001   1.91063
    A3        1.91075  -0.00001   0.00000  -0.00012  -0.00012   1.91063
    A4        1.91054   0.00000   0.00000   0.00009   0.00009   1.91063
    A5        1.91046   0.00002   0.00000   0.00017   0.00017   1.91063
    A6        1.91076  -0.00002   0.00000  -0.00013  -0.00013   1.91063
    D1        2.09437   0.00000   0.00000   0.00003   0.00003   2.09440
    D2       -2.09440  -0.00000   0.00000   0.00001   0.00001  -2.09439
    D3        2.09453  -0.00001   0.00000  -0.00014  -0.00014   2.09439
    D4       -2.09425  -0.00001   0.00000  -0.00014  -0.00014  -2.09440
         Item               Value     Threshold  Converged?
 Maximum Force            0.000429     0.000450     YES
 RMS     Force            0.000217     0.000300     YES
 Maximum Displacement     0.001022     0.001800     YES
 RMS     Displacement     0.000617     0.001200     YES
 Predicted change in Energy=-9.335654D-07
 Optimization completed.
    -- Stationary point found.
                           ----------------------------
                           !   Optimized Parameters   !
                           ! (Angstroms and Degrees)  !
 --------------------------                            --------------------------
 ! Name  Definition              Value          Derivative Info.                !
 --------------------------------------------------------------------------------
 ! R1    R(1,2)                  1.0871         -DE/DX =   -0.0004              !
 ! R2    R(1,3)                  1.087          -DE/DX =   -0.0004              !
 ! R3    R(1,4)                  1.0871         -DE/DX =   -0.0004              !
 ! R4    R(1,5)                  1.087          -DE/DX =   -0.0004              !
 ! A1    A(2,1,3)              109.473          -DE/DX =    0.0                 !
 ! A2    A(2,1,4)              109.4706         -DE/DX =    0.0                 !
 ! A3    A(2,1,5)              109.4781         -DE/DX =    0.0                 !
 ! A4    A(3,1,4)              109.466          -DE/DX =    0.0                 !
 ! A5    A(3,1,5)              109.4613         -DE/DX =    0.0                 !
 ! A6    A(4,1,5)              109.4784         -DE/DX =    0.0                 !
 ! D1    D(2,1,4,3)            119.9986         -DE/DX =    0.0                 !
 ! D2    D(2,1,5,3)           -120.0003         -DE/DX =    0.0                 !
 ! D3    D(2,1,5,4)            120.0078         -DE/DX =    0.0                 !
 ! D4    D(3,1,5,4)           -119.9919         -DE/DX =    0.0                 !
 --------------------------------------------------------------------------------
 GradGradGradGradGradGradGradGradGradGradGradGradGradGradGradGradGradGrad


 ----------------------------------------------------------------------

 Electric dipole moment (input orientation):
 (Debye = 10**-18 statcoulomb cm , SI units = C m)
                  (au)            (Debye)         (10**-30 SI)
   Tot        0.437268D-04      0.111142D-03      0.370731D-03
   x         -0.305319D-04     -0.776044D-04     -0.258860D-03
   y          0.000000D+00      0.000000D+00      0.000000D+00
   z         -0.313023D-04     -0.795624D-04     -0.265392D-03

 Dipole polarizability, Alpha (input orientation).
 (esu units = cm**3 , SI units = C**2 m**2 J**-1)
 Alpha(0;0):
               (au)            (10**-24 esu)      (10**-40 SI)
   iso        0.150701D+02      0.223317D+01      0.248473D+01
   aniso      0.165914D-02      0.245858D-03      0.273554D-03
   xx         0.150707D+02      0.223325D+01      0.248483D+01
   yx         0.256496D-04      0.380088D-05      0.422905D-05
   yy         0.150706D+02      0.223324D+01      0.248481D+01
   zx         0.219044D-03      0.324589D-04      0.361154D-04
   zy         0.124089D-03      0.183880D-04      0.204595D-04
   zz         0.150691D+02      0.223301D+01      0.248456D+01

 ----------------------------------------------------------------------

 Dipole orientation:
     6         -0.00001949          0.00001244         -0.00003334
     1          0.87726895          1.39276801         -1.22904723
     1          0.73968177          0.20536590          1.90523920
     1          0.41680234         -1.88707863         -0.69652010
     1         -2.03363564          0.28886531          0.02052376

 Electric dipole moment (dipole orientation):
 (Debye = 10**-18 statcoulomb cm , SI units = C m)
                  (au)            (Debye)         (10**-30 SI)
   Tot        0.447313D-04      0.113696D-03      0.379248D-03
   x          0.000000D+00      0.000000D+00      0.000000D+00
   y          0.000000D+00      0.000000D+00      0.000000D+00
   z          0.447313D-04      0.113696D-03      0.379248D-03

 Dipole polarizability, Alpha (dipole orientation).
 (esu units = cm**3 , SI units = C**2 m**2 J**-1)
 Alpha(0;0):
               (au)            (10**-24 esu)      (10**-40 SI)
   iso        0.150701D+02      0.223317D+01      0.248473D+01
   aniso      0.165914D-02      0.245858D-03      0.273554D-03
   xx         0.150697D+02      0.223310D+01      0.248466D+01
   yx        -0.187665D-03     -0.278092D-04     -0.309419D-04
   yy         0.150706D+02      0.223324D+01      0.248481D+01
   zx        -0.821193D-03     -0.121688D-03     -0.135396D-03
   zy        -0.821565D-04     -0.121743D-04     -0.135458D-04
   zz         0.150701D+02      0.223316D+01      0.248472D+01

 ----------------------------------------------------------------------
 1\1\GINC-N68\Freq\UB2PLYPD3-FC\CC-pVTZ\C1H4\ROOT\01-Jun-2019\0\\#N Geo
 m=AllCheck Guess=TCheck SCRF=Check GenChk UB2PLYPD3(FC)/CC-pVTZ Freq\\
 Title Card Required\\0,1\C,0.000004,-0.000011,0.000018\H,0.718548,-0.8
 15541,-0.017058\H,-0.413224,0.139758,-0.995601\H,0.496195,0.913498,0.3
 17825\H,-0.801541,-0.237647,0.694728\\Version=ES64L-G16RevB.01\State=1
 -A\HF=-40.4231196\MP2=-40.4871751\PUHF=-40.4231196\PMP2-0=-40.4871751\
 S2=0.\S2-1=0.\S2A=0.\RMSD=8.420e-10\RMSF=2.098e-04\ZeroPoint=0.0449763
 \Thermal=0.0478429\Dipole=-0.0000305,0.0000094,-0.0000313\DipoleDeriv=
 0.008163,-0.0000044,-0.0000046,-0.0000068,0.008199,0.0000185,-0.000004
 4,0.0000169,0.0081072,-0.0227903,0.0993955,0.0020823,0.0993935,-0.0480
 503,-0.0023574,0.0020913,-0.0023675,0.0647472,0.0358053,0.0098018,-0.0
 698177,0.0098023,0.0614564,0.0236082,-0.0697954,0.0236009,-0.1034232,0
 .0230134,-0.0768807,-0.0267516,-0.0768866,-0.0767915,-0.0492763,-0.026
 7406,-0.0492526,0.0476552,-0.0441915,-0.0323122,0.0944915,-0.0323024,0
 .0551863,0.0280069,0.0944492,0.0280023,-0.0170863\Polar=15.0707285,0.0
 000256,15.070627,0.000219,0.0001241,15.06908\PG=C01 [X(C1H4)]\NImag=0\
 \0.55125580,-0.00000128,0.55112005,-0.00002774,-0.00004863,0.55122953,
 -0.16627369,0.13636145,0.00285750,0.17777478,0.13636373,-0.20089837,-0
 .00323710,-0.14988594,0.21583742,0.00285865,-0.00323873,-0.04619574,-0
 .00313782,0.00355887,0.04578773,-0.08586897,0.01345037,-0.09579483,-0.
 00829083,0.00078657,-0.02001384,0.08939992,0.01344967,-0.05065973,0.03
 240142,0.00780237,-0.00274380,0.02391626,-0.01477930,0.05070029,-0.095
 79207,0.03240128,-0.27691938,0.00141160,-0.00023660,0.00235719,0.10528
 590,-0.03561280,0.29939471,-0.10341601,-0.10546464,-0.03668963,0.01183
 003,0.01906872,0.00738233,-0.00648552,-0.00986320,-0.00204510,0.108685
 28,-0.10546725,-0.24029613,-0.06755491,-0.01239176,-0.01893696,-0.0066
 7704,0.00338599,0.00521166,0.00155645,0.11592548,0.25914243,-0.0366895
 0,-0.06755310,-0.06962935,0.00035852,0.00054924,-0.00157358,-0.0128011
 4,-0.02673500,-0.00740863,0.04033436,0.07425775,0.07155070,-0.19569713
 ,-0.04434590,0.12965470,-0.01504029,-0.00633309,0.01291068,0.01124541,
 0.00339047,-0.00886032,-0.01061378,-0.00145246,0.00879777,0.21010579,-
 0.04434487,-0.05926582,0.03843921,0.01811388,0.00674170,-0.01755936,-0
 .00284363,-0.00250842,0.00189167,-0.01966637,-0.00512101,0.01948111,0.
 04874098,0.06015355,0.12965067,0.03843918,-0.15848505,-0.00148980,-0.0
 0063442,-0.00037559,0.02332392,0.00603012,-0.01742388,-0.00898196,-0.0
 0158225,0.00706087,-0.14250284,-0.04225263,0.16922365\\-0.00003215,-0.
 00001588,0.00000270,0.00028538,-0.00031518,-0.00000941,-0.00015369,0.0
 0005307,-0.00034106,0.00019969,0.00036233,0.00011436,-0.00029923,-0.00
 008434,0.00023341\\\@


 WAR ES EIN GOTT DER DIESE ZEICHEN SCHRIEB?
          - LUDWIG BOLTZMANN, QUOTING GOETHE, ABOUT MAXWELL'S EQUATIONS.
 Job cpu time:       0 days  0 hours 21 minutes  2.8 seconds.
 Elapsed time:       0 days  0 hours  0 minutes 34.5 seconds.
 File lengths (MBytes):  RWF=    385 Int=      0 D2E=      0 Chk=      2 Scr=      1
 Normal termination of Gaussian 16 at Sat Jun  1 01:28:41 2019.
