 Entering Gaussian System, Link 0=g16
 Initial command:
 /ichec/packages/gaussian/16b01/l1.exe "/localscratch/339543/Gau-89641.inp" -scrdir="/localscratch/339543/"
 Entering Link 1 = /ichec/packages/gaussian/16b01/l1.exe PID=     89645.
  
 Copyright (c) 1988-2017, Gaussian, Inc.  All Rights Reserved.
  
 This is part of the Gaussian(R) 16 program.  It is based on
 the Gaussian(R) 09 system (copyright 2009, Gaussian, Inc.),
 the Gaussian(R) 03 system (copyright 2003, Gaussian, Inc.),
 the Gaussian(R) 98 system (copyright 1998, Gaussian, Inc.),
 the Gaussian(R) 94 system (copyright 1995, Gaussian, Inc.),
 the Gaussian 92(TM) system (copyright 1992, Gaussian, Inc.),
 the Gaussian 90(TM) system (copyright 1990, Gaussian, Inc.),
 the Gaussian 88(TM) system (copyright 1988, Gaussian, Inc.),
 the Gaussian 86(TM) system (copyright 1986, Carnegie Mellon
 University), and the Gaussian 82(TM) system (copyright 1983,
 Carnegie Mellon University). Gaussian is a federally registered
 trademark of Gaussian, Inc.
  
 This software contains proprietary and confidential information,
 including trade secrets, belonging to Gaussian, Inc.
  
 This software is provided under written license and may be
 used, copied, transmitted, or stored only in accord with that
 written license.
  
 The following legend is applicable only to US Government
 contracts under FAR:
  
                    RESTRICTED RIGHTS LEGEND
  
 Use, reproduction and disclosure by the US Government is
 subject to restrictions as set forth in subparagraphs (a)
 and (c) of the Commercial Computer Software - Restricted
 Rights clause in FAR 52.227-19.
  
 Gaussian, Inc.
 340 Quinnipiac St., Bldg. 40, Wallingford CT 06492
  
  
 ---------------------------------------------------------------
 Warning -- This program may not be used in any manner that
 competes with the business of Gaussian, Inc. or will provide
 assistance to any competitor of Gaussian, Inc.  The licensee
 of this program is prohibited from giving any competitor of
 Gaussian, Inc. access to this program.  By using this program,
 the user acknowledges that Gaussian, Inc. is engaged in the
 business of creating and licensing software in the field of
 computational chemistry and represents and warrants to the
 licensee that it is not a competitor of Gaussian, Inc. and that
 it will not use this program in any manner prohibited above.
 ---------------------------------------------------------------
  

 Cite this work as:
 Gaussian 16, Revision B.01,
 M. J. Frisch, G. W. Trucks, H. B. Schlegel, G. E. Scuseria, 
 M. A. Robb, J. R. Cheeseman, G. Scalmani, V. Barone, 
 G. A. Petersson, H. Nakatsuji, X. Li, M. Caricato, A. V. Marenich, 
 J. Bloino, B. G. Janesko, R. Gomperts, B. Mennucci, H. P. Hratchian, 
 J. V. Ortiz, A. F. Izmaylov, J. L. Sonnenberg, D. Williams-Young, 
 F. Ding, F. Lipparini, F. Egidi, J. Goings, B. Peng, A. Petrone, 
 T. Henderson, D. Ranasinghe, V. G. Zakrzewski, J. Gao, N. Rega, 
 G. Zheng, W. Liang, M. Hada, M. Ehara, K. Toyota, R. Fukuda, 
 J. Hasegawa, M. Ishida, T. Nakajima, Y. Honda, O. Kitao, H. Nakai, 
 T. Vreven, K. Throssell, J. A. Montgomery, Jr., J. E. Peralta, 
 F. Ogliaro, M. J. Bearpark, J. J. Heyd, E. N. Brothers, K. N. Kudin, 
 V. N. Staroverov, T. A. Keith, R. Kobayashi, J. Normand, 
 K. Raghavachari, A. P. Rendell, J. C. Burant, S. S. Iyengar, 
 J. Tomasi, M. Cossi, J. M. Millam, M. Klene, C. Adamo, R. Cammi, 
 J. W. Ochterski, R. L. Martin, K. Morokuma, O. Farkas, 
 J. B. Foresman, and D. J. Fox, Gaussian, Inc., Wallingford CT, 2016.
 
 ******************************************
 Gaussian 16:  ES64L-G16RevB.01 20-Dec-2017
                 1-Jun-2019 
 ******************************************
 %mem=80GB
 %nproc=40
 Will use up to   40 processors via shared memory.
 ----------------------------------------------------------------------
 # opt=(maxcyc=500,modredundant) uB2PLYPD3/cc-pvtz scf=maxcyc=500 nosym
 m
 ----------------------------------------------------------------------
 1/6=500,18=120,19=15,38=1/1,3;
 2/9=110,12=2,15=1,17=6,18=5,40=1/2;
 3/5=16,6=1,11=2,25=1,30=1,71=1,74=-60,116=2/1,2,3;
 4//1;
 5/5=2,7=500,38=5/2;
 8/6=4,10=1/1;
 9/15=2,16=-3/6;
 10/5=1,31=1/2;
 6/7=2,8=2,9=2,10=2/1;
 7/12=2,30=1/1,2,3,16;
 1/6=500,18=20,19=15/3(2);
 2/9=110,15=1/2;
 99//99;
 2/9=110,15=1/2;
 3/5=16,6=1,11=2,25=1,30=1,71=1,74=-60,116=2/1,2,3;
 4/5=5,16=3,69=1/1;
 5/5=2,7=500,38=5/2;
 8/6=4,10=1/1;
 9/15=2,16=-3/6;
 10/5=1,31=1/2;
 7/12=2,30=1/1,2,3,16;
 1/6=500,18=20,19=15/3(-8);
 2/9=110,15=1/2;
 6/7=2,8=2,9=2,10=2/1;
 99/9=10/99;
 -------------------
 Title Card Required
 -------------------
 Symbolic Z-matrix:
 Charge =  0 Multiplicity = 1
 C                    -3.38787   0.64054   0. 
 C                    -1.8738    0.64054   0. 
 H                    -1.51964   1.17508  -0.92733 
 H                    -3.77642   1.68719   0. 
 H                    -3.77644   0.11633  -0.90591 
 H                    -3.77977   0.11817   0.90579 
 C                    -1.34066  -0.77609  -0.03455 
 C                    -1.34103   1.38093   1.20842 
 H                    -0.22452  -0.77076  -0.06054 
 H                    -1.67033  -1.341     0.87051 
 H                    -1.71536  -1.31043  -0.94039 
 H                    -1.67134   0.8815    2.15099 
 H                    -0.22489   1.40041   1.19125 
 H                    -1.71556   2.43267   1.21597 
 
 The following ModRedundant input section has been read:
 D    *          1       2    *    R                                           
 D       4       1       2       3 S  36 10.000                                
 

 GradGradGradGradGradGradGradGradGradGradGradGradGradGradGradGradGradGrad
 Berny optimization.
 Initialization pass.
                           ----------------------------
                           !    Initial Parameters    !
                           ! (Angstroms and Degrees)  !
 --------------------------                            --------------------------
 ! Name  Definition              Value          Derivative Info.                !
 --------------------------------------------------------------------------------
 ! R1    R(1,2)                  1.5141         estimate D2E/DX2                !
 ! R2    R(1,4)                  1.1164         estimate D2E/DX2                !
 ! R3    R(1,5)                  1.1164         estimate D2E/DX2                !
 ! R4    R(1,6)                  1.1166         estimate D2E/DX2                !
 ! R5    R(2,3)                  1.1274         estimate D2E/DX2                !
 ! R6    R(2,7)                  1.514          estimate D2E/DX2                !
 ! R7    R(2,8)                  1.514          estimate D2E/DX2                !
 ! R8    R(7,9)                  1.1165         estimate D2E/DX2                !
 ! R9    R(7,10)                 1.1167         estimate D2E/DX2                !
 ! R10   R(7,11)                 1.1165         estimate D2E/DX2                !
 ! R11   R(8,12)                 1.1167         estimate D2E/DX2                !
 ! R12   R(8,13)                 1.1164         estimate D2E/DX2                !
 ! R13   R(8,14)                 1.1165         estimate D2E/DX2                !
 ! A1    A(2,1,4)              110.3664         estimate D2E/DX2                !
 ! A2    A(2,1,5)              110.3674         estimate D2E/DX2                !
 ! A3    A(2,1,6)              110.5459         estimate D2E/DX2                !
 ! A4    A(4,1,5)              108.6055         estimate D2E/DX2                !
 ! A5    A(4,1,6)              108.446          estimate D2E/DX2                !
 ! A6    A(5,1,6)              108.4462         estimate D2E/DX2                !
 ! A7    A(1,2,3)              108.3085         estimate D2E/DX2                !
 ! A8    A(1,2,7)              110.6182         estimate D2E/DX2                !
 ! A9    A(1,2,8)              110.6028         estimate D2E/DX2                !
 ! A10   A(3,2,7)              108.3146         estimate D2E/DX2                !
 ! A11   A(3,2,8)              108.3057         estimate D2E/DX2                !
 ! A12   A(7,2,8)              110.6013         estimate D2E/DX2                !
 ! A13   A(2,7,9)              110.3714         estimate D2E/DX2                !
 ! A14   A(2,7,10)             110.5421         estimate D2E/DX2                !
 ! A15   A(2,7,11)             110.3742         estimate D2E/DX2                !
 ! A16   A(9,7,10)             108.4467         estimate D2E/DX2                !
 ! A17   A(9,7,11)             108.5976         estimate D2E/DX2                !
 ! A18   A(10,7,11)            108.4451         estimate D2E/DX2                !
 ! A19   A(2,8,12)             110.5421         estimate D2E/DX2                !
 ! A20   A(2,8,13)             110.3677         estimate D2E/DX2                !
 ! A21   A(2,8,14)             110.3667         estimate D2E/DX2                !
 ! A22   A(12,8,13)            108.4512         estimate D2E/DX2                !
 ! A23   A(12,8,14)            108.4449         estimate D2E/DX2                !
 ! A24   A(13,8,14)            108.6049         estimate D2E/DX2                !
 ! D1    D(4,1,2,3)            -60.0395         Scan                            !
 ! D2    D(1,2,7,9)            178.5705         estimate D2E/DX2                !
 ! D3    D(1,2,7,10)           -61.456          estimate D2E/DX2                !
 ! D4    D(1,2,7,11)            58.5172         estimate D2E/DX2                !
 ! D5    D(3,2,7,9)             60.0107         estimate D2E/DX2                !
 ! D6    D(3,2,7,10)           179.9842         estimate D2E/DX2                !
 ! D7    D(3,2,7,11)           -60.0426         estimate D2E/DX2                !
 ! D8    D(8,2,7,9)            -58.5358         estimate D2E/DX2                !
 ! D9    D(8,2,7,10)            61.4376         estimate D2E/DX2                !
 ! D10   D(8,2,7,11)          -178.5891         estimate D2E/DX2                !
 ! D11   D(1,2,8,12)            61.4235         estimate D2E/DX2                !
 ! D12   D(1,2,8,13)          -178.5999         estimate D2E/DX2                !
 ! D13   D(1,2,8,14)           -58.5446         estimate D2E/DX2                !
 ! D14   D(3,2,8,12)           179.9689         estimate D2E/DX2                !
 ! D15   D(3,2,8,13)           -60.0544         estimate D2E/DX2                !
 ! D16   D(3,2,8,14)            60.0009         estimate D2E/DX2                !
 ! D17   D(7,2,8,12)           -61.4791         estimate D2E/DX2                !
 ! D18   D(7,2,8,13)            58.4975         estimate D2E/DX2                !
 ! D19   D(7,2,8,14)           178.5528         estimate D2E/DX2                !
 --------------------------------------------------------------------------------
 Trust Radius=3.00D-01 FncErr=1.00D-07 GrdErr=1.00D-07 EigMax=2.50D+02 EigMin=1.00D-04
 Number of optimizations in scan=  37
 Number of steps in this run=    100 maximum allowed number of steps=    100.
 GradGradGradGradGradGradGradGradGradGradGradGradGradGradGradGradGradGrad

                          Input orientation:                          
 ---------------------------------------------------------------------
 Center     Atomic      Atomic             Coordinates (Angstroms)
 Number     Number       Type             X           Y           Z
 ---------------------------------------------------------------------
      1          6           0       -3.387873    0.640535    0.000000
      2          6           0       -1.873805    0.640535    0.000000
      3          1           0       -1.519640    1.175076   -0.927328
      4          1           0       -3.776423    1.687190    0.000000
      5          1           0       -3.776439    0.116334   -0.905912
      6          1           0       -3.779769    0.118173    0.905788
      7          6           0       -1.340659   -0.776092   -0.034548
      8          6           0       -1.341033    1.380934    1.208422
      9          1           0       -0.224518   -0.770764   -0.060536
     10          1           0       -1.670326   -1.341005    0.870507
     11          1           0       -1.715358   -1.310435   -0.940387
     12          1           0       -1.671339    0.881498    2.150986
     13          1           0       -0.224887    1.400405    1.191249
     14          1           0       -1.715556    2.432672    1.215971
 ---------------------------------------------------------------------
                    Distance matrix (angstroms):
                    1          2          3          4          5
     1  C    0.000000
     2  C    1.514068   0.000000
     3  H    2.153129   1.127433   0.000000
     4  H    1.116449   2.171507   2.493044   0.000000
     5  H    1.116444   2.171515   2.492897   1.813357   0.000000
     6  H    1.116645   2.173939   3.096053   1.811706   1.811704
     7  C    2.489801   1.514025   2.153171   3.464376   2.736553
     8  C    2.489584   1.514041   2.153069   2.735910   3.464221
     9  H    3.464426   2.171538   2.492983   4.319865   3.757359
    10  H    2.763015   2.173865   3.096059   3.789907   3.116924
    11  H    2.736406   2.171570   2.493239   3.757402   2.506973
    12  H    2.762479   2.173890   3.096000   3.115647   3.789663
    13  H    3.464240   2.171499   2.493096   3.756957   4.319774
    14  H    2.736235   2.171493   2.492722   2.506292   3.757000
                    6          7          8          9         10
     6  H    0.000000
     7  C    2.762825   0.000000
     8  C    2.762894   2.489525   0.000000
     9  H    3.789961   1.116456   2.736177   0.000000
    10  H    2.565189   1.116661   2.762530   1.811733   0.000000
    11  H    3.116260   1.116452   3.464241   1.813281   1.811712
    12  H    2.564890   2.762881   1.116676   3.116744   2.564985
    13  H    3.789828   2.735812   1.116448   2.506180   3.115686
    14  H    3.116744   3.464176   1.116457   3.756949   3.789727
                   11         12         13         14
    11  H    0.000000
    12  H    3.789867   0.000000
    13  H    3.756864   1.811790   0.000000
    14  H    4.319807   1.811725   1.813362   0.000000
 Symmetry turned off by external request.
 Stoichiometry    C4H10
 Framework group  C1[X(C4H10)]
 Deg. of freedom    36
 Full point group                 C1      NOp   1
 Rotational constants (GHZ):           7.8994903           7.8977836           4.6169078
 Standard basis: CC-pVTZ (5D, 7F)
   260 basis functions,   378 primitive gaussians,   290 cartesian basis functions
    17 alpha electrons       17 beta electrons
       nuclear repulsion energy       134.7835894216 Hartrees.
 NAtoms=   14 NActive=   14 NUniq=   14 SFac= 1.00D+00 NAtFMM=   60 NAOKFM=F Big=F
 Integral buffers will be    131072 words long.
 Raffenetti 2 integral format.
 Two-electron integral symmetry is turned off.
 Nuclear repulsion after empirical dispersion term =      134.7767079363 Hartrees.
 One-electron integrals computed using PRISM.
 NBasis=   260 RedAO= T EigKep=  7.91D-04  NBF=   260
 NBsUse=   260 1.00D-06 EigRej= -1.00D+00 NBFU=   260
 ExpMin= 1.03D-01 ExpMax= 8.24D+03 ExpMxC= 2.81D+02 IAcc=3 IRadAn=         5 AccDes= 0.00D+00
 Harris functional with IExCor=  419 and IRadAn=       5 diagonalized for initial guess.
 HarFok:  IExCor=  419 AccDes= 0.00D+00 IRadAn=         5 IDoV= 1 UseB2=F ITyADJ=14
 ICtDFT=  3500011 ScaDFX=  1.000000  1.000000  1.000000  1.000000
 FoFCou: FMM=F IPFlag=           0 FMFlag=      100000 FMFlg1=           0
         NFxFlg=           0 DoJE=T BraDBF=F KetDBF=T FulRan=T
         wScrn=  0.000000 ICntrl=       500 IOpCl=  0 I1Cent=   200000004 NGrid=           0
         NMat0=    1 NMatS0=      1 NMatT0=    0 NMatD0=    1 NMtDS0=    0 NMtDT0=    0
 Symmetry not used in FoFCou.
 Initial guess <Sx>= 0.0000 <Sy>= 0.0000 <Sz>= 0.0000 <S**2>=-0.0000 S=-0.0000
 Requested convergence on RMS density matrix=1.00D-08 within 500 cycles.
 Requested convergence on MAX density matrix=1.00D-06.
 Requested convergence on             energy=1.00D-06.
 No special actions if energy rises.
 Integral accuracy reduced to 1.0D-05 until final iterations.
 Initial convergence to 1.0D-05 achieved.  Increase integral accuracy.
 SCF Done:  E(UB2PLYPD3) =  -158.116003997     A.U. after   11 cycles
            NFock= 11  Conv=0.31D-08     -V/T= 2.0065
 <Sx>= 0.0000 <Sy>= 0.0000 <Sz>= 0.0000 <S**2>=-0.0000 S=-0.0000
 <L.S>=  0.00000000000    
 Annihilation of the first spin contaminant:
 S**2 before annihilation    -0.0000,   after     0.0000
 DoSCS=T DFT=T ScalE2(SS,OS)=  0.270000  0.270000
 ExpMin= 1.03D-01 ExpMax= 8.24D+03 ExpMxC= 2.81D+02 IAcc=3 IRadAn=         5 AccDes= 0.00D+00
 HarFok:  IExCor=  205 AccDes= 0.00D+00 IRadAn=         5 IDoV=-2 UseB2=F ITyADJ=14
 ICtDFT= 12500011 ScaDFX=  1.000000  1.000000  1.000000  1.000000
 Range of M.O.s used for correlation:     5   260
 NBasis=   260 NAE=    17 NBE=    17 NFC=     4 NFV=     0
 NROrb=    256 NOA=    13 NOB=    13 NVA=   243 NVB=   243

 **** Warning!!: The largest alpha MO coefficient is  0.15785198D+02


 **** Warning!!: The largest beta MO coefficient is  0.15785198D+02

 DoSCS=T DFT=T ScalE2(SS,OS)=  0.270000  0.270000
 Fully direct method using O(ONN) memory.
 JobTyp=2 Pass  1:  I=   5 to  17 NPSUse= 40 ParTrn=T ParDer=T DoDerP=T.
 JobTyp=3 Pass  1:  I=   5 to  17 NPSUse= 40 ParTrn=T ParDer=T DoDerP=T.
 Spin components of T(2) and E(2):
     alpha-alpha T2 =       0.4020169590D-01 E2=     -0.2565501879D-01
     alpha-beta  T2 =       0.2613162945D+00 E2=     -0.1839205984D+00
     beta-beta   T2 =       0.4020169590D-01 E2=     -0.2565501879D-01
 (S**2,0)=  0.00000D+00           (S**2,1)=  0.00000D+00
 E(PUHF)=      -0.15811600400D+03        E(PMP2)=      -0.15835123463D+03
 E2(B2PLYPD3) =    -0.2352306360D+00 E(B2PLYPD3) =    -0.15835123463268D+03
          IDoAtm=11111111111111
          Differentiating once with respect to electric field.
                with respect to dipole field.
          Differentiating once with respect to nuclear coordinates.
 Keep R1 and R2 ints in memory in canonical form, NReq=1196156648.
          There are     1 degrees of freedom in the 1st order CPHF.  IDoFFX=0 NUNeed=     1.
 LinEq1:  Iter=  0 NonCon=     1 RMS=4.62D-04 Max=7.63D-03 NDo=     1
 AX will form     1 AO Fock derivatives at one time.
 LinEq1:  Iter=  1 NonCon=     1 RMS=2.08D-04 Max=3.17D-03 NDo=     1
 LinEq1:  Iter=  2 NonCon=     1 RMS=4.10D-05 Max=5.78D-04 NDo=     1
 LinEq1:  Iter=  3 NonCon=     1 RMS=1.47D-05 Max=1.74D-04 NDo=     1
 LinEq1:  Iter=  4 NonCon=     1 RMS=3.56D-06 Max=5.69D-05 NDo=     1
 LinEq1:  Iter=  5 NonCon=     1 RMS=1.07D-06 Max=1.58D-05 NDo=     1
 LinEq1:  Iter=  6 NonCon=     1 RMS=2.35D-07 Max=3.15D-06 NDo=     1
 LinEq1:  Iter=  7 NonCon=     1 RMS=3.48D-08 Max=5.65D-07 NDo=     1
 LinEq1:  Iter=  8 NonCon=     1 RMS=3.45D-09 Max=8.32D-08 NDo=     1
 LinEq1:  Iter=  9 NonCon=     1 RMS=3.45D-10 Max=1.02D-08 NDo=     1
 LinEq1:  Iter= 10 NonCon=     0 RMS=7.35D-11 Max=8.02D-10 NDo=     1
 Linear equations converged to 1.000D-10 1.000D-09 after    10 iterations.
 End of Minotr F.D. properties file   721 does not exist.
 End of Minotr F.D. properties file   722 does not exist.
 End of Minotr F.D. properties file   788 does not exist.

 **********************************************************************

            Population analysis using the SCF Density.

 **********************************************************************

 Alpha  occ. eigenvalues --  -10.61462 -10.60396 -10.60396 -10.60394  -0.92332
 Alpha  occ. eigenvalues --   -0.77880  -0.77878  -0.63701  -0.53385  -0.49690
 Alpha  occ. eigenvalues --   -0.49688  -0.44263  -0.44262  -0.41827  -0.38302
 Alpha  occ. eigenvalues --   -0.38298  -0.37728
 Alpha virt. eigenvalues --    0.07327   0.11219   0.12068   0.12068   0.14664
 Alpha virt. eigenvalues --    0.14665   0.14971   0.19231   0.19233   0.20907
 Alpha virt. eigenvalues --    0.21022   0.24521   0.24522   0.29957   0.29958
 Alpha virt. eigenvalues --    0.35754   0.36080   0.36084   0.38910   0.41486
 Alpha virt. eigenvalues --    0.41490   0.47307   0.49351   0.49352   0.49622
 Alpha virt. eigenvalues --    0.51967   0.52557   0.52559   0.53987   0.55211
 Alpha virt. eigenvalues --    0.55212   0.55603   0.57137   0.58783   0.58784
 Alpha virt. eigenvalues --    0.68833   0.68836   0.68954   0.78168   0.78174
 Alpha virt. eigenvalues --    0.82952   0.85409   0.85412   0.87972   0.92148
 Alpha virt. eigenvalues --    0.97467   0.97470   0.98487   0.98489   1.04069
 Alpha virt. eigenvalues --    1.04774   1.04776   1.09825   1.09825   1.10845
 Alpha virt. eigenvalues --    1.11218   1.16764   1.19936   1.20955   1.20960
 Alpha virt. eigenvalues --    1.23233   1.23236   1.27194   1.30294   1.30296
 Alpha virt. eigenvalues --    1.32932   1.32935   1.35933   1.36050   1.38338
 Alpha virt. eigenvalues --    1.38342   1.38691   1.38693   1.46434   1.46437
 Alpha virt. eigenvalues --    1.46637   1.49344   1.49348   1.51225   1.53958
 Alpha virt. eigenvalues --    1.58145   1.58149   1.58385   1.62809   1.64827
 Alpha virt. eigenvalues --    1.64828   1.72306   1.77114   1.77117   2.34935
 Alpha virt. eigenvalues --    2.34945   2.42323   2.43458   2.44264   2.44271
 Alpha virt. eigenvalues --    2.50515   2.50520   2.61587   2.65350   2.65352
 Alpha virt. eigenvalues --    2.69016   2.69019   2.70724   2.74345   2.75134
 Alpha virt. eigenvalues --    2.75167   2.75169   2.83249   2.84313   2.84316
 Alpha virt. eigenvalues --    2.90346   2.90353   2.91695   2.92033   2.92037
 Alpha virt. eigenvalues --    2.92954   2.98160   3.00943   3.00946   3.09112
 Alpha virt. eigenvalues --    3.11285   3.11287   3.12608   3.17632   3.17635
 Alpha virt. eigenvalues --    3.18956   3.20454   3.20457   3.23095   3.23099
 Alpha virt. eigenvalues --    3.23187   3.25692   3.27463   3.27467   3.29176
 Alpha virt. eigenvalues --    3.38297   3.38301   3.43769   3.43771   3.46350
 Alpha virt. eigenvalues --    3.46869   3.49485   3.49491   3.51096   3.54566
 Alpha virt. eigenvalues --    3.54569   3.58565   3.58565   3.59375   3.64182
 Alpha virt. eigenvalues --    3.64183   3.65270   3.68407   3.71052   3.75647
 Alpha virt. eigenvalues --    3.75655   3.77440   3.82616   3.82618   3.89859
 Alpha virt. eigenvalues --    3.89863   3.92031   3.92318   3.95616   3.95619
 Alpha virt. eigenvalues --    3.97108   3.97112   4.06547   4.06553   4.08792
 Alpha virt. eigenvalues --    4.09125   4.09471   4.09477   4.13477   4.14539
 Alpha virt. eigenvalues --    4.14544   4.21226   4.21229   4.24241   4.24245
 Alpha virt. eigenvalues --    4.27050   4.27053   4.27059   4.28655   4.29642
 Alpha virt. eigenvalues --    4.34335   4.34337   4.40395   4.40782   4.42432
 Alpha virt. eigenvalues --    4.42436   4.48628   4.48983   4.48987   4.57274
 Alpha virt. eigenvalues --    4.57281   4.67349   4.67350   4.74208   4.77280
 Alpha virt. eigenvalues --    4.84203   4.84210   4.87286   4.87291   4.93010
 Alpha virt. eigenvalues --    4.94747   4.97642   4.97644   5.01544   5.08429
 Alpha virt. eigenvalues --    5.08435   5.24558   5.24563   5.25353   5.26333
 Alpha virt. eigenvalues --    5.26336   5.26337   5.32715   5.39544   5.39548
 Alpha virt. eigenvalues --    5.40539   5.42655   5.42662   5.45037   5.45042
 Alpha virt. eigenvalues --    5.45718   5.56359   5.56547   5.56551   5.57952
 Alpha virt. eigenvalues --    5.68523   5.68526   5.93787   6.02262   6.02552
 Alpha virt. eigenvalues --    6.02558   6.05490   6.05493   6.10932  11.35370
 Alpha virt. eigenvalues --   13.50381  13.50390  13.56461
  Beta  occ. eigenvalues --  -10.61462 -10.60396 -10.60396 -10.60394  -0.92332
  Beta  occ. eigenvalues --   -0.77880  -0.77878  -0.63701  -0.53385  -0.49690
  Beta  occ. eigenvalues --   -0.49688  -0.44263  -0.44262  -0.41827  -0.38302
  Beta  occ. eigenvalues --   -0.38298  -0.37728
  Beta virt. eigenvalues --    0.07327   0.11219   0.12068   0.12068   0.14664
  Beta virt. eigenvalues --    0.14665   0.14971   0.19231   0.19233   0.20907
  Beta virt. eigenvalues --    0.21022   0.24521   0.24522   0.29957   0.29958
  Beta virt. eigenvalues --    0.35754   0.36080   0.36084   0.38910   0.41486
  Beta virt. eigenvalues --    0.41490   0.47307   0.49351   0.49352   0.49622
  Beta virt. eigenvalues --    0.51967   0.52557   0.52559   0.53987   0.55211
  Beta virt. eigenvalues --    0.55212   0.55603   0.57137   0.58783   0.58784
  Beta virt. eigenvalues --    0.68833   0.68836   0.68954   0.78168   0.78174
  Beta virt. eigenvalues --    0.82952   0.85409   0.85412   0.87972   0.92148
  Beta virt. eigenvalues --    0.97467   0.97470   0.98487   0.98489   1.04069
  Beta virt. eigenvalues --    1.04774   1.04776   1.09825   1.09825   1.10845
  Beta virt. eigenvalues --    1.11218   1.16764   1.19936   1.20955   1.20960
  Beta virt. eigenvalues --    1.23233   1.23236   1.27194   1.30294   1.30296
  Beta virt. eigenvalues --    1.32932   1.32935   1.35933   1.36050   1.38338
  Beta virt. eigenvalues --    1.38342   1.38691   1.38693   1.46434   1.46437
  Beta virt. eigenvalues --    1.46637   1.49344   1.49348   1.51225   1.53958
  Beta virt. eigenvalues --    1.58145   1.58149   1.58385   1.62809   1.64827
  Beta virt. eigenvalues --    1.64828   1.72306   1.77114   1.77117   2.34935
  Beta virt. eigenvalues --    2.34945   2.42323   2.43458   2.44264   2.44271
  Beta virt. eigenvalues --    2.50515   2.50520   2.61587   2.65350   2.65352
  Beta virt. eigenvalues --    2.69016   2.69019   2.70724   2.74345   2.75134
  Beta virt. eigenvalues --    2.75167   2.75169   2.83249   2.84313   2.84316
  Beta virt. eigenvalues --    2.90346   2.90353   2.91695   2.92033   2.92037
  Beta virt. eigenvalues --    2.92954   2.98160   3.00943   3.00946   3.09112
  Beta virt. eigenvalues --    3.11285   3.11287   3.12608   3.17632   3.17635
  Beta virt. eigenvalues --    3.18956   3.20454   3.20457   3.23095   3.23099
  Beta virt. eigenvalues --    3.23187   3.25692   3.27463   3.27467   3.29176
  Beta virt. eigenvalues --    3.38297   3.38301   3.43769   3.43771   3.46350
  Beta virt. eigenvalues --    3.46869   3.49485   3.49491   3.51096   3.54566
  Beta virt. eigenvalues --    3.54569   3.58565   3.58565   3.59375   3.64182
  Beta virt. eigenvalues --    3.64183   3.65270   3.68407   3.71052   3.75647
  Beta virt. eigenvalues --    3.75655   3.77440   3.82616   3.82618   3.89859
  Beta virt. eigenvalues --    3.89863   3.92031   3.92318   3.95616   3.95619
  Beta virt. eigenvalues --    3.97108   3.97112   4.06547   4.06553   4.08792
  Beta virt. eigenvalues --    4.09125   4.09471   4.09477   4.13477   4.14539
  Beta virt. eigenvalues --    4.14544   4.21226   4.21229   4.24241   4.24245
  Beta virt. eigenvalues --    4.27050   4.27053   4.27059   4.28655   4.29642
  Beta virt. eigenvalues --    4.34335   4.34337   4.40395   4.40782   4.42432
  Beta virt. eigenvalues --    4.42436   4.48628   4.48983   4.48987   4.57274
  Beta virt. eigenvalues --    4.57281   4.67349   4.67350   4.74208   4.77280
  Beta virt. eigenvalues --    4.84203   4.84210   4.87286   4.87291   4.93010
  Beta virt. eigenvalues --    4.94747   4.97642   4.97644   5.01544   5.08429
  Beta virt. eigenvalues --    5.08435   5.24558   5.24563   5.25353   5.26333
  Beta virt. eigenvalues --    5.26336   5.26337   5.32715   5.39544   5.39548
  Beta virt. eigenvalues --    5.40539   5.42655   5.42662   5.45037   5.45042
  Beta virt. eigenvalues --    5.45718   5.56359   5.56547   5.56551   5.57952
  Beta virt. eigenvalues --    5.68523   5.68526   5.93787   6.02262   6.02552
  Beta virt. eigenvalues --    6.02558   6.05490   6.05493   6.10932  11.35370
  Beta virt. eigenvalues --   13.50381  13.50390  13.56461
          Condensed to atoms (all electrons):
               1          2          3          4          5          6
     1  C    4.862494   0.353684  -0.040893   0.408814   0.408809   0.403348
     2  C    0.353684   4.874007   0.416611  -0.038444  -0.038445  -0.036645
     3  H   -0.040893   0.416611   0.636724  -0.005679  -0.005685   0.008338
     4  H    0.408814  -0.038444  -0.005679   0.601543  -0.028700  -0.030298
     5  H    0.408809  -0.038445  -0.005685  -0.028700   0.601532  -0.030297
     6  H    0.403348  -0.036645   0.008338  -0.030298  -0.030297   0.608859
     7  C   -0.056406   0.353683  -0.040892   0.008482  -0.005502  -0.005838
     8  C   -0.056434   0.353670  -0.040897  -0.005512   0.008486  -0.005844
     9  H    0.008482  -0.038438  -0.005683  -0.000510  -0.000081  -0.000128
    10  H   -0.005841  -0.036654   0.008339  -0.000128  -0.000325   0.004371
    11  H   -0.005504  -0.038443  -0.005678  -0.000081   0.003579  -0.000326
    12  H   -0.005844  -0.036652   0.008340  -0.000326  -0.000128   0.004371
    13  H    0.008486  -0.038448  -0.005677  -0.000080  -0.000511  -0.000128
    14  H   -0.005508  -0.038445  -0.005689   0.003579  -0.000081  -0.000325
               7          8          9         10         11         12
     1  C   -0.056406  -0.056434   0.008482  -0.005841  -0.005504  -0.005844
     2  C    0.353683   0.353670  -0.038438  -0.036654  -0.038443  -0.036652
     3  H   -0.040892  -0.040897  -0.005683   0.008339  -0.005678   0.008340
     4  H    0.008482  -0.005512  -0.000510  -0.000128  -0.000081  -0.000326
     5  H   -0.005502   0.008486  -0.000081  -0.000325   0.003579  -0.000128
     6  H   -0.005838  -0.005844  -0.000128   0.004371  -0.000326   0.004371
     7  C    4.862487  -0.056438   0.408825   0.403344   0.408802  -0.005841
     8  C   -0.056438   4.862521  -0.005515  -0.005842   0.008487   0.403348
     9  H    0.408825  -0.005515   0.601532  -0.030294  -0.028711  -0.000325
    10  H    0.403344  -0.005842  -0.030294   0.608874  -0.030295   0.004370
    11  H    0.408802   0.008487  -0.028711  -0.030295   0.601553  -0.000128
    12  H   -0.005841   0.403348  -0.000325   0.004370  -0.000128   0.608880
    13  H   -0.005513   0.408812   0.003579  -0.000326  -0.000080  -0.030291
    14  H    0.008486   0.408815  -0.000080  -0.000128  -0.000511  -0.030299
              13         14
     1  C    0.008486  -0.005508
     2  C   -0.038448  -0.038445
     3  H   -0.005677  -0.005689
     4  H   -0.000080   0.003579
     5  H   -0.000511  -0.000081
     6  H   -0.000128  -0.000325
     7  C   -0.005513   0.008486
     8  C    0.408812   0.408815
     9  H    0.003579  -0.000080
    10  H   -0.000326  -0.000128
    11  H   -0.000080  -0.000511
    12  H   -0.030291  -0.030299
    13  H    0.601547  -0.028703
    14  H   -0.028703   0.601553
          Atomic-Atomic Spin Densities.
               1          2          3          4          5          6
     1  C    0.000000  -0.000000   0.000000  -0.000000  -0.000000  -0.000000
     2  C   -0.000000  -0.000000   0.000000   0.000000   0.000000   0.000000
     3  H    0.000000   0.000000  -0.000000   0.000000  -0.000000  -0.000000
     4  H   -0.000000   0.000000   0.000000  -0.000000  -0.000000  -0.000000
     5  H   -0.000000   0.000000  -0.000000  -0.000000   0.000000  -0.000000
     6  H   -0.000000   0.000000  -0.000000  -0.000000  -0.000000   0.000000
     7  C   -0.000000   0.000000   0.000000   0.000000  -0.000000  -0.000000
     8  C   -0.000000   0.000000   0.000000  -0.000000  -0.000000  -0.000000
     9  H    0.000000   0.000000  -0.000000  -0.000000   0.000000  -0.000000
    10  H    0.000000   0.000000  -0.000000   0.000000  -0.000000  -0.000000
    11  H   -0.000000   0.000000   0.000000   0.000000   0.000000   0.000000
    12  H    0.000000   0.000000   0.000000   0.000000  -0.000000   0.000000
    13  H    0.000000  -0.000000  -0.000000  -0.000000  -0.000000   0.000000
    14  H   -0.000000   0.000000   0.000000   0.000000   0.000000   0.000000
               7          8          9         10         11         12
     1  C   -0.000000  -0.000000   0.000000   0.000000  -0.000000   0.000000
     2  C    0.000000   0.000000   0.000000   0.000000   0.000000   0.000000
     3  H    0.000000   0.000000  -0.000000  -0.000000   0.000000   0.000000
     4  H    0.000000  -0.000000  -0.000000   0.000000   0.000000   0.000000
     5  H   -0.000000  -0.000000   0.000000  -0.000000   0.000000  -0.000000
     6  H   -0.000000  -0.000000  -0.000000  -0.000000   0.000000   0.000000
     7  C    0.000000   0.000000  -0.000000  -0.000000  -0.000000  -0.000000
     8  C    0.000000  -0.000000   0.000000   0.000000  -0.000000  -0.000000
     9  H   -0.000000   0.000000   0.000000   0.000000  -0.000000  -0.000000
    10  H   -0.000000   0.000000   0.000000  -0.000000   0.000000   0.000000
    11  H   -0.000000  -0.000000  -0.000000   0.000000  -0.000000   0.000000
    12  H   -0.000000  -0.000000  -0.000000   0.000000   0.000000   0.000000
    13  H    0.000000  -0.000000  -0.000000  -0.000000   0.000000   0.000000
    14  H   -0.000000  -0.000000   0.000000  -0.000000  -0.000000  -0.000000
              13         14
     1  C    0.000000  -0.000000
     2  C   -0.000000   0.000000
     3  H   -0.000000   0.000000
     4  H   -0.000000   0.000000
     5  H   -0.000000   0.000000
     6  H    0.000000   0.000000
     7  C    0.000000  -0.000000
     8  C   -0.000000  -0.000000
     9  H   -0.000000   0.000000
    10  H   -0.000000  -0.000000
    11  H    0.000000  -0.000000
    12  H    0.000000  -0.000000
    13  H   -0.000000   0.000000
    14  H    0.000000   0.000000
 Mulliken charges and spin densities:
               1          2
     1  C   -0.277686   0.000000
     2  C   -0.011041  -0.000000
     3  H    0.078422  -0.000000
     4  H    0.087340  -0.000000
     5  H    0.087348  -0.000000
     6  H    0.080541   0.000000
     7  C   -0.277680   0.000000
     8  C   -0.277658  -0.000000
     9  H    0.087349   0.000000
    10  H    0.080534  -0.000000
    11  H    0.087338  -0.000000
    12  H    0.080525   0.000000
    13  H    0.087333  -0.000000
    14  H    0.087335   0.000000
 Sum of Mulliken charges =  -0.00000  -0.00000
 Mulliken charges and spin densities with hydrogens summed into heavy atoms:
               1          2
     1  C   -0.022456   0.000000
     2  C    0.067381  -0.000000
     7  C   -0.022459   0.000000
     8  C   -0.022466   0.000000
 Electronic spatial extent (au):  <R**2>=            870.9842
 Charge=             -0.0000 electrons
 Dipole moment (field-independent basis, Debye):
    X=              0.0410    Y=              0.0619    Z=             -0.1076  Tot=              0.1307
 Quadrupole moment (field-independent basis, Debye-Ang):
   XX=            -29.5716   YY=            -29.2310   ZZ=            -28.9249
   XY=              0.0372   XZ=             -0.0196   YZ=             -0.4021
 Traceless Quadrupole moment (field-independent basis, Debye-Ang):
   XX=             -0.3291   YY=              0.0115   ZZ=              0.3176
   XY=              0.0372   XZ=             -0.0196   YZ=             -0.4021
 Octapole moment (field-independent basis, Debye-Ang**2):
  XXX=            179.4873  YYY=            -38.1841  ZZZ=            -28.0073  XYY=             56.8479
  XXY=            -13.8549  XXZ=             -8.8277  XZZ=             56.4195  YZZ=            -15.0766
  YYZ=             -9.8134  XYZ=              0.3314
 Hexadecapole moment (field-independent basis, Debye-Ang**3):
 XXXX=           -930.4661 YYYY=           -218.2206 ZZZZ=           -135.7455 XXXY=             94.5110
 XXXZ=             35.5282 YYYX=             83.9866 YYYZ=            -41.6644 ZZZX=             35.5148
 ZZZY=            -43.5672 XXYY=           -182.2654 XXZZ=           -167.3869 YYZZ=            -61.2418
 XXYZ=            -13.6465 YYXZ=             12.2861 ZZXY=             34.0911
 N-N= 1.347767079363D+02 E-N=-6.350847067891D+02  KE= 1.570874695044D+02
                          Isotropic Fermi Contact Couplings
        Atom                 a.u.       MegaHertz       Gauss      10(-4) cm-1
     1  C(13)              0.00000       0.00000       0.00000       0.00000
     2  C(13)              0.00000       0.00000       0.00000       0.00000
     3  H(1)               0.00000       0.00000       0.00000       0.00000
     4  H(1)               0.00000       0.00000       0.00000       0.00000
     5  H(1)               0.00000       0.00000       0.00000       0.00000
     6  H(1)              -0.00000      -0.00000      -0.00000      -0.00000
     7  C(13)              0.00000       0.00000       0.00000       0.00000
     8  C(13)             -0.00000      -0.00000      -0.00000      -0.00000
     9  H(1)              -0.00000      -0.00000      -0.00000      -0.00000
    10  H(1)              -0.00000      -0.00000      -0.00000      -0.00000
    11  H(1)               0.00000       0.00000       0.00000       0.00000
    12  H(1)              -0.00000      -0.00000      -0.00000      -0.00000
    13  H(1)               0.00000       0.00000       0.00000       0.00000
    14  H(1)              -0.00000      -0.00000      -0.00000      -0.00000
 --------------------------------------------------------
       Center         ----  Spin Dipole Couplings  ----
                      3XX-RR        3YY-RR        3ZZ-RR
 --------------------------------------------------------
     1   Atom        0.000000      0.000000      0.000000
     2   Atom        0.000000      0.000000      0.000000
     3   Atom        0.000000      0.000000      0.000000
     4   Atom        0.000000      0.000000      0.000000
     5   Atom        0.000000      0.000000      0.000000
     6   Atom        0.000000      0.000000      0.000000
     7   Atom        0.000000      0.000000      0.000000
     8   Atom        0.000000      0.000000      0.000000
     9   Atom        0.000000      0.000000      0.000000
    10   Atom        0.000000      0.000000      0.000000
    11   Atom        0.000000      0.000000      0.000000
    12   Atom        0.000000      0.000000      0.000000
    13   Atom        0.000000      0.000000      0.000000
    14   Atom        0.000000      0.000000      0.000000
 --------------------------------------------------------
                        XY            XZ            YZ
 --------------------------------------------------------
     1   Atom        0.000000      0.000000      0.000000
     2   Atom        0.000000      0.000000      0.000000
     3   Atom        0.000000      0.000000      0.000000
     4   Atom        0.000000      0.000000      0.000000
     5   Atom        0.000000      0.000000      0.000000
     6   Atom        0.000000      0.000000      0.000000
     7   Atom        0.000000      0.000000      0.000000
     8   Atom        0.000000      0.000000      0.000000
     9   Atom        0.000000      0.000000      0.000000
    10   Atom        0.000000      0.000000      0.000000
    11   Atom        0.000000      0.000000      0.000000
    12   Atom        0.000000      0.000000      0.000000
    13   Atom        0.000000      0.000000      0.000000
    14   Atom        0.000000      0.000000      0.000000
 --------------------------------------------------------


 ---------------------------------------------------------------------------------
              Anisotropic Spin Dipole Couplings in Principal Axis System
 ---------------------------------------------------------------------------------

       Atom             a.u.   MegaHertz   Gauss  10(-4) cm-1        Axes

              Baa     0.0000     0.000     0.000     0.000  1.0000  0.0000  0.0000
     1 C(13)  Bbb     0.0000     0.000     0.000     0.000 -0.0000  1.0000  0.0000
              Bcc     0.0000     0.000     0.000     0.000  0.0000  0.0000  1.0000
 
              Baa     0.0000     0.000     0.000     0.000  1.0000  0.0000  0.0000
     2 C(13)  Bbb     0.0000     0.000     0.000     0.000 -0.0000  1.0000  0.0000
              Bcc     0.0000     0.000     0.000     0.000  0.0000  0.0000  1.0000
 
              Baa     0.0000     0.000     0.000     0.000  1.0000  0.0000  0.0000
     3 H(1)   Bbb     0.0000     0.000     0.000     0.000 -0.0000  1.0000  0.0000
              Bcc     0.0000     0.000     0.000     0.000  0.0000  0.0000  1.0000
 
              Baa     0.0000     0.000     0.000     0.000  1.0000  0.0000  0.0000
     4 H(1)   Bbb     0.0000     0.000     0.000     0.000 -0.0000  1.0000  0.0000
              Bcc     0.0000     0.000     0.000     0.000  0.0000  0.0000  1.0000
 
              Baa     0.0000     0.000     0.000     0.000  1.0000  0.0000  0.0000
     5 H(1)   Bbb     0.0000     0.000     0.000     0.000 -0.0000  1.0000  0.0000
              Bcc     0.0000     0.000     0.000     0.000  0.0000  0.0000  1.0000
 
              Baa     0.0000     0.000     0.000     0.000  1.0000  0.0000  0.0000
     6 H(1)   Bbb     0.0000     0.000     0.000     0.000 -0.0000  1.0000  0.0000
              Bcc     0.0000     0.000     0.000     0.000  0.0000  0.0000  1.0000
 
              Baa     0.0000     0.000     0.000     0.000  1.0000  0.0000  0.0000
     7 C(13)  Bbb     0.0000     0.000     0.000     0.000 -0.0000  1.0000  0.0000
              Bcc     0.0000     0.000     0.000     0.000  0.0000  0.0000  1.0000
 
              Baa     0.0000     0.000     0.000     0.000  1.0000  0.0000  0.0000
     8 C(13)  Bbb     0.0000     0.000     0.000     0.000 -0.0000  1.0000  0.0000
              Bcc     0.0000     0.000     0.000     0.000  0.0000  0.0000  1.0000
 
              Baa     0.0000     0.000     0.000     0.000  1.0000  0.0000  0.0000
     9 H(1)   Bbb     0.0000     0.000     0.000     0.000 -0.0000  1.0000  0.0000
              Bcc     0.0000     0.000     0.000     0.000  0.0000  0.0000  1.0000
 
              Baa     0.0000     0.000     0.000     0.000  1.0000  0.0000  0.0000
    10 H(1)   Bbb     0.0000     0.000     0.000     0.000 -0.0000  1.0000  0.0000
              Bcc     0.0000     0.000     0.000     0.000  0.0000  0.0000  1.0000
 
              Baa     0.0000     0.000     0.000     0.000  1.0000  0.0000  0.0000
    11 H(1)   Bbb     0.0000     0.000     0.000     0.000 -0.0000  1.0000  0.0000
              Bcc     0.0000     0.000     0.000     0.000  0.0000  0.0000  1.0000
 
              Baa     0.0000     0.000     0.000     0.000  1.0000  0.0000  0.0000
    12 H(1)   Bbb     0.0000     0.000     0.000     0.000 -0.0000  1.0000  0.0000
              Bcc     0.0000     0.000     0.000     0.000  0.0000  0.0000  1.0000
 
              Baa     0.0000     0.000     0.000     0.000  1.0000  0.0000  0.0000
    13 H(1)   Bbb     0.0000     0.000     0.000     0.000 -0.0000  1.0000  0.0000
              Bcc     0.0000     0.000     0.000     0.000  0.0000  0.0000  1.0000
 
              Baa     0.0000     0.000     0.000     0.000  1.0000  0.0000  0.0000
    14 H(1)   Bbb     0.0000     0.000     0.000     0.000 -0.0000  1.0000  0.0000
              Bcc     0.0000     0.000     0.000     0.000  0.0000  0.0000  1.0000
 

 ---------------------------------------------------------------------------------

 Calling FoFJK, ICntrl=  10002127 FMM=F ISym2X=0 I1Cent= 0 IOpClX= 1 NMat=1 NMatS=1 NMatT=0.
 -------------------------------------------------------------------
 Center     Atomic                   Forces (Hartrees/Bohr)
 Number     Number              X              Y              Z
 -------------------------------------------------------------------
      1        6          -0.017871481    0.002307949   -0.004034334
      2        6           0.005357610    0.008097902   -0.013999641
      3        1          -0.005904457   -0.008920558    0.015456255
      4        1           0.002888480   -0.015992384    0.000101789
      5        1           0.002883844    0.007916106    0.013890250
      6        1           0.004349576    0.007342990   -0.012730614
      7        6           0.008363561   -0.015882301   -0.004479251
      8        6           0.008363950    0.011826531    0.011488885
      9        1          -0.015981200   -0.002926280    0.000439584
     10        1           0.005047411    0.006856691   -0.012755683
     11        1           0.006704724    0.005283763    0.013824569
     12        1           0.005063960    0.007596111   -0.012332823
     13        1          -0.015977913    0.001103718    0.002755359
     14        1           0.006711936   -0.014610240    0.002375654
 -------------------------------------------------------------------
 Cartesian Forces:  Max     0.017871481 RMS     0.009708434

 GradGradGradGradGradGradGradGradGradGradGradGradGradGradGradGradGradGrad
 Berny optimization.
 FormGI is forming the generalized inverse of G from B-inverse, IUseBI=4.
 Internal  Forces:  Max     0.018797199 RMS     0.007206849
 Search for a local minimum.
 Step number   1 out of a maximum of  100 on scan point     1 out of    37
 All quantities printed in internal units (Hartrees-Bohrs-Radians)
 Mixed Optimization -- RFO/linear search
 Second derivative matrix not updated -- first step.
 ITU=  0
     Eigenvalues ---    0.00580   0.00580   0.04775   0.05200   0.05764
     Eigenvalues ---    0.05765   0.05776   0.05777   0.08957   0.16000
     Eigenvalues ---    0.16000   0.16000   0.16000   0.16000   0.16000
     Eigenvalues ---    0.16000   0.16000   0.16000   0.16000   0.16000
     Eigenvalues ---    0.16686   0.23380   0.30822   0.30945   0.30948
     Eigenvalues ---    0.30949   0.31903   0.31905   0.31906   0.31926
     Eigenvalues ---    0.31926   0.31926   0.31927   0.31927   0.31927
     Eigenvalues --- 1000.000001000.000001000.000001000.000001000.00000
     Eigenvalues --- 1000.000001000.000001000.000001000.000001000.00000
     Eigenvalues --- 1000.000001000.000001000.000001000.000001000.00000
     Eigenvalues --- 1000.000001000.000001000.000001000.000001000.00000
     Eigenvalues --- 1000.00000
 RFO step:  Lambda=-9.41254353D-03 EMin= 5.80210863D-03
 Linear search not attempted -- first point.
 Iteration  1 RMS(Cart)=  0.03029354 RMS(Int)=  0.00028549
 Iteration  2 RMS(Cart)=  0.00038532 RMS(Int)=  0.00010238
 Iteration  3 RMS(Cart)=  0.00000010 RMS(Int)=  0.00010238
 Iteration  1 RMS(Cart)=  0.00000000 RMS(Int)=  0.00000000
 Variable       Old X    -DE/DX   Delta X   Delta X   Delta X     New X
                                 (Linear)    (Quad)   (Total)
    R1        2.86117   0.00775   0.00000   0.02430   0.02430   2.88548
    R2        2.10978  -0.01600   0.00000  -0.04867  -0.04867   2.06111
    R3        2.10977  -0.01599   0.00000  -0.04865  -0.04865   2.06112
    R4        2.11015  -0.01529   0.00000  -0.04654  -0.04654   2.06361
    R5        2.13054  -0.01880   0.00000  -0.05918  -0.05918   2.07136
    R6        2.86109   0.00776   0.00000   0.02434   0.02434   2.88543
    R7        2.86112   0.00778   0.00000   0.02440   0.02440   2.88552
    R8        2.10980  -0.01600   0.00000  -0.04868  -0.04868   2.06111
    R9        2.11018  -0.01530   0.00000  -0.04657  -0.04657   2.06361
   R10        2.10979  -0.01600   0.00000  -0.04867  -0.04867   2.06112
   R11        2.11021  -0.01531   0.00000  -0.04660  -0.04660   2.06361
   R12        2.10978  -0.01600   0.00000  -0.04867  -0.04867   2.06111
   R13        2.10980  -0.01600   0.00000  -0.04868  -0.04868   2.06112
    A1        1.92626   0.00360   0.00000   0.02125   0.02114   1.94740
    A2        1.92627   0.00361   0.00000   0.02128   0.02118   1.94745
    A3        1.92939  -0.00027   0.00000  -0.00161  -0.00172   1.92767
    A4        1.89552  -0.00222   0.00000  -0.01308  -0.01318   1.88234
    A5        1.89274  -0.00248   0.00000  -0.01464  -0.01474   1.87800
    A6        1.89274  -0.00248   0.00000  -0.01463  -0.01473   1.87801
    A7        1.89034  -0.00044   0.00000  -0.01038  -0.01032   1.88002
    A8        1.93065   0.00025   0.00000   0.00937   0.00917   1.93982
    A9        1.93038   0.00029   0.00000   0.00962   0.00942   1.93980
   A10        1.89045  -0.00084   0.00000  -0.01056  -0.01051   1.87994
   A11        1.89029  -0.00083   0.00000  -0.01040  -0.01035   1.87994
   A12        1.93036   0.00147   0.00000   0.01098   0.01085   1.94121
   A13        1.92634   0.00338   0.00000   0.02090   0.02074   1.94708
   A14        1.92932   0.00015   0.00000  -0.00099  -0.00098   1.92834
   A15        1.92639   0.00338   0.00000   0.02091   0.02075   1.94714
   A16        1.89275  -0.00208   0.00000  -0.01410  -0.01409   1.87866
   A17        1.89538  -0.00299   0.00000  -0.01405  -0.01436   1.88103
   A18        1.89272  -0.00208   0.00000  -0.01409  -0.01408   1.87864
   A19        1.92932   0.00015   0.00000  -0.00100  -0.00099   1.92834
   A20        1.92628   0.00340   0.00000   0.02100   0.02084   1.94712
   A21        1.92626   0.00340   0.00000   0.02099   0.02083   1.94709
   A22        1.89283  -0.00209   0.00000  -0.01417  -0.01416   1.87867
   A23        1.89272  -0.00209   0.00000  -0.01411  -0.01410   1.87862
   A24        1.89551  -0.00301   0.00000  -0.01415  -0.01446   1.88105
    D1       -1.04789   0.00001   0.00000   0.00000   0.00000  -1.04789
    D2        3.11664  -0.00050   0.00000  -0.00860  -0.00855   3.10809
    D3       -1.07261  -0.00082   0.00000  -0.01332  -0.01336  -1.08597
    D4        1.02132  -0.00113   0.00000  -0.01802  -0.01814   1.00317
    D5        1.04738   0.00040   0.00000   0.00501   0.00510   1.05248
    D6        3.14132   0.00008   0.00000   0.00029   0.00029  -3.14158
    D7       -1.04794  -0.00024   0.00000  -0.00441  -0.00449  -1.05243
    D8       -1.02164   0.00105   0.00000   0.01770   0.01783  -1.00381
    D9        1.07229   0.00074   0.00000   0.01298   0.01302   1.08531
   D10       -3.11697   0.00042   0.00000   0.00828   0.00824  -3.10873
   D11        1.07204   0.00080   0.00000   0.01326   0.01331   1.08535
   D12       -3.11716   0.00048   0.00000   0.00853   0.00848  -3.10867
   D13       -1.02180   0.00112   0.00000   0.01794   0.01807  -1.00373
   D14        3.14105  -0.00006   0.00000  -0.00010  -0.00010   3.14095
   D15       -1.04815  -0.00038   0.00000  -0.00483  -0.00492  -1.05307
   D16        1.04721   0.00025   0.00000   0.00458   0.00466   1.05187
   D17       -1.07301  -0.00073   0.00000  -0.01288  -0.01293  -1.08594
   D18        1.02097  -0.00105   0.00000  -0.01762  -0.01775   1.00322
   D19        3.11633  -0.00042   0.00000  -0.00821  -0.00817   3.10816
         Item               Value     Threshold  Converged?
 Maximum Force            0.018797     0.000450     NO 
 RMS     Force            0.007272     0.000300     NO 
 Maximum Displacement     0.066351     0.001800     NO 
 RMS     Displacement     0.030103     0.001200     NO 
 Predicted change in Energy=-4.865775D-03
 GradGradGradGradGradGradGradGradGradGradGradGradGradGradGradGradGradGrad

                          Input orientation:                          
 ---------------------------------------------------------------------
 Center     Atomic      Atomic             Coordinates (Angstroms)
 Number     Number       Type             X           Y           Z
 ---------------------------------------------------------------------
      1          6           0       -3.401717    0.646183   -0.009667
      2          6           0       -1.874871    0.638394    0.004341
      3          1           0       -1.530358    1.158575   -0.896876
      4          1           0       -3.797638    1.662473   -0.012796
      5          1           0       -3.797505    0.130491   -0.885473
      6          1           0       -3.793927    0.141721    0.875877
      7          6           0       -1.330898   -0.787449   -0.045697
      8          6           0       -1.331325    1.395243    1.214017
      9          1           0       -0.240543   -0.799819   -0.069962
     10          1           0       -1.648669   -1.348871    0.835395
     11          1           0       -1.689624   -1.322691   -0.925729
     12          1           0       -1.649643    0.913478    2.140881
     13          1           0       -0.240967    1.422285    1.213126
     14          1           0       -1.689941    2.425049    1.236776
 ---------------------------------------------------------------------
                    Distance matrix (angstroms):
                    1          2          3          4          5
     1  C    0.000000
     2  C    1.526929   0.000000
     3  H    2.133464   1.096116   0.000000
     4  H    1.090692   2.178546   2.485170   0.000000
     5  H    1.090698   2.178590   2.489385   1.763103   0.000000
     6  H    1.092016   2.165417   3.049654   1.761374   1.761389
     7  C    2.518907   1.526905   2.133378   3.476781   2.762606
     8  C    2.518932   1.526951   2.133423   2.767523   3.476995
     9  H    3.476719   2.178303   2.486506   4.326554   3.765967
    10  H    2.787032   2.165881   3.049926   3.795483   3.125284
    11  H    2.765302   2.178348   2.486539   3.766746   2.560571
    12  H    2.786766   2.165918   3.049962   3.132602   3.792782
    13  H    3.476765   2.178368   2.486801   3.769679   4.326870
    14  H    2.765531   2.178355   2.486342   2.566192   3.769716
                    6          7          8          9         10
     6  H    0.000000
     7  C    2.789116   0.000000
     8  C    2.783894   2.520124   0.000000
     9  H    3.795740   1.090694   2.767075   0.000000
    10  H    2.612592   1.092015   2.788229   1.761802   0.000000
    11  H    3.133429   1.090699   3.477651   1.762262   1.761795
    12  H    2.606491   2.788526   1.092017   3.131897   2.611995
    13  H    3.791715   2.766858   1.090693   2.565942   3.131071
    14  H    3.125795   3.477613   1.090699   3.769362   3.795429
                   11         12         13         14
    11  H    0.000000
    12  H    3.795543   0.000000
    13  H    3.769376   1.761812   0.000000
    14  H    4.326891   1.761782   1.762277   0.000000
 Symmetry turned off by external request.
 Stoichiometry    C4H10
 Framework group  C1[X(C4H10)]
 Deg. of freedom    36
 Full point group                 C1      NOp   1
 Rotational constants (GHZ):           7.8252698           7.8169136           4.5262117
 Standard basis: CC-pVTZ (5D, 7F)
   260 basis functions,   378 primitive gaussians,   290 cartesian basis functions
    17 alpha electrons       17 beta electrons
       nuclear repulsion energy       134.7970074447 Hartrees.
 NAtoms=   14 NActive=   14 NUniq=   14 SFac= 1.00D+00 NAtFMM=   60 NAOKFM=F Big=F
 Integral buffers will be    131072 words long.
 Raffenetti 2 integral format.
 Two-electron integral symmetry is turned off.
 Nuclear repulsion after empirical dispersion term =      134.7901558316 Hartrees.
 One-electron integrals computed using PRISM.
 NBasis=   260 RedAO= T EigKep=  8.10D-04  NBF=   260
 NBsUse=   260 1.00D-06 EigRej= -1.00D+00 NBFU=   260
 Initial guess from the checkpoint file:  "/localscratch/339543/Gau-89645.chk"
 B after Tr=     0.001293    0.001889   -0.003001
         Rot=    1.000000   -0.000124    0.000032    0.000007 Ang=  -0.01 deg.
 Initial guess <Sx>= 0.0000 <Sy>= 0.0000 <Sz>= 0.0000 <S**2>=-0.0000 S=-0.0000
 ExpMin= 1.03D-01 ExpMax= 8.24D+03 ExpMxC= 2.81D+02 IAcc=3 IRadAn=         5 AccDes= 0.00D+00
 Harris functional with IExCor=  419 and IRadAn=       5 diagonalized for initial guess.
 HarFok:  IExCor=  419 AccDes= 0.00D+00 IRadAn=         5 IDoV= 1 UseB2=F ITyADJ=14
 ICtDFT=  3500011 ScaDFX=  1.000000  1.000000  1.000000  1.000000
 FoFCou: FMM=F IPFlag=           0 FMFlag=      100000 FMFlg1=           0
         NFxFlg=           0 DoJE=T BraDBF=F KetDBF=T FulRan=T
         wScrn=  0.000000 ICntrl=       500 IOpCl=  0 I1Cent=   200000004 NGrid=           0
         NMat0=    1 NMatS0=      1 NMatT0=    0 NMatD0=    1 NMtDS0=    0 NMtDT0=    0
 Symmetry not used in FoFCou.
 Requested convergence on RMS density matrix=1.00D-08 within 500 cycles.
 Requested convergence on MAX density matrix=1.00D-06.
 Requested convergence on             energy=1.00D-06.
 No special actions if energy rises.
 Integral accuracy reduced to 1.0D-05 until final iterations.
 Initial convergence to 1.0D-05 achieved.  Increase integral accuracy.
 SCF Done:  E(UB2PLYPD3) =  -158.122038147     A.U. after   10 cycles
            NFock= 10  Conv=0.63D-09     -V/T= 2.0049
 <Sx>= 0.0000 <Sy>= 0.0000 <Sz>= 0.0000 <S**2>=-0.0000 S=-0.0000
 <L.S>=  0.00000000000    
 Annihilation of the first spin contaminant:
 S**2 before annihilation    -0.0000,   after     0.0000
 DoSCS=T DFT=T ScalE2(SS,OS)=  0.270000  0.270000
 ExpMin= 1.03D-01 ExpMax= 8.24D+03 ExpMxC= 2.81D+02 IAcc=3 IRadAn=         5 AccDes= 0.00D+00
 HarFok:  IExCor=  205 AccDes= 0.00D+00 IRadAn=         5 IDoV=-2 UseB2=F ITyADJ=14
 ICtDFT= 12500011 ScaDFX=  1.000000  1.000000  1.000000  1.000000
 Range of M.O.s used for correlation:     5   260
 NBasis=   260 NAE=    17 NBE=    17 NFC=     4 NFV=     0
 NROrb=    256 NOA=    13 NOB=    13 NVA=   243 NVB=   243

 **** Warning!!: The largest alpha MO coefficient is  0.15769460D+02


 **** Warning!!: The largest beta MO coefficient is  0.15769460D+02

 DoSCS=T DFT=T ScalE2(SS,OS)=  0.270000  0.270000
 Fully direct method using O(ONN) memory.
 JobTyp=2 Pass  1:  I=   5 to  17 NPSUse= 40 ParTrn=T ParDer=T DoDerP=T.
 JobTyp=3 Pass  1:  I=   5 to  17 NPSUse= 40 ParTrn=T ParDer=T DoDerP=T.
 Spin components of T(2) and E(2):
     alpha-alpha T2 =       0.3952966551D-01 E2=     -0.2553193396D-01
     alpha-beta  T2 =       0.2553394090D+00 E2=     -0.1829148719D+00
     beta-beta   T2 =       0.3952966551D-01 E2=     -0.2553193396D-01
 (S**2,0)=  0.00000D+00           (S**2,1)=  0.00000D+00
 E(PUHF)=      -0.15812203815D+03        E(PMP2)=      -0.15835601689D+03
 E2(B2PLYPD3) =    -0.2339787398D+00 E(B2PLYPD3) =    -0.15835601688702D+03
          IDoAtm=11111111111111
          Differentiating once with respect to electric field.
                with respect to dipole field.
          Differentiating once with respect to nuclear coordinates.
 Keep R1 and R2 ints in memory in canonical form, NReq=1196156648.
          There are     1 degrees of freedom in the 1st order CPHF.  IDoFFX=0 NUNeed=     1.
 LinEq1:  Iter=  0 NonCon=     1 RMS=4.47D-04 Max=7.34D-03 NDo=     1
 AX will form     1 AO Fock derivatives at one time.
 LinEq1:  Iter=  1 NonCon=     1 RMS=1.90D-04 Max=2.54D-03 NDo=     1
 LinEq1:  Iter=  2 NonCon=     1 RMS=3.83D-05 Max=5.26D-04 NDo=     1
 LinEq1:  Iter=  3 NonCon=     1 RMS=1.38D-05 Max=1.63D-04 NDo=     1
 LinEq1:  Iter=  4 NonCon=     1 RMS=3.32D-06 Max=5.03D-05 NDo=     1
 LinEq1:  Iter=  5 NonCon=     1 RMS=9.49D-07 Max=1.44D-05 NDo=     1
 LinEq1:  Iter=  6 NonCon=     1 RMS=2.06D-07 Max=2.71D-06 NDo=     1
 LinEq1:  Iter=  7 NonCon=     1 RMS=3.14D-08 Max=5.61D-07 NDo=     1
 LinEq1:  Iter=  8 NonCon=     1 RMS=3.01D-09 Max=5.84D-08 NDo=     1
 LinEq1:  Iter=  9 NonCon=     1 RMS=3.45D-10 Max=8.20D-09 NDo=     1
 LinEq1:  Iter= 10 NonCon=     1 RMS=1.47D-10 Max=2.34D-09 NDo=     1
 LinEq1:  Iter= 11 NonCon=     0 RMS=2.64D-11 Max=4.57D-10 NDo=     1
 Linear equations converged to 1.000D-10 1.000D-09 after    11 iterations.
 End of Minotr F.D. properties file   721 does not exist.
 End of Minotr F.D. properties file   722 does not exist.
 End of Minotr F.D. properties file   788 does not exist.
 Calling FoFJK, ICntrl=  10002127 FMM=F ISym2X=0 I1Cent= 0 IOpClX= 1 NMat=1 NMatS=1 NMatT=0.
 -------------------------------------------------------------------
 Center     Atomic                   Forces (Hartrees/Bohr)
 Number     Number              X              Y              Z
 -------------------------------------------------------------------
      1        6          -0.000947766   -0.000476811    0.000866501
      2        6           0.001265459    0.002108701   -0.003687689
      3        1          -0.000394321   -0.000618726    0.001045298
      4        1           0.000673130   -0.000269478    0.000036215
      5        1           0.000681347    0.000150936    0.000227003
      6        1           0.000013222   -0.000010789   -0.000028035
      7        6           0.000027117   -0.000989616    0.000783200
      8        6           0.000013663   -0.000161257    0.001209900
      9        1          -0.000468609    0.000531798    0.000149346
     10        1           0.000014092    0.000028009   -0.000040156
     11        1          -0.000211889    0.000661364    0.000301911
     12        1           0.000016383    0.000015557   -0.000055027
     13        1          -0.000469013   -0.000384758   -0.000394613
     14        1          -0.000212815   -0.000584930   -0.000413855
 -------------------------------------------------------------------
 Cartesian Forces:  Max     0.003687689 RMS     0.000837959

 GradGradGradGradGradGradGradGradGradGradGradGradGradGradGradGradGradGrad
 Berny optimization.
 Using GEDIIS/GDIIS optimizer.
 FormGI is forming the generalized inverse of G from B-inverse, IUseBI=4.
 Internal  Forces:  Max     0.001276999 RMS     0.000448112
 Search for a local minimum.
 Step number   2 out of a maximum of  100 on scan point     1 out of    37
 All quantities printed in internal units (Hartrees-Bohrs-Radians)
 Mixed Optimization -- En-DIIS/RFO-DIIS
 Update second derivatives using D2CorX and points    1    2
 DE= -4.78D-03 DEPred=-4.87D-03 R= 9.83D-01
 TightC=F SS=  1.41D+00  RLast= 1.83D-01 DXNew= 5.0454D-01 5.4840D-01
 Trust test= 9.83D-01 RLast= 1.83D-01 DXMaxT set to 5.05D-01
 ITU=  1  0
 Use linear search instead of GDIIS.
     Eigenvalues ---    0.00580   0.00580   0.04730   0.05166   0.05565
     Eigenvalues ---    0.05576   0.05694   0.05694   0.09025   0.15989
     Eigenvalues ---    0.16000   0.16000   0.16000   0.16000   0.16000
     Eigenvalues ---    0.16000   0.16000   0.16000   0.16000   0.16518
     Eigenvalues ---    0.16967   0.23451   0.30115   0.30946   0.30949
     Eigenvalues ---    0.31081   0.31715   0.31904   0.31906   0.31926
     Eigenvalues ---    0.31926   0.31926   0.31927   0.31927   0.32232
     Eigenvalues --- 1000.000001000.000001000.000001000.000001000.00000
     Eigenvalues --- 1000.000001000.000001000.000001000.000001000.00000
     Eigenvalues --- 1000.000001000.000001000.000001000.000001000.00000
     Eigenvalues --- 1000.000001000.000001000.000001000.000001000.00000
     Eigenvalues --- 1000.00000
 RFO step:  Lambda=-8.98662642D-05 EMin= 5.80210735D-03
 Quartic linear search produced a step of -0.00270.
 Iteration  1 RMS(Cart)=  0.00585155 RMS(Int)=  0.00002642
 Iteration  2 RMS(Cart)=  0.00003773 RMS(Int)=  0.00001711
 Iteration  3 RMS(Cart)=  0.00000000 RMS(Int)=  0.00001711
 Iteration  1 RMS(Cart)=  0.00000000 RMS(Int)=  0.00000000
 Variable       Old X    -DE/DX   Delta X   Delta X   Delta X     New X
                                 (Linear)    (Quad)   (Total)
    R1        2.88548  -0.00043  -0.00007  -0.00104  -0.00110   2.88437
    R2        2.06111  -0.00050   0.00013  -0.00226  -0.00213   2.05898
    R3        2.06112  -0.00050   0.00013  -0.00227  -0.00214   2.05898
    R4        2.06361  -0.00002   0.00013  -0.00075  -0.00062   2.06299
    R5        2.07136  -0.00128   0.00016  -0.00500  -0.00484   2.06652
    R6        2.88543  -0.00048  -0.00007  -0.00120  -0.00127   2.88417
    R7        2.88552  -0.00051  -0.00007  -0.00129  -0.00135   2.88417
    R8        2.06111  -0.00048   0.00013  -0.00220  -0.00207   2.05904
    R9        2.06361  -0.00005   0.00013  -0.00084  -0.00071   2.06289
   R10        2.06112  -0.00050   0.00013  -0.00227  -0.00214   2.05899
   R11        2.06361  -0.00006   0.00013  -0.00086  -0.00074   2.06288
   R12        2.06111  -0.00048   0.00013  -0.00220  -0.00207   2.05904
   R13        2.06112  -0.00049   0.00013  -0.00224  -0.00211   2.05901
    A1        1.94740  -0.00070  -0.00006  -0.00403  -0.00409   1.94331
    A2        1.94745  -0.00074  -0.00006  -0.00431  -0.00437   1.94308
    A3        1.92767   0.00040   0.00000   0.00249   0.00249   1.93016
    A4        1.88234   0.00032   0.00004   0.00181   0.00184   1.88418
    A5        1.87800   0.00042   0.00004   0.00241   0.00244   1.88044
    A6        1.87801   0.00036   0.00004   0.00205   0.00208   1.88010
    A7        1.88002   0.00018   0.00003   0.00618   0.00622   1.88625
    A8        1.93982  -0.00003  -0.00002  -0.00504  -0.00513   1.93468
    A9        1.93980  -0.00008  -0.00003  -0.00543  -0.00552   1.93428
   A10        1.87994   0.00048   0.00003   0.00659   0.00664   1.88657
   A11        1.87994   0.00040   0.00003   0.00569   0.00574   1.88569
   A12        1.94121  -0.00088  -0.00003  -0.00675  -0.00682   1.93439
   A13        1.94708  -0.00062  -0.00006  -0.00369  -0.00375   1.94333
   A14        1.92834   0.00024   0.00000   0.00175   0.00175   1.93010
   A15        1.94714  -0.00067  -0.00006  -0.00402  -0.00408   1.94306
   A16        1.87866   0.00022   0.00004   0.00144   0.00148   1.88014
   A17        1.88103   0.00065   0.00004   0.00339   0.00342   1.88445
   A18        1.87864   0.00024   0.00004   0.00152   0.00156   1.88020
   A19        1.92834   0.00023   0.00000   0.00167   0.00168   1.93001
   A20        1.94712  -0.00063  -0.00006  -0.00370  -0.00376   1.94336
   A21        1.94709  -0.00066  -0.00006  -0.00395  -0.00401   1.94309
   A22        1.87867   0.00023   0.00004   0.00149   0.00153   1.88020
   A23        1.87862   0.00024   0.00004   0.00152   0.00156   1.88018
   A24        1.88105   0.00065   0.00004   0.00335   0.00338   1.88443
    D1       -1.04789  -0.00014   0.00000   0.00000   0.00000  -1.04789
    D2        3.10809   0.00039   0.00002   0.00803   0.00804   3.11613
    D3       -1.08597   0.00043   0.00004   0.00859   0.00861  -1.07736
    D4        1.00317   0.00046   0.00005   0.00903   0.00906   1.01224
    D5        1.05248  -0.00010  -0.00001  -0.00060  -0.00061   1.05187
    D6       -3.14158  -0.00007  -0.00000  -0.00004  -0.00004   3.14157
    D7       -1.05243  -0.00004   0.00001   0.00040   0.00041  -1.05202
    D8       -1.00381  -0.00038  -0.00005  -0.00769  -0.00772  -1.01153
    D9        1.08531  -0.00035  -0.00004  -0.00713  -0.00715   1.07816
   D10       -3.10873  -0.00032  -0.00002  -0.00669  -0.00670  -3.11543
   D11        1.08535  -0.00039  -0.00004  -0.00745  -0.00747   1.07788
   D12       -3.10867  -0.00035  -0.00002  -0.00689  -0.00690  -3.11557
   D13       -1.00373  -0.00042  -0.00005  -0.00790  -0.00793  -1.01166
   D14        3.14095   0.00003   0.00000   0.00041   0.00041   3.14137
   D15       -1.05307   0.00007   0.00001   0.00098   0.00099  -1.05208
   D16        1.05187   0.00000  -0.00001  -0.00004  -0.00005   1.05183
   D17       -1.08594   0.00036   0.00003   0.00805   0.00807  -1.07787
   D18        1.00322   0.00040   0.00005   0.00861   0.00864   1.01187
   D19        3.10816   0.00033   0.00002   0.00760   0.00761   3.11577
         Item               Value     Threshold  Converged?
 Maximum Force            0.001277     0.000450     NO 
 RMS     Force            0.000452     0.000300     NO 
 Maximum Displacement     0.013330     0.001800     NO 
 RMS     Displacement     0.005881     0.001200     NO 
 Predicted change in Energy=-4.476299D-05
 GradGradGradGradGradGradGradGradGradGradGradGradGradGradGradGradGradGrad

                          Input orientation:                          
 ---------------------------------------------------------------------
 Center     Atomic      Atomic             Coordinates (Angstroms)
 Number     Number       Type             X           Y           Z
 ---------------------------------------------------------------------
      1          6           0       -3.399095    0.645360   -0.007994
      2          6           0       -1.872763    0.642089   -0.002552
      3          1           0       -1.529172    1.161245   -0.901601
      4          1           0       -3.793472    1.661047   -0.008604
      5          1           0       -3.793402    0.131407   -0.884079
      6          1           0       -3.787267    0.138313    0.877446
      7          6           0       -1.332470   -0.784727   -0.043456
      8          6           0       -1.332853    1.392315    1.211964
      9          1           0       -0.243155   -0.795817   -0.065686
     10          1           0       -1.652548   -1.341817    0.839081
     11          1           0       -1.692101   -1.319645   -0.921914
     12          1           0       -1.652744    0.907203    2.136078
     13          1           0       -0.243554    1.417703    1.210446
     14          1           0       -1.693028    2.420385    1.235083
 ---------------------------------------------------------------------
                    Distance matrix (angstroms):
                    1          2          3          4          5
     1  C    0.000000
     2  C    1.526345   0.000000
     3  H    2.135716   1.093557   0.000000
     4  H    1.089566   2.174266   2.484814   0.000000
     5  H    1.089564   2.174106   2.487491   1.762456   0.000000
     6  H    1.091686   2.166452   3.051294   1.761772   1.761549
     7  C    2.513432   1.526234   2.135863   3.469805   2.757196
     8  C    2.513085   1.526234   2.135203   2.759827   3.469522
     9  H    3.469910   2.174208   2.486501   4.317891   3.759490
    10  H    2.777919   2.166269   3.051314   3.784087   3.118161
    11  H    2.758681   2.173998   2.486318   3.759577   2.553909
    12  H    2.777652   2.166202   3.050787   3.122604   3.782277
    13  H    3.469661   2.174227   2.485825   3.761278   4.317755
    14  H    2.758010   2.174024   2.485498   2.556406   3.760563
                    6          7          8          9         10
     6  H    0.000000
     7  C    2.779585   0.000000
     8  C    2.776432   2.513084   0.000000
     9  H    3.784551   1.089599   2.758216   0.000000
    10  H    2.597939   1.091637   2.777900   1.761563   0.000000
    11  H    3.122989   1.089568   3.469470   1.762659   1.761578
    12  H    2.594521   2.777692   1.091627   3.120093   2.596208
    13  H    3.782279   2.758388   1.089596   2.555031   3.120597
    14  H    3.117947   3.469496   1.089581   3.760064   3.783202
                   11         12         13         14
    11  H    0.000000
    12  H    3.783083   0.000000
    13  H    3.760096   1.761596   0.000000
    14  H    4.317460   1.761571   1.762655   0.000000
 Symmetry turned off by external request.
 Stoichiometry    C4H10
 Framework group  C1[X(C4H10)]
 Deg. of freedom    36
 Full point group                 C1      NOp   1
 Rotational constants (GHZ):           7.8456825           7.8434125           4.5494237
 Standard basis: CC-pVTZ (5D, 7F)
   260 basis functions,   378 primitive gaussians,   290 cartesian basis functions
    17 alpha electrons       17 beta electrons
       nuclear repulsion energy       134.9748488649 Hartrees.
 NAtoms=   14 NActive=   14 NUniq=   14 SFac= 1.00D+00 NAtFMM=   60 NAOKFM=F Big=F
 Integral buffers will be    131072 words long.
 Raffenetti 2 integral format.
 Two-electron integral symmetry is turned off.
 Nuclear repulsion after empirical dispersion term =      134.9679836354 Hartrees.
 One-electron integrals computed using PRISM.
 NBasis=   260 RedAO= T EigKep=  8.03D-04  NBF=   260
 NBsUse=   260 1.00D-06 EigRej= -1.00D+00 NBFU=   260
 Initial guess from the checkpoint file:  "/localscratch/339543/Gau-89645.chk"
 B after Tr=     0.000408    0.000686   -0.001604
         Rot=    1.000000    0.000064   -0.000042   -0.000003 Ang=   0.01 deg.
 Initial guess <Sx>= 0.0000 <Sy>= 0.0000 <Sz>= 0.0000 <S**2>=-0.0000 S=-0.0000
 Requested convergence on RMS density matrix=1.00D-08 within 500 cycles.
 Requested convergence on MAX density matrix=1.00D-06.
 Requested convergence on             energy=1.00D-06.
 No special actions if energy rises.
 SCF Done:  E(UB2PLYPD3) =  -158.122098083     A.U. after    7 cycles
            NFock=  7  Conv=0.48D-08     -V/T= 2.0047
 <Sx>= 0.0000 <Sy>= 0.0000 <Sz>= 0.0000 <S**2>=-0.0000 S=-0.0000
 <L.S>=  0.00000000000    
 Annihilation of the first spin contaminant:
 S**2 before annihilation    -0.0000,   after    -0.0000
 DoSCS=T DFT=T ScalE2(SS,OS)=  0.270000  0.270000
 ExpMin= 1.03D-01 ExpMax= 8.24D+03 ExpMxC= 2.81D+02 IAcc=3 IRadAn=         5 AccDes= 0.00D+00
 HarFok:  IExCor=  205 AccDes= 0.00D+00 IRadAn=         5 IDoV=-2 UseB2=F ITyADJ=14
 ICtDFT= 12500011 ScaDFX=  1.000000  1.000000  1.000000  1.000000
 Range of M.O.s used for correlation:     5   260
 NBasis=   260 NAE=    17 NBE=    17 NFC=     4 NFV=     0
 NROrb=    256 NOA=    13 NOB=    13 NVA=   243 NVB=   243

 **** Warning!!: The largest alpha MO coefficient is  0.15736874D+02


 **** Warning!!: The largest beta MO coefficient is  0.15736874D+02

 DoSCS=T DFT=T ScalE2(SS,OS)=  0.270000  0.270000
 Fully direct method using O(ONN) memory.
 JobTyp=2 Pass  1:  I=   5 to  17 NPSUse= 40 ParTrn=T ParDer=T DoDerP=T.
 JobTyp=3 Pass  1:  I=   5 to  17 NPSUse= 40 ParTrn=T ParDer=T DoDerP=T.
 Spin components of T(2) and E(2):
     alpha-alpha T2 =       0.3950288458D-01 E2=     -0.2553776177D-01
     alpha-beta  T2 =       0.2550057096D+00 E2=     -0.1828807150D+00
     beta-beta   T2 =       0.3950288458D-01 E2=     -0.2553776177D-01
 (S**2,0)=  0.00000D+00           (S**2,1)=  0.00000D+00
 E(PUHF)=      -0.15812209808D+03        E(PMP2)=      -0.15835605432D+03
 E2(B2PLYPD3) =    -0.2339562385D+00 E(B2PLYPD3) =    -0.15835605432111D+03
          IDoAtm=11111111111111
          Differentiating once with respect to electric field.
                with respect to dipole field.
          Differentiating once with respect to nuclear coordinates.
 Keep R1 and R2 ints in memory in canonical form, NReq=1196156648.
          There are     1 degrees of freedom in the 1st order CPHF.  IDoFFX=0 NUNeed=     1.
 LinEq1:  Iter=  0 NonCon=     1 RMS=4.46D-04 Max=7.58D-03 NDo=     1
 AX will form     1 AO Fock derivatives at one time.
 LinEq1:  Iter=  1 NonCon=     1 RMS=1.89D-04 Max=2.69D-03 NDo=     1
 LinEq1:  Iter=  2 NonCon=     1 RMS=3.81D-05 Max=5.25D-04 NDo=     1
 LinEq1:  Iter=  3 NonCon=     1 RMS=1.36D-05 Max=1.51D-04 NDo=     1
 LinEq1:  Iter=  4 NonCon=     1 RMS=3.32D-06 Max=4.79D-05 NDo=     1
 LinEq1:  Iter=  5 NonCon=     1 RMS=9.59D-07 Max=1.47D-05 NDo=     1
 LinEq1:  Iter=  6 NonCon=     1 RMS=2.06D-07 Max=2.70D-06 NDo=     1
 LinEq1:  Iter=  7 NonCon=     1 RMS=3.13D-08 Max=5.47D-07 NDo=     1
 LinEq1:  Iter=  8 NonCon=     1 RMS=3.03D-09 Max=6.46D-08 NDo=     1
 LinEq1:  Iter=  9 NonCon=     1 RMS=3.23D-10 Max=8.53D-09 NDo=     1
 LinEq1:  Iter= 10 NonCon=     1 RMS=1.10D-10 Max=1.50D-09 NDo=     1
 LinEq1:  Iter= 11 NonCon=     0 RMS=2.43D-11 Max=3.93D-10 NDo=     1
 Linear equations converged to 1.000D-10 1.000D-09 after    11 iterations.
 End of Minotr F.D. properties file   721 does not exist.
 End of Minotr F.D. properties file   722 does not exist.
 End of Minotr F.D. properties file   788 does not exist.
 Calling FoFJK, ICntrl=  10002127 FMM=F ISym2X=0 I1Cent= 0 IOpClX= 1 NMat=1 NMatS=1 NMatT=0.
 -------------------------------------------------------------------
 Center     Atomic                   Forces (Hartrees/Bohr)
 Number     Number              X              Y              Z
 -------------------------------------------------------------------
      1        6          -0.000364598    0.000017486   -0.000142811
      2        6          -0.000124688   -0.000126492    0.000378759
      3        1          -0.000020906   -0.000070340   -0.000018276
      4        1          -0.000091238    0.000264262    0.000050089
      5        1          -0.000106114   -0.000141065   -0.000236278
      6        1           0.000184673   -0.000020290    0.000048401
      7        6           0.000180376   -0.000347972   -0.000149214
      8        6           0.000197386    0.000301009    0.000267221
      9        1           0.000259911    0.000009634    0.000000102
     10        1          -0.000101337    0.000144552    0.000078592
     11        1          -0.000091636   -0.000153441   -0.000219822
     12        1          -0.000093772   -0.000135700   -0.000070918
     13        1           0.000264391   -0.000002794   -0.000005038
     14        1          -0.000092449    0.000261149    0.000019193
 -------------------------------------------------------------------
 Cartesian Forces:  Max     0.000378759 RMS     0.000174592

 GradGradGradGradGradGradGradGradGradGradGradGradGradGradGradGradGradGrad
 Berny optimization.
 Using GEDIIS/GDIIS optimizer.
 FormGI is forming the generalized inverse of G from B-inverse, IUseBI=4.
 Internal  Forces:  Max     0.000473312 RMS     0.000160448
 Search for a local minimum.
 Step number   3 out of a maximum of  100 on scan point     1 out of    37
 All quantities printed in internal units (Hartrees-Bohrs-Radians)
 Mixed Optimization -- En-DIIS/RFO-DIIS
 Swapping is turned off.
 Update second derivatives using D2CorX and points    1    2    3
 DE= -3.74D-05 DEPred=-4.48D-05 R= 8.36D-01
 TightC=F SS=  1.41D+00  RLast= 3.42D-02 DXNew= 8.4853D-01 1.0272D-01
 Trust test= 8.36D-01 RLast= 3.42D-02 DXMaxT set to 5.05D-01
 ITU=  1  1  0
     Eigenvalues ---    0.00580   0.00580   0.04835   0.05285   0.05602
     Eigenvalues ---    0.05699   0.05700   0.05748   0.08986   0.15291
     Eigenvalues ---    0.16000   0.16000   0.16000   0.16000   0.16000
     Eigenvalues ---    0.16000   0.16000   0.16000   0.16000   0.16795
     Eigenvalues ---    0.17246   0.23469   0.29804   0.30946   0.30949
     Eigenvalues ---    0.31601   0.31904   0.31906   0.31926   0.31926
     Eigenvalues ---    0.31926   0.31927   0.31927   0.32149   0.34985
     Eigenvalues --- 1000.000001000.000001000.000001000.000001000.00000
     Eigenvalues --- 1000.000001000.000001000.000001000.000001000.00000
     Eigenvalues --- 1000.000001000.000001000.000001000.000001000.00000
     Eigenvalues --- 1000.000001000.000001000.000001000.000001000.00000
     Eigenvalues --- 1000.00000
 En-DIIS/RFO-DIIS/Sim-DIIS IScMMF=       -3 using points:     3    2
 RFO step:  Lambda=-5.50205737D-06.
 DidBck=F Rises=F RFO-DIIS coefs:    0.88971    0.11029
 Iteration  1 RMS(Cart)=  0.00084590 RMS(Int)=  0.00000173
 Iteration  2 RMS(Cart)=  0.00000054 RMS(Int)=  0.00000169
 Iteration  1 RMS(Cart)=  0.00000000 RMS(Int)=  0.00000000
 Variable       Old X    -DE/DX   Delta X   Delta X   Delta X     New X
                                 (Linear)    (Quad)   (Total)
    R1        2.88437   0.00038   0.00012   0.00085   0.00097   2.88535
    R2        2.05898   0.00028   0.00023   0.00050   0.00073   2.05971
    R3        2.05898   0.00030   0.00024   0.00054   0.00078   2.05975
    R4        2.06299  -0.00002   0.00007  -0.00008  -0.00001   2.06298
    R5        2.06652  -0.00002   0.00053  -0.00068  -0.00015   2.06637
    R6        2.88417   0.00042   0.00014   0.00094   0.00108   2.88525
    R7        2.88417   0.00047   0.00015   0.00108   0.00122   2.88539
    R8        2.05904   0.00026   0.00023   0.00046   0.00069   2.05973
    R9        2.06289   0.00002   0.00008   0.00001   0.00009   2.06298
   R10        2.05899   0.00028   0.00024   0.00051   0.00074   2.05973
   R11        2.06288   0.00003   0.00008   0.00003   0.00011   2.06299
   R12        2.05904   0.00026   0.00023   0.00047   0.00070   2.05973
   R13        2.05901   0.00028   0.00023   0.00050   0.00073   2.05974
    A1        1.94331   0.00005   0.00045  -0.00034   0.00011   1.94342
    A2        1.94308   0.00008   0.00048  -0.00023   0.00025   1.94333
    A3        1.93016  -0.00033  -0.00028  -0.00138  -0.00165   1.92851
    A4        1.88418   0.00008  -0.00020   0.00069   0.00049   1.88467
    A5        1.88044   0.00006  -0.00027   0.00067   0.00040   1.88084
    A6        1.88010   0.00007  -0.00023   0.00069   0.00046   1.88056
    A7        1.88625  -0.00004  -0.00069  -0.00011  -0.00080   1.88545
    A8        1.93468   0.00000   0.00057  -0.00003   0.00054   1.93522
    A9        1.93428   0.00002   0.00061   0.00007   0.00069   1.93497
   A10        1.88657  -0.00009  -0.00073  -0.00007  -0.00081   1.88577
   A11        1.88569  -0.00005  -0.00063   0.00014  -0.00049   1.88519
[...]
  Beta virt. eigenvalues --    4.49086   4.52078   4.52099   4.55153   4.59495
  Beta virt. eigenvalues --    4.59511   4.71833   4.71873   4.76915   4.83138
  Beta virt. eigenvalues --    4.89379   4.89426   4.93488   4.93499   4.99764
  Beta virt. eigenvalues --    5.01642   5.04155   5.04168   5.09450   5.13028
  Beta virt. eigenvalues --    5.13039   5.27862   5.27894   5.27933   5.30132
  Beta virt. eigenvalues --    5.30165   5.31671   5.38432   5.45455   5.45466
  Beta virt. eigenvalues --    5.46818   5.52366   5.52378   5.53976   5.54257
  Beta virt. eigenvalues --    5.54268   5.62397   5.62414   5.62599   5.63441
  Beta virt. eigenvalues --    5.72320   5.72382   5.95987   6.06167   6.07651
  Beta virt. eigenvalues --    6.07671   6.09063   6.09072   6.13283  11.68536
  Beta virt. eigenvalues --   13.81693  13.86060  13.86106
          Condensed to atoms (all electrons):
               1          2          3          4          5          6
     1  C    4.872513   0.352439  -0.041004   0.411798   0.411758   0.405205
     2  C    0.352439   4.875428   0.422662  -0.036059  -0.036107  -0.035453
     3  H   -0.041004   0.422662   0.616082  -0.005479  -0.005392   0.008267
     4  H    0.411798  -0.036059  -0.005479   0.590428  -0.030328  -0.031771
     5  H    0.411758  -0.036107  -0.005392  -0.030328   0.590618  -0.031803
     6  H    0.405205  -0.035453   0.008267  -0.031771  -0.031803   0.601672
     7  C   -0.053838   0.352452  -0.040987   0.008027  -0.005037  -0.005565
     8  C   -0.053861   0.352432  -0.041018  -0.004971   0.008034  -0.005631
     9  H    0.008027  -0.036076  -0.005429  -0.000440  -0.000092  -0.000132
    10  H   -0.005573  -0.035469   0.008268  -0.000129  -0.000315   0.004028
    11  H   -0.005018  -0.036071  -0.005434  -0.000095   0.003307  -0.000310
    12  H   -0.005629  -0.035458   0.008269  -0.000312  -0.000129   0.004051
    13  H    0.008029  -0.036074  -0.005436  -0.000098  -0.000440  -0.000126
    14  H   -0.004981  -0.036072  -0.005433   0.003293  -0.000096  -0.000316
               7          8          9         10         11         12
     1  C   -0.053838  -0.053861   0.008027  -0.005573  -0.005018  -0.005629
     2  C    0.352452   0.352432  -0.036076  -0.035469  -0.036071  -0.035458
     3  H   -0.040987  -0.041018  -0.005429   0.008268  -0.005434   0.008269
     4  H    0.008027  -0.004971  -0.000440  -0.000129  -0.000095  -0.000312
     5  H   -0.005037   0.008034  -0.000092  -0.000315   0.003307  -0.000129
     6  H   -0.005565  -0.005631  -0.000132   0.004028  -0.000310   0.004051
     7  C    4.872481  -0.053854   0.411776   0.405180   0.411801  -0.005593
     8  C   -0.053854   4.872574  -0.005001  -0.005608   0.008028   0.405214
     9  H    0.411776  -0.005001   0.590510  -0.031793  -0.030316  -0.000314
    10  H    0.405180  -0.005608  -0.031793   0.601733  -0.031797   0.004040
    11  H    0.411801   0.008028  -0.030316  -0.031797   0.590480  -0.000129
    12  H   -0.005593   0.405214  -0.000314   0.004040  -0.000129   0.601714
    13  H   -0.005004   0.411782   0.003300  -0.000313  -0.000095  -0.031801
    14  H    0.008029   0.411754  -0.000095  -0.000129  -0.000440  -0.031794
              13         14
     1  C    0.008029  -0.004981
     2  C   -0.036074  -0.036072
     3  H   -0.005436  -0.005433
     4  H   -0.000098   0.003293
     5  H   -0.000440  -0.000096
     6  H   -0.000126  -0.000316
     7  C   -0.005004   0.008029
     8  C    0.411782   0.411754
     9  H    0.003300  -0.000095
    10  H   -0.000313  -0.000129
    11  H   -0.000095  -0.000440
    12  H   -0.031801  -0.031794
    13  H    0.590501  -0.030310
    14  H   -0.030310   0.590510
          Atomic-Atomic Spin Densities.
               1          2          3          4          5          6
     1  C   -0.000000   0.000000   0.000000   0.000000  -0.000000  -0.000000
     2  C    0.000000   0.000000  -0.000000   0.000000   0.000000   0.000000
     3  H    0.000000  -0.000000  -0.000000  -0.000000  -0.000000  -0.000000
     4  H    0.000000   0.000000  -0.000000   0.000000  -0.000000   0.000000
     5  H   -0.000000   0.000000  -0.000000  -0.000000   0.000000  -0.000000
     6  H   -0.000000   0.000000  -0.000000   0.000000  -0.000000   0.000000
     7  C    0.000000   0.000000  -0.000000  -0.000000  -0.000000   0.000000
     8  C   -0.000000   0.000000  -0.000000   0.000000   0.000000  -0.000000
     9  H   -0.000000   0.000000   0.000000   0.000000  -0.000000   0.000000
    10  H    0.000000  -0.000000   0.000000  -0.000000   0.000000   0.000000
    11  H   -0.000000   0.000000  -0.000000   0.000000   0.000000   0.000000
    12  H    0.000000   0.000000  -0.000000  -0.000000  -0.000000  -0.000000
    13  H   -0.000000   0.000000  -0.000000   0.000000  -0.000000   0.000000
    14  H    0.000000  -0.000000   0.000000  -0.000000  -0.000000  -0.000000
               7          8          9         10         11         12
     1  C    0.000000  -0.000000  -0.000000   0.000000  -0.000000   0.000000
     2  C    0.000000   0.000000   0.000000  -0.000000   0.000000   0.000000
     3  H   -0.000000  -0.000000   0.000000   0.000000  -0.000000  -0.000000
     4  H   -0.000000   0.000000   0.000000  -0.000000   0.000000  -0.000000
     5  H   -0.000000   0.000000  -0.000000   0.000000   0.000000  -0.000000
     6  H    0.000000  -0.000000   0.000000   0.000000   0.000000  -0.000000
     7  C   -0.000000  -0.000000  -0.000000  -0.000000   0.000000  -0.000000
     8  C   -0.000000  -0.000000   0.000000   0.000000  -0.000000  -0.000000
     9  H   -0.000000   0.000000  -0.000000   0.000000   0.000000   0.000000
    10  H   -0.000000   0.000000   0.000000   0.000000  -0.000000   0.000000
    11  H    0.000000  -0.000000   0.000000  -0.000000  -0.000000   0.000000
    12  H   -0.000000  -0.000000   0.000000   0.000000   0.000000  -0.000000
    13  H   -0.000000   0.000000   0.000000  -0.000000   0.000000   0.000000
    14  H   -0.000000  -0.000000  -0.000000  -0.000000   0.000000   0.000000
              13         14
     1  C   -0.000000   0.000000
     2  C    0.000000  -0.000000
     3  H   -0.000000   0.000000
     4  H    0.000000  -0.000000
     5  H   -0.000000  -0.000000
     6  H    0.000000  -0.000000
     7  C   -0.000000  -0.000000
     8  C    0.000000  -0.000000
     9  H    0.000000  -0.000000
    10  H   -0.000000  -0.000000
    11  H    0.000000   0.000000
    12  H    0.000000   0.000000
    13  H    0.000000  -0.000000
    14  H   -0.000000  -0.000000
 Mulliken charges and spin densities:
               1          2
     1  C   -0.299866  -0.000000
     2  C   -0.032575   0.000000
     3  H    0.092063  -0.000000
     4  H    0.096135   0.000000
     5  H    0.096022   0.000000
     6  H    0.087884   0.000000
     7  C   -0.299868   0.000000
     8  C   -0.299874  -0.000000
     9  H    0.096075  -0.000000
    10  H    0.087879   0.000000
    11  H    0.096090  -0.000000
    12  H    0.087872  -0.000000
    13  H    0.096084   0.000000
    14  H    0.096079  -0.000000
 Sum of Mulliken charges =  -0.00000   0.00000
 Mulliken charges and spin densities with hydrogens summed into heavy atoms:
               1          2
     1  C   -0.019825  -0.000000
     2  C    0.059488   0.000000
     7  C   -0.019824  -0.000000
     8  C   -0.019839  -0.000000
 Electronic spatial extent (au):  <R**2>=            875.1093
 Charge=              0.0000 electrons
 Dipole moment (field-independent basis, Debye):
    X=              0.0369    Y=              0.1145    Z=             -0.0406  Tot=              0.1270
 Quadrupole moment (field-independent basis, Debye-Ang):
   XX=            -29.1916   YY=            -28.4382   ZZ=            -29.0599
   XY=             -0.0315   XZ=              0.0292   YZ=             -0.1783
 Traceless Quadrupole moment (field-independent basis, Debye-Ang):
   XX=             -0.2950   YY=              0.4584   ZZ=             -0.1633
   XY=             -0.0315   XZ=              0.0292   YZ=             -0.1783
 Octapole moment (field-independent basis, Debye-Ang**2):
  XXX=            176.7133  YYY=            -40.4337  ZZZ=            -30.1443  XYY=             55.9683
  XXY=            -13.6883  XXZ=             -9.1499  XZZ=             56.5828  YZZ=            -13.0009
  YYZ=             -8.3056  XYZ=              0.0815
 Hexadecapole moment (field-independent basis, Debye-Ang**3):
 XXXX=           -918.1909 YYYY=           -133.4121 ZZZZ=           -222.6692 XXXY=            102.2947
 XXXZ=             48.7059 YYYX=             99.6975 YYYZ=            -33.6807 ZZZX=             52.6386
 ZZZY=            -34.9767 XXYY=           -166.9888 XXZZ=           -181.5120 YYZZ=            -57.8260
 XXYZ=            -10.8659 YYXZ=             12.6682 ZZXY=             31.1707
 N-N= 1.349146751477D+02 E-N=-6.356070956303D+02  KE= 1.573703354924D+02
                          Isotropic Fermi Contact Couplings
        Atom                 a.u.       MegaHertz       Gauss      10(-4) cm-1
     1  C(13)             -0.00000      -0.00000      -0.00000      -0.00000
     2  C(13)             -0.00000      -0.00000      -0.00000      -0.00000
     3  H(1)              -0.00000      -0.00000      -0.00000      -0.00000
     4  H(1)              -0.00000      -0.00000      -0.00000      -0.00000
     5  H(1)              -0.00000      -0.00000      -0.00000      -0.00000
     6  H(1)              -0.00000      -0.00000      -0.00000      -0.00000
     7  C(13)              0.00000       0.00000       0.00000       0.00000
     8  C(13)              0.00000       0.00000       0.00000       0.00000
     9  H(1)               0.00000       0.00000       0.00000       0.00000
    10  H(1)              -0.00000      -0.00000      -0.00000      -0.00000
    11  H(1)               0.00000       0.00000       0.00000       0.00000
    12  H(1)               0.00000       0.00000       0.00000       0.00000
    13  H(1)              -0.00000      -0.00000      -0.00000      -0.00000
    14  H(1)               0.00000       0.00000       0.00000       0.00000
 --------------------------------------------------------
       Center         ----  Spin Dipole Couplings  ----
                      3XX-RR        3YY-RR        3ZZ-RR
 --------------------------------------------------------
     1   Atom        0.000000      0.000000      0.000000
     2   Atom        0.000000      0.000000      0.000000
     3   Atom        0.000000      0.000000      0.000000
     4   Atom        0.000000      0.000000      0.000000
     5   Atom        0.000000      0.000000      0.000000
     6   Atom        0.000000      0.000000      0.000000
     7   Atom        0.000000      0.000000      0.000000
     8   Atom        0.000000      0.000000      0.000000
     9   Atom        0.000000      0.000000      0.000000
    10   Atom        0.000000      0.000000      0.000000
    11   Atom        0.000000      0.000000      0.000000
    12   Atom        0.000000      0.000000      0.000000
    13   Atom        0.000000      0.000000      0.000000
    14   Atom        0.000000      0.000000      0.000000
 --------------------------------------------------------
                        XY            XZ            YZ
 --------------------------------------------------------
     1   Atom        0.000000      0.000000      0.000000
     2   Atom        0.000000      0.000000      0.000000
     3   Atom        0.000000      0.000000      0.000000
     4   Atom        0.000000      0.000000      0.000000
     5   Atom        0.000000      0.000000      0.000000
     6   Atom        0.000000      0.000000      0.000000
     7   Atom        0.000000      0.000000      0.000000
     8   Atom        0.000000      0.000000      0.000000
     9   Atom        0.000000      0.000000      0.000000
    10   Atom        0.000000      0.000000      0.000000
    11   Atom        0.000000      0.000000      0.000000
    12   Atom        0.000000      0.000000      0.000000
    13   Atom        0.000000      0.000000      0.000000
    14   Atom        0.000000      0.000000      0.000000
 --------------------------------------------------------


 ---------------------------------------------------------------------------------
              Anisotropic Spin Dipole Couplings in Principal Axis System
 ---------------------------------------------------------------------------------

       Atom             a.u.   MegaHertz   Gauss  10(-4) cm-1        Axes

              Baa     0.0000     0.000     0.000     0.000  1.0000  0.0000  0.0000
     1 C(13)  Bbb     0.0000     0.000     0.000     0.000 -0.0000  1.0000  0.0000
              Bcc     0.0000     0.000     0.000     0.000  0.0000  0.0000  1.0000
 
              Baa     0.0000     0.000     0.000     0.000  1.0000  0.0000  0.0000
     2 C(13)  Bbb     0.0000     0.000     0.000     0.000 -0.0000  1.0000  0.0000
              Bcc     0.0000     0.000     0.000     0.000  0.0000  0.0000  1.0000
 
              Baa     0.0000     0.000     0.000     0.000  1.0000  0.0000  0.0000
     3 H(1)   Bbb     0.0000     0.000     0.000     0.000 -0.0000  1.0000  0.0000
              Bcc     0.0000     0.000     0.000     0.000  0.0000  0.0000  1.0000
 
              Baa     0.0000     0.000     0.000     0.000  1.0000  0.0000  0.0000
     4 H(1)   Bbb     0.0000     0.000     0.000     0.000 -0.0000  1.0000  0.0000
              Bcc     0.0000     0.000     0.000     0.000  0.0000  0.0000  1.0000
 
              Baa     0.0000     0.000     0.000     0.000  1.0000  0.0000  0.0000
     5 H(1)   Bbb     0.0000     0.000     0.000     0.000 -0.0000  1.0000  0.0000
              Bcc     0.0000     0.000     0.000     0.000  0.0000  0.0000  1.0000
 
              Baa     0.0000     0.000     0.000     0.000  1.0000  0.0000  0.0000
     6 H(1)   Bbb     0.0000     0.000     0.000     0.000 -0.0000  1.0000  0.0000
              Bcc     0.0000     0.000     0.000     0.000  0.0000  0.0000  1.0000
 
              Baa     0.0000     0.000     0.000     0.000  1.0000  0.0000  0.0000
     7 C(13)  Bbb     0.0000     0.000     0.000     0.000 -0.0000  1.0000  0.0000
              Bcc     0.0000     0.000     0.000     0.000  0.0000  0.0000  1.0000
 
              Baa     0.0000     0.000     0.000     0.000  1.0000  0.0000  0.0000
     8 C(13)  Bbb     0.0000     0.000     0.000     0.000 -0.0000  1.0000  0.0000
              Bcc     0.0000     0.000     0.000     0.000  0.0000  0.0000  1.0000
 
              Baa     0.0000     0.000     0.000     0.000  1.0000  0.0000  0.0000
     9 H(1)   Bbb     0.0000     0.000     0.000     0.000 -0.0000  1.0000  0.0000
              Bcc     0.0000     0.000     0.000     0.000  0.0000  0.0000  1.0000
 
              Baa     0.0000     0.000     0.000     0.000  1.0000  0.0000  0.0000
    10 H(1)   Bbb     0.0000     0.000     0.000     0.000 -0.0000  1.0000  0.0000
              Bcc     0.0000     0.000     0.000     0.000  0.0000  0.0000  1.0000
 
              Baa     0.0000     0.000     0.000     0.000  1.0000  0.0000  0.0000
    11 H(1)   Bbb     0.0000     0.000     0.000     0.000 -0.0000  1.0000  0.0000
              Bcc     0.0000     0.000     0.000     0.000  0.0000  0.0000  1.0000
 
              Baa     0.0000     0.000     0.000     0.000  1.0000  0.0000  0.0000
    12 H(1)   Bbb     0.0000     0.000     0.000     0.000 -0.0000  1.0000  0.0000
              Bcc     0.0000     0.000     0.000     0.000  0.0000  0.0000  1.0000
 
              Baa     0.0000     0.000     0.000     0.000  1.0000  0.0000  0.0000
    13 H(1)   Bbb     0.0000     0.000     0.000     0.000 -0.0000  1.0000  0.0000
              Bcc     0.0000     0.000     0.000     0.000  0.0000  0.0000  1.0000
 
              Baa     0.0000     0.000     0.000     0.000  1.0000  0.0000  0.0000
    14 H(1)   Bbb     0.0000     0.000     0.000     0.000 -0.0000  1.0000  0.0000
              Bcc     0.0000     0.000     0.000     0.000  0.0000  0.0000  1.0000
 

 ---------------------------------------------------------------------------------

 1\1\GINC-N69\Scan\UB2PLYPD3-FC\CC-pVTZ\C4H10\ROOT\01-Jun-2019\0\\# opt
 =(maxcyc=500,modredundant) uB2PLYPD3/cc-pvtz scf=maxcyc=500 nosymm\\Ti
 tle Card Required\\0,1\C,-3.405727084,0.7551075355,0.1200702146\C,-1.8
 822303406,0.8164008468,0.2031481255\H,-1.5635518957,1.8024327743,-0.14
 62344294\H,-3.868021904,1.5228159689,0.7404472146\H,-3.7529605402,0.89
 51902911,-0.9035566476\H,-3.7683556379,-0.2151159638,0.4649349553\C,-1
 .2451023102,-0.2351759593,-0.7023809465\C,-1.4091419554,0.6507799876,1
 .6456038378\H,-0.1570184851,-0.1811398948,-0.6685170313\H,-1.538646711
 3,-1.2384426628,-0.3876399006\H,-1.5566967813,-0.1074026899,-1.7389929
 065\H,-1.7071226452,-0.3243743295,2.0355242689\H,-0.3237869141,0.72015
 87238,1.7175500126\H,-1.8392610949,1.4138264122,2.2942552326\\Version=
 ES64L-G16RevB.01\HF=-158.1220882,-158.1217545,-158.120841,-158.1195276
 ,-158.1181184,-158.1170115,-158.1165846,-158.1170039,-158.1181073,-158
 .1195156,-158.1208312,-158.1217491,-158.1220866,-158.1217812,-158.1208
 866,-158.1195787,-158.1181545,-158.1170247,-158.116584,-158.1170071,-1
 58.1181266,-158.1195482,-158.120862,-158.1217663,-158.1220878,-158.121
 7706,-158.1208704,-158.1195603,-158.1181375,-158.1170145,-158.1165843,
 -158.1170173,-158.1181435,-158.1195661,-158.1208772,-158.1217761,-158.
 1220872\MP2=-158.3560573,-158.3557324,-158.354844,-158.3535602,-158.35
 2173,-158.3510727,-158.3506455,-158.3510653,-158.352162,-158.3535488,-
 158.3548348,-158.3557272,-158.3560575,-158.355769,-158.3549066,-158.35
 36285,-158.3522223,-158.351092,-158.350645,-158.3510653,-158.3521788,-
 158.3535823,-158.3548692,-158.3557481,-158.3560584,-158.3557521,-158.3
 548774,-158.3535936,-158.3521903,-158.351073,-158.3506449,-158.3510846
 ,-158.3522113,-158.3536174,-158.3548979,-158.355764,-158.3560582\PUHF=
 -158.1220882,-158.1217545,-158.120841,-158.1195276,-158.1181184,-158.1
 170115,-158.1165846,-158.1170039,-158.1181073,-158.1195156,-158.120831
 2,-158.1217491,-158.1220866,-158.1217812,-158.1208866,-158.1195787,-15
 8.1181545,-158.1170247,-158.116584,-158.1170071,-158.1181266,-158.1195
 482,-158.120862,-158.1217663,-158.1220878,-158.1217706,-158.1208704,-1
 58.1195603,-158.1181375,-158.1170145,-158.1165843,-158.1170173,-158.11
 81435,-158.1195661,-158.1208772,-158.1217761,-158.1220872\PMP2-0=-158.
 3560573,-158.3557324,-158.354844,-158.3535602,-158.352173,-158.3510727
 ,-158.3506455,-158.3510653,-158.352162,-158.3535488,-158.3548348,-158.
 3557272,-158.3560575,-158.355769,-158.3549066,-158.3536285,-158.352222
 3,-158.351092,-158.350645,-158.3510653,-158.3521788,-158.3535823,-158.
 3548692,-158.3557481,-158.3560584,-158.3557521,-158.3548774,-158.35359
 36,-158.3521903,-158.351073,-158.3506449,-158.3510846,-158.3522113,-15
 8.3536174,-158.3548979,-158.355764,-158.3560582\S2=0.,0.,0.,0.,0.,0.,0
 .,0.,0.,0.,0.,0.,0.,0.,0.,0.,0.,0.,0.,0.,0.,0.,0.,0.,0.,0.,0.,0.,0.,0.
 ,0.,0.,0.,0.,0.,0.,0.\S2-1=0.,0.,0.,0.,0.,0.,0.,0.,0.,0.,0.,0.,0.,0.,0
 .,0.,0.,0.,0.,0.,0.,0.,0.,0.,0.,0.,0.,0.,0.,0.,0.,0.,0.,0.,0.,0.,0.\S2
 A=0.,0.,0.,0.,0.,0.,0.,0.,0.,0.,0.,0.,0.,0.,0.,0.,0.,0.,0.,0.,0.,0.,0.
 ,0.,0.,0.,0.,0.,0.,0.,0.,0.,0.,0.,0.,0.,0.\RMSD=4.104e-09,9.619e-10,2.
 927e-09,7.410e-09,5.149e-09,3.926e-09,9.827e-09,2.571e-09,8.366e-09,5.
 592e-09,2.708e-09,8.720e-09,4.107e-09,7.651e-09,7.065e-09,2.366e-09,8.
 022e-09,2.263e-09,3.300e-09,9.879e-09,7.734e-09,5.991e-09,2.943e-09,7.
 684e-09,6.301e-09,7.218e-09,6.412e-09,2.451e-09,5.628e-09,2.970e-09,9.
 809e-09,3.745e-09,7.312e-09,2.507e-09,2.985e-09,2.048e-09,2.504e-09\PG
 =C01 [X(C4H10)]\\@


 IT'S WHAT YOU LEARN AFTER YOU KNOW IT ALL
 THAT COUNTS.
 Job cpu time:       4 days 19 hours 32 minutes 29.6 seconds.
 Elapsed time:       0 days  3 hours 34 minutes 16.5 seconds.
 File lengths (MBytes):  RWF=     82 Int=      0 D2E=      0 Chk=     14 Scr=      1
 Normal termination of Gaussian 16 at Sat Jun  1 13:33:32 2019.
