 Entering Gaussian System, Link 0=g16
 Initial command:
 /ichec/packages/gaussian/16b01/l1.exe "/localscratch/339781/Gau-64093.inp" -scrdir="/localscratch/339781/"
 Entering Link 1 = /ichec/packages/gaussian/16b01/l1.exe PID=     64146.
  
 Copyright (c) 1988-2017, Gaussian, Inc.  All Rights Reserved.
  
 This is part of the Gaussian(R) 16 program.  It is based on
 the Gaussian(R) 09 system (copyright 2009, Gaussian, Inc.),
 the Gaussian(R) 03 system (copyright 2003, Gaussian, Inc.),
 the Gaussian(R) 98 system (copyright 1998, Gaussian, Inc.),
 the Gaussian(R) 94 system (copyright 1995, Gaussian, Inc.),
 the Gaussian 92(TM) system (copyright 1992, Gaussian, Inc.),
 the Gaussian 90(TM) system (copyright 1990, Gaussian, Inc.),
 the Gaussian 88(TM) system (copyright 1988, Gaussian, Inc.),
 the Gaussian 86(TM) system (copyright 1986, Carnegie Mellon
 University), and the Gaussian 82(TM) system (copyright 1983,
 Carnegie Mellon University). Gaussian is a federally registered
 trademark of Gaussian, Inc.
  
 This software contains proprietary and confidential information,
 including trade secrets, belonging to Gaussian, Inc.
  
 This software is provided under written license and may be
 used, copied, transmitted, or stored only in accord with that
 written license.
  
 The following legend is applicable only to US Government
 contracts under FAR:
  
                    RESTRICTED RIGHTS LEGEND
  
 Use, reproduction and disclosure by the US Government is
 subject to restrictions as set forth in subparagraphs (a)
 and (c) of the Commercial Computer Software - Restricted
 Rights clause in FAR 52.227-19.
  
 Gaussian, Inc.
 340 Quinnipiac St., Bldg. 40, Wallingford CT 06492
  
  
 ---------------------------------------------------------------
 Warning -- This program may not be used in any manner that
 competes with the business of Gaussian, Inc. or will provide
 assistance to any competitor of Gaussian, Inc.  The licensee
 of this program is prohibited from giving any competitor of
 Gaussian, Inc. access to this program.  By using this program,
 the user acknowledges that Gaussian, Inc. is engaged in the
 business of creating and licensing software in the field of
 computational chemistry and represents and warrants to the
 licensee that it is not a competitor of Gaussian, Inc. and that
 it will not use this program in any manner prohibited above.
 ---------------------------------------------------------------
  

 Cite this work as:
 Gaussian 16, Revision B.01,
 M. J. Frisch, G. W. Trucks, H. B. Schlegel, G. E. Scuseria, 
 M. A. Robb, J. R. Cheeseman, G. Scalmani, V. Barone, 
 G. A. Petersson, H. Nakatsuji, X. Li, M. Caricato, A. V. Marenich, 
 J. Bloino, B. G. Janesko, R. Gomperts, B. Mennucci, H. P. Hratchian, 
 J. V. Ortiz, A. F. Izmaylov, J. L. Sonnenberg, D. Williams-Young, 
 F. Ding, F. Lipparini, F. Egidi, J. Goings, B. Peng, A. Petrone, 
 T. Henderson, D. Ranasinghe, V. G. Zakrzewski, J. Gao, N. Rega, 
 G. Zheng, W. Liang, M. Hada, M. Ehara, K. Toyota, R. Fukuda, 
 J. Hasegawa, M. Ishida, T. Nakajima, Y. Honda, O. Kitao, H. Nakai, 
 T. Vreven, K. Throssell, J. A. Montgomery, Jr., J. E. Peralta, 
 F. Ogliaro, M. J. Bearpark, J. J. Heyd, E. N. Brothers, K. N. Kudin, 
 V. N. Staroverov, T. A. Keith, R. Kobayashi, J. Normand, 
 K. Raghavachari, A. P. Rendell, J. C. Burant, S. S. Iyengar, 
 J. Tomasi, M. Cossi, J. M. Millam, M. Klene, C. Adamo, R. Cammi, 
 J. W. Ochterski, R. L. Martin, K. Morokuma, O. Farkas, 
 J. B. Foresman, and D. J. Fox, Gaussian, Inc., Wallingford CT, 2016.
 
 ******************************************
 Gaussian 16:  ES64L-G16RevB.01 20-Dec-2017
                 2-Jun-2019 
 ******************************************
 %mem=80GB
 %nproc=40
 Will use up to   40 processors via shared memory.
 -----------------------------------------------
 # opt=maxcyc=500 freq=noraman uB2PLYPD3/cc-pvtz
 -----------------------------------------------
 1/6=500,18=20,19=15,38=1/1,3;
 2/9=110,12=2,17=6,18=5,40=1/2;
 3/5=16,6=1,11=2,25=1,30=1,71=1,74=-60,116=2/1,2,3;
 4//1;
 5/5=2,38=5/2;
 8/6=4,10=1/1;
 9/15=2,16=-3/6;
 10/5=1/2;
 6/7=2,8=2,9=2,10=2/1;
 7/12=2/1,2,3,16;
 1/6=500,18=20,19=15/3(2);
 2/9=110/2;
 99//99;
 2/9=110/2;
 3/5=16,6=1,11=2,25=1,30=1,71=1,74=-60,116=2/1,2,3;
 4/5=5,16=3,69=1/1;
 5/5=2,38=5/2;
 8/6=4,10=1/1;
 9/15=2,16=-3/6;
 10/5=1/2;
 7/12=2/1,2,3,16;
 1/6=500,18=20,19=15/3(-8);
 2/9=110/2;
 6/7=2,8=2,9=2,10=2/1;
 99/9=10/99;
 -------------------
 Title Card Required
 -------------------
 Symbolic Z-matrix:
 Charge =  0 Multiplicity = 2
 C                    -0.79297   1.19037  -0.02494 
 C                    -0.09082   0.00496   0.00577 
 H                    -1.87306   1.19367  -0.04214 
 C                    -0.74456  -1.21902   0.02002 
 C                     1.4202    0.02531  -0.00021 
 H                    -0.19692  -2.14919   0.05679 
 H                    -1.82289  -1.2707   -0.00186 
 H                     1.80228  -0.20875  -1.0391 
 H                     1.80284   1.03256   0.30424 
 H                     1.82511  -0.7515    0.7015 
 H                    -0.28853   2.14422  -0.02324 
 

 GradGradGradGradGradGradGradGradGradGradGradGradGradGradGradGradGradGrad
 Berny optimization.
 Initialization pass.
                           ----------------------------
                           !    Initial Parameters    !
                           ! (Angstroms and Degrees)  !
 --------------------------                            --------------------------
 ! Name  Definition              Value          Derivative Info.                !
 --------------------------------------------------------------------------------
 ! R1    R(1,2)                  1.3781         estimate D2E/DX2                !
 ! R2    R(1,3)                  1.0802         estimate D2E/DX2                !
 ! R3    R(1,11)                 1.079          estimate D2E/DX2                !
 ! R4    R(2,4)                  1.3877         estimate D2E/DX2                !
 ! R5    R(2,5)                  1.5112         estimate D2E/DX2                !
 ! R6    R(4,6)                  1.08           estimate D2E/DX2                !
 ! R7    R(4,7)                  1.0798         estimate D2E/DX2                !
 ! R8    R(5,8)                  1.1314         estimate D2E/DX2                !
 ! R9    R(5,9)                  1.1197         estimate D2E/DX2                !
 ! R10   R(5,10)                 1.1224         estimate D2E/DX2                !
 ! A1    A(2,1,3)              120.8256         estimate D2E/DX2                !
 ! A2    A(2,1,11)             121.4774         estimate D2E/DX2                !
 ! A3    A(3,1,11)             117.6946         estimate D2E/DX2                !
 ! A4    A(1,2,4)              121.2584         estimate D2E/DX2                !
 ! A5    A(1,2,5)              119.854          estimate D2E/DX2                !
 ! A6    A(4,2,5)              118.879          estimate D2E/DX2                !
 ! A7    A(2,4,6)              121.407          estimate D2E/DX2                !
 ! A8    A(2,4,7)              120.8276         estimate D2E/DX2                !
 ! A9    A(6,4,7)              117.765          estimate D2E/DX2                !
 ! A10   A(2,5,8)              109.7868         estimate D2E/DX2                !
 ! A11   A(2,5,9)              110.6552         estimate D2E/DX2                !
 ! A12   A(2,5,10)             110.4217         estimate D2E/DX2                !
 ! A13   A(8,5,9)              108.6856         estimate D2E/DX2                !
 ! A14   A(8,5,10)             108.003          estimate D2E/DX2                !
 ! A15   A(9,5,10)             109.2278         estimate D2E/DX2                !
 ! D1    D(3,1,2,4)             -0.2134         estimate D2E/DX2                !
 ! D2    D(3,1,2,5)            178.705          estimate D2E/DX2                !
 ! D3    D(11,1,2,4)           179.1987         estimate D2E/DX2                !
 ! D4    D(11,1,2,5)            -1.8829         estimate D2E/DX2                !
 ! D5    D(1,2,4,6)           -179.2098         estimate D2E/DX2                !
 ! D6    D(1,2,4,7)              0.5665         estimate D2E/DX2                !
 ! D7    D(5,2,4,6)              1.8615         estimate D2E/DX2                !
 ! D8    D(5,2,4,7)           -178.3622         estimate D2E/DX2                !
 ! D9    D(1,2,5,8)           -101.3806         estimate D2E/DX2                !
 ! D10   D(1,2,5,9)             18.5855         estimate D2E/DX2                !
 ! D11   D(1,2,5,10)           139.6438         estimate D2E/DX2                !
 ! D12   D(4,2,5,8)             77.5635         estimate D2E/DX2                !
 ! D13   D(4,2,5,9)           -162.4704         estimate D2E/DX2                !
 ! D14   D(4,2,5,10)           -41.4121         estimate D2E/DX2                !
 --------------------------------------------------------------------------------
 Trust Radius=3.00D-01 FncErr=1.00D-07 GrdErr=1.00D-07 EigMax=2.50D+02 EigMin=1.00D-04
 Number of steps in this run=    100 maximum allowed number of steps=    100.
 GradGradGradGradGradGradGradGradGradGradGradGradGradGradGradGradGradGrad

                          Input orientation:                          
 ---------------------------------------------------------------------
 Center     Atomic      Atomic             Coordinates (Angstroms)
 Number     Number       Type             X           Y           Z
 ---------------------------------------------------------------------
      1          6           0       -0.792970    1.190368   -0.024942
      2          6           0       -0.090818    0.004964    0.005770
      3          1           0       -1.873058    1.193669   -0.042138
      4          6           0       -0.744556   -1.219024    0.020019
      5          6           0        1.420204    0.025307   -0.000213
      6          1           0       -0.196921   -2.149190    0.056792
      7          1           0       -1.822886   -1.270696   -0.001858
      8          1           0        1.802279   -0.208749   -1.039097
      9          1           0        1.802843    1.032555    0.304237
     10          1           0        1.825113   -0.751497    0.701496
     11          1           0       -0.288529    2.144221   -0.023237
 ---------------------------------------------------------------------
                    Distance matrix (angstroms):
                    1          2          3          4          5
     1  C    0.000000
     2  C    1.378094   0.000000
     3  H    1.080230   2.142824   0.000000
     4  C    2.410298   1.387704   2.664295   0.000000
     5  C    2.501223   1.511171   3.494625   2.496989   0.000000
     6  H    3.393317   2.157369   3.740846   1.080030   2.710494
     7  H    2.667976   2.151145   2.465205   1.079789   3.492457
     8  H    3.117909   2.172841   4.058178   2.937474   1.131390
     9  H    2.621356   2.175081   3.695698   3.411690   1.119666
    10  H    3.339597   2.174180   4.244188   2.699295   1.122395
    11  H    1.079027   2.148570   1.847874   3.394296   2.722149
                    6          7          8          9         10
     6  H    0.000000
     7  H    1.849041   0.000000
     8  H    2.993841   3.917323   0.000000
     9  H    3.766137   4.306341   1.829039   0.000000
    10  H    2.541222   3.751289   1.823393   1.827882   0.000000
    11  H    4.295134   3.743844   3.307555   2.390999   3.657582
                   11
    11  H    0.000000
 Stoichiometry    C4H7(2)
 Framework group  C1[X(C4H7)]
 Deg. of freedom    27
 Full point group                 C1      NOp   1
 Largest Abelian subgroup         C1      NOp   1
 Largest concise Abelian subgroup C1      NOp   1
                         Standard orientation:                         
 ---------------------------------------------------------------------
 Center     Atomic      Atomic             Coordinates (Angstroms)
 Number     Number       Type             X           Y           Z
 ---------------------------------------------------------------------
      1          6           0       -0.794772   -1.189400    0.000645
      2          6           0       -0.090813   -0.004697   -0.007303
      3          1           0       -1.874892   -1.191380    0.015953
      4          6           0       -0.742711    1.220335   -0.000378
      5          6           0        1.420165   -0.027432    0.000861
      6          1           0       -0.193636    2.150187   -0.019292
      7          1           0       -1.820999    1.273232    0.020614
      8          1           0        1.800802    0.187103    1.044477
      9          1           0        1.801833   -1.029551   -0.321222
     10          1           0        1.827428    0.761399   -0.685909
     11          1           0       -0.291743   -2.143826   -0.017567
 ---------------------------------------------------------------------
 Rotational constants (GHZ):           9.9918473           8.8559380           4.8460591
 Standard basis: CC-pVTZ (5D, 7F)
 There are   245 symmetry adapted cartesian basis functions of A   symmetry.
 There are   218 symmetry adapted basis functions of A   symmetry.
   218 basis functions,   327 primitive gaussians,   245 cartesian basis functions
    16 alpha electrons       15 beta electrons
       nuclear repulsion energy       112.5164742856 Hartrees.
 NAtoms=   11 NActive=   11 NUniq=   11 SFac= 1.00D+00 NAtFMM=   60 NAOKFM=F Big=F
 Integral buffers will be    131072 words long.
 Raffenetti 2 integral format.
 Two-electron integral symmetry is turned on.
 Nuclear repulsion after empirical dispersion term =      112.5109817440 Hartrees.
 One-electron integrals computed using PRISM.
 NBasis=   218 RedAO= T EigKep=  4.05D-04  NBF=   218
 NBsUse=   218 1.00D-06 EigRej= -1.00D+00 NBFU=   218
 ExpMin= 1.03D-01 ExpMax= 8.24D+03 ExpMxC= 2.81D+02 IAcc=3 IRadAn=         5 AccDes= 0.00D+00
 Harris functional with IExCor=  419 and IRadAn=       5 diagonalized for initial guess.
 HarFok:  IExCor=  419 AccDes= 0.00D+00 IRadAn=         5 IDoV= 1 UseB2=F ITyADJ=14
 ICtDFT=  3500011 ScaDFX=  1.000000  1.000000  1.000000  1.000000
 FoFCou: FMM=F IPFlag=           0 FMFlag=      100000 FMFlg1=           0
         NFxFlg=           0 DoJE=T BraDBF=F KetDBF=T FulRan=T
         wScrn=  0.000000 ICntrl=       500 IOpCl=  0 I1Cent=   200000004 NGrid=           0
         NMat0=    1 NMatS0=      1 NMatT0=    0 NMatD0=    1 NMtDS0=    0 NMtDT0=    0
 Petite list used in FoFCou.
 Initial guess <Sx>= 0.0000 <Sy>= 0.0000 <Sz>= 0.5000 <S**2>= 0.7500 S= 0.5000
 Keep R1 and R2 ints in memory in canonical form, NReq=612885869.
 Requested convergence on RMS density matrix=1.00D-08 within 128 cycles.
 Requested convergence on MAX density matrix=1.00D-06.
 Requested convergence on             energy=1.00D-06.
 No special actions if energy rises.
 Integral accuracy reduced to 1.0D-05 until final iterations.
 Initial convergence to 1.0D-05 achieved.  Increase integral accuracy.
 SCF Done:  E(UB2PLYPD3) =  -156.268143716     A.U. after   16 cycles
            NFock= 16  Conv=0.40D-08     -V/T= 2.0053
 <Sx>= 0.0000 <Sy>= 0.0000 <Sz>= 0.5000 <S**2>= 0.8283 S= 0.5384
 <L.S>=  0.00000000000    
 Annihilation of the first spin contaminant:
 S**2 before annihilation     0.8283,   after     0.7510
 DoSCS=T DFT=T ScalE2(SS,OS)=  0.270000  0.270000
 ExpMin= 1.03D-01 ExpMax= 8.24D+03 ExpMxC= 2.81D+02 IAcc=3 IRadAn=         5 AccDes= 0.00D+00
 HarFok:  IExCor=  205 AccDes= 0.00D+00 IRadAn=         5 IDoV=-2 UseB2=F ITyADJ=14
 ICtDFT= 12500011 ScaDFX=  1.000000  1.000000  1.000000  1.000000
 Range of M.O.s used for correlation:     5   218
 NBasis=   218 NAE=    16 NBE=    15 NFC=     4 NFV=     0
 NROrb=    214 NOA=    12 NOB=    11 NVA=   202 NVB=   203

 **** Warning!!: The largest alpha MO coefficient is  0.14798778D+02


 **** Warning!!: The largest beta MO coefficient is  0.15624593D+02

 DoSCS=T DFT=T ScalE2(SS,OS)=  0.270000  0.270000
 Fully direct method using O(ONN) memory.
 JobTyp=2 Pass  1:  I=   5 to  16 NPSUse= 40 ParTrn=T ParDer=T DoDerP=T.
 JobTyp=3 Pass  1:  I=   5 to  15 NPSUse= 40 ParTrn=T ParDer=T DoDerP=T.
 Spin components of T(2) and E(2):
     alpha-alpha T2 =       0.4243445040D-01 E2=     -0.2653455210D-01
     alpha-beta  T2 =       0.2398713914D+00 E2=     -0.1623605633D+00
     beta-beta   T2 =       0.3594217558D-01 E2=     -0.2189611965D-01
 (S**2,0)=  0.82826D+00           (S**2,1)=  0.76280D+00
 Scaling Projection term by:   0.270000
 E(PUHF)=      -0.15627840055D+03        E(PMP2)=      -0.15648055467D+03
 E2(B2PLYPD3) =    -0.2107912350D+00 E(B2PLYPD3) =    -0.15647893495118D+03
          IDoAtm=11111111111
          Differentiating once with respect to electric field.
                with respect to dipole field.
          Differentiating once with respect to nuclear coordinates.
 Keep R1 and R2 ints in memory in canonical form, NReq=612894013.
          There are     1 degrees of freedom in the 1st order CPHF.  IDoFFX=0 NUNeed=     1.
 LinEq1:  Iter=  0 NonCon=     1 RMS=9.48D-04 Max=3.47D-02 NDo=     1
 AX will form     1 AO Fock derivatives at one time.
 LinEq1:  Iter=  1 NonCon=     1 RMS=3.22D-04 Max=7.56D-03 NDo=     1
 LinEq1:  Iter=  2 NonCon=     1 RMS=1.77D-04 Max=4.21D-03 NDo=     1
 LinEq1:  Iter=  3 NonCon=     1 RMS=5.20D-05 Max=1.51D-03 NDo=     1
 LinEq1:  Iter=  4 NonCon=     1 RMS=2.19D-05 Max=4.66D-04 NDo=     1
 LinEq1:  Iter=  5 NonCon=     1 RMS=6.75D-06 Max=2.70D-04 NDo=     1
 LinEq1:  Iter=  6 NonCon=     1 RMS=2.05D-06 Max=6.94D-05 NDo=     1
 LinEq1:  Iter=  7 NonCon=     1 RMS=1.24D-06 Max=5.69D-05 NDo=     1
 LinEq1:  Iter=  8 NonCon=     1 RMS=4.85D-07 Max=1.28D-05 NDo=     1
 LinEq1:  Iter=  9 NonCon=     1 RMS=1.57D-07 Max=3.09D-06 NDo=     1
 LinEq1:  Iter= 10 NonCon=     1 RMS=7.76D-08 Max=1.33D-06 NDo=     1
 LinEq1:  Iter= 11 NonCon=     1 RMS=2.40D-08 Max=2.53D-07 NDo=     1
 LinEq1:  Iter= 12 NonCon=     1 RMS=8.64D-09 Max=1.41D-07 NDo=     1
 LinEq1:  Iter= 13 NonCon=     1 RMS=1.86D-09 Max=3.18D-08 NDo=     1
 LinEq1:  Iter= 14 NonCon=     1 RMS=5.43D-10 Max=8.56D-09 NDo=     1
 LinEq1:  Iter= 15 NonCon=     1 RMS=1.69D-10 Max=2.27D-09 NDo=     1
 LinEq1:  Iter= 16 NonCon=     0 RMS=3.29D-11 Max=3.98D-10 NDo=     1
 Linear equations converged to 1.000D-10 1.000D-09 after    16 iterations.
 End of Minotr F.D. properties file   721 does not exist.
 End of Minotr F.D. properties file   722 does not exist.
 End of Minotr F.D. properties file   788 does not exist.

 **********************************************************************

            Population analysis using the SCF Density.

 **********************************************************************

 Orbital symmetries:
 Alpha Orbitals:
       Occupied  (A) (A) (A) (A) (A) (A) (A) (A) (A) (A) (A) (A)
                 (A) (A) (A) (A)
       Virtual   (A) (A) (A) (A) (A) (A) (A) (A) (A) (A) (A) (A)
                 (A) (A) (A) (A) (A) (A) (A) (A) (A) (A) (A) (A)
                 (A) (A) (A) (A) (A) (A) (A) (A) (A) (A) (A) (A)
                 (A) (A) (A) (A) (A) (A) (A) (A) (A) (A) (A) (A)
                 (A) (A) (A) (A) (A) (A) (A) (A) (A) (A) (A) (A)
                 (A) (A) (A) (A) (A) (A) (A) (A) (A) (A) (A) (A)
                 (A) (A) (A) (A) (A) (A) (A) (A) (A) (A) (A) (A)
                 (A) (A) (A) (A) (A) (A) (A) (A) (A) (A) (A) (A)
                 (A) (A) (A) (A) (A) (A) (A) (A) (A) (A) (A) (A)
                 (A) (A) (A) (A) (A) (A) (A) (A) (A) (A) (A) (A)
                 (A) (A) (A) (A) (A) (A) (A) (A) (A) (A) (A) (A)
                 (A) (A) (A) (A) (A) (A) (A) (A) (A) (A) (A) (A)
                 (A) (A) (A) (A) (A) (A) (A) (A) (A) (A) (A) (A)
                 (A) (A) (A) (A) (A) (A) (A) (A) (A) (A) (A) (A)
                 (A) (A) (A) (A) (A) (A) (A) (A) (A) (A) (A) (A)
                 (A) (A) (A) (A) (A) (A) (A) (A) (A) (A) (A) (A)
                 (A) (A) (A) (A) (A) (A) (A) (A) (A) (A)
 Beta  Orbitals:
       Occupied  (A) (A) (A) (A) (A) (A) (A) (A) (A) (A) (A) (A)
                 (A) (A) (A)
       Virtual   (A) (A) (A) (A) (A) (A) (A) (A) (A) (A) (A) (A)
                 (A) (A) (A) (A) (A) (A) (A) (A) (A) (A) (A) (A)
                 (A) (A) (A) (A) (A) (A) (A) (A) (A) (A) (A) (A)
                 (A) (A) (A) (A) (A) (A) (A) (A) (A) (A) (A) (A)
                 (A) (A) (A) (A) (A) (A) (A) (A) (A) (A) (A) (A)
                 (A) (A) (A) (A) (A) (A) (A) (A) (A) (A) (A) (A)
                 (A) (A) (A) (A) (A) (A) (A) (A) (A) (A) (A) (A)
                 (A) (A) (A) (A) (A) (A) (A) (A) (A) (A) (A) (A)
                 (A) (A) (A) (A) (A) (A) (A) (A) (A) (A) (A) (A)
                 (A) (A) (A) (A) (A) (A) (A) (A) (A) (A) (A) (A)
                 (A) (A) (A) (A) (A) (A) (A) (A) (A) (A) (A) (A)
                 (A) (A) (A) (A) (A) (A) (A) (A) (A) (A) (A) (A)
                 (A) (A) (A) (A) (A) (A) (A) (A) (A) (A) (A) (A)
                 (A) (A) (A) (A) (A) (A) (A) (A) (A) (A) (A) (A)
                 (A) (A) (A) (A) (A) (A) (A) (A) (A) (A) (A) (A)
                 (A) (A) (A) (A) (A) (A) (A) (A) (A) (A) (A) (A)
                 (A) (A) (A) (A) (A) (A) (A) (A) (A) (A) (A)
 The electronic state is 2-A.
 Alpha  occ. eigenvalues --  -10.62313 -10.61889 -10.61433 -10.61324  -0.93327
 Alpha  occ. eigenvalues --   -0.79061  -0.78897  -0.60949  -0.53362  -0.52652
 Alpha  occ. eigenvalues --   -0.47654  -0.44648  -0.43420  -0.41331  -0.36155
 Alpha  occ. eigenvalues --   -0.25053
 Alpha virt. eigenvalues --    0.08271   0.09187   0.11789   0.12655   0.14270
 Alpha virt. eigenvalues --    0.15430   0.17426   0.19674   0.21053   0.27125
 Alpha virt. eigenvalues --    0.29160   0.31489   0.36264   0.36497   0.37593
 Alpha virt. eigenvalues --    0.39895   0.40678   0.42152   0.42795   0.49439
 Alpha virt. eigenvalues --    0.49990   0.52071   0.52298   0.52835   0.53032
 Alpha virt. eigenvalues --    0.54669   0.55604   0.56116   0.58710   0.63620
 Alpha virt. eigenvalues --    0.65411   0.69918   0.71391   0.73670   0.76206
 Alpha virt. eigenvalues --    0.78377   0.79693   0.85268   0.86828   0.91287
 Alpha virt. eigenvalues --    0.92900   0.97078   1.00451   1.01309   1.02622
 Alpha virt. eigenvalues --    1.04594   1.05546   1.08274   1.11279   1.12189
 Alpha virt. eigenvalues --    1.14896   1.21057   1.22911   1.25028   1.27382
 Alpha virt. eigenvalues --    1.27537   1.29859   1.31473   1.33896   1.37020
 Alpha virt. eigenvalues --    1.39128   1.40019   1.40562   1.42929   1.49589
 Alpha virt. eigenvalues --    1.51005   1.54073   1.55223   1.56036   1.57609
 Alpha virt. eigenvalues --    1.62841   1.63938   1.86154   1.87548   1.97541
 Alpha virt. eigenvalues --    2.16333   2.21253   2.23575   2.29772   2.34552
 Alpha virt. eigenvalues --    2.37065   2.41167   2.42915   2.47271   2.57762
 Alpha virt. eigenvalues --    2.60907   2.64004   2.65904   2.68119   2.69405
 Alpha virt. eigenvalues --    2.72435   2.74678   2.75880   2.85547   2.87454
 Alpha virt. eigenvalues --    2.89181   2.90480   2.91516   2.92863   2.95281
 Alpha virt. eigenvalues --    2.96401   2.97206   2.99588   3.03139   3.03994
 Alpha virt. eigenvalues --    3.04172   3.08177   3.10390   3.12135   3.16470
 Alpha virt. eigenvalues --    3.18130   3.18681   3.19741   3.21248   3.22020
 Alpha virt. eigenvalues --    3.25269   3.29662   3.31898   3.34222   3.36027
 Alpha virt. eigenvalues --    3.41150   3.42814   3.45066   3.45822   3.48424
 Alpha virt. eigenvalues --    3.49774   3.53036   3.55181   3.57210   3.60601
 Alpha virt. eigenvalues --    3.64072   3.65012   3.66869   3.70788   3.71736
 Alpha virt. eigenvalues --    3.76737   3.80071   3.83471   3.84489   3.88615
 Alpha virt. eigenvalues --    3.90787   3.93926   3.94540   3.98886   4.00505
 Alpha virt. eigenvalues --    4.03292   4.04897   4.08110   4.08547   4.09995
 Alpha virt. eigenvalues --    4.11711   4.15129   4.16005   4.19968   4.21136
 Alpha virt. eigenvalues --    4.23183   4.24422   4.24999   4.27264   4.30696
 Alpha virt. eigenvalues --    4.39843   4.45295   4.47812   4.50069   4.55075
 Alpha virt. eigenvalues --    4.57171   4.59162   4.70609   4.73148   4.84362
 Alpha virt. eigenvalues --    4.85982   4.94940   4.97945   4.98479   5.02133
 Alpha virt. eigenvalues --    5.03651   5.05164   5.06918   5.17426   5.18900
 Alpha virt. eigenvalues --    5.19493   5.22986   5.27995   5.28209   5.32653
 Alpha virt. eigenvalues --    5.33628   5.36398   5.40157   5.46721   5.50058
 Alpha virt. eigenvalues --    5.79701   5.87418   5.88109   5.97311   6.00015
 Alpha virt. eigenvalues --    6.09118   6.20600   6.53315  10.07292  13.33971
 Alpha virt. eigenvalues --   13.46813  14.21566
  Beta  occ. eigenvalues --  -10.62948 -10.61839 -10.60210 -10.60175  -0.92595
  Beta  occ. eigenvalues --   -0.78145  -0.75039  -0.60349  -0.52854  -0.52114
  Beta  occ. eigenvalues --   -0.47784  -0.44009  -0.43195  -0.41190  -0.31369
  Beta virt. eigenvalues --   -0.00785   0.08447   0.10788   0.12039   0.12888
  Beta virt. eigenvalues --    0.14561   0.15775   0.17852   0.19868   0.20917
  Beta virt. eigenvalues --    0.27143   0.29382   0.31914   0.36952   0.38309
  Beta virt. eigenvalues --    0.39268   0.40913   0.42012   0.45004   0.45431
  Beta virt. eigenvalues --    0.49612   0.50074   0.52297   0.52622   0.52944
  Beta virt. eigenvalues --    0.53399   0.55327   0.56016   0.57106   0.59491
  Beta virt. eigenvalues --    0.63580   0.67446   0.70331   0.71682   0.74055
  Beta virt. eigenvalues --    0.76566   0.79429   0.80590   0.85497   0.86796
  Beta virt. eigenvalues --    0.91765   0.93635   0.97480   1.00479   1.01275
  Beta virt. eigenvalues --    1.02715   1.05020   1.06325   1.08812   1.11617
  Beta virt. eigenvalues --    1.12461   1.16083   1.21389   1.23592   1.25704
  Beta virt. eigenvalues --    1.27595   1.28613   1.30868   1.32043   1.34144
  Beta virt. eigenvalues --    1.37307   1.39352   1.40277   1.41125   1.43288
  Beta virt. eigenvalues --    1.50244   1.51229   1.54157   1.55693   1.56358
  Beta virt. eigenvalues --    1.58485   1.63187   1.64286   1.86373   1.88158
  Beta virt. eigenvalues --    1.97524   2.18121   2.22079   2.26810   2.30974
  Beta virt. eigenvalues --    2.36169   2.37872   2.40851   2.43877   2.47445
  Beta virt. eigenvalues --    2.58859   2.61883   2.64544   2.66884   2.69175
  Beta virt. eigenvalues --    2.70683   2.72876   2.75604   2.76471   2.86111
  Beta virt. eigenvalues --    2.88218   2.89509   2.90970   2.92675   2.93769
  Beta virt. eigenvalues --    2.96545   2.97480   2.99125   3.01291   3.03745
  Beta virt. eigenvalues --    3.04579   3.04951   3.08562   3.10989   3.12070
  Beta virt. eigenvalues --    3.16734   3.18950   3.19446   3.20796   3.21918
  Beta virt. eigenvalues --    3.23571   3.26924   3.31103   3.33066   3.35058
  Beta virt. eigenvalues --    3.36753   3.41332   3.43088   3.45017   3.46057
  Beta virt. eigenvalues --    3.48940   3.50051   3.53159   3.55309   3.57235
  Beta virt. eigenvalues --    3.60848   3.64148   3.65076   3.67019   3.70793
  Beta virt. eigenvalues --    3.71915   3.76970   3.80437   3.83811   3.84606
  Beta virt. eigenvalues --    3.88902   3.90991   3.94284   3.94582   3.99007
  Beta virt. eigenvalues --    4.00426   4.03419   4.05052   4.08155   4.08617
  Beta virt. eigenvalues --    4.09916   4.11820   4.14991   4.16267   4.19923
  Beta virt. eigenvalues --    4.21126   4.23095   4.24426   4.25203   4.27406
  Beta virt. eigenvalues --    4.30895   4.39754   4.45454   4.47933   4.50117
  Beta virt. eigenvalues --    4.55387   4.57899   4.59600   4.71133   4.73417
  Beta virt. eigenvalues --    4.84351   4.86116   4.94957   4.99069   4.99282
  Beta virt. eigenvalues --    5.02375   5.03863   5.05385   5.08044   5.17425
  Beta virt. eigenvalues --    5.19165   5.19654   5.23292   5.28087   5.28842
  Beta virt. eigenvalues --    5.33014   5.33818   5.36433   5.40165   5.46857
  Beta virt. eigenvalues --    5.50280   5.79844   5.87613   5.88191   5.97317
  Beta virt. eigenvalues --    5.99998   6.09313   6.20822   6.53486  10.07041
  Beta virt. eigenvalues --   13.34600  13.47366  14.22403
          Condensed to atoms (all electrons):
               1          2          3          4          5          6
     1  C    5.100472   0.507482   0.416390  -0.073990  -0.052405   0.005690
     2  C    0.507482   4.828805  -0.046326   0.493245   0.344001  -0.049461
     3  H    0.416390  -0.046326   0.544872  -0.006263   0.006318  -0.000030
     4  C   -0.073990   0.493245  -0.006263   5.116270  -0.058898   0.421428
     5  C   -0.052405   0.344001   0.006318  -0.058898   4.810166  -0.004568
     6  H    0.005690  -0.049461  -0.000030   0.421428  -0.004568   0.538548
     7  H   -0.005930  -0.045750   0.003350   0.417040   0.005905  -0.035025
     8  H   -0.001211  -0.037162  -0.000336  -0.002863   0.400841   0.000500
     9  H   -0.005974  -0.041488   0.000093   0.005300   0.412124   0.000081
    10  H    0.003499  -0.040771  -0.000364  -0.005038   0.408720   0.001327
    11  H    0.421266  -0.048867  -0.035204   0.005879  -0.006484  -0.000316
               7          8          9         10         11
     1  C   -0.005930  -0.001211  -0.005974   0.003499   0.421266
     2  C   -0.045750  -0.037162  -0.041488  -0.040771  -0.048867
     3  H    0.003350  -0.000336   0.000093  -0.000364  -0.035204
     4  C    0.417040  -0.002863   0.005300  -0.005038   0.005879
     5  C    0.005905   0.400841   0.412124   0.408720  -0.006484
     6  H   -0.035025   0.000500   0.000081   0.001327  -0.000316
     7  H    0.542402  -0.000237  -0.000366   0.000003  -0.000043
     8  H   -0.000237   0.601273  -0.026989  -0.031222   0.000322
     9  H   -0.000366  -0.026989   0.593392  -0.027086   0.002051
    10  H    0.000003  -0.031222  -0.027086   0.598833   0.000163
    11  H   -0.000043   0.000322   0.002051   0.000163   0.540263
          Atomic-Atomic Spin Densities.
               1          2          3          4          5          6
     1  C    0.766564  -0.021241   0.008144  -0.040482   0.000952  -0.000292
     2  C   -0.021241  -0.341931  -0.000250  -0.018903   0.011361  -0.001496
     3  H    0.008144  -0.000250  -0.040752  -0.000284  -0.000199  -0.000040
     4  C   -0.040482  -0.018903  -0.000284   0.811444  -0.006506   0.009295
     5  C    0.000952   0.011361  -0.000199  -0.006506   0.031090  -0.000425
     6  H   -0.000292  -0.001496  -0.000040   0.009295  -0.000425  -0.047804
     7  H   -0.000411  -0.000245  -0.000078   0.008626  -0.000138   0.004990
     8  H   -0.000647   0.007979   0.000005   0.001004  -0.005083   0.000107
     9  H    0.000272   0.001859   0.000018  -0.000147  -0.001625  -0.000032
    10  H   -0.000572   0.004578   0.000016   0.001515  -0.004115  -0.000015
    11  H    0.009071  -0.002080   0.004821  -0.000362   0.000402   0.000052
               7          8          9         10         11
     1  C   -0.000411  -0.000647   0.000272  -0.000572   0.009071
     2  C   -0.000245   0.007979   0.001859   0.004578  -0.002080
     3  H   -0.000078   0.000005   0.000018   0.000016   0.004821
     4  C    0.008626   0.001004  -0.000147   0.001515  -0.000362
     5  C   -0.000138  -0.005083  -0.001625  -0.004115   0.000402
     6  H    0.004990   0.000107  -0.000032  -0.000015   0.000052
     7  H   -0.043297   0.000003   0.000021   0.000004  -0.000040
     8  H    0.000003  -0.022553   0.002062   0.003104   0.000007
     9  H    0.000021   0.002062  -0.003550  -0.001435  -0.000241
    10  H    0.000004   0.003104  -0.001435  -0.009464  -0.000024
    11  H   -0.000040   0.000007  -0.000241  -0.000024  -0.045476
 Mulliken charges and spin densities:
               1          2
     1  C   -0.315290   0.721360
     2  C    0.136292  -0.360368
     3  H    0.117499  -0.028598
     4  C   -0.312111   0.765201
     5  C   -0.265721   0.025714
     6  H    0.121827  -0.035659
     7  H    0.118650  -0.030565
     8  H    0.097085  -0.014011
     9  H    0.088862  -0.002798
    10  H    0.091937  -0.006407
    11  H    0.120970  -0.033869
 Sum of Mulliken charges =  -0.00000   1.00000
 Mulliken charges and spin densities with hydrogens summed into heavy atoms:
               1          2
     1  C   -0.076821   0.658893
     2  C    0.136292  -0.360368
     4  C   -0.071634   0.698978
     5  C    0.012163   0.002498
 Electronic spatial extent (au):  <R**2>=            305.0341
 Charge=             -0.0000 electrons
 Dipole moment (field-independent basis, Debye):
    X=              0.2345    Y=              0.0235    Z=              0.0233  Tot=              0.2369
 Quadrupole moment (field-independent basis, Debye-Ang):
   XX=            -25.0303   YY=            -24.9539   ZZ=            -28.5780
   XY=              0.0209   XZ=             -0.0598   YZ=              0.0108
 Traceless Quadrupole moment (field-independent basis, Debye-Ang):
   XX=              1.1571   YY=              1.2335   ZZ=             -2.3906
   XY=              0.0209   XZ=             -0.0598   YZ=              0.0108
 Octapole moment (field-independent basis, Debye-Ang**2):
  XXX=             -4.4919  YYY=             -0.4392  ZZZ=              0.5981  XYY=              1.1230
  XXY=              0.1223  XXZ=              0.0694  XZZ=              2.5387  YZZ=              0.3504
  YYZ=             -0.6137  XYZ=             -0.0167
 Hexadecapole moment (field-independent basis, Debye-Ang**3):
 XXXX=           -203.2940 YYYY=           -174.2178 ZZZZ=            -40.4548 XXXY=             -0.1396
 XXXZ=             -0.4386 YYYX=             -0.5075 YYYZ=              0.0582 ZZZX=              1.0052
 ZZZY=              0.0256 XXYY=            -64.1177 XXZZ=            -42.3035 YYZZ=            -41.2549
 XXYZ=              0.0023 YYXZ=             -1.1643 ZZXY=              0.6908
 N-N= 1.125109817440D+02 E-N=-5.869606562044D+02  KE= 1.554366369662D+02
                          Isotropic Fermi Contact Couplings
        Atom                 a.u.       MegaHertz       Gauss      10(-4) cm-1
     1  C(13)              0.02344      26.35236       9.40318       8.79020
     2  C(13)             -0.03247     -36.50368     -13.02542     -12.17632
     3  H(1)              -0.00813     -36.32466     -12.96154     -12.11660
     4  C(13)              0.02603      29.25877      10.44026       9.75967
     5  C(13)              0.00379       4.25810       1.51940       1.42035
     6  H(1)              -0.00951     -42.52548     -15.17415     -14.18497
     7  H(1)              -0.00888     -39.68170     -14.15942     -13.23639
     8  H(1)              -0.00443     -19.81647      -7.07101      -6.61006
     9  H(1)              -0.00083      -3.71624      -1.32605      -1.23960
    10  H(1)              -0.00221      -9.88874      -3.52855      -3.29853
    11  H(1)              -0.00880     -39.31383     -14.02815     -13.11368
 --------------------------------------------------------
       Center         ----  Spin Dipole Couplings  ----
                      3XX-RR        3YY-RR        3ZZ-RR
 --------------------------------------------------------
     1   Atom       -0.343047     -0.338792      0.681839
     2   Atom        0.083237      0.120788     -0.204026
     3   Atom        0.039877     -0.039044     -0.000834
     4   Atom       -0.371119     -0.369281      0.740400
     5   Atom        0.006330      0.000299     -0.006629
     6   Atom       -0.024935      0.021346      0.003589
     7   Atom        0.043584     -0.043321     -0.000263
     8   Atom        0.004788     -0.001086     -0.003702
     9   Atom        0.006842     -0.003219     -0.003623
    10   Atom        0.006564     -0.003039     -0.003525
    11   Atom       -0.026942      0.023636      0.003305
 --------------------------------------------------------
                        XY            XZ            YZ
 --------------------------------------------------------
     1   Atom       -0.006001      0.013640     -0.012712
     2   Atom        0.000432     -0.001066     -0.000125
     3   Atom        0.000480     -0.000679     -0.000500
     4   Atom        0.006161      0.019142      0.012956
     5   Atom       -0.000597     -0.000529     -0.000681
     6   Atom        0.043029      0.000259     -0.000795
     7   Atom       -0.004245     -0.000879      0.000605
     8   Atom       -0.000623      0.002604     -0.000324
     9   Atom       -0.000354     -0.000877      0.000204
    10   Atom       -0.000822     -0.001849      0.000089
    11   Atom       -0.037492      0.000167      0.000664
 --------------------------------------------------------


 ---------------------------------------------------------------------------------
              Anisotropic Spin Dipole Couplings in Principal Axis System
 ---------------------------------------------------------------------------------

       Atom             a.u.   MegaHertz   Gauss  10(-4) cm-1        Axes

              Baa    -0.3473   -46.604   -16.630   -15.546  0.8199  0.5726 -0.0038
     1 C(13)  Bbb    -0.3349   -44.938   -16.035   -14.990 -0.5724  0.8198  0.0179
              Bcc     0.6822    91.542    32.665    30.535  0.0134 -0.0125  0.9998
 
              Baa    -0.2040   -27.379    -9.769    -9.133  0.0037  0.0004  1.0000
     2 C(13)  Bbb     0.0832    11.170     3.986     3.726  0.9999 -0.0115 -0.0037
              Bcc     0.1208    16.209     5.784     5.407  0.0115  0.9999 -0.0004
 
              Baa    -0.0391   -20.837    -7.435    -6.950 -0.0060  0.9999  0.0130
     3 H(1)   Bbb    -0.0008    -0.447    -0.160    -0.149  0.0168 -0.0129  0.9998
              Bcc     0.0399    21.284     7.595     7.100  0.9998  0.0062 -0.0167
 
              Baa    -0.3765   -50.518   -18.026   -16.851  0.7640 -0.6452 -0.0056
     4 C(13)  Bbb    -0.3644   -48.902   -17.449   -16.312  0.6450  0.7639 -0.0201
              Bcc     0.7409    99.419    35.475    33.163  0.0173  0.0118  0.9998
 
              Baa    -0.0067    -0.902    -0.322    -0.301  0.0449  0.1002  0.9940
     5 C(13)  Bbb     0.0003     0.043     0.015     0.014  0.0892  0.9906 -0.1039
              Bcc     0.0064     0.860     0.307     0.287  0.9950 -0.0933 -0.0355
 
              Baa    -0.0507   -27.029    -9.645    -9.016  0.8583 -0.5130 -0.0116
     6 H(1)   Bbb     0.0036     1.915     0.683     0.639  0.0164  0.0049  0.9999
              Bcc     0.0471    25.114     8.961     8.377  0.5129  0.8584 -0.0126
 
              Baa    -0.0435   -23.228    -8.288    -7.748  0.0485  0.9987 -0.0130
     7 H(1)   Bbb    -0.0003    -0.146    -0.052    -0.049  0.0212  0.0120  0.9997
              Bcc     0.0438    23.374     8.341     7.797  0.9986 -0.0488 -0.0206
 
              Baa    -0.0044    -2.371    -0.846    -0.791 -0.2686  0.0430  0.9623
     8 H(1)   Bbb    -0.0012    -0.614    -0.219    -0.205  0.1102  0.9938 -0.0137
              Bcc     0.0056     2.984     1.065     0.996  0.9569 -0.1024  0.2717
 
              Baa    -0.0038    -2.003    -0.715    -0.668  0.0677 -0.3165  0.9462
     9 H(1)   Bbb    -0.0032    -1.694    -0.604    -0.565  0.0609  0.9479  0.3127
              Bcc     0.0069     3.697     1.319     1.233  0.9958 -0.0364 -0.0835
 
              Baa    -0.0039    -2.058    -0.734    -0.686  0.1798  0.0741  0.9809
    10 H(1)   Bbb    -0.0031    -1.655    -0.591    -0.552  0.0677  0.9939 -0.0875
              Bcc     0.0070     3.713     1.325     1.239  0.9814 -0.0822 -0.1737
 
              Baa    -0.0469   -25.013    -8.925    -8.344  0.8829  0.4695 -0.0091
    11 H(1)   Bbb     0.0033     1.762     0.629     0.588  0.0140 -0.0068  0.9999
              Bcc     0.0436    23.251     8.296     7.756 -0.4694  0.8829  0.0126
 

 ---------------------------------------------------------------------------------

 Calling FoFJK, ICntrl=  10002127 FMM=F ISym2X=0 I1Cent= 0 IOpClX= 1 NMat=1 NMatS=1 NMatT=0.
 ***** Axes restored to original set *****
 -------------------------------------------------------------------
 Center     Atomic                   Forces (Hartrees/Bohr)
 Number     Number              X              Y              Z
 -------------------------------------------------------------------
      1        6          -0.000481799    0.000693354    0.000442950
      2        6          -0.000167203   -0.002127072   -0.000472303
      3        1           0.000212008   -0.000054075   -0.000102042
      4        6           0.000331123    0.000468719    0.000203023
      5        6           0.016118031   -0.001347901   -0.003649760
      6        1          -0.000232813    0.000501805   -0.000127974
      7        1           0.000103979    0.000039138    0.000026724
      8        1          -0.006108282    0.005414303    0.022746987
      9        1          -0.004464606   -0.018557794   -0.005697428
     10        1          -0.005369266    0.014941385   -0.013196298
     11        1           0.000058828    0.000028137   -0.000173880
 -------------------------------------------------------------------
 Cartesian Forces:  Max     0.022746987 RMS     0.007153013

 GradGradGradGradGradGradGradGradGradGradGradGradGradGradGradGradGradGrad
 Berny optimization.
 FormGI is forming the generalized inverse of G from B-inverse, IUseBI=4.
 Internal  Forces:  Max     0.024069902 RMS     0.006050742
 Search for a local minimum.
 Step number   1 out of a maximum of  100
 All quantities printed in internal units (Hartrees-Bohrs-Radians)
 Mixed Optimization -- RFO/linear search
 Second derivative matrix not updated -- first step.
 ITU=  0
     Eigenvalues ---    0.00618   0.01605   0.02251   0.02251   0.02379
     Eigenvalues ---    0.02379   0.07217   0.07367   0.16000   0.16000
     Eigenvalues ---    0.16000   0.16000   0.16000   0.16000   0.16000
     Eigenvalues ---    0.24996   0.24997   0.30436   0.31233   0.31322
     Eigenvalues ---    0.31598   0.35967   0.35991   0.36020   0.36112
     Eigenvalues ---    0.47720   0.49452
 RFO step:  Lambda=-4.63512570D-03 EMin= 6.18179557D-03
 Linear search not attempted -- first point.
 Iteration  1 RMS(Cart)=  0.02079959 RMS(Int)=  0.00024094
 Iteration  2 RMS(Cart)=  0.00028247 RMS(Int)=  0.00003860
 Iteration  3 RMS(Cart)=  0.00000009 RMS(Int)=  0.00003860
 Variable       Old X    -DE/DX   Delta X   Delta X   Delta X     New X
                                 (Linear)    (Quad)   (Total)
    R1        2.60422   0.00068   0.00000   0.00136   0.00136   2.60558
    R2        2.04134  -0.00021   0.00000  -0.00058  -0.00058   2.04076
    R3        2.03907   0.00005   0.00000   0.00014   0.00014   2.03921
    R4        2.62238  -0.00098   0.00000  -0.00204  -0.00204   2.62034
    R5        2.85570   0.00018   0.00000   0.00057   0.00057   2.85627
    R6        2.04096  -0.00055   0.00000  -0.00152  -0.00152   2.03944
    R7        2.04051  -0.00011   0.00000  -0.00029  -0.00029   2.04021
    R8        2.13802  -0.02407   0.00000  -0.07790  -0.07790   2.06012
    R9        2.11586  -0.01977   0.00000  -0.06166  -0.06166   2.05420
   R10        2.12102  -0.02053   0.00000  -0.06458  -0.06458   2.05644
    A1        2.10880  -0.00005   0.00000  -0.00026  -0.00027   2.10853
    A2        2.12018  -0.00001   0.00000  -0.00004  -0.00005   2.12013
    A3        2.05416   0.00006   0.00000   0.00038   0.00037   2.05453
    A4        2.11636  -0.00012   0.00000  -0.00045  -0.00045   2.11591
    A5        2.09185  -0.00049   0.00000  -0.00192  -0.00193   2.08992
    A6        2.07483   0.00061   0.00000   0.00243   0.00243   2.07726
    A7        2.11895  -0.00005   0.00000  -0.00030  -0.00030   2.11865
    A8        2.10884  -0.00001   0.00000  -0.00005  -0.00005   2.10879
    A9        2.05539   0.00006   0.00000   0.00036   0.00036   2.05575
   A10        1.91614   0.00221   0.00000   0.01344   0.01334   1.92949
   A11        1.93130   0.00253   0.00000   0.01507   0.01497   1.94627
   A12        1.92722   0.00224   0.00000   0.01388   0.01378   1.94100
   A13        1.89692  -0.00254   0.00000  -0.01602  -0.01610   1.88082
   A14        1.88501  -0.00212   0.00000  -0.01222  -0.01232   1.87269
   A15        1.90638  -0.00253   0.00000  -0.01542  -0.01551   1.89087
    D1       -0.00372  -0.00013   0.00000  -0.00511  -0.00511  -0.00884
    D2        3.11899  -0.00005   0.00000  -0.00140  -0.00140   3.11759
    D3        3.12761   0.00011   0.00000   0.00348   0.00348   3.13109
    D4       -0.03286   0.00019   0.00000   0.00719   0.00719  -0.02568
    D5       -3.12780  -0.00006   0.00000  -0.00171  -0.00170  -3.12950
    D6        0.00989   0.00001   0.00000   0.00099   0.00099   0.01088
    D7        0.03249  -0.00013   0.00000  -0.00534  -0.00534   0.02715
    D8       -3.11301  -0.00006   0.00000  -0.00264  -0.00264  -3.11565
    D9       -1.76943   0.00005   0.00000  -0.00118  -0.00117  -1.77060
   D10        0.32438  -0.00008   0.00000  -0.00290  -0.00290   0.32148
   D11        2.43724  -0.00010   0.00000  -0.00308  -0.00308   2.43416
   D12        1.35374   0.00012   0.00000   0.00242   0.00242   1.35616
   D13       -2.83564  -0.00001   0.00000   0.00070   0.00070  -2.83495
   D14       -0.72278  -0.00002   0.00000   0.00051   0.00051  -0.72226
         Item               Value     Threshold  Converged?
 Maximum Force            0.024070     0.000450     NO 
 RMS     Force            0.006051     0.000300     NO 
 Maximum Displacement     0.078619     0.001800     NO 
 RMS     Displacement     0.020735     0.001200     NO 
 Predicted change in Energy=-2.353394D-03
 GradGradGradGradGradGradGradGradGradGradGradGradGradGradGradGradGradGrad

                          Input orientation:                          
 ---------------------------------------------------------------------
 Center     Atomic      Atomic             Coordinates (Angstroms)
 Number     Number       Type             X           Y           Z
 ---------------------------------------------------------------------
      1          6           0       -0.793031    1.189320   -0.023484
      2          6           0       -0.091295    0.002770    0.004588
      3          1           0       -1.872787    1.193053   -0.042198
      4          6           0       -0.745926   -1.219498    0.020173
      5          6           0        1.420004    0.025052   -0.001095
      6          1           0       -0.199382   -2.149509    0.053282
      7          1           0       -1.824208   -1.269840    0.000549
      8          1           0        1.802282   -0.197480   -0.997493
      9          1           0        1.805435    0.998201    0.292283
     10          1           0        1.827346   -0.722947    0.676246
     11          1           0       -0.287738    2.142806   -0.026023
 ---------------------------------------------------------------------
                    Distance matrix (angstroms):
                    1          2          3          4          5
     1  C    0.000000
     2  C    1.378813   0.000000
     3  H    1.079924   2.143053   0.000000
     4  C    2.409674   1.386623   2.663476   0.000000
     5  C    2.500709   1.511473   3.494050   2.498121   0.000000
     6  H    3.392063   2.155541   3.739267   1.079225   2.711841
     7  H    2.666715   2.150009   2.463742   1.079635   3.493087
     8  H    3.099607   2.151721   4.043798   2.928059   1.090169
     9  H    2.624550   2.161304   3.698535   3.391412   1.087036
    10  H    3.318549   2.158465   4.228262   2.701615   1.088219
    11  H    1.079102   2.149251   1.847883   3.393693   2.720640
                    6          7          8          9         10
     6  H    0.000000
     7  H    1.848421   0.000000
     8  H    2.986838   3.911199   0.000000
     9  H    3.739584   4.289921   1.758746   0.000000
    10  H    2.555541   3.753599   1.754465   1.763593   0.000000
    11  H    4.293956   3.742672   3.284643   2.406826   3.630331
                   11
    11  H    0.000000
 Stoichiometry    C4H7(2)
 Framework group  C1[X(C4H7)]
 Deg. of freedom    27
 Full point group                 C1      NOp   1
 Largest Abelian subgroup         C1      NOp   1
 Largest concise Abelian subgroup C1      NOp   1
                         Standard orientation:                         
 ---------------------------------------------------------------------
 Center     Atomic      Atomic             Coordinates (Angstroms)
 Number     Number       Type             X           Y           Z
 ---------------------------------------------------------------------
      1          6           0       -0.785478   -1.194939   -0.000566
      2          6           0       -0.090924   -0.003852   -0.006146
      3          1           0       -1.865215   -1.205541    0.016492
      4          6           0       -0.752946    1.214515   -0.000586
      5          6           0        1.420472   -0.017092    0.001353
      6          1           0       -0.212016    2.148262   -0.016068
      7          1           0       -1.831539    1.257971    0.018362
      8          1           0        1.800038    0.189685    1.002173
      9          1           0        1.812206   -0.982424   -0.309009
     10          1           0        1.824184    0.745490   -0.661752
     11          1           0       -0.274406   -2.145240   -0.014528
 ---------------------------------------------------------------------
 Rotational constants (GHZ):          10.0457002           8.8695060           4.8507975
 Standard basis: CC-pVTZ (5D, 7F)
 There are   245 symmetry adapted cartesian basis functions of A   symmetry.
 There are   218 symmetry adapted basis functions of A   symmetry.
   218 basis functions,   327 primitive gaussians,   245 cartesian basis functions
    16 alpha electrons       15 beta electrons
       nuclear repulsion energy       112.8929866556 Hartrees.
 NAtoms=   11 NActive=   11 NUniq=   11 SFac= 1.00D+00 NAtFMM=   60 NAOKFM=F Big=F
 Integral buffers will be    131072 words long.
 Raffenetti 2 integral format.
 Two-electron integral symmetry is turned on.
 Nuclear repulsion after empirical dispersion term =      112.8874871502 Hartrees.
 One-electron integrals computed using PRISM.
 NBasis=   218 RedAO= T EigKep=  4.00D-04  NBF=   218
 NBsUse=   218 1.00D-06 EigRej= -1.00D+00 NBFU=   218
 Initial guess from the checkpoint file:  "/localscratch/339781/Gau-64146.chk"
 B after Tr=    -0.000000    0.000000   -0.000000
         Rot=    0.999993   -0.000058    0.000049   -0.003800 Ang=  -0.44 deg.
 Initial guess <Sx>= 0.0000 <Sy>= 0.0000 <Sz>= 0.5000 <S**2>= 0.8282 S= 0.5384
 ExpMin= 1.03D-01 ExpMax= 8.24D+03 ExpMxC= 2.81D+02 IAcc=3 IRadAn=         5 AccDes= 0.00D+00
 Harris functional with IExCor=  419 and IRadAn=       5 diagonalized for initial guess.
 HarFok:  IExCor=  419 AccDes= 0.00D+00 IRadAn=         5 IDoV= 1 UseB2=F ITyADJ=14
 ICtDFT=  3500011 ScaDFX=  1.000000  1.000000  1.000000  1.000000
 FoFCou: FMM=F IPFlag=           0 FMFlag=      100000 FMFlg1=           0
         NFxFlg=           0 DoJE=T BraDBF=F KetDBF=T FulRan=T
         wScrn=  0.000000 ICntrl=       500 IOpCl=  0 I1Cent=   200000004 NGrid=           0
         NMat0=    1 NMatS0=      1 NMatT0=    0 NMatD0=    1 NMtDS0=    0 NMtDT0=    0
 Petite list used in FoFCou.
 Keep R1 and R2 ints in memory in canonical form, NReq=612885869.
 Requested convergence on RMS density matrix=1.00D-08 within 128 cycles.
 Requested convergence on MAX density matrix=1.00D-06.
 Requested convergence on             energy=1.00D-06.
 No special actions if energy rises.
 Integral accuracy reduced to 1.0D-05 until final iterations.
 Initial convergence to 1.0D-05 achieved.  Increase integral accuracy.
 SCF Done:  E(UB2PLYPD3) =  -156.271029517     A.U. after   12 cycles
            NFock= 12  Conv=0.72D-08     -V/T= 2.0044
 <Sx>= 0.0000 <Sy>= 0.0000 <Sz>= 0.5000 <S**2>= 0.8279 S= 0.5382
 <L.S>=  0.00000000000    
 Annihilation of the first spin contaminant:
 S**2 before annihilation     0.8279,   after     0.7510
 DoSCS=T DFT=T ScalE2(SS,OS)=  0.270000  0.270000
 ExpMin= 1.03D-01 ExpMax= 8.24D+03 ExpMxC= 2.81D+02 IAcc=3 IRadAn=         5 AccDes= 0.00D+00
 HarFok:  IExCor=  205 AccDes= 0.00D+00 IRadAn=         5 IDoV=-2 UseB2=F ITyADJ=14
 ICtDFT= 12500011 ScaDFX=  1.000000  1.000000  1.000000  1.000000
 Range of M.O.s used for correlation:     5   218
 NBasis=   218 NAE=    16 NBE=    15 NFC=     4 NFV=     0
 NROrb=    214 NOA=    12 NOB=    11 NVA=   202 NVB=   203

 **** Warning!!: The largest alpha MO coefficient is  0.14909770D+02


 **** Warning!!: The largest beta MO coefficient is  0.15712775D+02

 DoSCS=T DFT=T ScalE2(SS,OS)=  0.270000  0.270000
 Fully direct method using O(ONN) memory.
 JobTyp=2 Pass  1:  I=   5 to  16 NPSUse= 40 ParTrn=T ParDer=T DoDerP=T.
 JobTyp=3 Pass  1:  I=   5 to  15 NPSUse= 40 ParTrn=T ParDer=T DoDerP=T.
 Spin components of T(2) and E(2):
     alpha-alpha T2 =       0.4211280072D-01 E2=     -0.2650080178D-01
     alpha-beta  T2 =       0.2368756211D+00 E2=     -0.1618992405D+00
     beta-beta   T2 =       0.3563550316D-01 E2=     -0.2187189798D-01
 (S**2,0)=  0.82788D+00           (S**2,1)=  0.76257D+00
 Scaling Projection term by:   0.270000
 E(PUHF)=      -0.15628127374D+03        E(PMP2)=      -0.15648291624D+03
 E2(B2PLYPD3) =    -0.2102719402D+00 E(B2PLYPD3) =    -0.15648130145676D+03
          IDoAtm=11111111111
          Differentiating once with respect to electric field.
                with respect to dipole field.
          Differentiating once with respect to nuclear coordinates.
 Keep R1 and R2 ints in memory in canonical form, NReq=612894013.
          There are     1 degrees of freedom in the 1st order CPHF.  IDoFFX=0 NUNeed=     1.
 LinEq1:  Iter=  0 NonCon=     1 RMS=9.43D-04 Max=3.56D-02 NDo=     1
 AX will form     1 AO Fock derivatives at one time.
 LinEq1:  Iter=  1 NonCon=     1 RMS=3.11D-04 Max=7.71D-03 NDo=     1
 LinEq1:  Iter=  2 NonCon=     1 RMS=1.71D-04 Max=4.15D-03 NDo=     1
 LinEq1:  Iter=  3 NonCon=     1 RMS=4.87D-05 Max=1.47D-03 NDo=     1
 LinEq1:  Iter=  4 NonCon=     1 RMS=2.07D-05 Max=3.97D-04 NDo=     1
 LinEq1:  Iter=  5 NonCon=     1 RMS=6.18D-06 Max=2.36D-04 NDo=     1
 LinEq1:  Iter=  6 NonCon=     1 RMS=1.77D-06 Max=6.07D-05 NDo=     1
 LinEq1:  Iter=  7 NonCon=     1 RMS=1.04D-06 Max=5.20D-05 NDo=     1
 LinEq1:  Iter=  8 NonCon=     1 RMS=4.55D-07 Max=1.30D-05 NDo=     1
 LinEq1:  Iter=  9 NonCon=     1 RMS=1.10D-07 Max=1.64D-06 NDo=     1
 LinEq1:  Iter= 10 NonCon=     1 RMS=3.37D-08 Max=4.04D-07 NDo=     1
 LinEq1:  Iter= 11 NonCon=     1 RMS=9.17D-09 Max=1.53D-07 NDo=     1
 LinEq1:  Iter= 12 NonCon=     1 RMS=3.05D-09 Max=5.15D-08 NDo=     1
 LinEq1:  Iter= 13 NonCon=     1 RMS=1.29D-09 Max=2.21D-08 NDo=     1
 LinEq1:  Iter= 14 NonCon=     1 RMS=3.90D-10 Max=6.60D-09 NDo=     1
 LinEq1:  Iter= 15 NonCon=     1 RMS=1.39D-10 Max=1.90D-09 NDo=     1
 LinEq1:  Iter= 16 NonCon=     0 RMS=2.86D-11 Max=3.47D-10 NDo=     1
 Linear equations converged to 1.000D-10 1.000D-09 after    16 iterations.
 End of Minotr F.D. properties file   721 does not exist.
 End of Minotr F.D. properties file   722 does not exist.
 End of Minotr F.D. properties file   788 does not exist.
 Calling FoFJK, ICntrl=  10002127 FMM=F ISym2X=0 I1Cent= 0 IOpClX= 1 NMat=1 NMatS=1 NMatT=0.
 ***** Axes restored to original set *****
 -------------------------------------------------------------------
 Center     Atomic                   Forces (Hartrees/Bohr)
 Number     Number              X              Y              Z
 -------------------------------------------------------------------
      1        6          -0.000149514    0.000559103    0.000014509
      2        6           0.000245771   -0.001088073    0.000038892
      3        1          -0.000011126   -0.000010482    0.000014703
      4        6           0.000319956    0.000523732    0.000020396
      5        6           0.000166813   -0.000302685   -0.000521885
      6        1          -0.000008206   -0.000031000   -0.000043774
      7        1          -0.000004680    0.000015533    0.000028702
      8        1          -0.000213597    0.000084377   -0.000144305
      9        1          -0.000164529    0.000346655    0.000232941
     10        1          -0.000189560   -0.000076604    0.000395077
     11        1           0.000008671   -0.000020557   -0.000035257
 -------------------------------------------------------------------
 Cartesian Forces:  Max     0.001088073 RMS     0.000292795

 GradGradGradGradGradGradGradGradGradGradGradGradGradGradGradGradGradGrad
 Berny optimization.
 Using GEDIIS/GDIIS optimizer.
 FormGI is forming the generalized inverse of G from B-inverse, IUseBI=4.
 Internal  Forces:  Max     0.000592873 RMS     0.000204030
 Search for a local minimum.
 Step number   2 out of a maximum of  100
 All quantities printed in internal units (Hartrees-Bohrs-Radians)
 Mixed Optimization -- En-DIIS/RFO-DIIS
 Update second derivatives using D2CorX and points    1    2
 DE= -2.37D-03 DEPred=-2.35D-03 R= 1.01D+00
 TightC=F SS=  1.41D+00  RLast= 1.24D-01 DXNew= 5.0454D-01 3.7303D-01
 Trust test= 1.01D+00 RLast= 1.24D-01 DXMaxT set to 3.73D-01
 ITU=  1  0
 Use linear search instead of GDIIS.
     Eigenvalues ---    0.00618   0.01604   0.02251   0.02251   0.02378
     Eigenvalues ---    0.02379   0.07054   0.07209   0.15999   0.16000
     Eigenvalues ---    0.16000   0.16000   0.16000   0.16000   0.16171
     Eigenvalues ---    0.24984   0.24998   0.30434   0.31168   0.31432
     Eigenvalues ---    0.32137   0.35967   0.35991   0.36020   0.36112
     Eigenvalues ---    0.47717   0.49453
 RFO step:  Lambda=-6.60319564D-06 EMin= 6.18180654D-03
 Quartic linear search produced a step of -0.01114.
 Iteration  1 RMS(Cart)=  0.00176934 RMS(Int)=  0.00000283
 Iteration  2 RMS(Cart)=  0.00000274 RMS(Int)=  0.00000119
 Iteration  3 RMS(Cart)=  0.00000000 RMS(Int)=  0.00000119
 Variable       Old X    -DE/DX   Delta X   Delta X   Delta X     New X
                                 (Linear)    (Quad)   (Total)
    R1        2.60558   0.00053  -0.00002   0.00108   0.00107   2.60664
    R2        2.04076   0.00001   0.00001   0.00002   0.00003   2.04079
    R3        2.03921  -0.00001  -0.00000  -0.00004  -0.00004   2.03917
    R4        2.62034  -0.00059   0.00002  -0.00126  -0.00123   2.61910
    R5        2.85627  -0.00040  -0.00001  -0.00126  -0.00126   2.85501
    R6        2.03944   0.00002   0.00002   0.00004   0.00005   2.03950
    R7        2.04021   0.00000   0.00000   0.00001   0.00001   2.04022
    R8        2.06012   0.00004   0.00087  -0.00095  -0.00008   2.06004
    R9        2.05420   0.00031   0.00069   0.00013   0.00082   2.05502
   R10        2.05644   0.00023   0.00072  -0.00017   0.00054   2.05698
    A1        2.10853  -0.00000   0.00000  -0.00003  -0.00002   2.10851
    A2        2.12013  -0.00001   0.00000  -0.00009  -0.00009   2.12004
    A3        2.05453   0.00002  -0.00000   0.00012   0.00012   2.05464
    A4        2.11591   0.00012   0.00001   0.00049   0.00050   2.11640
    A5        2.08992  -0.00024   0.00002  -0.00099  -0.00097   2.08896
    A6        2.07726   0.00012  -0.00003   0.00051   0.00048   2.07774
    A7        2.11865   0.00004   0.00000   0.00025   0.00025   2.11891
    A8        2.10879  -0.00004   0.00000  -0.00022  -0.00022   2.10857
    A9        2.05575  -0.00001  -0.00000  -0.00003  -0.00003   2.05571
   A10        1.92949  -0.00014  -0.00015  -0.00011  -0.00026   1.92923
   A11        1.94627  -0.00036  -0.00017  -0.00256  -0.00273   1.94354
   A12        1.94100  -0.00030  -0.00015  -0.00170  -0.00185   1.93915
   A13        1.88082   0.00028   0.00018   0.00154   0.00172   1.88254
   A14        1.87269   0.00040   0.00014   0.00329   0.00343   1.87612
   A15        1.89087   0.00018   0.00017  -0.00015   0.00002   1.89089
    D1       -0.00884   0.00000   0.00006  -0.00014  -0.00009  -0.00892
    D2        3.11759   0.00002   0.00002   0.00106   0.00108   3.11867
    D3        3.13109   0.00002  -0.00004   0.00083   0.00079   3.13187
    D4       -0.02568   0.00004  -0.00008   0.00203   0.00195  -0.02372
    D5       -3.12950  -0.00003   0.00002  -0.00122  -0.00120  -3.13070
    D6        0.01088  -0.00002  -0.00001  -0.00055  -0.00056   0.01032
    D7        0.02715  -0.00005   0.00006  -0.00240  -0.00234   0.02481
    D8       -3.11565  -0.00003   0.00003  -0.00174  -0.00171  -3.11736
    D9       -1.77060   0.00006   0.00001   0.00005   0.00007  -1.77053
   D10        0.32148   0.00007   0.00003   0.00024   0.00027   0.32175
   D11        2.43416  -0.00016   0.00003  -0.00290  -0.00286   2.43130
   D12        1.35616   0.00007  -0.00003   0.00123   0.00121   1.35737
   D13       -2.83495   0.00009  -0.00001   0.00142   0.00141  -2.83354
   D14       -0.72226  -0.00014  -0.00001  -0.00172  -0.00172  -0.72399
         Item               Value     Threshold  Converged?
 Maximum Force            0.000593     0.000450     NO 
 RMS     Force            0.000204     0.000300     YES
 Maximum Displacement     0.005981     0.001800     NO 
 RMS     Displacement     0.001771     0.001200     NO 
 Predicted change in Energy=-3.647359D-06
 GradGradGradGradGradGradGradGradGradGradGradGradGradGradGradGradGradGrad

                          Input orientation:                          
 ---------------------------------------------------------------------
 Center     Atomic      Atomic             Coordinates (Angstroms)
 Number     Number       Type             X           Y           Z
 ---------------------------------------------------------------------
      1          6           0       -0.792106    1.189321   -0.023447
      2          6           0       -0.090813    0.001836    0.003932
      3          1           0       -1.871891    1.193715   -0.041202
      4          6           0       -0.745294   -1.219764    0.020123
      5          6           0        1.419808    0.024643   -0.001712
      6          1           0       -0.199050   -2.150042    0.051577
      7          1           0       -1.823626   -1.269702    0.002063
      8          1           0        1.801900   -0.197089   -0.998314
      9          1           0        1.802270    0.999051    0.292978
     10          1           0        1.825621   -0.722452    0.678003
     11          1           0       -0.286119    2.142410   -0.027173
 ---------------------------------------------------------------------
                    Distance matrix (angstroms):
                    1          2          3          4          5
     1  C    0.000000
     2  C    1.379377   0.000000
     3  H    1.079939   2.143560   0.000000
     4  C    2.409933   1.385970   2.664181   0.000000
     5  C    2.499902   1.510804   3.493361   2.497337   0.000000
     6  H    3.392445   2.155125   3.740015   1.079254   2.711604
     7  H    2.666735   2.149292   2.464270   1.079639   3.492164
     8  H    3.098607   2.150914   4.043160   2.927674   1.090125
     9  H    2.620518   2.159108   3.694459   3.389347   1.087470
    10  H    3.316535   2.156777   4.226174   2.699950   1.088508
    11  H    1.079082   2.149690   1.847943   3.393714   2.719517
                    6          7          8          9         10
     6  H    0.000000
     7  H    1.848431   0.000000
     8  H    2.986653   3.910971   0.000000
     9  H    3.739030   4.287074   1.760166   0.000000
    10  H    2.555331   3.751451   1.756875   1.764189   0.000000
    11  H    4.294057   3.742632   3.282711   2.402318   3.628244
                   11
    11  H    0.000000
 Stoichiometry    C4H7(2)
 Framework group  C1[X(C4H7)]
 Deg. of freedom    27
 Full point group                 C1      NOp   1
 Largest Abelian subgroup         C1      NOp   1
 Largest concise Abelian subgroup C1      NOp   1
                         Standard orientation:                         
 ---------------------------------------------------------------------
 Center     Atomic      Atomic             Coordinates (Angstroms)
 Number     Number       Type             X           Y           Z
 ---------------------------------------------------------------------
      1          6           0       -0.783916   -1.195802   -0.000613
      2          6           0       -0.090743   -0.003256   -0.005665
      3          1           0       -1.863664   -1.207891    0.015708
      4          6           0       -0.753559    1.213939   -0.000610
      5          6           0        1.419992   -0.015844    0.001456
      6          1           0       -0.213665    2.148342   -0.014574
      7          1           0       -1.832227    1.256178    0.017001
      8          1           0        1.799432    0.190448    1.002377
      9          1           0        1.809452   -0.982135   -0.310305
     10          1           0        1.821443    0.746164   -0.664148
     11          1           0       -0.271415   -2.145326   -0.013469
 ---------------------------------------------------------------------
 Rotational constants (GHZ):          10.0428519           8.8784326           4.8531939
 Standard basis: CC-pVTZ (5D, 7F)
 There are   245 symmetry adapted cartesian basis functions of A   symmetry.
 There are   218 symmetry adapted basis functions of A   symmetry.
   218 basis functions,   327 primitive gaussians,   245 cartesian basis functions
    16 alpha electrons       15 beta electrons
       nuclear repulsion energy       112.9097944253 Hartrees.
 NAtoms=   11 NActive=   11 NUniq=   11 SFac= 1.00D+00 NAtFMM=   60 NAOKFM=F Big=F
 Integral buffers will be    131072 words long.
 Raffenetti 2 integral format.
 Two-electron integral symmetry is turned on.
 Nuclear repulsion after empirical dispersion term =      112.9042937071 Hartrees.
 One-electron integrals computed using PRISM.
 NBasis=   218 RedAO= T EigKep=  3.99D-04  NBF=   218
 NBsUse=   218 1.00D-06 EigRej= -1.00D+00 NBFU=   218
 Initial guess from the checkpoint file:  "/localscratch/339781/Gau-64146.chk"
 B after Tr=     0.000000   -0.000000    0.000000
         Rot=    1.000000    0.000005   -0.000054   -0.000413 Ang=   0.05 deg.
 Initial guess <Sx>= 0.0000 <Sy>= 0.0000 <Sz>= 0.5000 <S**2>= 0.8279 S= 0.5382
 Keep R1 and R2 ints in memory in canonical form, NReq=612885869.
 Requested convergence on RMS density matrix=1.00D-08 within 128 cycles.
 Requested convergence on MAX density matrix=1.00D-06.
 Requested convergence on             energy=1.00D-06.
 No special actions if energy rises.
 SCF Done:  E(UB2PLYPD3) =  -156.271029474     A.U. after    9 cycles
            NFock=  9  Conv=0.74D-08     -V/T= 2.0044
 <Sx>= 0.0000 <Sy>= 0.0000 <Sz>= 0.5000 <S**2>= 0.8279 S= 0.5382
 <L.S>=  0.00000000000    
 Annihilation of the first spin contaminant:
 S**2 before annihilation     0.8279,   after     0.7510
 DoSCS=T DFT=T ScalE2(SS,OS)=  0.270000  0.270000
 ExpMin= 1.03D-01 ExpMax= 8.24D+03 ExpMxC= 2.81D+02 IAcc=3 IRadAn=         5 AccDes= 0.00D+00
 HarFok:  IExCor=  205 AccDes= 0.00D+00 IRadAn=         5 IDoV=-2 UseB2=F ITyADJ=14
 ICtDFT= 12500011 ScaDFX=  1.000000  1.000000  1.000000  1.000000
 Range of M.O.s used for correlation:     5   218
 NBasis=   218 NAE=    16 NBE=    15 NFC=     4 NFV=     0
 NROrb=    214 NOA=    12 NOB=    11 NVA=   202 NVB=   203

 **** Warning!!: The largest alpha MO coefficient is  0.14982676D+02


 **** Warning!!: The largest beta MO coefficient is  0.15781979D+02

 DoSCS=T DFT=T ScalE2(SS,OS)=  0.270000  0.270000
 Fully direct method using O(ONN) memory.
 JobTyp=2 Pass  1:  I=   5 to  16 NPSUse= 40 ParTrn=T ParDer=T DoDerP=T.
 JobTyp=3 Pass  1:  I=   5 to  15 NPSUse= 40 ParTrn=T ParDer=T DoDerP=T.
 Spin components of T(2) and E(2):
     alpha-alpha T2 =       0.4211241344D-01 E2=     -0.2650180405D-01
     alpha-beta  T2 =       0.2368712390D+00 E2=     -0.1619008418D+00
     beta-beta   T2 =       0.3563683499D-01 E2=     -0.2187347841D-01
 (S**2,0)=  0.82789D+00           (S**2,1)=  0.76257D+00
 Scaling Projection term by:   0.270000
 E(PUHF)=      -0.15628127547D+03        E(PMP2)=      -0.15648292055D+03
 E2(B2PLYPD3) =    -0.2102761243D+00 E(B2PLYPD3) =    -0.15648130559875D+03
          IDoAtm=11111111111
          Differentiating once with respect to electric field.
                with respect to dipole field.
          Differentiating once with respect to nuclear coordinates.
 Keep R1 and R2 ints in memory in canonical form, NReq=612894013.
          There are     1 degrees of freedom in the 1st order CPHF.  IDoFFX=0 NUNeed=     1.
 LinEq1:  Iter=  0 NonCon=     1 RMS=9.43D-04 Max=3.56D-02 NDo=     1
 AX will form     1 AO Fock derivatives at one time.
 LinEq1:  Iter=  1 NonCon=     1 RMS=3.11D-04 Max=7.72D-03 NDo=     1
 LinEq1:  Iter=  2 NonCon=     1 RMS=1.71D-04 Max=4.15D-03 NDo=     1
 LinEq1:  Iter=  3 NonCon=     1 RMS=4.86D-05 Max=1.47D-03 NDo=     1
 LinEq1:  Iter=  4 NonCon=     1 RMS=2.05D-05 Max=3.70D-04 NDo=     1
 LinEq1:  Iter=  5 NonCon=     1 RMS=6.05D-06 Max=2.24D-04 NDo=     1
 LinEq1:  Iter=  6 NonCon=     1 RMS=1.73D-06 Max=5.86D-05 NDo=     1
 LinEq1:  Iter=  7 NonCon=     1 RMS=1.00D-06 Max=5.10D-05 NDo=     1
 LinEq1:  Iter=  8 NonCon=     1 RMS=4.47D-07 Max=1.33D-05 NDo=     1
 LinEq1:  Iter=  9 NonCon=     1 RMS=1.09D-07 Max=1.73D-06 NDo=     1
 LinEq1:  Iter= 10 NonCon=     1 RMS=3.36D-08 Max=3.97D-07 NDo=     1
 LinEq1:  Iter= 11 NonCon=     1 RMS=9.11D-09 Max=1.52D-07 NDo=     1
 LinEq1:  Iter= 12 NonCon=     1 RMS=2.95D-09 Max=5.00D-08 NDo=     1
 LinEq1:  Iter= 13 NonCon=     1 RMS=1.26D-09 Max=2.17D-08 NDo=     1
 LinEq1:  Iter= 14 NonCon=     1 RMS=3.83D-10 Max=6.42D-09 NDo=     1
 LinEq1:  Iter= 15 NonCon=     1 RMS=1.38D-10 Max=1.89D-09 NDo=     1
 LinEq1:  Iter= 16 NonCon=     0 RMS=2.86D-11 Max=3.47D-10 NDo=     1
 Linear equations converged to 1.000D-10 1.000D-09 after    16 iterations.
 End of Minotr F.D. properties file   721 does not exist.
 End of Minotr F.D. properties file   722 does not exist.
 End of Minotr F.D. properties file   788 does not exist.
 Calling FoFJK, ICntrl=  10002127 FMM=F ISym2X=0 I1Cent= 0 IOpClX= 1 NMat=1 NMatS=1 NMatT=0.
 ***** Axes restored to original set *****
 -------------------------------------------------------------------
 Center     Atomic                   Forces (Hartrees/Bohr)
 Number     Number              X              Y              Z
 -------------------------------------------------------------------
      1        6          -0.000145511    0.000234916   -0.000022436
      2        6          -0.000098931   -0.000513122    0.000055948
      3        1          -0.000003985   -0.000003968    0.000006118
      4        6           0.000060880    0.000269286   -0.000011343
      5        6           0.000256055   -0.000006241   -0.000106683
      6        1          -0.000008572   -0.000010623   -0.000012189
      7        1          -0.000012748   -0.000020946    0.000008673
      8        1          -0.000024423    0.000021767   -0.000003672
      9        1          -0.000007786    0.000028105    0.000040217
     10        1          -0.000027910    0.000019605    0.000052563
     11        1           0.000012930   -0.000018778   -0.000007195
 -------------------------------------------------------------------
 Cartesian Forces:  Max     0.000513122 RMS     0.000124989

 GradGradGradGradGradGradGradGradGradGradGradGradGradGradGradGradGradGrad
 Berny optimization.
 Using GEDIIS/GDIIS optimizer.
 FormGI is forming the generalized inverse of G from B-inverse, IUseBI=4.
 Internal  Forces:  Max     0.000252496 RMS     0.000069954
 Search for a local minimum.
 Step number   3 out of a maximum of  100
 All quantities printed in internal units (Hartrees-Bohrs-Radians)
 Mixed Optimization -- En-DIIS/RFO-DIIS
 Swapping is turned off.
 Update second derivatives using D2CorX and points    1    2    3
 DE= -4.14D-06 DEPred=-3.65D-06 R= 1.14D+00
 TightC=F SS=  1.41D+00  RLast= 7.93D-03 DXNew= 6.2736D-01 2.3800D-02
 Trust test= 1.14D+00 RLast= 7.93D-03 DXMaxT set to 3.73D-01
 ITU=  1  1  0
     Eigenvalues ---    0.00618   0.01614   0.02204   0.02251   0.02364
     Eigenvalues ---    0.02379   0.06517   0.07185   0.15159   0.16000
     Eigenvalues ---    0.16000   0.16000   0.16000   0.16000   0.16217
     Eigenvalues ---    0.24273   0.25332   0.30403   0.31378   0.31549
     Eigenvalues ---    0.35902   0.35965   0.35989   0.36097   0.36282
     Eigenvalues ---    0.43511   0.48801
 En-DIIS/RFO-DIIS/Sim-DIIS IScMMF=       -3 using points:     3    2
 RFO step:  Lambda=-7.77102366D-07.
 DidBck=F Rises=F RFO-DIIS coefs:    1.24667   -0.24667
 Iteration  1 RMS(Cart)=  0.00052792 RMS(Int)=  0.00000049
 Iteration  2 RMS(Cart)=  0.00000024 RMS(Int)=  0.00000044
 Variable       Old X    -DE/DX   Delta X   Delta X   Delta X     New X
                                 (Linear)    (Quad)   (Total)
    R1        2.60664   0.00025   0.00026   0.00043   0.00069   2.60733
    R2        2.04079   0.00000   0.00001   0.00001   0.00002   2.04080
    R3        2.03917  -0.00001  -0.00001  -0.00003  -0.00004   2.03913
    R4        2.61910  -0.00023  -0.00030  -0.00036  -0.00066   2.61844
    R5        2.85501   0.00020  -0.00031   0.00094   0.00063   2.85564
    R6        2.03950   0.00000   0.00001   0.00001   0.00002   2.03951
    R7        2.04022   0.00001   0.00000   0.00004   0.00004   2.04027
    R8        2.06004  -0.00001  -0.00002  -0.00007  -0.00009   2.05995
    R9        2.05502   0.00003   0.00020  -0.00004   0.00016   2.05518
   R10        2.05698   0.00001   0.00013  -0.00009   0.00004   2.05702
    A1        2.10851   0.00001  -0.00001   0.00006   0.00005   2.10856
    A2        2.12004  -0.00002  -0.00002  -0.00016  -0.00018   2.11985
    A3        2.05464   0.00002   0.00003   0.00010   0.00013   2.05477
    A4        2.11640  -0.00006   0.00012  -0.00036  -0.00024   2.11616
    A5        2.08896  -0.00007  -0.00024  -0.00015  -0.00039   2.08857
    A6        2.07774   0.00013   0.00012   0.00051   0.00063   2.07837
    A7        2.11891   0.00000   0.00006  -0.00002   0.00004   2.11895
    A8        2.10857   0.00002  -0.00005   0.00018   0.00013   2.10869
    A9        2.05571  -0.00002  -0.00001  -0.00016  -0.00017   2.05555
   A10        1.92923  -0.00000  -0.00006   0.00016   0.00010   1.92933
   A11        1.94354  -0.00003  -0.00067   0.00012  -0.00056   1.94298
   A12        1.93915  -0.00004  -0.00046  -0.00001  -0.00047   1.93868
   A13        1.88254   0.00003   0.00042  -0.00006   0.00037   1.88291
   A14        1.87612   0.00005   0.00085   0.00005   0.00090   1.87701
   A15        1.89089   0.00000   0.00000  -0.00028  -0.00028   1.89061
    D1       -0.00892   0.00001  -0.00002   0.00048   0.00046  -0.00847
    D2        3.11867   0.00000   0.00027  -0.00009   0.00017   3.11884
    D3        3.13187   0.00001   0.00019   0.00039   0.00058   3.13246
    D4       -0.02372   0.00000   0.00048  -0.00018   0.00030  -0.02343
    D5       -3.13070  -0.00001  -0.00030  -0.00058  -0.00088  -3.13158
    D6        0.01032  -0.00001  -0.00014  -0.00049  -0.00063   0.00969
    D7        0.02481  -0.00001  -0.00058  -0.00001  -0.00059   0.02422
    D8       -3.11736  -0.00000  -0.00042   0.00009  -0.00034  -3.11769
    D9       -1.77053   0.00001   0.00002   0.00039   0.00040  -1.77013
   D10        0.32175   0.00002   0.00007   0.00050   0.00057   0.32232
   D11        2.43130  -0.00003  -0.00071   0.00022  -0.00048   2.43082
   D12        1.35737   0.00001   0.00030  -0.00018   0.00012   1.35749
   D13       -2.83354   0.00002   0.00035  -0.00006   0.00028  -2.83325
   D14       -0.72399  -0.00003  -0.00043  -0.00034  -0.00077  -0.72476
         Item               Value     Threshold  Converged?
 Maximum Force            0.000252     0.000450     YES
 RMS     Force            0.000070     0.000300     YES
 Maximum Displacement     0.001312     0.001800     YES
 RMS     Displacement     0.000528     0.001200     YES
 Predicted change in Energy=-3.885413D-07
 Optimization completed.
    -- Stationary point found.
                           ----------------------------
                           !   Optimized Parameters   !
                           ! (Angstroms and Degrees)  !
 --------------------------                            --------------------------
 ! Name  Definition              Value          Derivative Info.                !
 --------------------------------------------------------------------------------
 ! R1    R(1,2)                  1.3794         -DE/DX =    0.0003              !
 ! R2    R(1,3)                  1.0799         -DE/DX =    0.0                 !
 ! R3    R(1,11)                 1.0791         -DE/DX =    0.0                 !
 ! R4    R(2,4)                  1.386          -DE/DX =   -0.0002              !
 ! R5    R(2,5)                  1.5108         -DE/DX =    0.0002              !
 ! R6    R(4,6)                  1.0793         -DE/DX =    0.0                 !
 ! R7    R(4,7)                  1.0796         -DE/DX =    0.0                 !
 ! R8    R(5,8)                  1.0901         -DE/DX =    0.0                 !
 ! R9    R(5,9)                  1.0875         -DE/DX =    0.0                 !
 ! R10   R(5,10)                 1.0885         -DE/DX =    0.0                 !
 ! A1    A(2,1,3)              120.8084         -DE/DX =    0.0                 !
 ! A2    A(2,1,11)             121.4692         -DE/DX =    0.0                 !
 ! A3    A(3,1,11)             117.7224         -DE/DX =    0.0                 !
 ! A4    A(1,2,4)              121.261          -DE/DX =   -0.0001              !
 ! A5    A(1,2,5)              119.6883         -DE/DX =   -0.0001              !
 ! A6    A(4,2,5)              119.0459         -DE/DX =    0.0001              !
 ! A7    A(2,4,6)              121.4043         -DE/DX =    0.0                 !
 ! A8    A(2,4,7)              120.8119         -DE/DX =    0.0                 !
 ! A9    A(6,4,7)              117.7838         -DE/DX =    0.0                 !
 ! A10   A(2,5,8)              110.5366         -DE/DX =    0.0                 !
 ! A11   A(2,5,9)              111.3565         -DE/DX =    0.0                 !
 ! A12   A(2,5,10)             111.1049         -DE/DX =    0.0                 !
 ! A13   A(8,5,9)              107.8617         -DE/DX =    0.0                 !
 ! A14   A(8,5,10)             107.4936         -DE/DX =    0.0001              !
 ! A15   A(9,5,10)             108.3399         -DE/DX =    0.0                 !
 ! D1    D(3,1,2,4)             -0.5112         -DE/DX =    0.0                 !
 ! D2    D(3,1,2,5)            178.6864         -DE/DX =    0.0                 !
 ! D3    D(11,1,2,4)           179.4431         -DE/DX =    0.0                 !
 ! D4    D(11,1,2,5)            -1.3593         -DE/DX =    0.0                 !
 ! D5    D(1,2,4,6)           -179.3761         -DE/DX =    0.0                 !
 ! D6    D(1,2,4,7)              0.5912         -DE/DX =    0.0                 !
 ! D7    D(5,2,4,6)              1.4212         -DE/DX =    0.0                 !
 ! D8    D(5,2,4,7)           -178.6114         -DE/DX =    0.0                 !
 ! D9    D(1,2,5,8)           -101.4439         -DE/DX =    0.0                 !
 ! D10   D(1,2,5,9)             18.4348         -DE/DX =    0.0                 !
 ! D11   D(1,2,5,10)           139.3031         -DE/DX =    0.0                 !
 ! D12   D(4,2,5,8)             77.7715         -DE/DX =    0.0                 !
 ! D13   D(4,2,5,9)           -162.3498         -DE/DX =    0.0                 !
 ! D14   D(4,2,5,10)           -41.4815         -DE/DX =    0.0                 !
 --------------------------------------------------------------------------------
 GradGradGradGradGradGradGradGradGradGradGradGradGradGradGradGradGradGrad

                          Input orientation:                          
 ---------------------------------------------------------------------
 Center     Atomic      Atomic             Coordinates (Angstroms)
 Number     Number       Type             X           Y           Z
[...]
 Iteration  1 RMS(Cart)=  0.05944375 RMS(Int)=  0.00266277
 Iteration  2 RMS(Cart)=  0.00276222 RMS(Int)=  0.00000425
 Iteration  3 RMS(Cart)=  0.00000454 RMS(Int)=  0.00000187
 Iteration  4 RMS(Cart)=  0.00000000 RMS(Int)=  0.00000187
 Variable       Old X    -DE/DX   Delta X   Delta X   Delta X     New X
                                 (Linear)    (Quad)   (Total)
    R1        2.60664   0.00025   0.00000   0.00366   0.00366   2.61031
    R2        2.04079   0.00000   0.00000  -0.00014  -0.00014   2.04065
    R3        2.03917  -0.00001   0.00000   0.00005   0.00005   2.03922
    R4        2.61910  -0.00023   0.00000  -0.00378  -0.00378   2.61533
    R5        2.85501   0.00020   0.00000   0.00082   0.00082   2.85583
    R6        2.03950   0.00000   0.00000  -0.00007  -0.00007   2.03942
    R7        2.04022   0.00001   0.00000   0.00018   0.00018   2.04041
    R8        2.06004  -0.00001   0.00000   0.00017   0.00017   2.06021
    R9        2.05502   0.00003   0.00000   0.00047   0.00047   2.05549
   R10        2.05698   0.00001   0.00000  -0.00068  -0.00068   2.05630
    A1        2.10851   0.00001   0.00000   0.00004   0.00004   2.10854
    A2        2.12004  -0.00002   0.00000  -0.00044  -0.00044   2.11959
    A3        2.05464   0.00002   0.00000   0.00041   0.00041   2.05505
    A4        2.11640  -0.00006   0.00000  -0.00019  -0.00019   2.11621
    A5        2.08896  -0.00007   0.00000  -0.00321  -0.00321   2.08575
    A6        2.07774   0.00013   0.00000   0.00335   0.00335   2.08109
    A7        2.11891   0.00000   0.00000   0.00033   0.00033   2.11924
    A8        2.10857   0.00002   0.00000   0.00011   0.00011   2.10867
    A9        2.05571  -0.00002   0.00000  -0.00044  -0.00044   2.05528
   A10        1.92923  -0.00000   0.00000  -0.00100  -0.00100   1.92823
   A11        1.94354  -0.00003   0.00000  -0.00121  -0.00121   1.94232
   A12        1.93915  -0.00004   0.00000   0.00142   0.00142   1.94056
   A13        1.88254   0.00003   0.00000  -0.00168  -0.00168   1.88086
   A14        1.87612   0.00005   0.00000   0.00211   0.00211   1.87822
   A15        1.89089   0.00000   0.00000   0.00042   0.00042   1.89130
    D1       -0.00892   0.00001   0.00000  -0.00195  -0.00195  -0.01087
    D2        3.11867   0.00000   0.00000  -0.00584  -0.00583   3.11283
    D3        3.13187   0.00001   0.00000  -0.00204  -0.00204   3.12983
    D4       -0.02372   0.00000   0.00000  -0.00593  -0.00593  -0.02965
    D5       -3.13070  -0.00001   0.00000   0.00146   0.00146  -3.12925
    D6        0.01032  -0.00001   0.00000   0.00142   0.00142   0.01174
    D7        0.02481  -0.00001   0.00000   0.00538   0.00538   0.03019
    D8       -3.11736  -0.00000   0.00000   0.00534   0.00534  -3.11201
    D9       -1.77053   0.00001   0.00000   0.12640   0.12640  -1.64413
   D10        0.32175   0.00002   0.00000   0.12282   0.12283   0.44457
   D11        2.43130  -0.00003   0.00000   0.12350   0.12350   2.55479
   D12        1.35737   0.00001   0.00000   0.12257   0.12256   1.47993
   D13       -2.83354   0.00002   0.00000   0.11899   0.11899  -2.71454
   D14       -0.72399  -0.00003   0.00000   0.11966   0.11966  -0.60433
         Item               Value     Threshold  Converged?
 Maximum Force            0.000253     0.000450     YES
 RMS     Force            0.000070     0.000300     YES
 Maximum Displacement     0.196900     0.001800     NO 
 RMS     Displacement     0.059432     0.001200     NO 
 Predicted change in Energy=-1.423927D-06
                           ----------------------------
                           ! Non-Optimized Parameters !
                           ! (Angstroms and Degrees)  !
 --------------------------                            --------------------------
 ! Name  Definition              Value          Derivative Info.                !
 --------------------------------------------------------------------------------
 ! R1    R(1,2)                  1.3813         -DE/DX =    0.0003              !
 ! R2    R(1,3)                  1.0799         -DE/DX =    0.0                 !
 ! R3    R(1,11)                 1.0791         -DE/DX =    0.0                 !
 ! R4    R(2,4)                  1.384          -DE/DX =   -0.0002              !
 ! R5    R(2,5)                  1.5112         -DE/DX =    0.0002              !
 ! R6    R(4,6)                  1.0792         -DE/DX =    0.0                 !
 ! R7    R(4,7)                  1.0797         -DE/DX =    0.0                 !
 ! R8    R(5,8)                  1.0902         -DE/DX =    0.0                 !
 ! R9    R(5,9)                  1.0877         -DE/DX =    0.0                 !
 ! R10   R(5,10)                 1.0881         -DE/DX =    0.0                 !
 ! A1    A(2,1,3)              120.8105         -DE/DX =    0.0                 !
 ! A2    A(2,1,11)             121.4438         -DE/DX =    0.0                 !
 ! A3    A(3,1,11)             117.7456         -DE/DX =    0.0                 !
 ! A4    A(1,2,4)              121.2501         -DE/DX =   -0.0001              !
 ! A5    A(1,2,5)              119.5045         -DE/DX =   -0.0001              !
 ! A6    A(4,2,5)              119.2376         -DE/DX =    0.0001              !
 ! A7    A(2,4,6)              121.4233         -DE/DX =    0.0                 !
 ! A8    A(2,4,7)              120.818          -DE/DX =    0.0                 !
 ! A9    A(6,4,7)              117.7588         -DE/DX =    0.0                 !
 ! A10   A(2,5,8)              110.4794         -DE/DX =    0.0                 !
 ! A11   A(2,5,9)              111.2869         -DE/DX =    0.0                 !
 ! A12   A(2,5,10)             111.186          -DE/DX =    0.0                 !
 ! A13   A(8,5,9)              107.7654         -DE/DX =    0.0                 !
 ! A14   A(8,5,10)             107.6143         -DE/DX =    0.0001              !
 ! A15   A(9,5,10)             108.3637         -DE/DX =    0.0                 !
 ! D1    D(3,1,2,4)             -0.6229         -DE/DX =    0.0                 !
 ! D2    D(3,1,2,5)            178.3522         -DE/DX =    0.0                 !
 ! D3    D(11,1,2,4)           179.3261         -DE/DX =    0.0                 !
 ! D4    D(11,1,2,5)            -1.6988         -DE/DX =    0.0                 !
 ! D5    D(1,2,4,6)           -179.2926         -DE/DX =    0.0                 !
 ! D6    D(1,2,4,7)              0.6724         -DE/DX =    0.0                 !
 ! D7    D(5,2,4,6)              1.7297         -DE/DX =    0.0                 !
 ! D8    D(5,2,4,7)           -178.3053         -DE/DX =    0.0                 !
 ! D9    D(1,2,5,8)            -94.2019         -DE/DX =    0.0                 !
 ! D10   D(1,2,5,9)             25.4722         -DE/DX =    0.0                 !
 ! D11   D(1,2,5,10)           146.3789         -DE/DX =    0.0                 !
 ! D12   D(4,2,5,8)             84.7939         -DE/DX =    0.0                 !
 ! D13   D(4,2,5,9)           -155.5319         -DE/DX =    0.0                 !
 ! D14   D(4,2,5,10)           -34.6253         -DE/DX =    0.0                 !
 --------------------------------------------------------------------------------
 GradGradGradGradGradGradGradGradGradGradGradGradGradGradGradGradGradGrad


 ----------------------------------------------------------------------

 Electric dipole moment (input orientation):
 (Debye = 10**-18 statcoulomb cm , SI units = C m)
                  (au)            (Debye)         (10**-30 SI)
   Tot        0.122598D+00      0.311613D+00      0.103943D+01
   x          0.121647D+00      0.309197D+00      0.103137D+01
   y         -0.798193D-02     -0.202880D-01     -0.676736D-01
   z         -0.129774D-01     -0.329853D-01     -0.110027D+00

 Dipole polarizability, Alpha (input orientation).
 (esu units = cm**3 , SI units = C**2 m**2 J**-1)
 Alpha(0;0):
               (au)            (10**-24 esu)      (10**-40 SI)
   iso        0.485848D+02      0.719952D+01      0.801055D+01
   aniso      0.276157D+02      0.409223D+01      0.455322D+01
   xx         0.505140D+02      0.748541D+01      0.832864D+01
   yx        -0.676133D+00     -0.100193D+00     -0.111479D+00
   yy         0.634514D+02      0.940253D+01      0.104617D+02
   zx         0.581617D-01      0.861867D-02      0.958957D-02
   zy        -0.573554D+00     -0.849920D-01     -0.945663D-01
   zz         0.317889D+02      0.471063D+01      0.524128D+01

 ----------------------------------------------------------------------

 Dipole orientation:
     6         -0.07685737         -2.15431589         -1.62689682
     6         -0.01124727          0.00705241         -0.17129406
     1         -0.33347826         -2.04557040         -3.64856522
     6         -0.25140553          2.38093564         -1.25143690
     6          0.29380435         -0.20333930          2.65956028
     1         -0.18190012          4.07573598         -0.11902312
     1         -0.51429703          2.59176431         -3.26363618
     1         -1.52017847          0.04926999          3.60264753
     1          1.03321572         -2.04361113          3.19787269
     1          1.56996500          1.24188209          3.37644291
     1          0.12625315         -4.00480727         -0.79464777

 Electric dipole moment (dipole orientation):
 (Debye = 10**-18 statcoulomb cm , SI units = C m)
                  (au)            (Debye)         (10**-30 SI)
   Tot        0.122598D+00      0.311613D+00      0.103943D+01
   x          0.000000D+00      0.000000D+00      0.000000D+00
   y          0.000000D+00      0.000000D+00      0.000000D+00
   z          0.122598D+00      0.311613D+00      0.103943D+01

 Dipole polarizability, Alpha (dipole orientation).
 (esu units = cm**3 , SI units = C**2 m**2 J**-1)
 Alpha(0;0):
               (au)            (10**-24 esu)      (10**-40 SI)
   iso        0.485848D+02      0.719952D+01      0.801055D+01
   aniso      0.276157D+02      0.409223D+01      0.455322D+01
   xx         0.320598D+02      0.475077D+01      0.528594D+01
   yx        -0.132459D+01     -0.196283D+00     -0.218395D+00
   yy         0.632683D+02      0.937540D+01      0.104315D+02
   zx         0.198037D+01      0.293461D+00      0.326519D+00
   zy         0.157995D+01      0.234124D+00      0.260498D+00
   zz         0.504263D+02      0.747240D+01      0.831417D+01

 ----------------------------------------------------------------------
 1\1\GINC-N46\Freq\UB2PLYPD3-FC\CC-pVTZ\C4H7(2)\ROOT\02-Jun-2019\0\\#N 
 Geom=AllCheck Guess=TCheck SCRF=Check GenChk UB2PLYPD3(FC)/CC-pVTZ Fre
 q\\Title Card Required\\0,2\C,-0.792106431,1.1893205153,-0.0234473178\
 C,-0.0908130839,0.0018362209,0.0039324054\H,-1.8718909874,1.1937148341
 ,-0.041201592\C,-0.7452939899,-1.2197635336,0.0201230894\C,1.419808160
 6,0.0246429116,-0.0017123596\H,-0.1990497367,-2.1500418495,0.051577028
 2\H,-1.8236262737,-1.2697023279,0.0020629269\H,1.8019004239,-0.1970885
 78,-0.99831364\H,1.8022700963,0.9990514043,0.2929775776\H,1.8256214809
 ,-0.7224518731,0.6780034973\H,-0.286118659,2.1424102761,-0.0271726155\
 \Version=ES64L-G16RevB.01\State=2-A\HF=-156.2710295\MP2=-156.4813056\P
 UHF=-156.2812755\PMP2-0=-156.4829206\S2=0.827893\S2-1=0.762568\S2A=0.7
 50968\RMSD=1.586e-09\RMSF=1.250e-04\ZeroPoint=0.0943896\Thermal=0.0997
 216\Dipole=0.1216474,-0.0079819,-0.0129774\DipoleDeriv=-0.0150266,0.04
 87971,0.0075291,0.0763979,0.0650349,-0.005979,0.0059382,-0.003828,-0.2
 91519,0.2885485,-0.000657,-0.0166397,-0.0150507,-0.1804074,0.0016476,-
 0.0381958,0.0021206,-0.0809269,-0.1055404,0.0252911,-0.0042449,-0.0326
 02,0.0315936,0.0024749,-0.0012673,0.0010225,0.1426499,-0.0047325,-0.05
 3892,0.0097612,-0.0680106,0.0808386,-0.0066599,0.0090635,-0.0092399,-0
 .290349,-0.0432418,0.0073524,0.0092863,0.0253258,0.1081092,0.0007229,0
 .0597931,-0.0010203,0.1401627,0.0030297,0.0834028,-0.0054769,0.034889,
 -0.0408575,0.0045732,-0.0048355,0.0078676,0.132065,-0.1026535,-0.03207
 69,-0.0033667,0.0262971,0.0285209,0.0014031,-0.002436,0.0027949,0.1390
 024,-0.0281036,0.0039941,0.0269011,0.0132162,0.0683555,-0.03819,0.0770
 282,-0.0341882,-0.0798178,0.0068118,-0.0101209,-0.0053376,-0.0882766,-
 0.0917717,-0.0475656,-0.0338344,-0.0430467,0.056134,-0.0054423,0.01200
 12,-0.0161074,0.0610681,-0.0248598,0.0858963,-0.0682245,0.0786422,-0.0
 00627,0.0063506,-0.0840919,-0.0023044,-0.0332541,-0.0445563,0.0016763,
 -0.0030295,-0.0011247,0.1332259\Polar=50.5140263,-0.676133,63.4514383,
 0.0581617,-0.5735544,31.7889176\PG=C01 [X(C4H7)]\NImag=0\\0.65735915,0
 .00503788,0.66508532,0.00845652,-0.00650959,0.08280568,-0.19020962,0.1
 3993463,-0.00431217,0.61960107,0.06725818,-0.21782622,0.00113288,-0.01
 033706,0.54022233,-0.00296901,0.00396730,-0.04988372,0.00276068,-0.006
 90549,0.15766352,-0.34386325,-0.00112852,-0.00510317,-0.01375593,-0.00
 257649,-0.00009687,0.36391656,-0.00483096,-0.05910172,0.00048033,0.027
 92327,0.00487637,0.00010954,-0.00083144,0.05365486,-0.00510883,0.00061
 943,-0.02581240,-0.00029452,-0.00014049,0.00198264,0.00565778,-0.00047
 785,0.01646931,0.03137245,-0.01541670,0.00130195,-0.17532629,-0.060017
 79,-0.00062517,0.00073188,0.00096287,0.00007027,0.65575470,0.02186114,
 -0.10573637,0.00327233,-0.12745687,-0.21186399,0.00193125,-0.00209736,
 0.00070018,-0.00004066,-0.01122466,0.64891737,0.00067875,0.00096420,0.
 00936251,0.00053331,0.00481077,-0.05031970,0.00009472,-0.00008378,-0.0
 0356899,0.00950370,-0.01433880,0.07994211,-0.02301929,0.00224034,0.000
 08862,-0.20793366,0.00194774,0.00035153,0.00075736,0.00074374,-0.00037
 598,-0.02411614,-0.00678638,0.00015267,0.48444607,0.02987062,0.0023655
 7,-0.00088004,-0.00450968,-0.08827199,0.00041484,0.00258371,-0.0039285
 4,-0.00086837,-0.03144074,0.00113950,0.00095644,0.00363233,0.59056180,
 -0.00096875,0.00038250,0.00514377,-0.00246963,0.00002376,-0.07460603,-
 0.00072987,0.00031051,0.00839547,0.00023434,-0.00010795,0.00396883,0.0
 0753371,-0.00061086,0.54731117,-0.00109855,-0.00317535,-0.00004724,0.0
 1013212,-0.01273922,0.00024607,0.00033074,-0.00030520,-0.00000175,-0.1
 3673813,0.12931961,-0.00517851,0.00113399,-0.00052337,0.00024947,0.134
 19018,-0.00410068,-0.00343683,0.00015130,0.01766487,-0.01752158,0.0008
 0413,0.00004063,0.00019759,0.00001007,0.12491773,-0.26933630,0.0081199
 4,0.00157124,0.00111118,0.00045661,-0.13615548,0.28525833,0.00006956,-
 0.00000118,0.00487405,-0.00093713,0.00029703,0.00465612,-0.00000140,-0
 .00000111,0.00007510,-0.00493513,0.00839796,-0.02280321,0.00046010,-0.
 00085003,-0.00278794,0.00540610,-0.00891699,0.01382946,0.00070600,0.00
 205340,0.00002415,-0.01252416,0.00191362,-0.00019462,0.00061368,-0.000
 65027,0.00000586,-0.34473826,-0.01095245,-0.00534580,0.00106649,-0.002
 97922,-0.00059798,-0.00901161,-0.00342426,-0.00013006,0.36398708,-0.00
 092476,0.00076375,-0.00006512,-0.02844662,0.00416725,-0.00022835,0.000
 69053,-0.00028355,0.00001458,-0.00741343,-0.05908750,0.00055651,-0.000
 74886,-0.00438742,0.00007249,0.02422823,0.00445543,0.00041062,0.013950
 26,0.05402085,0.00010970,-0.00012413,-0.00345466,0.00073037,0.00010571
 ,0.00238092,-0.00001581,-0.00000856,-0.00007057,-0.00548957,0.00039376
 ,-0.02398154,-0.00039355,0.00121972,0.00605846,-0.00066364,-0.00011486
 ,0.00295620,0.00583645,-0.00066913,0.01533744,-0.00196474,-0.00156606,
 -0.00029402,-0.01449548,0.00732914,0.03116002,-0.00028230,0.00041282,-
 0.00178285,-0.00024819,0.00121854,-0.00064329,-0.07469706,0.01768727,0
 .08382255,0.00007983,-0.00041097,0.00067692,0.00003666,-0.00015304,-0.
 00132073,0.08434227,0.00204397,-0.00186410,0.00054663,0.00045294,0.002
 86918,0.00092043,0.00014068,-0.00006330,0.00048328,-0.00222125,-0.0017
 2452,-0.00031754,0.01720896,-0.05690191,-0.04999615,-0.00004881,-0.000
 20224,0.00009430,0.00011510,-0.00011543,-0.00022287,-0.01994823,0.0577
 3165,-0.00007149,0.00030706,0.00026439,0.00000097,0.00089021,0.0029409
 1,0.00006795,-0.00000194,-0.00016496,-0.00014268,-0.00049817,0.0009050
 2,0.08155620,-0.05008039,-0.26957995,0.00013699,0.00007139,-0.00039873
 ,0.00010376,0.00013111,0.00014566,-0.09032569,0.05506419,0.29246834,0.
 00187805,-0.00243748,0.00041450,-0.01147508,-0.03020116,-0.00917162,0.
 00048400,0.00013028,0.00019622,-0.00679522,0.00098887,-0.00030359,-0.0
 7827985,-0.07951180,-0.02564723,0.00006077,0.00000432,-0.00021415,-0.0
 0080216,-0.00147367,0.00068664,0.00345546,0.01067019,0.00207892,0.0877
 3546,0.00184364,0.00042120,0.00042855,0.00100641,0.00017476,0.00096888
 ,0.00003112,0.00027493,0.00034689,-0.00043941,0.00035042,-0.00031414,-
 0.08354292,-0.26701023,-0.06595412,0.00012998,0.00037863,-0.00001124,-
 0.00011938,0.00014936,-0.00010917,-0.00143983,-0.00512216,-0.00098108,
 0.08987461,0.28844733,0.00024367,-0.00073848,-0.00000221,0.00183539,0.
 00262989,-0.00100519,0.00006757,0.00014384,-0.00010575,-0.00018150,-0.
 00035098,0.00075424,-0.02693173,-0.06616054,-0.06742644,0.00002180,-0.
 00015526,-0.00020755,0.00022776,0.00002634,0.00041118,-0.01092899,-0.0
 2808060,-0.00748600,0.02746512,0.07319729,0.06820001,-0.00527883,-0.00
 165655,-0.00025263,-0.01343901,0.02385223,-0.02124693,-0.00075798,0.00
 115350,0.00139167,0.00137051,0.00180499,0.00066911,-0.08080834,0.06413
 849,-0.06168604,0.00017444,-0.00085722,-0.00041898,0.00037084,-0.00002
 343,0.00052986,0.00377605,-0.00850207,0.00656245,0.00377767,-0.0073466
 4,0.00836818,0.09077261,0.00084859,-0.00049227,0.00028418,0.00015824,0
 .00109043,-0.00199937,0.00026984,0.00012930,-0.00001253,-0.00188686,-0
 .00015744,-0.00050759,0.06561964,-0.17537264,0.11599347,-0.00001707,0.
 00016359,0.00054322,0.00013428,0.00010420,-0.00045718,-0.00335186,0.00
 534677,-0.00501205,0.01086075,-0.01858624,0.01923031,-0.07257994,0.187
 33581,-0.00024568,0.00024369,0.00014129,0.00248327,-0.00335428,0.00114
 348,0.00027023,-0.00003627,-0.00008218,0.00035324,0.00102844,0.0006460
 9,-0.06294464,0.11614441,-0.15210865,-0.00022477,-0.00042156,-0.000130
 95,0.00007055,-0.00024497,0.00011655,-0.01113588,0.02200586,-0.0189840
 5,0.00474589,-0.00717175,0.00660253,0.06659037,-0.12828332,0.16257667,
 -0.12588136,-0.12388559,-0.00027651,0.00942603,0.01357080,-0.00021407,
 -0.00817475,-0.02470859,0.00024214,-0.00126730,0.00332456,-0.00016107,
 0.00145042,0.00105241,0.00025944,0.00074622,0.00074982,0.00002417,0.00
 029543,0.00031479,-0.00000973,-0.00000252,0.00008853,0.00003261,-0.000
 03909,0.00000242,-0.00018728,0.00004205,-0.00005562,0.00003742,0.12340
 487,-0.11890762,-0.28017834,0.00115853,-0.01639014,-0.01791654,0.00001
 685,0.00287730,0.00354389,0.00006568,0.00418025,-0.00320135,0.00015399
 ,-0.00188582,0.00069467,-0.00057026,-0.00071333,-0.00106781,0.00003742
 ,-0.00004107,0.00021307,-0.00001330,0.00022221,0.00004606,0.00010967,0
 .00109510,0.00052200,0.00025820,0.00001665,0.00043850,0.00008975,0.129
 54647,0.29690587,-0.00019443,0.00088922,-0.02343871,-0.00033054,0.0005
 1003,0.00504704,-0.00021114,-0.00043471,0.00288233,-0.00008947,0.00031
 281,0.00509464,0.00050308,0.00071482,-0.00436871,0.00005549,-0.0000047
 8,-0.00006256,-0.00000005,-0.00000408,0.00010035,0.00077196,-0.0004975
 4,-0.00011063,-0.00025070,-0.00040009,0.00026518,-0.00050706,0.0002208
 4,0.00007921,0.00025288,-0.00130653,0.01451186\\0.00014556,-0.00023498
 ,0.00002242,0.00009890,0.00051316,-0.00005592,0.00000400,0.00000398,-0
 .00000612,-0.00006085,-0.00026923,0.00001133,-0.00025609,0.00000625,0.
 00010671,0.00000857,0.00001061,0.00001218,0.00001274,0.00002094,-0.000
 00867,0.00002442,-0.00002177,0.00000367,0.00000779,-0.00002812,-0.0000
 4022,0.00002791,-0.00001960,-0.00005257,-0.00001295,0.00001877,0.00000
 719\\\@


 THE DIFFICULTY IN SCIENCE IS OFTEN NOT SO MUCH HOW
 TO MAKE A DISCOVERY BUT RATHER TO KNOW ONE HAS MADE IT.

                                                   -- J. D. BERNAL
 Job cpu time:       0 days  8 hours  7 minutes 28.8 seconds.
 Elapsed time:       0 days  0 hours 12 minutes 32.3 seconds.
 File lengths (MBytes):  RWF=  14059 Int=      0 D2E=      0 Chk=      9 Scr=      1
 Normal termination of Gaussian 16 at Sun Jun  2 18:46:07 2019.
