 Entering Gaussian System, Link 0=g16
 Initial command:
 /ichec/packages/gaussian/16b01/l1.exe "/localscratch/339542/Gau-54660.inp" -scrdir="/localscratch/339542/"
 Entering Link 1 = /ichec/packages/gaussian/16b01/l1.exe PID=     54693.
  
 Copyright (c) 1988-2017, Gaussian, Inc.  All Rights Reserved.
  
 This is part of the Gaussian(R) 16 program.  It is based on
 the Gaussian(R) 09 system (copyright 2009, Gaussian, Inc.),
 the Gaussian(R) 03 system (copyright 2003, Gaussian, Inc.),
 the Gaussian(R) 98 system (copyright 1998, Gaussian, Inc.),
 the Gaussian(R) 94 system (copyright 1995, Gaussian, Inc.),
 the Gaussian 92(TM) system (copyright 1992, Gaussian, Inc.),
 the Gaussian 90(TM) system (copyright 1990, Gaussian, Inc.),
 the Gaussian 88(TM) system (copyright 1988, Gaussian, Inc.),
 the Gaussian 86(TM) system (copyright 1986, Carnegie Mellon
 University), and the Gaussian 82(TM) system (copyright 1983,
 Carnegie Mellon University). Gaussian is a federally registered
 trademark of Gaussian, Inc.
  
 This software contains proprietary and confidential information,
 including trade secrets, belonging to Gaussian, Inc.
  
 This software is provided under written license and may be
 used, copied, transmitted, or stored only in accord with that
 written license.
  
 The following legend is applicable only to US Government
 contracts under FAR:
  
                    RESTRICTED RIGHTS LEGEND
  
 Use, reproduction and disclosure by the US Government is
 subject to restrictions as set forth in subparagraphs (a)
 and (c) of the Commercial Computer Software - Restricted
 Rights clause in FAR 52.227-19.
  
 Gaussian, Inc.
 340 Quinnipiac St., Bldg. 40, Wallingford CT 06492
  
  
 ---------------------------------------------------------------
 Warning -- This program may not be used in any manner that
 competes with the business of Gaussian, Inc. or will provide
 assistance to any competitor of Gaussian, Inc.  The licensee
 of this program is prohibited from giving any competitor of
 Gaussian, Inc. access to this program.  By using this program,
 the user acknowledges that Gaussian, Inc. is engaged in the
 business of creating and licensing software in the field of
 computational chemistry and represents and warrants to the
 licensee that it is not a competitor of Gaussian, Inc. and that
 it will not use this program in any manner prohibited above.
 ---------------------------------------------------------------
  

 Cite this work as:
 Gaussian 16, Revision B.01,
 M. J. Frisch, G. W. Trucks, H. B. Schlegel, G. E. Scuseria, 
 M. A. Robb, J. R. Cheeseman, G. Scalmani, V. Barone, 
 G. A. Petersson, H. Nakatsuji, X. Li, M. Caricato, A. V. Marenich, 
 J. Bloino, B. G. Janesko, R. Gomperts, B. Mennucci, H. P. Hratchian, 
 J. V. Ortiz, A. F. Izmaylov, J. L. Sonnenberg, D. Williams-Young, 
 F. Ding, F. Lipparini, F. Egidi, J. Goings, B. Peng, A. Petrone, 
 T. Henderson, D. Ranasinghe, V. G. Zakrzewski, J. Gao, N. Rega, 
 G. Zheng, W. Liang, M. Hada, M. Ehara, K. Toyota, R. Fukuda, 
 J. Hasegawa, M. Ishida, T. Nakajima, Y. Honda, O. Kitao, H. Nakai, 
 T. Vreven, K. Throssell, J. A. Montgomery, Jr., J. E. Peralta, 
 F. Ogliaro, M. J. Bearpark, J. J. Heyd, E. N. Brothers, K. N. Kudin, 
 V. N. Staroverov, T. A. Keith, R. Kobayashi, J. Normand, 
 K. Raghavachari, A. P. Rendell, J. C. Burant, S. S. Iyengar, 
 J. Tomasi, M. Cossi, J. M. Millam, M. Klene, C. Adamo, R. Cammi, 
 J. W. Ochterski, R. L. Martin, K. Morokuma, O. Farkas, 
 J. B. Foresman, and D. J. Fox, Gaussian, Inc., Wallingford CT, 2016.
 
 ******************************************
 Gaussian 16:  ES64L-G16RevB.01 20-Dec-2017
                 1-Jun-2019 
 ******************************************
 %mem=80GB
 %nproc=40
 Will use up to   40 processors via shared memory.
 -----------------------------------------------
 # opt=maxcyc=500 freq=noraman uB2PLYPD3/cc-pvtz
 -----------------------------------------------
 1/6=500,18=20,19=15,38=1/1,3;
 2/9=110,12=2,17=6,18=5,40=1/2;
 3/5=16,6=1,11=2,25=1,30=1,71=1,74=-60,116=2/1,2,3;
 4//1;
 5/5=2,38=5/2;
 8/6=4,10=1/1;
 9/15=2,16=-3/6;
 10/5=1/2;
 6/7=2,8=2,9=2,10=2/1;
 7/12=2/1,2,3,16;
 1/6=500,18=20,19=15/3(2);
 2/9=110/2;
 99//99;
 2/9=110/2;
 3/5=16,6=1,11=2,25=1,30=1,71=1,74=-60,116=2/1,2,3;
 4/5=5,16=3,69=1/1;
 5/5=2,38=5/2;
 8/6=4,10=1/1;
 9/15=2,16=-3/6;
 10/5=1/2;
 7/12=2/1,2,3,16;
 1/6=500,18=20,19=15/3(-8);
 2/9=110/2;
 6/7=2,8=2,9=2,10=2/1;
 99/9=10/99;
 -------------------
 Title Card Required
 -------------------
 Symbolic Z-matrix:
 Charge =  0 Multiplicity = 2
 C                    -3.38787   0.64054   0. 
 C                    -1.8738    0.64054   0. 
 H                    -3.77642   1.68719   0. 
 H                    -3.77644   0.11633  -0.90591 
 H                    -3.77977   0.11817   0.90579 
 C                    -1.34066  -0.77609  -0.03455 
 C                    -1.34103   1.38093   1.20842 
 H                    -1.66627  -1.30113   0.83907 
 H                    -1.70774  -1.27414  -0.90753 
 H                    -1.67134   0.8815    2.15099 
 H                    -0.22489   1.40041   1.19125 
 H                    -1.71556   2.43267   1.21597 
 H                    -0.27118  -0.75417  -0.0596 
 

 GradGradGradGradGradGradGradGradGradGradGradGradGradGradGradGradGradGrad
 Berny optimization.
 Initialization pass.
                           ----------------------------
                           !    Initial Parameters    !
                           ! (Angstroms and Degrees)  !
 --------------------------                            --------------------------
 ! Name  Definition              Value          Derivative Info.                !
 --------------------------------------------------------------------------------
 ! R1    R(1,2)                  1.5141         estimate D2E/DX2                !
 ! R2    R(1,3)                  1.1164         estimate D2E/DX2                !
 ! R3    R(1,4)                  1.1164         estimate D2E/DX2                !
 ! R4    R(1,5)                  1.1166         estimate D2E/DX2                !
 ! R5    R(2,6)                  1.514          estimate D2E/DX2                !
 ! R6    R(2,7)                  1.514          estimate D2E/DX2                !
 ! R7    R(6,8)                  1.07           estimate D2E/DX2                !
 ! R8    R(6,9)                  1.07           estimate D2E/DX2                !
 ! R9    R(6,13)                 1.07           estimate D2E/DX2                !
 ! R10   R(7,10)                 1.1167         estimate D2E/DX2                !
 ! R11   R(7,11)                 1.1164         estimate D2E/DX2                !
 ! R12   R(7,12)                 1.1165         estimate D2E/DX2                !
 ! A1    A(2,1,3)              110.3664         estimate D2E/DX2                !
 ! A2    A(2,1,4)              110.3674         estimate D2E/DX2                !
 ! A3    A(2,1,5)              110.5459         estimate D2E/DX2                !
 ! A4    A(3,1,4)              108.6055         estimate D2E/DX2                !
 ! A5    A(3,1,5)              108.446          estimate D2E/DX2                !
 ! A6    A(4,1,5)              108.4462         estimate D2E/DX2                !
 ! A7    A(1,2,6)              110.6182         estimate D2E/DX2                !
 ! A8    A(1,2,7)              110.6028         estimate D2E/DX2                !
 ! A9    A(6,2,7)              110.6013         estimate D2E/DX2                !
 ! A10   A(2,6,8)              109.4712         estimate D2E/DX2                !
 ! A11   A(2,6,9)              109.4712         estimate D2E/DX2                !
 ! A12   A(2,6,13)             109.4712         estimate D2E/DX2                !
 ! A13   A(8,6,9)              109.4712         estimate D2E/DX2                !
 ! A14   A(8,6,13)             109.4712         estimate D2E/DX2                !
 ! A15   A(9,6,13)             109.4712         estimate D2E/DX2                !
 ! A16   A(2,7,10)             110.5421         estimate D2E/DX2                !
 ! A17   A(2,7,11)             110.3677         estimate D2E/DX2                !
 ! A18   A(2,7,12)             110.3667         estimate D2E/DX2                !
 ! A19   A(10,7,11)            108.4512         estimate D2E/DX2                !
 ! A20   A(10,7,12)            108.4449         estimate D2E/DX2                !
 ! A21   A(11,7,12)            108.6049         estimate D2E/DX2                !
 ! D1    D(3,1,2,6)           -178.603          estimate D2E/DX2                !
 ! D2    D(3,1,2,7)             58.5042         estimate D2E/DX2                !
 ! D3    D(4,1,2,6)            -58.5474         estimate D2E/DX2                !
 ! D4    D(4,1,2,7)            178.5598         estimate D2E/DX2                !
 ! D5    D(5,1,2,6)             61.4253         estimate D2E/DX2                !
 ! D6    D(5,1,2,7)            -61.4675         estimate D2E/DX2                !
 ! D7    D(1,2,6,8)            -61.4528         estimate D2E/DX2                !
 ! D8    D(1,2,6,9)             58.5472         estimate D2E/DX2                !
 ! D9    D(1,2,6,13)           178.5472         estimate D2E/DX2                !
 ! D10   D(7,2,6,8)             61.4409         estimate D2E/DX2                !
 ! D11   D(7,2,6,9)           -178.5591         estimate D2E/DX2                !
 ! D12   D(7,2,6,13)           -58.5591         estimate D2E/DX2                !
 ! D13   D(1,2,7,10)            61.4235         estimate D2E/DX2                !
 ! D14   D(1,2,7,11)          -178.5999         estimate D2E/DX2                !
 ! D15   D(1,2,7,12)           -58.5446         estimate D2E/DX2                !
 ! D16   D(6,2,7,10)           -61.4791         estimate D2E/DX2                !
 ! D17   D(6,2,7,11)            58.4975         estimate D2E/DX2                !
 ! D18   D(6,2,7,12)           178.5528         estimate D2E/DX2                !
 --------------------------------------------------------------------------------
 Trust Radius=3.00D-01 FncErr=1.00D-07 GrdErr=1.00D-07 EigMax=2.50D+02 EigMin=1.00D-04
 Number of steps in this run=    100 maximum allowed number of steps=    100.
 GradGradGradGradGradGradGradGradGradGradGradGradGradGradGradGradGradGrad

                          Input orientation:                          
 ---------------------------------------------------------------------
 Center     Atomic      Atomic             Coordinates (Angstroms)
 Number     Number       Type             X           Y           Z
 ---------------------------------------------------------------------
      1          6           0       -3.387873    0.640535    0.000000
      2          6           0       -1.873805    0.640535    0.000000
      3          1           0       -3.776423    1.687190    0.000000
      4          1           0       -3.776439    0.116334   -0.905912
      5          1           0       -3.779769    0.118173    0.905788
      6          6           0       -1.340659   -0.776092   -0.034548
      7          6           0       -1.341033    1.380934    1.208422
      8          1           0       -1.666275   -1.301131    0.839070
      9          1           0       -1.707738   -1.274140   -0.907532
     10          1           0       -1.671339    0.881498    2.150986
     11          1           0       -0.224887    1.400405    1.191249
     12          1           0       -1.715556    2.432672    1.215971
     13          1           0       -0.271177   -0.754171   -0.059598
 ---------------------------------------------------------------------
                    Distance matrix (angstroms):
                    1          2          3          4          5
     1  C    0.000000
     2  C    1.514068   0.000000
     3  H    1.116449   2.171507   0.000000
     4  H    1.116444   2.171515   1.813357   0.000000
     5  H    1.116645   2.173939   1.811706   1.811704   0.000000
     6  C    2.489801   1.514025   3.464376   2.736553   2.762825
     7  C    2.489584   1.514041   2.735910   3.464221   2.762894
     8  H    2.727271   2.125365   3.753242   3.083336   2.546710
     9  H    2.704154   2.125365   3.724587   2.492578   3.085447
    10  H    2.762479   2.173890   3.115647   3.789663   2.564890
    11  H    3.464240   2.171499   3.756957   4.319774   3.789828
    12  H    2.736235   2.171493   2.506292   3.757000   3.116744
    13  H    3.415048   2.125365   4.272066   3.709567   3.742081
                    6          7          8          9         10
     6  C    0.000000
     7  C    2.489525   0.000000
     8  H    1.070000   2.726844   0.000000
     9  H    1.070000   3.414843   1.747303   0.000000
    10  H    2.762881   1.116676   2.546570   3.742009   0.000000
    11  H    2.735812   1.116448   3.082195   3.709032   1.811790
    12  H    3.464176   1.116457   3.753101   4.271977   1.811725
    13  H    1.070000   2.703912   1.747303   1.747303   3.085863
                   11         12         13
    11  H    0.000000
    12  H    1.813362   0.000000
    13  H    2.491778   3.724148   0.000000
 Stoichiometry    C4H9(2)
 Framework group  C1[X(C4H9)]
 Deg. of freedom    33
 Full point group                 C1      NOp   1
 Largest Abelian subgroup         C1      NOp   1
 Largest concise Abelian subgroup C1      NOp   1
                         Standard orientation:                         
 ---------------------------------------------------------------------
 Center     Atomic      Atomic             Coordinates (Angstroms)
 Number     Number       Type             X           Y           Z
 ---------------------------------------------------------------------
      1          6           0        1.257197   -0.694069    0.053075
      2          6           0        0.000005    0.003470   -0.421592
      3          1           0        1.283751   -1.745132   -0.322452
      4          1           0        2.163070   -0.159237   -0.320818
      5          1           0        1.295482   -0.716448    1.168839
      6          6           0       -0.025370    1.439970    0.056000
      7          6           0       -1.232006   -0.737587    0.053070
      8          1           0       -0.025917    1.460198    1.125809
      9          1           0        0.839454    1.952840   -0.309985
     10          1           0       -1.269004   -0.761941    1.168867
     11          1           0       -2.156051   -0.234342   -0.320217
     12          1           0       -1.222162   -1.788731   -0.323064
     13          1           0       -0.907578    1.922085   -0.310298
 ---------------------------------------------------------------------
 Rotational constants (GHZ):           8.2547728           8.2243840           4.6367304
 Standard basis: CC-pVTZ (5D, 7F)
 There are   275 symmetry adapted cartesian basis functions of A   symmetry.
 There are   246 symmetry adapted basis functions of A   symmetry.
   246 basis functions,   361 primitive gaussians,   275 cartesian basis functions
    17 alpha electrons       16 beta electrons
       nuclear repulsion energy       126.3694851688 Hartrees.
 NAtoms=   13 NActive=   13 NUniq=   13 SFac= 1.00D+00 NAtFMM=   60 NAOKFM=F Big=F
 Integral buffers will be    131072 words long.
 Raffenetti 2 integral format.
 Two-electron integral symmetry is turned on.
 Nuclear repulsion after empirical dispersion term =      126.3630813691 Hartrees.
 One-electron integrals computed using PRISM.
 NBasis=   246 RedAO= T EigKep=  8.68D-04  NBF=   246
 NBsUse=   246 1.00D-06 EigRej= -1.00D+00 NBFU=   246
 ExpMin= 1.03D-01 ExpMax= 8.24D+03 ExpMxC= 2.81D+02 IAcc=3 IRadAn=         5 AccDes= 0.00D+00
 Harris functional with IExCor=  419 and IRadAn=       5 diagonalized for initial guess.
 HarFok:  IExCor=  419 AccDes= 0.00D+00 IRadAn=         5 IDoV= 1 UseB2=F ITyADJ=14
 ICtDFT=  3500011 ScaDFX=  1.000000  1.000000  1.000000  1.000000
 FoFCou: FMM=F IPFlag=           0 FMFlag=      100000 FMFlg1=           0
         NFxFlg=           0 DoJE=T BraDBF=F KetDBF=T FulRan=T
         wScrn=  0.000000 ICntrl=       500 IOpCl=  0 I1Cent=   200000004 NGrid=           0
         NMat0=    1 NMatS0=      1 NMatT0=    0 NMatD0=    1 NMtDS0=    0 NMtDT0=    0
 Petite list used in FoFCou.
 Initial guess <Sx>= 0.0000 <Sy>= 0.0000 <Sz>= 0.5000 <S**2>= 0.7500 S= 0.5000
 Requested convergence on RMS density matrix=1.00D-08 within 128 cycles.
 Requested convergence on MAX density matrix=1.00D-06.
 Requested convergence on             energy=1.00D-06.
 No special actions if energy rises.
 Integral accuracy reduced to 1.0D-05 until final iterations.
 Initial convergence to 1.0D-05 achieved.  Increase integral accuracy.
 SCF Done:  E(UB2PLYPD3) =  -157.458213489     A.U. after   14 cycles
            NFock= 14  Conv=0.32D-08     -V/T= 2.0054
 <Sx>= 0.0000 <Sy>= 0.0000 <Sz>= 0.5000 <S**2>= 0.7554 S= 0.5027
 <L.S>=  0.00000000000    
 Annihilation of the first spin contaminant:
 S**2 before annihilation     0.7554,   after     0.7500
 DoSCS=T DFT=T ScalE2(SS,OS)=  0.270000  0.270000
 ExpMin= 1.03D-01 ExpMax= 8.24D+03 ExpMxC= 2.81D+02 IAcc=3 IRadAn=         5 AccDes= 0.00D+00
 HarFok:  IExCor=  205 AccDes= 0.00D+00 IRadAn=         5 IDoV=-2 UseB2=F ITyADJ=14
 ICtDFT= 12500011 ScaDFX=  1.000000  1.000000  1.000000  1.000000
 Range of M.O.s used for correlation:     5   246
 NBasis=   246 NAE=    17 NBE=    16 NFC=     4 NFV=     0
 NROrb=    242 NOA=    13 NOB=    12 NVA=   229 NVB=   230

 **** Warning!!: The largest alpha MO coefficient is  0.13229113D+02


 **** Warning!!: The largest beta MO coefficient is  0.13278900D+02

 DoSCS=T DFT=T ScalE2(SS,OS)=  0.270000  0.270000
 Fully direct method using O(ONN) memory.
 JobTyp=2 Pass  1:  I=   5 to  17 NPSUse= 40 ParTrn=T ParDer=T DoDerP=T.
 JobTyp=3 Pass  1:  I=   5 to  16 NPSUse= 40 ParTrn=T ParDer=T DoDerP=T.
 Spin components of T(2) and E(2):
     alpha-alpha T2 =       0.4159125772D-01 E2=     -0.2663442289D-01
     alpha-beta  T2 =       0.2450869644D+00 E2=     -0.1731779916D+00
     beta-beta   T2 =       0.3624861295D-01 E2=     -0.2286471228D-01
 (S**2,0)=  0.75541D+00           (S**2,1)=  0.74770D+00
 Scaling Projection term by:   0.270000
 E(PUHF)=      -0.15746019336D+03        E(PMP2)=      -0.15768104513D+03
 E2(B2PLYPD3) =    -0.2226771267D+00 E(B2PLYPD3) =    -0.15768089061560D+03
          IDoAtm=1111111111111
          Differentiating once with respect to electric field.
                with respect to dipole field.
          Differentiating once with respect to nuclear coordinates.
 Keep R1 and R2 ints in memory in canonical form, NReq=967250981.
          There are     1 degrees of freedom in the 1st order CPHF.  IDoFFX=0 NUNeed=     1.
 LinEq1:  Iter=  0 NonCon=     1 RMS=5.97D-04 Max=2.61D-02 NDo=     1
 AX will form     1 AO Fock derivatives at one time.
 LinEq1:  Iter=  1 NonCon=     1 RMS=2.18D-04 Max=4.63D-03 NDo=     1
 LinEq1:  Iter=  2 NonCon=     1 RMS=7.23D-05 Max=2.29D-03 NDo=     1
 LinEq1:  Iter=  3 NonCon=     1 RMS=1.77D-05 Max=3.67D-04 NDo=     1
 LinEq1:  Iter=  4 NonCon=     1 RMS=9.11D-06 Max=1.70D-04 NDo=     1
 LinEq1:  Iter=  5 NonCon=     1 RMS=3.03D-06 Max=8.31D-05 NDo=     1
 LinEq1:  Iter=  6 NonCon=     1 RMS=1.24D-06 Max=2.89D-05 NDo=     1
 LinEq1:  Iter=  7 NonCon=     1 RMS=3.16D-07 Max=6.80D-06 NDo=     1
 LinEq1:  Iter=  8 NonCon=     1 RMS=8.79D-08 Max=1.36D-06 NDo=     1
 LinEq1:  Iter=  9 NonCon=     1 RMS=2.50D-08 Max=3.95D-07 NDo=     1
 LinEq1:  Iter= 10 NonCon=     1 RMS=1.29D-08 Max=2.11D-07 NDo=     1
 LinEq1:  Iter= 11 NonCon=     1 RMS=2.63D-09 Max=5.56D-08 NDo=     1
 LinEq1:  Iter= 12 NonCon=     1 RMS=4.84D-10 Max=1.02D-08 NDo=     1
 LinEq1:  Iter= 13 NonCon=     1 RMS=1.27D-10 Max=1.43D-09 NDo=     1
 LinEq1:  Iter= 14 NonCon=     0 RMS=3.92D-11 Max=5.82D-10 NDo=     1
 Linear equations converged to 1.000D-10 1.000D-09 after    14 iterations.
 End of Minotr F.D. properties file   721 does not exist.
 End of Minotr F.D. properties file   722 does not exist.
 End of Minotr F.D. properties file   788 does not exist.

 **********************************************************************

            Population analysis using the SCF Density.

 **********************************************************************

 Orbital symmetries:
 Alpha Orbitals:
       Occupied  (A) (A) (A) (A) (A) (A) (A) (A) (A) (A) (A) (A)
                 (A) (A) (A) (A) (A)
       Virtual   (A) (A) (A) (A) (A) (A) (A) (A) (A) (A) (A) (A)
                 (A) (A) (A) (A) (A) (A) (A) (A) (A) (A) (A) (A)
                 (A) (A) (A) (A) (A) (A) (A) (A) (A) (A) (A) (A)
                 (A) (A) (A) (A) (A) (A) (A) (A) (A) (A) (A) (A)
                 (A) (A) (A) (A) (A) (A) (A) (A) (A) (A) (A) (A)
                 (A) (A) (A) (A) (A) (A) (A) (A) (A) (A) (A) (A)
                 (A) (A) (A) (A) (A) (A) (A) (A) (A) (A) (A) (A)
                 (A) (A) (A) (A) (A) (A) (A) (A) (A) (A) (A) (A)
                 (A) (A) (A) (A) (A) (A) (A) (A) (A) (A) (A) (A)
                 (A) (A) (A) (A) (A) (A) (A) (A) (A) (A) (A) (A)
                 (A) (A) (A) (A) (A) (A) (A) (A) (A) (A) (A) (A)
                 (A) (A) (A) (A) (A) (A) (A) (A) (A) (A) (A) (A)
                 (A) (A) (A) (A) (A) (A) (A) (A) (A) (A) (A) (A)
                 (A) (A) (A) (A) (A) (A) (A) (A) (A) (A) (A) (A)
                 (A) (A) (A) (A) (A) (A) (A) (A) (A) (A) (A) (A)
                 (A) (A) (A) (A) (A) (A) (A) (A) (A) (A) (A) (A)
                 (A) (A) (A) (A) (A) (A) (A) (A) (A) (A) (A) (A)
                 (A) (A) (A) (A) (A) (A) (A) (A) (A) (A) (A) (A)
                 (A) (A) (A) (A) (A) (A) (A) (A) (A) (A) (A) (A)
                 (A)
 Beta  Orbitals:
       Occupied  (A) (A) (A) (A) (A) (A) (A) (A) (A) (A) (A) (A)
                 (A) (A) (A) (A)
       Virtual   (A) (A) (A) (A) (A) (A) (A) (A) (A) (A) (A) (A)
                 (A) (A) (A) (A) (A) (A) (A) (A) (A) (A) (A) (A)
                 (A) (A) (A) (A) (A) (A) (A) (A) (A) (A) (A) (A)
                 (A) (A) (A) (A) (A) (A) (A) (A) (A) (A) (A) (A)
                 (A) (A) (A) (A) (A) (A) (A) (A) (A) (A) (A) (A)
                 (A) (A) (A) (A) (A) (A) (A) (A) (A) (A) (A) (A)
                 (A) (A) (A) (A) (A) (A) (A) (A) (A) (A) (A) (A)
                 (A) (A) (A) (A) (A) (A) (A) (A) (A) (A) (A) (A)
                 (A) (A) (A) (A) (A) (A) (A) (A) (A) (A) (A) (A)
                 (A) (A) (A) (A) (A) (A) (A) (A) (A) (A) (A) (A)
                 (A) (A) (A) (A) (A) (A) (A) (A) (A) (A) (A) (A)
                 (A) (A) (A) (A) (A) (A) (A) (A) (A) (A) (A) (A)
                 (A) (A) (A) (A) (A) (A) (A) (A) (A) (A) (A) (A)
                 (A) (A) (A) (A) (A) (A) (A) (A) (A) (A) (A) (A)
                 (A) (A) (A) (A) (A) (A) (A) (A) (A) (A) (A) (A)
                 (A) (A) (A) (A) (A) (A) (A) (A) (A) (A) (A) (A)
                 (A) (A) (A) (A) (A) (A) (A) (A) (A) (A) (A) (A)
                 (A) (A) (A) (A) (A) (A) (A) (A) (A) (A) (A) (A)
                 (A) (A) (A) (A) (A) (A) (A) (A) (A) (A) (A) (A)
                 (A) (A)
 The electronic state is 2-A.
 Alpha  occ. eigenvalues --  -10.63006 -10.60825 -10.60824 -10.59322  -0.92707
 Alpha  occ. eigenvalues --   -0.79163  -0.78248  -0.62003  -0.52775  -0.50684
 Alpha  occ. eigenvalues --   -0.50096  -0.45632  -0.44896  -0.42538  -0.38898
 Alpha  occ. eigenvalues --   -0.38672  -0.26885
 Alpha virt. eigenvalues --    0.07699   0.12076   0.12322   0.13467   0.14571
 Alpha virt. eigenvalues --    0.14858   0.19003   0.19085   0.19441   0.21190
 Alpha virt. eigenvalues --    0.24918   0.25003   0.30144   0.30168   0.32713
 Alpha virt. eigenvalues --    0.36720   0.37047   0.40049   0.42011   0.42081
 Alpha virt. eigenvalues --    0.45739   0.46865   0.49982   0.50035   0.52425
 Alpha virt. eigenvalues --    0.52474   0.52982   0.54065   0.54455   0.55066
 Alpha virt. eigenvalues --    0.56267   0.58820   0.58997   0.59279   0.71767
 Alpha virt. eigenvalues --    0.71820   0.72819   0.78934   0.79117   0.85579
 Alpha virt. eigenvalues --    0.86255   0.88480   0.88874   0.97677   0.98277
 Alpha virt. eigenvalues --    1.01918   1.02382   1.04442   1.04603   1.05620
 Alpha virt. eigenvalues --    1.06504   1.10206   1.10227   1.11198   1.13706
 Alpha virt. eigenvalues --    1.20296   1.22631   1.23300   1.25689   1.25911
 Alpha virt. eigenvalues --    1.26512   1.30812   1.30996   1.33374   1.33723
 Alpha virt. eigenvalues --    1.36499   1.37391   1.39331   1.39987   1.40745
 Alpha virt. eigenvalues --    1.41278   1.43442   1.49005   1.49830   1.54689
 Alpha virt. eigenvalues --    1.55010   1.58811   1.59938   1.62408   1.62415
 Alpha virt. eigenvalues --    1.62767   1.65189   1.67304   1.70571   2.18250
 Alpha virt. eigenvalues --    2.31488   2.32658   2.38892   2.40430   2.42743
 Alpha virt. eigenvalues --    2.46890   2.47678   2.47825   2.62561   2.63960
 Alpha virt. eigenvalues --    2.64136   2.70748   2.71361   2.74230   2.74442
 Alpha virt. eigenvalues --    2.74843   2.76401   2.82729   2.86868   2.86885
 Alpha virt. eigenvalues --    2.87120   2.90762   2.91294   2.92754   2.93173
 Alpha virt. eigenvalues --    2.95880   3.00643   3.00689   3.00779   3.04350
 Alpha virt. eigenvalues --    3.04919   3.05261   3.09861   3.14536   3.14649
 Alpha virt. eigenvalues --    3.18805   3.20355   3.20565   3.21547   3.24046
 Alpha virt. eigenvalues --    3.24719   3.27575   3.29031   3.29828   3.30372
 Alpha virt. eigenvalues --    3.41626   3.41858   3.43341   3.43885   3.44073
 Alpha virt. eigenvalues --    3.47026   3.50919   3.52566   3.52629   3.58141
 Alpha virt. eigenvalues --    3.58819   3.59774   3.60362   3.62216   3.63977
 Alpha virt. eigenvalues --    3.69897   3.71325   3.72377   3.76298   3.78032
 Alpha virt. eigenvalues --    3.80969   3.83079   3.84121   3.84871   3.89382
 Alpha virt. eigenvalues --    3.89869   3.92472   3.92921   3.94836   4.00480
 Alpha virt. eigenvalues --    4.01630   4.01988   4.07836   4.09999   4.10444
 Alpha virt. eigenvalues --    4.12165   4.13215   4.13761   4.22439   4.22997
 Alpha virt. eigenvalues --    4.26334   4.27116   4.27206   4.30347   4.32116
 Alpha virt. eigenvalues --    4.33544   4.33749   4.35144   4.35219   4.39330
 Alpha virt. eigenvalues --    4.41419   4.42810   4.44902   4.51029   4.51449
 Alpha virt. eigenvalues --    4.53741   4.63698   4.67155   4.68664   4.79761
 Alpha virt. eigenvalues --    4.88440   4.88718   4.90407   4.92676   4.96310
 Alpha virt. eigenvalues --    4.99943   5.06419   5.06428   5.21723   5.21884
 Alpha virt. eigenvalues --    5.24490   5.25567   5.26422   5.27736   5.30302
 Alpha virt. eigenvalues --    5.34136   5.35373   5.36825   5.40284   5.41682
 Alpha virt. eigenvalues --    5.43868   5.44163   5.46902   5.50814   5.52279
 Alpha virt. eigenvalues --    5.54355   5.59505   5.66575   5.68899   5.97167
 Alpha virt. eigenvalues --    5.99540   6.00349   6.03912   6.04941   6.12189
 Alpha virt. eigenvalues --    9.44678  13.37008  13.41302  14.23432
  Beta  occ. eigenvalues --  -10.61192 -10.60893 -10.60889 -10.59376  -0.90514
  Beta  occ. eigenvalues --   -0.78917  -0.78020  -0.59144  -0.50276  -0.50245
  Beta  occ. eigenvalues --   -0.49638  -0.44925  -0.44168  -0.42427  -0.38268
  Beta  occ. eigenvalues --   -0.38036
  Beta virt. eigenvalues --    0.00989   0.08212   0.12183   0.12409   0.14489
  Beta virt. eigenvalues --    0.14619   0.14900   0.19205   0.19611   0.19646
  Beta virt. eigenvalues --    0.21170   0.25500   0.25594   0.30325   0.30364
  Beta virt. eigenvalues --    0.33673   0.37189   0.37508   0.42396   0.42443
  Beta virt. eigenvalues --    0.43752   0.46999   0.48725   0.50110   0.50172
  Beta virt. eigenvalues --    0.52615   0.52916   0.53547   0.54449   0.54586
  Beta virt. eigenvalues --    0.55150   0.56490   0.59852   0.59957   0.60933
  Beta virt. eigenvalues --    0.72437   0.72499   0.73284   0.79325   0.79503
  Beta virt. eigenvalues --    0.85796   0.86486   0.88416   0.89428   0.97849
  Beta virt. eigenvalues --    0.98440   1.02629   1.03094   1.04600   1.04823
  Beta virt. eigenvalues --    1.05775   1.06791   1.10321   1.10344   1.11341
  Beta virt. eigenvalues --    1.15685   1.21251   1.23214   1.23865   1.26102
  Beta virt. eigenvalues --    1.26396   1.27328   1.31446   1.31542   1.33814
  Beta virt. eigenvalues --    1.34148   1.36545   1.37659   1.39980   1.40755
  Beta virt. eigenvalues --    1.41055   1.41845   1.44868   1.49168   1.50073
  Beta virt. eigenvalues --    1.54777   1.56497   1.59126   1.60415   1.62628
  Beta virt. eigenvalues --    1.63428   1.63859   1.65788   1.67821   1.70932
  Beta virt. eigenvalues --    2.22434   2.32064   2.33190   2.39399   2.41017
  Beta virt. eigenvalues --    2.42834   2.47481   2.48399   2.50384   2.62930
  Beta virt. eigenvalues --    2.64692   2.64980   2.71329   2.71921   2.74365
  Beta virt. eigenvalues --    2.75165   2.75215   2.76787   2.83665   2.87223
  Beta virt. eigenvalues --    2.87439   2.87648   2.90895   2.91449   2.92909
  Beta virt. eigenvalues --    2.93458   2.95996   3.00791   3.00908   3.01756
  Beta virt. eigenvalues --    3.05447   3.06280   3.06723   3.09940   3.14909
  Beta virt. eigenvalues --    3.15016   3.18769   3.20622   3.20774   3.22737
  Beta virt. eigenvalues --    3.24155   3.25157   3.27655   3.29620   3.30076
  Beta virt. eigenvalues --    3.30896   3.42674   3.42976   3.44878   3.45668
  Beta virt. eigenvalues --    3.45909   3.47225   3.51479   3.52845   3.53059
  Beta virt. eigenvalues --    3.58548   3.59384   3.59932   3.60682   3.62498
  Beta virt. eigenvalues --    3.64513   3.70108   3.72317   3.73455   3.77376
  Beta virt. eigenvalues --    3.78354   3.81467   3.83716   3.84554   3.85247
  Beta virt. eigenvalues --    3.90125   3.90448   3.92979   3.93200   3.95244
  Beta virt. eigenvalues --    4.01066   4.02335   4.02676   4.08105   4.10266
  Beta virt. eigenvalues --    4.10699   4.12562   4.13595   4.14055   4.22769
  Beta virt. eigenvalues --    4.23231   4.27102   4.27774   4.27803   4.31110
  Beta virt. eigenvalues --    4.32453   4.34284   4.34627   4.35484   4.35494
  Beta virt. eigenvalues --    4.39668   4.41727   4.43632   4.45353   4.51723
  Beta virt. eigenvalues --    4.51743   4.54460   4.64849   4.67997   4.69378
  Beta virt. eigenvalues --    4.80019   4.88620   4.89016   4.90980   4.92997
  Beta virt. eigenvalues --    4.96534   5.00318   5.06631   5.06682   5.22071
  Beta virt. eigenvalues --    5.22290   5.24663   5.25777   5.26747   5.27954
  Beta virt. eigenvalues --    5.30700   5.34349   5.35558   5.37005   5.40796
  Beta virt. eigenvalues --    5.41908   5.44095   5.44424   5.47178   5.50984
  Beta virt. eigenvalues --    5.52468   5.54595   5.59771   5.66930   5.69326
  Beta virt. eigenvalues --    5.97399   5.99631   6.00536   6.04041   6.05170
  Beta virt. eigenvalues --    6.12258   9.46084  13.37276  13.41349  14.23524
          Condensed to atoms (all electrons):
               1          2          3          4          5          6
     1  C    4.841114   0.352768   0.407768   0.408074   0.394621  -0.062626
     2  C    0.352768   5.309879  -0.040674  -0.040770  -0.048303   0.345586
     3  H    0.407768  -0.040674   0.598307  -0.026597  -0.032887   0.007813
     4  H    0.408074  -0.040770  -0.026597   0.598784  -0.033113  -0.005511
     5  H    0.394621  -0.048303  -0.032887  -0.033113   0.632077  -0.004349
     6  C   -0.062626   0.345586   0.007813  -0.005511  -0.004349   4.856369
     7  C   -0.063136   0.352757  -0.005452   0.007781  -0.004316  -0.062666
     8  H   -0.004443  -0.048030  -0.000316  -0.000669   0.007985   0.401085
     9  H   -0.005585  -0.040605  -0.000069   0.003479  -0.000701   0.414314
    10  H   -0.004312  -0.048314  -0.000621  -0.000281   0.007813  -0.004353
    11  H    0.007780  -0.040772  -0.000062  -0.000477  -0.000281  -0.005519
    12  H   -0.005451  -0.040677   0.003479  -0.000063  -0.000619   0.007817
    13  H    0.008019  -0.040599  -0.000483  -0.000065  -0.000276   0.414334
               7          8          9         10         11         12
     1  C   -0.063136  -0.004443  -0.005585  -0.004312   0.007780  -0.005451
     2  C    0.352757  -0.048030  -0.040605  -0.048314  -0.040772  -0.040677
     3  H   -0.005452  -0.000316  -0.000069  -0.000621  -0.000062   0.003479
     4  H    0.007781  -0.000669   0.003479  -0.000281  -0.000477  -0.000063
     5  H   -0.004316   0.007985  -0.000701   0.007813  -0.000281  -0.000619
     6  C   -0.062666   0.401085   0.414314  -0.004353  -0.005519   0.007817
     7  C    4.841155  -0.004440   0.008025   0.394617   0.408082   0.407760
     8  H   -0.004440   0.615463  -0.033989   0.007985  -0.000671  -0.000315
     9  H    0.008025  -0.033989   0.579554  -0.000277  -0.000064  -0.000484
    10  H    0.394617   0.007985  -0.000277   0.632102  -0.033111  -0.032884
    11  H    0.408082  -0.000671  -0.000064  -0.033111   0.598806  -0.026600
    12  H    0.407760  -0.000315  -0.000484  -0.032884  -0.026600   0.598313
    13  H   -0.005597  -0.033990  -0.026719  -0.000699   0.003479  -0.000068
              13
     1  C    0.008019
     2  C   -0.040599
     3  H   -0.000483
     4  H   -0.000065
     5  H   -0.000276
     6  C    0.414334
     7  C   -0.005597
     8  H   -0.033990
     9  H   -0.026719
    10  H   -0.000699
    11  H    0.003479
    12  H   -0.000068
    13  H    0.579537
          Atomic-Atomic Spin Densities.
               1          2          3          4          5          6
     1  C   -0.053039  -0.017888   0.006117   0.006092  -0.004557   0.007485
     2  C   -0.017888   1.115371  -0.005326  -0.005270  -0.031489  -0.018716
     3  H    0.006117  -0.005326   0.009844   0.001356  -0.007267  -0.000018
     4  H    0.006092  -0.005270   0.001356   0.009700  -0.007191   0.001349
     5  H   -0.004557  -0.031489  -0.007267  -0.007191   0.098959  -0.002326
     6  C    0.007485  -0.018716  -0.000018   0.001349  -0.002326  -0.045402
     7  C    0.007440  -0.017892   0.001336  -0.000037  -0.002206   0.007488
     8  H   -0.002337  -0.031381  -0.000451  -0.001291   0.011100  -0.004372
     9  H    0.001346  -0.005367   0.000096   0.000632  -0.001264   0.005967
    10  H   -0.002204  -0.031495  -0.001284  -0.000431   0.011165  -0.002328
    11  H   -0.000038  -0.005262   0.000098   0.000035  -0.000430   0.001350
    12  H    0.001334  -0.005335   0.000657   0.000098  -0.001283  -0.000018
    13  H   -0.000008  -0.005370   0.000036   0.000098  -0.000444   0.005971
               7          8          9         10         11         12
     1  C    0.007440  -0.002337   0.001346  -0.002204  -0.000038   0.001334
     2  C   -0.017892  -0.031381  -0.005367  -0.031495  -0.005262  -0.005335
     3  H    0.001336  -0.000451   0.000096  -0.001284   0.000098   0.000657
     4  H   -0.000037  -0.001291   0.000632  -0.000431   0.000035   0.000098
     5  H   -0.002206   0.011100  -0.001264   0.011165  -0.000430  -0.001283
     6  C    0.007488  -0.004372   0.005967  -0.002328   0.001350  -0.000018
     7  C   -0.053050  -0.002335  -0.000008  -0.004558   0.006081   0.006129
     8  H   -0.002335   0.090672  -0.007106   0.011103  -0.001292  -0.000451
     9  H   -0.000008  -0.007106   0.008823  -0.000444   0.000098   0.000036
    10  H   -0.004558   0.011103  -0.000444   0.098978  -0.007185  -0.007274
    11  H    0.006081  -0.001292   0.000098  -0.007185   0.009682   0.001356
    12  H    0.006129  -0.000451   0.000036  -0.007274   0.001356   0.009866
    13  H    0.001345  -0.007108   0.001461  -0.001264   0.000632   0.000096
              13
     1  C   -0.000008
     2  C   -0.005370
     3  H    0.000036
     4  H    0.000098
     5  H   -0.000444
     6  C    0.005971
     7  C    0.001345
     8  H   -0.007108
     9  H    0.001461
    10  H   -0.001264
    11  H    0.000632
    12  H    0.000096
    13  H    0.008831
 Mulliken charges and spin densities:
               1          2
     1  C   -0.274592  -0.050257
     2  C    0.027753   0.934580
     3  H    0.089793   0.005195
     4  H    0.089429   0.005139
     5  H    0.082350   0.062767
     6  C   -0.302293  -0.043571
     7  C   -0.274570  -0.050268
     8  H    0.094345   0.054753
     9  H    0.103119   0.004271
    10  H    0.082334   0.062780
    11  H    0.089411   0.005125
    12  H    0.089793   0.005211
    13  H    0.103128   0.004277
 Sum of Mulliken charges =  -0.00000   1.00000
 Mulliken charges and spin densities with hydrogens summed into heavy atoms:
               1          2
     1  C   -0.013020   0.022844
     2  C    0.027753   0.934580
     6  C   -0.001701   0.019729
     7  C   -0.013033   0.022847
 Electronic spatial extent (au):  <R**2>=            339.0231
 Charge=             -0.0000 electrons
 Dipole moment (field-independent basis, Debye):
    X=             -0.0009    Y=              0.0559    Z=              0.4623  Tot=              0.4657
 Quadrupole moment (field-independent basis, Debye-Ang):
   XX=            -28.2203   YY=            -28.1499   ZZ=            -28.5261
   XY=             -0.0016   XZ=              0.0004   YZ=             -0.0107
 Traceless Quadrupole moment (field-independent basis, Debye-Ang):
   XX=              0.0785   YY=              0.1489   ZZ=             -0.2274
   XY=             -0.0016   XZ=              0.0004   YZ=             -0.0107
 Octapole moment (field-independent basis, Debye-Ang**2):
  XXX=             -0.1243  YYY=             -1.3642  ZZZ=              3.1430  XYY=              0.1070
  XXY=              2.3778  XXZ=             -1.2639  XZZ=             -0.0041  YZZ=              0.2520
  YYZ=             -1.3206  XYZ=              0.0009
 Hexadecapole moment (field-independent basis, Debye-Ang**3):
 XXXX=           -215.2610 YYYY=           -211.7715 ZZZZ=            -59.6302 XXXY=             -0.0133
 XXXZ=              0.0650 YYYX=             -0.0305 YYYZ=              1.4252 ZZZX=              0.0028
 ZZZY=             -0.1119 XXYY=            -71.3484 XXZZ=            -45.9392 YYZZ=            -45.3819
 XXYZ=             -1.2399 YYXZ=             -0.0673 ZZXY=             -0.0062
 N-N= 1.263630813691D+02 E-N=-6.170876569993D+02  KE= 1.566117434418D+02
                          Isotropic Fermi Contact Couplings
        Atom                 a.u.       MegaHertz       Gauss      10(-4) cm-1
     1  C(13)             -0.00294      -3.31007      -1.18112      -1.10412
     2  C(13)              0.24222     272.30481      97.16513      90.83111
     3  H(1)               0.00350      15.64978       5.58423       5.22020
     4  H(1)               0.00347      15.53258       5.54241       5.18111
     5  H(1)               0.02166      96.79775      34.53984      32.28825
     6  C(13)             -0.00220      -2.47176      -0.88198      -0.82449
     7  C(13)             -0.00295      -3.32052      -1.18484      -1.10761
     8  H(1)               0.01987      88.81078      31.68990      29.62409
     9  H(1)               0.00343      15.31123       5.46343       5.10728
    10  H(1)               0.02166      96.81067      34.54446      32.29256
    11  H(1)               0.00347      15.48940       5.52700       5.16671
    12  H(1)               0.00351      15.69730       5.60119       5.23606
    13  H(1)               0.00343      15.32811       5.46945       5.11291
 --------------------------------------------------------
       Center         ----  Spin Dipole Couplings  ----
                      3XX-RR        3YY-RR        3ZZ-RR
 --------------------------------------------------------
     1   Atom        0.015668     -0.006218     -0.009449
     2   Atom       -0.507343     -0.507120      1.014463
     3   Atom       -0.000410      0.008241     -0.007831
     4   Atom        0.018046     -0.010215     -0.007831
     5   Atom        0.001682     -0.004817      0.003134
     6   Atom       -0.018516      0.020537     -0.002020
     7   Atom        0.014417     -0.004967     -0.009450
     8   Atom       -0.008887      0.004641      0.004246
     9   Atom       -0.005886      0.014186     -0.008300
    10   Atom        0.001314     -0.004448      0.003134
    11   Atom        0.017862     -0.010037     -0.007825
    12   Atom       -0.001344      0.009180     -0.007836
    13   Atom       -0.005068      0.013370     -0.008303
 --------------------------------------------------------
                        XY            XZ            YZ
 --------------------------------------------------------
     1   Atom       -0.017579      0.020855     -0.011626
     2   Atom       -0.000000     -0.000051      0.002385
     3   Atom       -0.013603      0.002027     -0.003634
     4   Atom       -0.002064      0.004172      0.000190
     5   Atom       -0.005134      0.006971     -0.003902
     6   Atom       -0.000690     -0.000449      0.025552
     7   Atom        0.018297     -0.020442     -0.012332
     8   Atom       -0.000239     -0.000153      0.008529
     9   Atom        0.011265      0.002347      0.003912
    10   Atom        0.005350     -0.006826     -0.004150
    11   Atom        0.003042     -0.004183      0.000044
    12   Atom        0.013272     -0.001895     -0.003697
    13   Atom       -0.011945     -0.002482      0.003824
 --------------------------------------------------------


 ---------------------------------------------------------------------------------
              Anisotropic Spin Dipole Couplings in Principal Axis System
 ---------------------------------------------------------------------------------

       Atom             a.u.   MegaHertz   Gauss  10(-4) cm-1        Axes

              Baa    -0.0216    -2.895    -1.033    -0.966 -0.3930  0.2251  0.8916
     1 C(13)  Bbb    -0.0160    -2.145    -0.765    -0.715  0.4881  0.8727 -0.0052
              Bcc     0.0376     5.040     1.798     1.681  0.7793 -0.4332  0.4528
 
              Baa    -0.5073   -68.081   -24.293   -22.709  1.0000  0.0012  0.0000
     2 C(13)  Bbb    -0.5071   -68.051   -24.282   -22.699 -0.0012  1.0000 -0.0016
              Bcc     1.0145   136.132    48.575    45.409 -0.0000  0.0016  1.0000
 
              Baa    -0.0105    -5.594    -1.996    -1.866  0.7628  0.6006  0.2397
     3 H(1)   Bbb    -0.0083    -4.453    -1.589    -1.485 -0.2835 -0.0225  0.9587
              Bcc     0.0188    10.047     3.585     3.351 -0.5812  0.7992 -0.1531
 
              Baa    -0.0105    -5.593    -1.996    -1.866  0.1040  0.9669 -0.2330
     4 H(1)   Bbb    -0.0084    -4.459    -1.591    -1.487 -0.1325  0.2456  0.9603
              Bcc     0.0188    10.053     3.587     3.353  0.9857 -0.0690  0.1537
 
              Baa    -0.0076    -4.078    -1.455    -1.360  0.4764  0.8792  0.0102
     5 H(1)   Bbb    -0.0042    -2.239    -0.799    -0.747 -0.5981  0.3155  0.7367
              Bcc     0.0118     6.317     2.254     2.107  0.6445 -0.3571  0.6761
 
              Baa    -0.0187    -2.506    -0.894    -0.836 -0.0064 -0.5460  0.8377
     6 C(13)  Bbb    -0.0185    -2.486    -0.887    -0.829  0.9999  0.0089  0.0134
              Bcc     0.0372     4.992     1.781     1.665 -0.0148  0.8377  0.5459
 
              Baa    -0.0216    -2.895    -1.033    -0.966  0.3861  0.2367  0.8916
     7 C(13)  Bbb    -0.0160    -2.144    -0.765    -0.715 -0.5173  0.8558 -0.0032
              Bcc     0.0376     5.040     1.798     1.681  0.7638  0.4600 -0.4528
 
              Baa    -0.0089    -4.744    -1.693    -1.582  0.9998  0.0175  0.0003
     8 H(1)   Bbb    -0.0041    -2.181    -0.778    -0.727  0.0121 -0.6987  0.7153
              Bcc     0.0130     6.925     2.471     2.310 -0.0127  0.7152  0.6988
 
              Baa    -0.0111    -5.910    -2.109    -1.971  0.8982 -0.3619 -0.2494
     9 H(1)   Bbb    -0.0089    -4.742    -1.692    -1.582  0.1671 -0.2436  0.9554
              Bcc     0.0200    10.652     3.801     3.553  0.4065  0.8998  0.1583
 
              Baa    -0.0076    -4.078    -1.455    -1.360 -0.5063  0.8623  0.0113
    10 H(1)   Bbb    -0.0042    -2.239    -0.799    -0.747  0.5873  0.3351  0.7367
              Bcc     0.0118     6.317     2.254     2.107 -0.6315 -0.3797  0.6761
 
              Baa    -0.0105    -5.593    -1.996    -1.866 -0.1376  0.9628 -0.2326
    11 H(1)   Bbb    -0.0084    -4.458    -1.591    -1.487  0.1242  0.2498  0.9603
              Bcc     0.0188    10.051     3.586     3.353  0.9827  0.1033 -0.1540
 
              Baa    -0.0105    -5.595    -1.996    -1.866  0.7831 -0.5736 -0.2402
    12 H(1)   Bbb    -0.0083    -4.454    -1.589    -1.486  0.2844 -0.0132  0.9586
              Bcc     0.0188    10.048     3.585     3.352  0.5531  0.8190 -0.1528
 
              Baa    -0.0111    -5.910    -2.109    -1.971  0.8849  0.3933  0.2496
    13 H(1)   Bbb    -0.0089    -4.742    -1.692    -1.582 -0.1587 -0.2493  0.9554
              Bcc     0.0200    10.653     3.801     3.553 -0.4380  0.8850  0.1582
 

 ---------------------------------------------------------------------------------

 Calling FoFJK, ICntrl=  10002127 FMM=F ISym2X=0 I1Cent= 0 IOpClX= 1 NMat=1 NMatS=1 NMatT=0.
 ***** Axes restored to original set *****
 -------------------------------------------------------------------
 Center     Atomic                   Forces (Hartrees/Bohr)
 Number     Number              X              Y              Z
 -------------------------------------------------------------------
      1        6          -0.006403912    0.012288369   -0.020739484
      2        6          -0.018709776   -0.023378087    0.046041288
      3        1           0.001946317   -0.016097539    0.000694498
      4        1           0.002015404    0.007427871    0.014198146
      5        1           0.005178669    0.005920082   -0.010272834
      6        6           0.002504903    0.026526089   -0.020555650
      7        6           0.012784998    0.019259526   -0.009381119
      8        1          -0.004666705   -0.008301554    0.012996432
      9        1          -0.002750158   -0.010764371   -0.009301599
     10        1           0.003503072    0.005309932   -0.011285598
     11        1          -0.015680254    0.001036841    0.003750810
     12        1           0.006623139   -0.014405852    0.003473100
     13        1           0.013654303   -0.004821306    0.000382009
 -------------------------------------------------------------------
 Cartesian Forces:  Max     0.046041288 RMS     0.013827393

 GradGradGradGradGradGradGradGradGradGradGradGradGradGradGradGradGradGrad
 Berny optimization.
 FormGI is forming the generalized inverse of G from B-inverse, IUseBI=4.
 Internal  Forces:  Max     0.016104885 RMS     0.007433697
 Search for a local minimum.
 Step number   1 out of a maximum of  100
 All quantities printed in internal units (Hartrees-Bohrs-Radians)
 Mixed Optimization -- RFO/linear search
 Second derivative matrix not updated -- first step.
 ITU=  0
     Eigenvalues ---    0.00580   0.00580   0.00580   0.02691   0.07237
     Eigenvalues ---    0.07238   0.07251   0.07251   0.07434   0.07434
     Eigenvalues ---    0.16000   0.16000   0.16000   0.16000   0.16000
     Eigenvalues ---    0.16000   0.16000   0.16000   0.16000   0.16784
     Eigenvalues ---    0.16787   0.30945   0.30948   0.30949   0.31903
     Eigenvalues ---    0.31906   0.31926   0.31927   0.31927   0.31927
     Eigenvalues ---    0.37230   0.37230   0.37230
 RFO step:  Lambda=-1.91437126D-02 EMin= 5.79854856D-03
 Linear search not attempted -- first point.
 Iteration  1 RMS(Cart)=  0.06739216 RMS(Int)=  0.00452736
 Iteration  2 RMS(Cart)=  0.00540676 RMS(Int)=  0.00331972
 Iteration  3 RMS(Cart)=  0.00000483 RMS(Int)=  0.00331972
 Iteration  4 RMS(Cart)=  0.00000001 RMS(Int)=  0.00331972
 Variable       Old X    -DE/DX   Delta X   Delta X   Delta X     New X
                                 (Linear)    (Quad)   (Total)
    R1        2.86117  -0.00274   0.00000  -0.00833  -0.00833   2.85285
    R2        2.10978  -0.01577   0.00000  -0.04660  -0.04660   2.06319
    R3        2.10977  -0.01571   0.00000  -0.04642  -0.04642   2.06335
    R4        2.11015  -0.01292   0.00000  -0.03820  -0.03820   2.07195
    R5        2.86109   0.00099   0.00000   0.00300   0.00300   2.86409
    R6        2.86112  -0.00271   0.00000  -0.00824  -0.00824   2.85288
    R7        2.02201   0.01610   0.00000   0.04114   0.04114   2.06315
    R8        2.02201   0.01354   0.00000   0.03460   0.03460   2.05660
    R9        2.02201   0.01354   0.00000   0.03459   0.03459   2.05660
   R10        2.11021  -0.01294   0.00000  -0.03826  -0.03826   2.07196
   R11        2.10978  -0.01572   0.00000  -0.04644  -0.04644   2.06334
   R12        2.10980  -0.01577   0.00000  -0.04660  -0.04660   2.06320
    A1        1.92626   0.00525   0.00000   0.03152   0.03116   1.95742
    A2        1.92627   0.00507   0.00000   0.03045   0.03009   1.95636
    A3        1.92939  -0.00342   0.00000  -0.02347  -0.02328   1.90611
    A4        1.89552  -0.00333   0.00000  -0.01012  -0.01093   1.88459
    A5        1.89274  -0.00193   0.00000  -0.01492  -0.01473   1.87801
    A6        1.89274  -0.00188   0.00000  -0.01482  -0.01465   1.87809
    A7        1.93065   0.00403   0.00000   0.08586   0.07258   2.00323
    A8        1.93038   0.00370   0.00000   0.08412   0.07071   2.00109
    A9        1.93036   0.00407   0.00000   0.08611   0.07284   2.00320
   A10        1.91063  -0.00219   0.00000  -0.01643  -0.01627   1.89436
   A11        1.91063   0.00649   0.00000   0.03834   0.03780   1.94843
   A12        1.91063   0.00648   0.00000   0.03830   0.03775   1.94839
   A13        1.91063  -0.00318   0.00000  -0.02194  -0.02178   1.88886
   A14        1.91063  -0.00317   0.00000  -0.02193  -0.02177   1.88886
   A15        1.91063  -0.00443   0.00000  -0.01634  -0.01747   1.89316
   A16        1.92932  -0.00342   0.00000  -0.02344  -0.02325   1.90607
   A17        1.92628   0.00507   0.00000   0.03043   0.03007   1.95635
   A18        1.92626   0.00526   0.00000   0.03158   0.03122   1.95748
   A19        1.89283  -0.00189   0.00000  -0.01488  -0.01471   1.87812
   A20        1.89272  -0.00194   0.00000  -0.01493  -0.01475   1.87797
   A21        1.89551  -0.00333   0.00000  -0.01012  -0.01093   1.88459
    D1       -3.11721   0.00401   0.00000   0.09976   0.10048  -3.01673
    D2        1.02109  -0.00650   0.00000  -0.12728  -0.12877   0.89232
    D3       -1.02184   0.00651   0.00000   0.12705   0.12854  -0.89331
    D4        3.11646  -0.00400   0.00000  -0.09999  -0.10072   3.01573
    D5        1.07207   0.00524   0.00000   0.11311   0.11423   1.18630
    D6       -1.07281  -0.00528   0.00000  -0.11393  -0.11503  -1.18784
    D7       -1.07255  -0.00515   0.00000  -0.11295  -0.11417  -1.18672
    D8        1.02184  -0.00641   0.00000  -0.12640  -0.12812   0.89372
    D9        3.11624  -0.00389   0.00000  -0.09949  -0.10020   3.01604
   D10        1.07235   0.00515   0.00000   0.11293   0.11414   1.18649
   D11       -3.11644   0.00389   0.00000   0.09948   0.10019  -3.01626
   D12       -1.02205   0.00641   0.00000   0.12639   0.12811  -0.89394
   D13        1.07204   0.00527   0.00000   0.11397   0.11508   1.18713
   D14       -3.11716   0.00399   0.00000   0.09997   0.10071  -3.01645
   D15       -1.02180   0.00649   0.00000   0.12728   0.12879  -0.89301
   D16       -1.07301  -0.00522   0.00000  -0.11289  -0.11402  -1.18703
   D17        1.02097  -0.00650   0.00000  -0.12689  -0.12839   0.89258
   D18        3.11633  -0.00400   0.00000  -0.09957  -0.10031   3.01602
         Item               Value     Threshold  Converged?
 Maximum Force            0.016105     0.000450     NO 
 RMS     Force            0.007434     0.000300     NO 
 Maximum Displacement     0.193348     0.001800     NO 
 RMS     Displacement     0.063943     0.001200     NO 
 Predicted change in Energy=-1.299907D-02
 GradGradGradGradGradGradGradGradGradGradGradGradGradGradGradGradGradGrad

                          Input orientation:                          
 ---------------------------------------------------------------------
 Center     Atomic      Atomic             Coordinates (Angstroms)
 Number     Number       Type             X           Y           Z
 ---------------------------------------------------------------------
      1          6           0       -3.419699    0.651340   -0.006180
      2          6           0       -1.915260    0.588347    0.102316
      3          1           0       -3.788896    1.678739   -0.018536
      4          1           0       -3.788039    0.150029   -0.903516
      5          1           0       -3.865286    0.149302    0.860751
      6          6           0       -1.325302   -0.799804   -0.046218
      7          6           0       -1.330180    1.407332    1.227519
      8          1           0       -1.620097   -1.396686    0.819110
      9          1           0       -1.690155   -1.297049   -0.942903
     10          1           0       -1.620437    0.962114    2.186527
     11          1           0       -0.239190    1.433398    1.192185
     12          1           0       -1.692349    2.437273    1.218620
     13          1           0       -0.238083   -0.771588   -0.085779
 ---------------------------------------------------------------------
                    Distance matrix (angstroms):
                    1          2          3          4          5
     1  C    0.000000
     2  C    1.509661   0.000000
     3  H    1.091791   2.171191   0.000000
     4  H    1.091879   2.170512   1.766394   0.000000
     5  H    1.096430   2.137892   1.765830   1.765957   0.000000
     6  C    2.548318   1.515612   3.494745   2.775287   2.859181
     7  C    2.541580   1.509681   2.769765   3.487577   2.853755
     8  H    2.848523   2.131027   3.855331   3.171709   2.726295
     9  H    2.768572   2.167458   3.756925   2.548863   3.174318
    10  H    2.853400   2.137887   3.174597   3.860874   2.730877
    11  H    3.487597   2.170515   3.758517   4.316634   3.861000
    12  H    2.770096   2.171255   2.549792   3.758572   3.175616
    13  H    3.486221   2.167424   4.314730   3.757693   3.860124
                    6          7          8          9         10
     6  C    0.000000
     7  C    2.548309   0.000000
     8  H    1.091771   2.848397   0.000000
     9  H    1.088308   3.486257   1.766218   0.000000
    10  H    2.859477   1.096432   2.726494   3.860312   0.000000
    11  H    2.774972   1.091873   3.171035   3.757558   1.765975
    12  H    3.494740   1.091798   3.855395   4.314782   1.765817
    13  H    1.088304   2.768595   1.766220   1.766150   3.174901
                   11         12         13
    11  H    0.000000
    12  H    1.766390   0.000000
    13  H    2.548559   3.756745   0.000000
 Stoichiometry    C4H9(2)
 Framework group  C1[X(C4H9)]
 Deg. of freedom    33
 Full point group                 C1      NOp   1
 Largest Abelian subgroup         C1      NOp   1
 Largest concise Abelian subgroup C1      NOp   1
                         Standard orientation:                         
 ---------------------------------------------------------------------
 Center     Atomic      Atomic             Coordinates (Angstroms)
 Number     Number       Type             X           Y           Z
 ---------------------------------------------------------------------
      1          6           0        0.735945    1.270284    0.034392
      2          6           0        0.000019    0.000013   -0.317601
      3          1           0        1.758228    1.273507   -0.348930
      4          1           0        0.229320    2.158146   -0.349315
      5          1           0        0.790613    1.365095    1.125346
      6          6           0       -1.473773    0.001008    0.035973
      7          6           0        0.734195   -1.271295    0.034391
      8          1           0       -1.569846    0.000941    1.123509
      9          1           0       -1.978500    0.884476   -0.350226
     10          1           0        0.789355   -1.365782    1.125351
     11          1           0        0.225953   -2.158487   -0.348713
     12          1           0        1.756264   -1.276283   -0.349500
     13          1           0       -1.979698   -0.881673   -0.350447
 ---------------------------------------------------------------------
 Rotational constants (GHZ):           8.0804917           8.0491131           4.4428716
 Standard basis: CC-pVTZ (5D, 7F)
 There are   275 symmetry adapted cartesian basis functions of A   symmetry.
 There are   246 symmetry adapted basis functions of A   symmetry.
   246 basis functions,   361 primitive gaussians,   275 cartesian basis functions
    17 alpha electrons       16 beta electrons
       nuclear repulsion energy       125.6077391045 Hartrees.
 NAtoms=   13 NActive=   13 NUniq=   13 SFac= 1.00D+00 NAtFMM=   60 NAOKFM=F Big=F
 Integral buffers will be    131072 words long.
 Raffenetti 2 integral format.
 Two-electron integral symmetry is turned on.
 Nuclear repulsion after empirical dispersion term =      125.6014416919 Hartrees.
 One-electron integrals computed using PRISM.
 NBasis=   246 RedAO= T EigKep=  8.59D-04  NBF=   246
 NBsUse=   246 1.00D-06 EigRej= -1.00D+00 NBFU=   246
 Initial guess from the checkpoint file:  "/localscratch/339542/Gau-54693.chk"
 B after Tr=    -0.000000   -0.000000   -0.000000
         Rot=    0.713523    0.000009    0.000005   -0.700632 Ang=  88.96 deg.
 Initial guess <Sx>= 0.0000 <Sy>= 0.0000 <Sz>= 0.5000 <S**2>= 0.7554 S= 0.5027
 ExpMin= 1.03D-01 ExpMax= 8.24D+03 ExpMxC= 2.81D+02 IAcc=3 IRadAn=         5 AccDes= 0.00D+00
 Harris functional with IExCor=  419 and IRadAn=       5 diagonalized for initial guess.
 HarFok:  IExCor=  419 AccDes= 0.00D+00 IRadAn=         5 IDoV= 1 UseB2=F ITyADJ=14
 ICtDFT=  3500011 ScaDFX=  1.000000  1.000000  1.000000  1.000000
 FoFCou: FMM=F IPFlag=           0 FMFlag=      100000 FMFlg1=           0
         NFxFlg=           0 DoJE=T BraDBF=F KetDBF=T FulRan=T
         wScrn=  0.000000 ICntrl=       500 IOpCl=  0 I1Cent=   200000004 NGrid=           0
         NMat0=    1 NMatS0=      1 NMatT0=    0 NMatD0=    1 NMtDS0=    0 NMtDT0=    0
 Petite list used in FoFCou.
 Requested convergence on RMS density matrix=1.00D-08 within 128 cycles.
 Requested convergence on MAX density matrix=1.00D-06.
 Requested convergence on             energy=1.00D-06.
 No special actions if energy rises.
 Integral accuracy reduced to 1.0D-05 until final iterations.
 Initial convergence to 1.0D-05 achieved.  Increase integral accuracy.
 SCF Done:  E(UB2PLYPD3) =  -157.470274554     A.U. after   13 cycles
            NFock= 13  Conv=0.14D-08     -V/T= 2.0051
 <Sx>= 0.0000 <Sy>= 0.0000 <Sz>= 0.5000 <S**2>= 0.7561 S= 0.5031
 <L.S>=  0.00000000000    
 Annihilation of the first spin contaminant:
 S**2 before annihilation     0.7561,   after     0.7500
 DoSCS=T DFT=T ScalE2(SS,OS)=  0.270000  0.270000
 ExpMin= 1.03D-01 ExpMax= 8.24D+03 ExpMxC= 2.81D+02 IAcc=3 IRadAn=         5 AccDes= 0.00D+00
 HarFok:  IExCor=  205 AccDes= 0.00D+00 IRadAn=         5 IDoV=-2 UseB2=F ITyADJ=14
 ICtDFT= 12500011 ScaDFX=  1.000000  1.000000  1.000000  1.000000
 Range of M.O.s used for correlation:     5   246
 NBasis=   246 NAE=    17 NBE=    16 NFC=     4 NFV=     0
 NROrb=    242 NOA=    13 NOB=    12 NVA=   229 NVB=   230

 **** Warning!!: The largest alpha MO coefficient is  0.12935700D+02


 **** Warning!!: The largest beta MO coefficient is  0.13064665D+02

 DoSCS=T DFT=T ScalE2(SS,OS)=  0.270000  0.270000
 Fully direct method using O(ONN) memory.
 JobTyp=2 Pass  1:  I=   5 to  17 NPSUse= 40 ParTrn=T ParDer=T DoDerP=T.
 JobTyp=3 Pass  1:  I=   5 to  16 NPSUse= 40 ParTrn=T ParDer=T DoDerP=T.
 Spin components of T(2) and E(2):
     alpha-alpha T2 =       0.4118901177D-01 E2=     -0.2654046147D-01
     alpha-beta  T2 =       0.2421144206D+00 E2=     -0.1725536939D+00
     beta-beta   T2 =       0.3577941826D-01 E2=     -0.2271845692D-01
 (S**2,0)=  0.75612D+00           (S**2,1)=  0.74741D+00
 Scaling Projection term by:   0.270000
 E(PUHF)=      -0.15747252262D+03        E(PMP2)=      -0.15769226342D+03
 E2(B2PLYPD3) =    -0.2218126123D+00 E(B2PLYPD3) =    -0.15769208716621D+03
          IDoAtm=1111111111111
          Differentiating once with respect to electric field.
                with respect to dipole field.
          Differentiating once with respect to nuclear coordinates.
 Keep R1 and R2 ints in memory in canonical form, NReq=967250981.
          There are     1 degrees of freedom in the 1st order CPHF.  IDoFFX=0 NUNeed=     1.
 LinEq1:  Iter=  0 NonCon=     1 RMS=5.86D-04 Max=2.60D-02 NDo=     1
 AX will form     1 AO Fock derivatives at one time.
 LinEq1:  Iter=  1 NonCon=     1 RMS=2.11D-04 Max=4.61D-03 NDo=     1
 LinEq1:  Iter=  2 NonCon=     1 RMS=7.11D-05 Max=2.28D-03 NDo=     1
 LinEq1:  Iter=  3 NonCon=     1 RMS=1.80D-05 Max=4.32D-04 NDo=     1
 LinEq1:  Iter=  4 NonCon=     1 RMS=9.62D-06 Max=1.86D-04 NDo=     1
 LinEq1:  Iter=  5 NonCon=     1 RMS=2.63D-06 Max=7.03D-05 NDo=     1
 LinEq1:  Iter=  6 NonCon=     1 RMS=1.04D-06 Max=2.48D-05 NDo=     1
 LinEq1:  Iter=  7 NonCon=     1 RMS=2.80D-07 Max=5.36D-06 NDo=     1
 LinEq1:  Iter=  8 NonCon=     1 RMS=7.40D-08 Max=1.03D-06 NDo=     1
 LinEq1:  Iter=  9 NonCon=     1 RMS=1.73D-08 Max=2.79D-07 NDo=     1
 LinEq1:  Iter= 10 NonCon=     1 RMS=8.72D-09 Max=1.25D-07 NDo=     1
 LinEq1:  Iter= 11 NonCon=     1 RMS=2.18D-09 Max=5.57D-08 NDo=     1
 LinEq1:  Iter= 12 NonCon=     1 RMS=3.38D-10 Max=6.81D-09 NDo=     1
 LinEq1:  Iter= 13 NonCon=     1 RMS=6.08D-11 Max=1.23D-09 NDo=     1
 LinEq1:  Iter= 14 NonCon=     0 RMS=1.15D-11 Max=2.37D-10 NDo=     1
 Linear equations converged to 1.000D-10 1.000D-09 after    14 iterations.
 End of Minotr F.D. properties file   721 does not exist.
 End of Minotr F.D. properties file   722 does not exist.
 End of Minotr F.D. properties file   788 does not exist.
 Calling FoFJK, ICntrl=  10002127 FMM=F ISym2X=0 I1Cent= 0 IOpClX= 1 NMat=1 NMatS=1 NMatT=0.
 ***** Axes restored to original set *****
 -------------------------------------------------------------------
 Center     Atomic                   Forces (Hartrees/Bohr)
 Number     Number              X              Y              Z
 -------------------------------------------------------------------
      1        6           0.007428653    0.003456199   -0.006752366
      2        6          -0.005289111   -0.010194224    0.015222289
      3        1           0.000833059   -0.001199140    0.000865639
      4        1           0.000698907   -0.000122590    0.001522843
      5        1          -0.001669752   -0.000323790    0.000551779
      6        6          -0.001814733    0.014980853   -0.006111380
      7        6           0.001080905    0.001154445   -0.010498621
      8        1           0.000206832   -0.003976185    0.002087971
      9        1          -0.000606406   -0.001039391    0.000125097
     10        1           0.000308445    0.000391533    0.001717821
     11        1          -0.001400460   -0.000880735    0.000282668
     12        1          -0.000401072   -0.001648830    0.000135812
     13        1           0.000624732   -0.000598146    0.000850447
 -------------------------------------------------------------------
 Cartesian Forces:  Max     0.015222289 RMS     0.004790730

 GradGradGradGradGradGradGradGradGradGradGradGradGradGradGradGradGradGrad
 Berny optimization.
 Using GEDIIS/GDIIS optimizer.
 FormGI is forming the generalized inverse of G from B-inverse, IUseBI=4.
 Internal  Forces:  Max     0.008899203 RMS     0.002376203
 Search for a local minimum.
 Step number   2 out of a maximum of  100
 All quantities printed in internal units (Hartrees-Bohrs-Radians)
 Mixed Optimization -- RFO/linear search
 Update second derivatives using D2CorX and points    1    2
 DE= -1.12D-02 DEPred=-1.30D-02 R= 8.61D-01
 TightC=F SS=  1.41D+00  RLast= 5.29D-01 DXNew= 5.0454D-01 1.5869D+00
 Trust test= 8.61D-01 RLast= 5.29D-01 DXMaxT set to 5.05D-01
 ITU=  1  0
 Use linear search instead of GDIIS.
     Eigenvalues ---    0.00580   0.00580   0.00580   0.02384   0.06900
     Eigenvalues ---    0.06913   0.07014   0.07286   0.07287   0.07400
     Eigenvalues ---    0.15475   0.16000   0.16000   0.16000   0.16000
     Eigenvalues ---    0.16000   0.16000   0.16000   0.16775   0.19402
     Eigenvalues ---    0.19428   0.27181   0.30946   0.30956   0.31859
     Eigenvalues ---    0.31905   0.31926   0.31927   0.31927   0.34422
     Eigenvalues ---    0.36580   0.37230   0.37555
 RFO step:  Lambda=-2.99132597D-03 EMin= 5.79855153D-03
 Quartic linear search produced a step of  0.36126.
 Iteration  1 RMS(Cart)=  0.05327967 RMS(Int)=  0.00365091
 Iteration  2 RMS(Cart)=  0.00390674 RMS(Int)=  0.00273882
 Iteration  3 RMS(Cart)=  0.00000236 RMS(Int)=  0.00273882
 Iteration  4 RMS(Cart)=  0.00000000 RMS(Int)=  0.00273882
 Variable       Old X    -DE/DX   Delta X   Delta X   Delta X     New X
                                 (Linear)    (Quad)   (Total)
    R1        2.85285  -0.00692  -0.00301  -0.02692  -0.02992   2.82292
    R2        2.06319  -0.00142  -0.01683   0.01170  -0.00514   2.05805
    R3        2.06335  -0.00143  -0.01677   0.01158  -0.00519   2.05816
    R4        2.07195   0.00126  -0.01380   0.01983   0.00603   2.07798
    R5        2.86409  -0.00890   0.00108  -0.03983  -0.03875   2.82534
    R6        2.85288  -0.00693  -0.00298  -0.02699  -0.02997   2.82292
    R7        2.06315   0.00377   0.01486  -0.00193   0.01294   2.07608
    R8        2.05660   0.00058   0.01250  -0.01103   0.00147   2.05808
    R9        2.05660   0.00058   0.01250  -0.01101   0.00148   2.05808
   R10        2.07196   0.00126  -0.01382   0.01984   0.00602   2.07798
   R11        2.06334  -0.00143  -0.01678   0.01160  -0.00518   2.05816
   R12        2.06320  -0.00142  -0.01683   0.01168  -0.00515   2.05805
    A1        1.95742  -0.00076   0.01126  -0.01809  -0.00695   1.95047
    A2        1.95636  -0.00050   0.01087  -0.01527  -0.00453   1.95184
    A3        1.90611   0.00182  -0.00841   0.02359   0.01526   1.92137
    A4        1.88459   0.00091  -0.00395   0.01312   0.00887   1.89347
    A5        1.87801  -0.00072  -0.00532  -0.00111  -0.00635   1.87166
    A6        1.87809  -0.00079  -0.00529  -0.00132  -0.00653   1.87156
    A7        2.00323   0.00071   0.02622   0.02357   0.03859   2.04182
    A8        2.00109   0.00129   0.02554   0.02822   0.04270   2.04379
    A9        2.00320   0.00071   0.02631   0.02351   0.03863   2.04183
   A10        1.89436   0.00313  -0.00588   0.03195   0.02609   1.92046
   A11        1.94843   0.00019   0.01365  -0.01260   0.00084   1.94927
   A12        1.94839   0.00020   0.01364  -0.01254   0.00089   1.94928
   A13        1.88886  -0.00184  -0.00787  -0.00742  -0.01527   1.87359
   A14        1.88886  -0.00184  -0.00786  -0.00743  -0.01528   1.87359
   A15        1.89316   0.00000  -0.00631   0.00807   0.00135   1.89451
   A16        1.90607   0.00183  -0.00840   0.02361   0.01530   1.92137
   A17        1.95635  -0.00049   0.01086  -0.01525  -0.00451   1.95184
   A18        1.95748  -0.00077   0.01128  -0.01819  -0.00703   1.95045
   A19        1.87812  -0.00080  -0.00531  -0.00130  -0.00654   1.87158
   A20        1.87797  -0.00072  -0.00533  -0.00109  -0.00633   1.87165
   A21        1.88459   0.00091  -0.00395   0.01313   0.00888   1.89347
    D1       -3.01673   0.00156   0.03630   0.05195   0.08883  -2.92790
    D2        0.89232  -0.00185  -0.04652  -0.04435  -0.09175   0.80057
    D3       -0.89331   0.00183   0.04643   0.04473   0.09204  -0.80127
    D4        3.01573  -0.00158  -0.03639  -0.05156  -0.08853   2.92720
    D5        1.18630   0.00173   0.04126   0.04909   0.09109   1.27739
    D6       -1.18784  -0.00168  -0.04156  -0.04721  -0.08949  -1.27733
    D7       -1.18672  -0.00183  -0.04124  -0.04923  -0.09107  -1.27779
    D8        0.89372  -0.00197  -0.04628  -0.04552  -0.09257   0.80115
    D9        3.01604  -0.00169  -0.03620  -0.05297  -0.08960   2.92644
   D10        1.18649   0.00183   0.04123   0.04927   0.09111   1.27759
   D11       -3.01626   0.00169   0.03619   0.05298   0.08961  -2.92665
   D12       -0.89394   0.00197   0.04628   0.04554   0.09258  -0.80136
   D13        1.18713   0.00168   0.04158   0.04737   0.08968   1.27680
   D14       -3.01645   0.00158   0.03638   0.05177   0.08875  -2.92770
   D15       -0.89301   0.00185   0.04653   0.04452   0.09193  -0.80107
   D16       -1.18703  -0.00173  -0.04119  -0.04895  -0.09088  -1.27791
   D17        0.89258  -0.00182  -0.04638  -0.04455  -0.09181   0.80077
   D18        3.01602  -0.00156  -0.03624  -0.05180  -0.08863   2.92740
         Item               Value     Threshold  Converged?
 Maximum Force            0.008899     0.000450     NO 
 RMS     Force            0.002376     0.000300     NO 
 Maximum Displacement     0.156614     0.001800     NO 
 RMS     Displacement     0.053247     0.001200     NO 
 Predicted change in Energy=-1.885845D-03
 GradGradGradGradGradGradGradGradGradGradGradGradGradGradGradGradGradGrad

                          Input orientation:                          
 ---------------------------------------------------------------------
 Center     Atomic      Atomic             Coordinates (Angstroms)
 Number     Number       Type             X           Y           Z
 ---------------------------------------------------------------------
      1          6           0       -3.425984    0.647481   -0.000549
      2          6           0       -1.947490    0.542269    0.185192
      3          1           0       -3.756420    1.684829   -0.028874
      4          1           0       -3.755460    0.154993   -0.914395
      5          1           0       -3.947330    0.162170    0.837206
      6          6           0       -1.329386   -0.800520   -0.038873
      7          6           0       -1.330570    1.405591    1.236666
      8          1           0       -1.577672   -1.472808    0.793798
      9          1           0       -1.697252   -1.265477   -0.952437
     10          1           0       -1.578915    1.019527    2.235886
     11          1           0       -0.244384    1.424877    1.158974
     12          1           0       -1.698688    2.429287    1.185540
     13          1           0       -0.243420   -0.739472   -0.094240
 ---------------------------------------------------------------------
                    Distance matrix (angstroms):
                    1          2          3          4          5
     1  C    0.000000
     2  C    1.493826   0.000000
     3  H    1.089073   2.150232   0.000000
     4  H    1.089134   2.151239   1.767638   0.000000
     5  H    1.099618   2.137512   1.762109   1.762092   0.000000
     6  C    2.548314   1.495106   3.473839   2.750524   2.923683
     7  C    2.548763   1.493824   2.750330   3.474355   2.924568
     8  H    2.922820   2.137219   3.923571   3.210985   2.879292
     9  H    2.748457   2.150527   3.714492   2.501080   3.209961
    10  H    2.924333   2.137515   3.211432   3.925435   2.881104
    11  H    3.474395   2.151236   3.716579   4.270728   3.925529
    12  H    2.750489   2.150217   2.502655   3.716510   3.212093
    13  H    3.472914   2.150534   4.268803   3.715797   3.924219
                    6          7          8          9         10
     6  C    0.000000
     7  C    2.548318   0.000000
     8  H    1.098616   2.922734   0.000000
     9  H    1.089087   3.472928   1.762561   0.000000
    10  H    2.923930   1.099619   2.879471   3.924367   0.000000
    11  H    2.750356   1.089132   3.210543   3.715762   1.762107
    12  H    3.473791   1.089072   3.923576   4.268750   1.762099
    13  H    1.089088   2.748545   1.762561   1.768279   3.210469
                   11         12         13
    11  H    0.000000
    12  H    1.767639   0.000000
    13  H    2.500990   3.714387   0.000000
 Stoichiometry    C4H9(2)
 Framework group  C1[X(C4H9)]
 Deg. of freedom    33
 Full point group                 C1      NOp   1
 Largest Abelian subgroup         C1      NOp   1
 Largest concise Abelian subgroup C1      NOp   1
                         Standard orientation:                         
 ---------------------------------------------------------------------
 Center     Atomic      Atomic             Coordinates (Angstroms)
 Number     Number       Type             X           Y           Z
 ---------------------------------------------------------------------
      1          6           0       -1.272742    0.738099    0.024101
      2          6           0        0.000005    0.000678   -0.236359
      3          1           0       -1.247364    1.745460   -0.389009
      4          1           0       -2.134858    0.216768   -0.389643
      5          1           0       -1.438836    0.834015    1.106863
      6          6           0       -0.003271   -1.471504    0.024431
      7          6           0        1.276014    0.732437    0.024103
      8          1           0       -0.003592   -1.662062    1.106395
      9          1           0       -0.888532   -1.951658   -0.390147
     10          1           0        1.442262    0.828091    1.106865
     11          1           0        2.135859    0.207033   -0.389207
     12          1           0        1.255284    1.739721   -0.389452
     13          1           0        0.879743   -1.955633   -0.390320
 ---------------------------------------------------------------------
 Rotational constants (GHZ):           8.1073803           8.1017876           4.4283954
 Standard basis: CC-pVTZ (5D, 7F)
 There are   275 symmetry adapted cartesian basis functions of A   symmetry.
 There are   246 symmetry adapted basis functions of A   symmetry.
   246 basis functions,   361 primitive gaussians,   275 cartesian basis functions
    17 alpha electrons       16 beta electrons
       nuclear repulsion energy       125.9819689438 Hartrees.
 NAtoms=   13 NActive=   13 NUniq=   13 SFac= 1.00D+00 NAtFMM=   60 NAOKFM=F Big=F
 Integral buffers will be    131072 words long.
 Raffenetti 2 integral format.
 Two-electron integral symmetry is turned on.
 Nuclear repulsion after empirical dispersion term =      125.9756960761 Hartrees.
 One-electron integrals computed using PRISM.
 NBasis=   246 RedAO= T EigKep=  7.89D-04  NBF=   246
 NBsUse=   246 1.00D-06 EigRej= -1.00D+00 NBFU=   246
 Initial guess from the checkpoint file:  "/localscratch/339542/Gau-54693.chk"
 B after Tr=    -0.000000    0.000000    0.000000
         Rot=    0.707649   -0.000138    0.000134   -0.706564 Ang= -89.91 deg.
 Initial guess <Sx>= 0.0000 <Sy>= 0.0000 <Sz>= 0.5000 <S**2>= 0.7561 S= 0.5030
 ExpMin= 1.03D-01 ExpMax= 8.24D+03 ExpMxC= 2.81D+02 IAcc=3 IRadAn=         5 AccDes= 0.00D+00
 Harris functional with IExCor=  419 and IRadAn=       5 diagonalized for initial guess.
 HarFok:  IExCor=  419 AccDes= 0.00D+00 IRadAn=         5 IDoV= 1 UseB2=F ITyADJ=14
 ICtDFT=  3500011 ScaDFX=  1.000000  1.000000  1.000000  1.000000
 FoFCou: FMM=F IPFlag=           0 FMFlag=      100000 FMFlg1=           0
         NFxFlg=           0 DoJE=T BraDBF=F KetDBF=T FulRan=T
         wScrn=  0.000000 ICntrl=       500 IOpCl=  0 I1Cent=   200000004 NGrid=           0
         NMat0=    1 NMatS0=      1 NMatT0=    0 NMatD0=    1 NMtDS0=    0 NMtDT0=    0
 Petite list used in FoFCou.
 Requested convergence on RMS density matrix=1.00D-08 within 128 cycles.
 Requested convergence on MAX density matrix=1.00D-06.
 Requested convergence on             energy=1.00D-06.
 No special actions if energy rises.
 Integral accuracy reduced to 1.0D-05 until final iterations.
 Initial convergence to 1.0D-05 achieved.  Increase integral accuracy.
 SCF Done:  E(UB2PLYPD3) =  -157.472913405     A.U. after   11 cycles
            NFock= 11  Conv=0.97D-08     -V/T= 2.0046
 <Sx>= 0.0000 <Sy>= 0.0000 <Sz>= 0.5000 <S**2>= 0.7567 S= 0.5034
 <L.S>=  0.00000000000    
 Annihilation of the first spin contaminant:
 S**2 before annihilation     0.7567,   after     0.7500
 DoSCS=T DFT=T ScalE2(SS,OS)=  0.270000  0.270000
 ExpMin= 1.03D-01 ExpMax= 8.24D+03 ExpMxC= 2.81D+02 IAcc=3 IRadAn=         5 AccDes= 0.00D+00
 HarFok:  IExCor=  205 AccDes= 0.00D+00 IRadAn=         5 IDoV=-2 UseB2=F ITyADJ=14
 ICtDFT= 12500011 ScaDFX=  1.000000  1.000000  1.000000  1.000000
 Range of M.O.s used for correlation:     5   246
 NBasis=   246 NAE=    17 NBE=    16 NFC=     4 NFV=     0
 NROrb=    242 NOA=    13 NOB=    12 NVA=   229 NVB=   230

 **** Warning!!: The largest alpha MO coefficient is  0.11592439D+02


 **** Warning!!: The largest beta MO coefficient is  0.11706124D+02

 DoSCS=T DFT=T ScalE2(SS,OS)=  0.270000  0.270000
 Fully direct method using O(ONN) memory.
 JobTyp=2 Pass  1:  I=   5 to  17 NPSUse= 40 ParTrn=T ParDer=T DoDerP=T.
 JobTyp=3 Pass  1:  I=   5 to  16 NPSUse= 40 ParTrn=T ParDer=T DoDerP=T.
 Spin components of T(2) and E(2):
     alpha-alpha T2 =       0.4100746783D-01 E2=     -0.2656911352D-01
     alpha-beta  T2 =       0.2408303162D+00 E2=     -0.1724382445D+00
     beta-beta   T2 =       0.3567088290D-01 E2=     -0.2275537590D-01
 (S**2,0)=  0.75672D+00           (S**2,1)=  0.74712D+00
 Scaling Projection term by:   0.270000
 E(PUHF)=      -0.15747538375D+03        E(PMP2)=      -0.15769486825D+03
 E2(B2PLYPD3) =    -0.2217627340D+00 E(B2PLYPD3) =    -0.15769467613854D+03
          IDoAtm=1111111111111
          Differentiating once with respect to electric field.
                with respect to dipole field.
          Differentiating once with respect to nuclear coordinates.
 Keep R1 and R2 ints in memory in canonical form, NReq=967250981.
          There are     1 degrees of freedom in the 1st order CPHF.  IDoFFX=0 NUNeed=     1.
 LinEq1:  Iter=  0 NonCon=     1 RMS=5.87D-04 Max=2.66D-02 NDo=     1
 AX will form     1 AO Fock derivatives at one time.
 LinEq1:  Iter=  1 NonCon=     1 RMS=2.12D-04 Max=4.83D-03 NDo=     1
 LinEq1:  Iter=  2 NonCon=     1 RMS=7.19D-05 Max=2.32D-03 NDo=     1
 LinEq1:  Iter=  3 NonCon=     1 RMS=1.89D-05 Max=4.52D-04 NDo=     1
 LinEq1:  Iter=  4 NonCon=     1 RMS=9.97D-06 Max=1.85D-04 NDo=     1
 LinEq1:  Iter=  5 NonCon=     1 RMS=2.41D-06 Max=6.03D-05 NDo=     1
 LinEq1:  Iter=  6 NonCon=     1 RMS=8.80D-07 Max=2.23D-05 NDo=     1
 LinEq1:  Iter=  7 NonCon=     1 RMS=2.59D-07 Max=5.15D-06 NDo=     1
 LinEq1:  Iter=  8 NonCon=     1 RMS=6.62D-08 Max=8.58D-07 NDo=     1
 LinEq1:  Iter=  9 NonCon=     1 RMS=1.33D-08 Max=2.59D-07 NDo=     1
 LinEq1:  Iter= 10 NonCon=     1 RMS=3.55D-09 Max=4.96D-08 NDo=     1
 LinEq1:  Iter= 11 NonCon=     1 RMS=1.75D-09 Max=3.54D-08 NDo=     1
 LinEq1:  Iter= 12 NonCon=     1 RMS=3.15D-10 Max=5.61D-09 NDo=     1
 LinEq1:  Iter= 13 NonCon=     0 RMS=5.42D-11 Max=9.71D-10 NDo=     1
 Linear equations converged to 1.000D-10 1.000D-09 after    13 iterations.
 End of Minotr F.D. properties file   721 does not exist.
 End of Minotr F.D. properties file   722 does not exist.
 End of Minotr F.D. properties file   788 does not exist.
 Calling FoFJK, ICntrl=  10002127 FMM=F ISym2X=0 I1Cent= 0 IOpClX= 1 NMat=1 NMatS=1 NMatT=0.
 ***** Axes restored to original set *****
 -------------------------------------------------------------------
 Center     Atomic                   Forces (Hartrees/Bohr)
 Number     Number              X              Y              Z
 -------------------------------------------------------------------
      1        6           0.002797503    0.000787366   -0.000983829
      2        6          -0.001107881   -0.002888255    0.003647595
      3        1          -0.000543241    0.000356250    0.000305363
      4        1          -0.000394328   -0.000432461   -0.000125350
      5        1          -0.001339056    0.000192122   -0.000328278
      6        6          -0.000615837    0.004007979   -0.001415315
      7        6          -0.000584874   -0.000436645   -0.002980609
      8        1           0.000600616   -0.001582224   -0.000048058
[...]
 ! R3    R(1,4)                  1.0904         -DE/DX =   -0.0001              !
 ! R4    R(1,5)                  1.1005         -DE/DX =    0.0                 !
 ! R5    R(2,6)                  1.4901         -DE/DX =    0.0                 !
 ! R6    R(2,7)                  1.4902         -DE/DX =    0.0                 !
 ! R7    R(6,8)                  1.1004         -DE/DX =    0.0                 !
 ! R8    R(6,9)                  1.0903         -DE/DX =    0.0                 !
 ! R9    R(6,13)                 1.0903         -DE/DX =    0.0                 !
 ! R10   R(7,10)                 1.1005         -DE/DX =    0.0                 !
 ! R11   R(7,11)                 1.0904         -DE/DX =   -0.0001              !
 ! R12   R(7,12)                 1.0904         -DE/DX =   -0.0001              !
 ! A1    A(2,1,3)              111.6947         -DE/DX =    0.0                 !
 ! A2    A(2,1,4)              111.6954         -DE/DX =    0.0                 !
 ! A3    A(2,1,5)              111.557          -DE/DX =    0.0                 !
 ! A4    A(3,1,4)              108.4087         -DE/DX =    0.0                 !
 ! A5    A(3,1,5)              106.6047         -DE/DX =    0.0                 !
 ! A6    A(4,1,5)              106.6009         -DE/DX =    0.0                 !
 ! A7    A(1,2,6)              118.4691         -DE/DX =    0.0                 !
 ! A8    A(1,2,7)              118.4664         -DE/DX =    0.0                 !
 ! A9    A(6,2,7)              118.4694         -DE/DX =    0.0                 !
 ! A10   A(2,6,8)              111.5589         -DE/DX =    0.0                 !
 ! A11   A(2,6,9)              111.7001         -DE/DX =    0.0                 !
 ! A12   A(2,6,13)             111.6993         -DE/DX =    0.0                 !
 ! A13   A(8,6,9)              106.5967         -DE/DX =    0.0                 !
 ! A14   A(8,6,13)             106.5963         -DE/DX =    0.0                 !
 ! A15   A(9,6,13)             108.4091         -DE/DX =    0.0                 !
 ! A16   A(2,7,10)             111.5574         -DE/DX =    0.0                 !
 ! A17   A(2,7,11)             111.696          -DE/DX =    0.0                 !
 ! A18   A(2,7,12)             111.694          -DE/DX =    0.0                 !
 ! A19   A(10,7,11)            106.6013         -DE/DX =    0.0                 !
 ! A20   A(10,7,12)            106.6043         -DE/DX =    0.0                 !
 ! A21   A(11,7,12)            108.4085         -DE/DX =    0.0                 !
 ! D1    D(3,1,2,6)           -163.0158         -DE/DX =    0.0                 !
 ! D2    D(3,1,2,7)             41.3609         -DE/DX =    0.0                 !
 ! D3    D(4,1,2,6)            -41.4108         -DE/DX =    0.0                 !
 ! D4    D(4,1,2,7)            162.966          -DE/DX =    0.0                 !
 ! D5    D(5,1,2,6)             77.7845         -DE/DX =    0.0                 !
 ! D6    D(5,1,2,7)            -77.8387         -DE/DX =    0.0                 !
 ! D7    D(1,2,6,8)            -77.8096         -DE/DX =    0.0                 !
 ! D8    D(1,2,6,9)             41.3847         -DE/DX =    0.0                 !
 ! D9    D(1,2,6,13)           162.997          -DE/DX =    0.0                 !
 ! D10   D(7,2,6,8)             77.8129         -DE/DX =    0.0                 !
 ! D11   D(7,2,6,9)           -162.9927         -DE/DX =    0.0                 !
 ! D12   D(7,2,6,13)           -41.3805         -DE/DX =    0.0                 !
 ! D13   D(1,2,7,10)            77.8375         -DE/DX =    0.0                 !
 ! D14   D(1,2,7,11)          -162.9661         -DE/DX =    0.0                 !
 ! D15   D(1,2,7,12)           -41.3614         -DE/DX =    0.0                 !
 ! D16   D(6,2,7,10)           -77.7857         -DE/DX =    0.0                 !
 ! D17   D(6,2,7,11)            41.4107         -DE/DX =    0.0                 !
 ! D18   D(6,2,7,12)           163.0155         -DE/DX =    0.0                 !
 --------------------------------------------------------------------------------
 GradGradGradGradGradGradGradGradGradGradGradGradGradGradGradGradGradGrad


 ----------------------------------------------------------------------

 Electric dipole moment (input orientation):
 (Debye = 10**-18 statcoulomb cm , SI units = C m)
                  (au)            (Debye)         (10**-30 SI)
   Tot        0.805501D-01      0.204738D+00      0.682932D+00
   x         -0.251894D-01     -0.640250D-01     -0.213564D+00
   y         -0.383867D-01     -0.975693D-01     -0.325456D+00
   z          0.661837D-01      0.168222D+00      0.561129D+00

 Dipole polarizability, Alpha (input orientation).
 (esu units = cm**3 , SI units = C**2 m**2 J**-1)
 Alpha(0;0):
               (au)            (10**-24 esu)      (10**-40 SI)
   iso        0.500825D+02      0.742146D+01      0.825749D+01
   aniso      0.105686D+02      0.156611D+01      0.174253D+01
   xx         0.525689D+02      0.778991D+01      0.866745D+01
   yx        -0.157356D+01     -0.233177D+00     -0.259445D+00
   yy         0.512138D+02      0.758910D+01      0.844401D+01
   zx         0.272242D+01      0.403422D+00      0.448867D+00
   zy         0.413154D+01      0.612231D+00      0.681199D+00
   zz         0.464648D+02      0.688538D+01      0.766102D+01

 ----------------------------------------------------------------------

 Dipole orientation:
     6         -6.24067983          1.60235811          1.46022065
     6         -3.45666834          1.36401917          1.11055462
     1         -6.96687329          3.34153696          0.62723615
     1         -7.25183456          0.01098584          0.62884369
     1         -6.75674805          1.64740760          3.47429497
     6         -2.27107411         -1.16533796          1.46465129
     6         -1.85886364          3.65628725          1.46028089
     1         -2.05262956         -1.63155881          3.47943923
     1         -3.41360965         -2.66524735          0.63403234
     1         -1.56342063          4.08177119          3.47436193
     1          0.01115669          3.41545022          0.62895292
     1         -2.73103276          5.32703093          0.62727497
     1         -0.38725716         -1.24664263          0.63419075

 Electric dipole moment (dipole orientation):
 (Debye = 10**-18 statcoulomb cm , SI units = C m)
                  (au)            (Debye)         (10**-30 SI)
   Tot        0.805501D-01      0.204738D+00      0.682932D+00
   x          0.000000D+00      0.000000D+00      0.000000D+00
   y          0.000000D+00      0.000000D+00      0.000000D+00
   z          0.805501D-01      0.204738D+00      0.682932D+00

 Dipole polarizability, Alpha (dipole orientation).
 (esu units = cm**3 , SI units = C**2 m**2 J**-1)
 Alpha(0;0):
               (au)            (10**-24 esu)      (10**-40 SI)
   iso        0.500825D+02      0.742146D+01      0.825749D+01
   aniso      0.105686D+02      0.156611D+01      0.174253D+01
   xx         0.536065D+02      0.794366D+01      0.883851D+01
   yx         0.134186D-02      0.198843D-03      0.221242D-03
   yy         0.536043D+02      0.794334D+01      0.883816D+01
   zx         0.527435D-02      0.781579D-03      0.869624D-03
   zy        -0.110119D-01     -0.163179D-02     -0.181561D-02
   zz         0.430368D+02      0.637739D+01      0.709581D+01

 ----------------------------------------------------------------------
 1\1\GINC-N68\Freq\UB2PLYPD3-FC\CC-pVTZ\C4H9(2)\ROOT\01-Jun-2019\0\\#N 
 Geom=AllCheck Guess=TCheck SCRF=Check GenChk UB2PLYPD3(FC)/CC-pVTZ Fre
 q\\Title Card Required\\0,2\C,-3.4361504197,0.6441447462,0.0062619103\
 C,-1.9738212955,0.5014008086,0.2548289205\H,-3.737253102,1.6912421971,
 -0.0374975149\H,-3.7360342089,0.1604482042,-0.9238632935\H,-4.02982608
 37,0.1794378177,0.8079341461\C,-1.3292091589,-0.8108312582,-0.03287699
 44\C,-1.3307992823,1.405822339,1.2493686707\H,-1.5330477951,-1.5443388
 859,0.7617208926\H,-1.6989694295,-1.2466652927,-0.9613484703\H,-1.5345
 65772,1.0822009331,2.2812739557\H,-0.2463540235,1.4229563692,1.1366312
 806\H,-1.7020358815,2.4275452539,1.1641853065\H,-0.2449049273,-0.72061
 72121,-0.10272277\\Version=ES64L-G16RevB.01\State=2-A\HF=-157.4733939\
 MP2=-157.6952188\PUHF=-157.4760367\PMP2-0=-157.6954254\S2=0.757208\S2-
 1=0.746931\S2A=0.750041\RMSD=1.459e-09\RMSF=4.612e-05\ZeroPoint=0.1171
 713\Thermal=0.1234846\Dipole=-0.0251894,-0.0383867,0.0661837\DipoleDer
 iv=0.0303494,0.0431252,-0.0744293,0.0115056,0.0635261,-0.0713119,-0.01
 99396,-0.0712818,0.1454066,0.1472327,-0.0641885,0.1109301,-0.0641662,0
 .0919164,0.1684371,0.1109176,0.1684911,-0.1015847,0.0146331,0.0395835,
 -0.0026197,0.089114,-0.1459738,0.0159523,-0.0072146,0.002262,0.0646332
 ,0.014734,-0.0173995,-0.0354636,-0.0380508,0.0202189,-0.0932698,-0.080
 7236,-0.0796119,-0.1017427,-0.0842808,-0.0200411,0.0343977,-0.0742719,
 0.0115237,0.0788488,0.1280757,0.078922,-0.0788668,0.0386902,0.0151842,
 -0.0374107,0.0457744,0.055025,-0.0976797,-0.0561375,-0.0459031,0.14531
 57,0.0388382,0.0248417,-0.0318523,0.0258602,0.06099,-0.049236,-0.06757
 87,-0.1011045,0.1394748,0.0329912,-0.0279613,0.0582304,0.0245874,-0.10
 70864,0.0590361,0.0260374,0.1480312,-0.077528,0.034771,-0.0305534,-0.0
 786749,-0.0094659,-0.0000262,-0.0642453,-0.0495298,-0.1011902,-0.10140
 11,0.0330564,-0.0365006,0.0532183,-0.0348204,0.0044848,0.0838761,-0.00
 82663,-0.0051973,-0.189174,-0.167807,-0.0290913,-0.0057538,0.0057863,0
 .0557497,-0.01764,0.0307798,-0.0071866,0.0452773,0.0345603,0.0837116,-
 0.0126885,0.0479226,-0.1475229,-0.016262,-0.0165131,0.0206905,0.046251
 4,-0.1677688,0.0192894,0.0221163,-0.0297752,0.0371747,0.0034943,0.0100
 926,-0.0069213,0.0639383\Polar=52.5689316,-1.5735586,51.2137841,2.7224
 245,4.1315408,46.4648485\PG=C01 [X(C4H9)]\NImag=0\\0.46759642,-0.01232
 083,0.56112344,0.02109399,0.03311576,0.52301837,-0.21215389,0.01665067
 ,-0.02890706,0.49326024,0.02010731,-0.08046631,-0.01010624,-0.05499354
 ,0.44610883,-0.03490129,-0.01010713,-0.06888100,0.09489258,0.14413769,
 0.28035941,-0.06266885,0.06568931,-0.00622157,-0.01092407,0.03265916,0
 .00148198,0.07255364,0.06614196,-0.29053592,0.00845509,0.00205644,-0.0
 0211828,-0.00169592,-0.07370167,0.31637433,-0.00659926,0.00881726,-0.0
 4787501,0.00074821,0.00380502,-0.00057919,0.00386207,-0.01056147,0.046
 55927,-0.06250304,-0.02718755,-0.05982299,-0.01088755,-0.01755774,-0.0
 2759157,0.00114613,0.00286429,0.00815729,0.07236713,-0.02708023,-0.100
 60591,-0.10030426,-0.00168841,-0.00006996,0.00258619,-0.00846561,-0.01
 185620,-0.02692598,0.03322946,0.10436861,-0.06039186,-0.10067159,-0.23
 789883,-0.00141767,-0.00289318,-0.00265972,0.00157383,0.00160057,0.002
 68914,0.06557093,0.11124553,0.25868053,-0.10499662,-0.05574345,0.09619
 331,-0.02794992,-0.01251084,0.02155940,0.00435905,0.00304028,-0.005904
 62,0.00433920,0.00359476,-0.00554399,0.12255427,-0.04892510,-0.0869212
 2,0.07436953,-0.00082169,0.00256789,-0.00435141,-0.01667657,-0.0144829
 0,0.02464875,0.00804222,0.00607195,-0.01106055,0.05944201,0.09242024,0
 .08441362,0.07436032,-0.17210364,0.00137209,-0.00436474,0.00758871,0.0
 0030299,0.00072919,-0.00174079,0.01461868,0.01287714,-0.02227959,-0.10
 254346,-0.08395866,0.18860684,-0.01455672,0.03320979,0.00177408,-0.109
 04343,0.05484262,0.00486611,-0.00572175,0.00039837,-0.00060609,0.00142
 008,0.00022232,0.00074893,0.00160238,-0.00051880,0.00027353,0.55896003
 ,0.00296863,-0.00087233,-0.00024105,0.05818915,-0.18236050,-0.03968456
 ,-0.00079814,0.00109477,-0.00069137,-0.00136906,0.00035523,-0.00018169
 ,-0.00085834,-0.00006619,-0.00013575,0.02211590,0.47028971,-0.00033576
 ,0.00065053,0.00389115,0.00280836,-0.03400072,-0.07024596,-0.00184098,
 0.00087467,0.00017094,-0.00058074,0.00124327,0.00024530,-0.00135340,0.
 00025241,0.00037742,0.02304156,0.03010631,0.52309276,-0.01451770,-0.01
 810548,-0.02791761,-0.10886873,-0.03144798,-0.04496869,0.00141474,-0.0
 0075930,0.00017590,-0.00572119,0.00031786,-0.00065077,0.00159657,0.000
 02286,0.00058870,0.00725660,0.00673783,0.00838296,0.55873327,-0.001207
 64,0.00286320,-0.00154944,-0.03135008,-0.12996611,-0.06414754,0.001186
 41,0.00073263,0.00102713,0.00198588,0.00048024,0.00123050,0.00160405,0
 .00032019,0.00003526,-0.01057820,-0.01821801,-0.02671980,-0.03094701,0
 .53565113,-0.00275155,-0.00242088,0.00012270,-0.04890243,-0.06983152,-
 0.12263656,0.00089858,-0.00039716,-0.00013054,-0.00022991,-0.00033800,
 0.00078313,0.00007117,-0.00035538,-0.00000979,-0.00165127,-0.00391531,
 -0.00058987,-0.00765997,-0.00777404,0.45729080,0.00061068,-0.00090154,
 0.00069290,0.00273968,0.01113455,-0.01138821,-0.00001190,-0.00014369,0
 .00024231,0.00006367,0.00015512,-0.00002678,-0.00046326,-0.00014727,0.
 00038851,-0.05267474,-0.02768419,0.03198230,-0.00007170,-0.00058278,-0
 .00036676,0.05476421,-0.00126349,0.00095012,-0.00113354,-0.00018601,-0
 .02885549,0.01799206,0.00031138,-0.00009120,-0.00030016,0.00015262,-0.
 00006342,0.00012290,0.00155477,0.00007193,-0.00023542,-0.03429283,-0.1
 4128997,0.11779987,0.00097645,0.00197288,-0.00004889,0.03202300,0.1625
 5934,-0.00025048,0.00024121,0.00034903,-0.00445118,-0.00117738,0.00829
 943,-0.00020018,0.00013331,0.00006235,0.00018297,-0.00002067,-0.000221
 11,-0.00032467,0.00028783,-0.00027246,0.03603448,0.10659421,-0.1701352
 1,-0.00015834,0.00061338,0.00001586,-0.03826505,-0.12699383,0.18635918
 ,0.00088943,0.00000819,0.00135106,0.00520066,0.00403718,0.01206337,0.0
 0015978,-0.00010734,0.00004336,0.00001081,-0.00002284,-0.00035812,-0.0
 0014931,0.00007751,-0.00008430,-0.08168648,-0.03395437,-0.07728717,-0.
 00102900,0.00208198,-0.00015214,0.00194553,0.00237060,0.00629290,0.082
 60627,-0.00157107,0.00089673,-0.00005132,-0.01215552,-0.01543497,-0.02
 480778,-0.00030504,0.00022813,0.00031788,0.00086947,0.00032045,0.00057
 160,0.00007426,0.00014576,0.00016802,-0.03404060,-0.08220279,-0.088084
 11,0.00371765,-0.00416883,-0.00051443,0.00777679,0.00824980,0.01857128
 ,0.03661943,0.09503634,-0.00047764,0.00064844,0.00023430,-0.00261405,-
 0.00266829,-0.00337865,0.00005812,0.00022961,0.00038303,0.00068624,-0.
 00013219,0.00035927,0.00012446,0.00002223,-0.00021853,-0.07743146,-0.0
 8875462,-0.23734083,0.00149099,-0.00031128,0.00074157,-0.00887100,-0.0
 0864468,-0.02206937,0.08604106,0.09713780,0.25799649,0.00060852,-0.000
 15068,0.00113046,0.00273278,0.00431766,-0.01529508,0.00006348,-0.00005
 377,-0.00014832,-0.00001175,-0.00013820,0.00024475,-0.00046019,-0.0002
 6143,0.00031739,-0.00007117,0.00060753,0.00032111,-0.05266794,-0.01393
 072,0.03990658,0.00006695,-0.00034469,0.00027313,-0.00000809,0.0000090
 2,0.00001571,0.05474975,0.00084681,0.00011241,0.00072631,0.00394987,0.
 00634726,-0.02142124,-0.00023468,-0.00013767,0.00002088,0.00001789,-0.
 00004782,0.00010844,-0.00049420,-0.00016478,0.00042269,-0.00035172,0.0
 0074746,0.00131554,-0.01414204,-0.06605003,0.06336199,-0.00006396,-0.0
 0065474,0.00044194,-0.00012500,-0.00005200,0.00026982,0.01720986,0.070
 74207,0.00097113,-0.00065113,0.00118576,-0.00205166,-0.00223367,-0.026
 89313,-0.00004147,0.00016519,-0.00014673,-0.00037020,-0.00032537,0.000
 01797,-0.00150982,-0.00010161,-0.00003920,-0.00092707,0.00065449,0.001
 24120,0.04763941,0.07456858,-0.24530162,0.00043684,-0.00144754,-0.0000
 7179,-0.00017493,-0.00046208,0.00001928,-0.04678409,-0.07423370,0.2780
 9705,0.00040304,-0.00262946,-0.00154433,-0.01463238,0.00113880,-0.0014
 9070,0.00036812,-0.00015262,0.00012522,-0.00075049,-0.00010629,-0.0000
 5786,-0.00014204,-0.00007611,0.00026410,0.00068129,0.00113433,0.000512
 53,-0.30490552,-0.00137638,0.03068947,-0.00001132,-0.00009670,0.000160
 95,0.00048917,0.00023417,-0.00002296,-0.00694550,0.00010524,0.00156844
 ,0.33382537,-0.00037419,-0.00224150,-0.00253058,-0.01918864,0.00086572
 ,0.00250196,-0.00012532,0.00041175,-0.00007338,-0.00091619,0.00043822,
 -0.00023584,0.00017509,0.00004861,0.00011693,-0.00122820,0.00083033,0.
 00093741,-0.00155918,-0.05031368,-0.00070749,0.00007655,-0.00017380,-0
 .00006073,0.00014359,0.00024349,0.00011654,-0.01082834,-0.00053999,0.0
 0205002,0.00326862,0.04846513,-0.00148307,-0.00310401,-0.00261970,-0.0
 2493840,0.00043554,0.00016672,0.00033968,-0.00008546,-0.00000861,-0.00
 119166,-0.00016782,-0.00012254,-0.00040905,-0.00015573,0.00005184,-0.0
 0034220,0.00106009,0.00050546,0.03130698,-0.00047269,-0.04580597,0.000
 26206,0.00009554,-0.00003723,-0.00000550,0.00031288,0.00003824,0.03115
 489,-0.00006173,-0.00438233,-0.03130624,0.00265424,0.05312674,0.000889
 30,-0.00117587,0.00066624,0.00519791,-0.01242938,0.00251251,0.00001445
 ,0.00031462,-0.00015776,0.00015921,0.00001486,0.00011470,-0.00014927,0
 .00003406,-0.00010912,-0.00102167,-0.00090507,-0.00187870,-0.08190115,
 0.08412873,-0.00912434,-0.00000797,0.00021461,0.00002091,0.00062911,-0
 .00042072,-0.00022673,0.00195432,-0.00662754,0.00107917,-0.00909811,0.
 02998460,-0.00394629,0.08284426,0.00119843,0.00065522,0.00078890,0.008
 35848,-0.01825900,-0.00103917,-0.00102939,0.00053659,-0.00026076,0.000
 10079,0.00058158,0.00002743,-0.00014491,-0.00004585,0.00013218,-0.0031
 4459,-0.00084107,-0.00223497,0.08428055,-0.27475544,0.02223741,-0.0000
 1832,-0.00008115,0.00028665,0.00040817,-0.00091773,-0.00016214,0.00382
 889,-0.01024565,0.00198913,-0.00067542,0.00211479,-0.00029785,-0.09306
 590,0.30098277,0.00112436,0.00008725,0.00047501,0.00926678,-0.02318193
 ,-0.00056092,-0.00041234,0.00044581,0.00014219,0.00029285,0.00011475,0
 .00003040,-0.00000284,0.00027839,-0.00002668,-0.00247510,-0.00243469,-
 0.00259311,-0.00912328,0.02291527,-0.04436587,0.00000029,-0.00044569,0
 .00004853,0.00025317,-0.00117814,-0.00014634,-0.01120161,0.02917798,-0
 .00357105,0.00131618,-0.00450817,-0.00103663,0.01117622,-0.02156541,0.
 05159798,0.00039943,0.00265689,0.00151151,-0.01467129,0.00070220,-0.00
 174042,-0.00075282,0.00010243,0.00006169,0.00036780,-0.00003280,0.0001
 9390,-0.00014088,-0.00019169,0.00019727,-0.30514441,-0.02618419,0.0162
 2795,0.00068176,-0.00101425,-0.00072743,-0.00694981,-0.00141971,0.0006
 8456,-0.00905787,-0.00080785,0.00122727,-0.00001116,-0.00009050,0.0001
 6426,0.00071837,0.00057162,0.00055879,0.00048963,-0.00009676,-0.000214
 69,0.33407124,0.00147940,-0.00495795,-0.00153917,0.03117927,0.00164090
 ,0.00003684,0.00149017,-0.00015603,0.00017620,-0.00023208,0.00002703,0
 .00013588,0.00026652,0.00003436,-0.00014716,-0.02663406,-0.04746665,-0
 .00214041,0.00090780,0.00145182,0.00070370,-0.02162427,-0.00259431,0.0
 0108280,-0.01153708,-0.00234439,0.00224877,-0.00026514,-0.00005652,0.0
 0002768,-0.00076817,-0.00014909,-0.00021300,-0.00006699,0.00027494,0.0
 0029458,0.02580461,0.05429590,-0.00041219,-0.00096603,0.00010186,0.004
 19442,0.00207941,-0.00057913,0.00019930,0.00010656,0.00047396,0.000278
 12,0.00014741,0.00037605,-0.00035649,0.00012418,0.00006587,0.01669450,
 -0.00237604,-0.04861924,0.00089371,0.00058467,-0.00011383,0.02491259,0
 .00323938,-0.00232720,-0.02798275,-0.00198160,0.00338154,0.00006507,-0
 .00012892,-0.00015541,-0.00021481,-0.00026090,0.00012400,-0.00012681,0
 .00009860,0.00000649,-0.01814465,-0.00066671,0.04726503\\0.00010304,-0
 .00002612,0.00006105,0.00004913,-0.00001901,-0.00007150,-0.00002939,0.
 00006763,0.00000634,-0.00003404,-0.00003961,-0.00005939,-0.00004939,-0
 .00000986,0.00001301,-0.00004829,0.00010216,0.00001969,-0.00007267,-0.
 00008846,-0.00004314,0.00002222,-0.00002971,-0.00001921,0.00000211,-0.
 00001842,0.00001755,0.00001159,0.00001244,0.00004917,0.00007891,0.0000
 0159,0.00000723,-0.00002760,0.00006829,0.00000667,-0.00000562,-0.00002
 092,0.00001252\\\@


 IF YOU DON'T HAVE THE LAW - ARGUE THE FACTS.
 IF YOU DON'T HAVE THE FACTS - ARGUE THE LAW.
 IF YOU DON'T HAVE EITHER - POUND THE TABLE.
 Job cpu time:       0 days 13 hours 16 minutes 11.1 seconds.
 Elapsed time:       0 days  0 hours 20 minutes 22.6 seconds.
 File lengths (MBytes):  RWF=  20900 Int=      0 D2E=      0 Chk=     11 Scr=      1
 Normal termination of Gaussian 16 at Sat Jun  1 03:23:11 2019.
