 Entering Gaussian System, Link 0=g16
 Initial command:
 /ichec/packages/gaussian/16b01/l1.exe "/localscratch/339542/Gau-86228.inp" -scrdir="/localscratch/339542/"
 Entering Link 1 = /ichec/packages/gaussian/16b01/l1.exe PID=     86234.
  
 Copyright (c) 1988-2017, Gaussian, Inc.  All Rights Reserved.
  
 This is part of the Gaussian(R) 16 program.  It is based on
 the Gaussian(R) 09 system (copyright 2009, Gaussian, Inc.),
 the Gaussian(R) 03 system (copyright 2003, Gaussian, Inc.),
 the Gaussian(R) 98 system (copyright 1998, Gaussian, Inc.),
 the Gaussian(R) 94 system (copyright 1995, Gaussian, Inc.),
 the Gaussian 92(TM) system (copyright 1992, Gaussian, Inc.),
 the Gaussian 90(TM) system (copyright 1990, Gaussian, Inc.),
 the Gaussian 88(TM) system (copyright 1988, Gaussian, Inc.),
 the Gaussian 86(TM) system (copyright 1986, Carnegie Mellon
 University), and the Gaussian 82(TM) system (copyright 1983,
 Carnegie Mellon University). Gaussian is a federally registered
 trademark of Gaussian, Inc.
  
 This software contains proprietary and confidential information,
 including trade secrets, belonging to Gaussian, Inc.
  
 This software is provided under written license and may be
 used, copied, transmitted, or stored only in accord with that
 written license.
  
 The following legend is applicable only to US Government
 contracts under FAR:
  
                    RESTRICTED RIGHTS LEGEND
  
 Use, reproduction and disclosure by the US Government is
 subject to restrictions as set forth in subparagraphs (a)
 and (c) of the Commercial Computer Software - Restricted
 Rights clause in FAR 52.227-19.
  
 Gaussian, Inc.
 340 Quinnipiac St., Bldg. 40, Wallingford CT 06492
  
  
 ---------------------------------------------------------------
 Warning -- This program may not be used in any manner that
 competes with the business of Gaussian, Inc. or will provide
 assistance to any competitor of Gaussian, Inc.  The licensee
 of this program is prohibited from giving any competitor of
 Gaussian, Inc. access to this program.  By using this program,
 the user acknowledges that Gaussian, Inc. is engaged in the
 business of creating and licensing software in the field of
 computational chemistry and represents and warrants to the
 licensee that it is not a competitor of Gaussian, Inc. and that
 it will not use this program in any manner prohibited above.
 ---------------------------------------------------------------
  

 Cite this work as:
 Gaussian 16, Revision B.01,
 M. J. Frisch, G. W. Trucks, H. B. Schlegel, G. E. Scuseria, 
 M. A. Robb, J. R. Cheeseman, G. Scalmani, V. Barone, 
 G. A. Petersson, H. Nakatsuji, X. Li, M. Caricato, A. V. Marenich, 
 J. Bloino, B. G. Janesko, R. Gomperts, B. Mennucci, H. P. Hratchian, 
 J. V. Ortiz, A. F. Izmaylov, J. L. Sonnenberg, D. Williams-Young, 
 F. Ding, F. Lipparini, F. Egidi, J. Goings, B. Peng, A. Petrone, 
 T. Henderson, D. Ranasinghe, V. G. Zakrzewski, J. Gao, N. Rega, 
 G. Zheng, W. Liang, M. Hada, M. Ehara, K. Toyota, R. Fukuda, 
 J. Hasegawa, M. Ishida, T. Nakajima, Y. Honda, O. Kitao, H. Nakai, 
 T. Vreven, K. Throssell, J. A. Montgomery, Jr., J. E. Peralta, 
 F. Ogliaro, M. J. Bearpark, J. J. Heyd, E. N. Brothers, K. N. Kudin, 
 V. N. Staroverov, T. A. Keith, R. Kobayashi, J. Normand, 
 K. Raghavachari, A. P. Rendell, J. C. Burant, S. S. Iyengar, 
 J. Tomasi, M. Cossi, J. M. Millam, M. Klene, C. Adamo, R. Cammi, 
 J. W. Ochterski, R. L. Martin, K. Morokuma, O. Farkas, 
 J. B. Foresman, and D. J. Fox, Gaussian, Inc., Wallingford CT, 2016.
 
 ******************************************
 Gaussian 16:  ES64L-G16RevB.01 20-Dec-2017
                 1-Jun-2019 
 ******************************************
 %mem=80GB
 %nproc=40
 Will use up to   40 processors via shared memory.
 -----------------------------------------------
 # opt=maxcyc=500 freq=noraman uB2PLYPD3/cc-pvtz
 -----------------------------------------------
 1/6=500,18=20,19=15,38=1/1,3;
 2/9=110,12=2,17=6,18=5,40=1/2;
 3/5=16,6=1,11=2,25=1,30=1,71=1,74=-60,116=2/1,2,3;
 4//1;
 5/5=2,38=5/2;
 8/6=4,10=1/1;
 9/15=2,16=-3/6;
 10/5=1/2;
 6/7=2,8=2,9=2,10=2/1;
 7/12=2/1,2,3,16;
 1/6=500,18=20,19=15/3(2);
 2/9=110/2;
 99//99;
 2/9=110/2;
 3/5=16,6=1,11=2,25=1,30=1,71=1,74=-60,116=2/1,2,3;
 4/5=5,16=3,69=1/1;
 5/5=2,38=5/2;
 8/6=4,10=1/1;
 9/15=2,16=-3/6;
 10/5=1/2;
 7/12=2/1,2,3,16;
 1/6=500,18=20,19=15/3(-8);
 2/9=110/2;
 6/7=2,8=2,9=2,10=2/1;
 99/9=10/99;
 -------------------
 Title Card Required
 -------------------
 Symbolic Z-matrix:
 Charge =  0 Multiplicity = 2
 C                    -3.38787   0.64054   0. 
 C                    -1.8738    0.64054   0. 
 H                    -1.51964   1.17508  -0.92733 
 H                    -3.77642   1.68719   0. 
 H                    -3.77644   0.11633  -0.90591 
 H                    -3.77977   0.11817   0.90579 
 C                    -1.34066  -0.77609  -0.03455 
 C                    -1.34103   1.38093   1.20842 
 H                    -1.67033  -1.341     0.87051 
 H                    -1.71536  -1.31043  -0.94039 
 H                    -1.67134   0.8815    2.15099 
 H                    -0.22489   1.40041   1.19125 
 H                    -1.71556   2.43267   1.21597 
 

 GradGradGradGradGradGradGradGradGradGradGradGradGradGradGradGradGradGrad
 Berny optimization.
 Initialization pass.
                           ----------------------------
                           !    Initial Parameters    !
                           ! (Angstroms and Degrees)  !
 --------------------------                            --------------------------
 ! Name  Definition              Value          Derivative Info.                !
 --------------------------------------------------------------------------------
 ! R1    R(1,2)                  1.5141         estimate D2E/DX2                !
 ! R2    R(1,4)                  1.1164         estimate D2E/DX2                !
 ! R3    R(1,5)                  1.1164         estimate D2E/DX2                !
 ! R4    R(1,6)                  1.1166         estimate D2E/DX2                !
 ! R5    R(2,3)                  1.1274         estimate D2E/DX2                !
 ! R6    R(2,7)                  1.514          estimate D2E/DX2                !
 ! R7    R(2,8)                  1.514          estimate D2E/DX2                !
 ! R8    R(7,9)                  1.1167         estimate D2E/DX2                !
 ! R9    R(7,10)                 1.1165         estimate D2E/DX2                !
 ! R10   R(8,11)                 1.1167         estimate D2E/DX2                !
 ! R11   R(8,12)                 1.1164         estimate D2E/DX2                !
 ! R12   R(8,13)                 1.1165         estimate D2E/DX2                !
 ! A1    A(2,1,4)              110.3664         estimate D2E/DX2                !
 ! A2    A(2,1,5)              110.3674         estimate D2E/DX2                !
 ! A3    A(2,1,6)              110.5459         estimate D2E/DX2                !
 ! A4    A(4,1,5)              108.6055         estimate D2E/DX2                !
 ! A5    A(4,1,6)              108.446          estimate D2E/DX2                !
 ! A6    A(5,1,6)              108.4462         estimate D2E/DX2                !
 ! A7    A(1,2,3)              108.3085         estimate D2E/DX2                !
 ! A8    A(1,2,7)              110.6182         estimate D2E/DX2                !
 ! A9    A(1,2,8)              110.6028         estimate D2E/DX2                !
 ! A10   A(3,2,7)              108.3146         estimate D2E/DX2                !
 ! A11   A(3,2,8)              108.3057         estimate D2E/DX2                !
 ! A12   A(7,2,8)              110.6013         estimate D2E/DX2                !
 ! A13   A(2,7,9)              110.5421         estimate D2E/DX2                !
 ! A14   A(2,7,10)             110.3742         estimate D2E/DX2                !
 ! A15   A(9,7,10)             108.4451         estimate D2E/DX2                !
 ! A16   A(2,8,11)             110.5421         estimate D2E/DX2                !
 ! A17   A(2,8,12)             110.3677         estimate D2E/DX2                !
 ! A18   A(2,8,13)             110.3667         estimate D2E/DX2                !
 ! A19   A(11,8,12)            108.4512         estimate D2E/DX2                !
 ! A20   A(11,8,13)            108.4449         estimate D2E/DX2                !
 ! A21   A(12,8,13)            108.6049         estimate D2E/DX2                !
 ! D1    D(4,1,2,3)            -60.0395         estimate D2E/DX2                !
 ! D2    D(4,1,2,7)           -178.603          estimate D2E/DX2                !
 ! D3    D(4,1,2,8)             58.5042         estimate D2E/DX2                !
 ! D4    D(5,1,2,3)             60.0161         estimate D2E/DX2                !
 ! D5    D(5,1,2,7)            -58.5474         estimate D2E/DX2                !
 ! D6    D(5,1,2,8)            178.5598         estimate D2E/DX2                !
 ! D7    D(6,1,2,3)            179.9887         estimate D2E/DX2                !
 ! D8    D(6,1,2,7)             61.4253         estimate D2E/DX2                !
 ! D9    D(6,1,2,8)            -61.4675         estimate D2E/DX2                !
 ! D10   D(1,2,7,9)            -61.456          estimate D2E/DX2                !
 ! D11   D(1,2,7,10)            58.5172         estimate D2E/DX2                !
 ! D12   D(3,2,7,9)            179.9842         estimate D2E/DX2                !
 ! D13   D(3,2,7,10)           -60.0426         estimate D2E/DX2                !
 ! D14   D(8,2,7,9)             61.4376         estimate D2E/DX2                !
 ! D15   D(8,2,7,10)          -178.5891         estimate D2E/DX2                !
 ! D16   D(1,2,8,11)            61.4235         estimate D2E/DX2                !
 ! D17   D(1,2,8,12)          -178.5999         estimate D2E/DX2                !
 ! D18   D(1,2,8,13)           -58.5446         estimate D2E/DX2                !
 ! D19   D(3,2,8,11)           179.9689         estimate D2E/DX2                !
 ! D20   D(3,2,8,12)           -60.0544         estimate D2E/DX2                !
 ! D21   D(3,2,8,13)            60.0009         estimate D2E/DX2                !
 ! D22   D(7,2,8,11)           -61.4791         estimate D2E/DX2                !
 ! D23   D(7,2,8,12)            58.4975         estimate D2E/DX2                !
 ! D24   D(7,2,8,13)           178.5528         estimate D2E/DX2                !
 --------------------------------------------------------------------------------
 Trust Radius=3.00D-01 FncErr=1.00D-07 GrdErr=1.00D-07 EigMax=2.50D+02 EigMin=1.00D-04
 Number of steps in this run=    100 maximum allowed number of steps=    100.
 GradGradGradGradGradGradGradGradGradGradGradGradGradGradGradGradGradGrad

                          Input orientation:                          
 ---------------------------------------------------------------------
 Center     Atomic      Atomic             Coordinates (Angstroms)
 Number     Number       Type             X           Y           Z
 ---------------------------------------------------------------------
      1          6           0       -3.387873    0.640535    0.000000
      2          6           0       -1.873805    0.640535    0.000000
      3          1           0       -1.519640    1.175076   -0.927328
      4          1           0       -3.776423    1.687190    0.000000
      5          1           0       -3.776439    0.116334   -0.905912
      6          1           0       -3.779769    0.118173    0.905788
      7          6           0       -1.340659   -0.776092   -0.034548
      8          6           0       -1.341033    1.380934    1.208422
      9          1           0       -1.670326   -1.341005    0.870507
     10          1           0       -1.715358   -1.310435   -0.940387
     11          1           0       -1.671339    0.881498    2.150986
     12          1           0       -0.224887    1.400405    1.191249
     13          1           0       -1.715556    2.432672    1.215971
 ---------------------------------------------------------------------
                    Distance matrix (angstroms):
                    1          2          3          4          5
     1  C    0.000000
     2  C    1.514068   0.000000
     3  H    2.153129   1.127433   0.000000
     4  H    1.116449   2.171507   2.493044   0.000000
     5  H    1.116444   2.171515   2.492897   1.813357   0.000000
     6  H    1.116645   2.173939   3.096053   1.811706   1.811704
     7  C    2.489801   1.514025   2.153171   3.464376   2.736553
     8  C    2.489584   1.514041   2.153069   2.735910   3.464221
     9  H    2.763015   2.173865   3.096059   3.789907   3.116924
    10  H    2.736406   2.171570   2.493239   3.757402   2.506973
    11  H    2.762479   2.173890   3.096000   3.115647   3.789663
    12  H    3.464240   2.171499   2.493096   3.756957   4.319774
    13  H    2.736235   2.171493   2.492722   2.506292   3.757000
                    6          7          8          9         10
     6  H    0.000000
     7  C    2.762825   0.000000
     8  C    2.762894   2.489525   0.000000
     9  H    2.565189   1.116661   2.762530   0.000000
    10  H    3.116260   1.116452   3.464241   1.811712   0.000000
    11  H    2.564890   2.762881   1.116676   2.564985   3.789867
    12  H    3.789828   2.735812   1.116448   3.115686   3.756864
    13  H    3.116744   3.464176   1.116457   3.789727   4.319807
                   11         12         13
    11  H    0.000000
    12  H    1.811790   0.000000
    13  H    1.811725   1.813362   0.000000
 Stoichiometry    C4H9(2)
 Framework group  C1[X(C4H9)]
 Deg. of freedom    33
 Full point group                 C1      NOp   1
 Largest Abelian subgroup         C1      NOp   1
 Largest concise Abelian subgroup C1      NOp   1
                         Standard orientation:                         
 ---------------------------------------------------------------------
 Center     Atomic      Atomic             Coordinates (Angstroms)
 Number     Number       Type             X           Y           Z
 ---------------------------------------------------------------------
      1          6           0        0.830691   -1.104571    0.119875
      2          6           0        0.000065    0.055435   -0.386926
      3          1           0        0.000003    0.025262   -1.513955
      4          1           0        0.398627   -2.073294   -0.228486
      5          1           0        1.878675   -1.025957   -0.256948
      6          1           0        0.856110   -1.110157    1.236217
      7          6           0        0.600389    1.373672    0.053678
      8          6           0       -1.431169   -0.064741    0.092081
      9          1           0        0.618315    1.443076    1.168036
     10          1           0        1.646977    1.469409   -0.323091
     11          1           0       -1.474443   -0.039471    1.207632
     12          1           0       -2.045796    0.778676   -0.304576
     13          1           0       -1.878325   -1.026311   -0.257078
 ---------------------------------------------------------------------
 Rotational constants (GHZ):           8.5526627           7.9096012           4.8294440
 Standard basis: CC-pVTZ (5D, 7F)
 There are   275 symmetry adapted cartesian basis functions of A   symmetry.
 There are   246 symmetry adapted basis functions of A   symmetry.
   246 basis functions,   361 primitive gaussians,   275 cartesian basis functions
    17 alpha electrons       16 beta electrons
       nuclear repulsion energy       126.6797757700 Hartrees.
 NAtoms=   13 NActive=   13 NUniq=   13 SFac= 1.00D+00 NAtFMM=   60 NAOKFM=F Big=F
 Integral buffers will be    131072 words long.
 Raffenetti 2 integral format.
 Two-electron integral symmetry is turned on.
 Nuclear repulsion after empirical dispersion term =      126.6732726832 Hartrees.
 One-electron integrals computed using PRISM.
 NBasis=   246 RedAO= T EigKep=  8.05D-04  NBF=   246
 NBsUse=   246 1.00D-06 EigRej= -1.00D+00 NBFU=   246
 ExpMin= 1.03D-01 ExpMax= 8.24D+03 ExpMxC= 2.81D+02 IAcc=3 IRadAn=         5 AccDes= 0.00D+00
 Harris functional with IExCor=  419 and IRadAn=       5 diagonalized for initial guess.
 HarFok:  IExCor=  419 AccDes= 0.00D+00 IRadAn=         5 IDoV= 1 UseB2=F ITyADJ=14
 ICtDFT=  3500011 ScaDFX=  1.000000  1.000000  1.000000  1.000000
 FoFCou: FMM=F IPFlag=           0 FMFlag=      100000 FMFlg1=           0
         NFxFlg=           0 DoJE=T BraDBF=F KetDBF=T FulRan=T
         wScrn=  0.000000 ICntrl=       500 IOpCl=  0 I1Cent=   200000004 NGrid=           0
         NMat0=    1 NMatS0=      1 NMatT0=    0 NMatD0=    1 NMtDS0=    0 NMtDT0=    0
 Petite list used in FoFCou.
 Initial guess <Sx>= 0.0000 <Sy>= 0.0000 <Sz>= 0.5000 <S**2>= 0.7500 S= 0.5000
 Requested convergence on RMS density matrix=1.00D-08 within 128 cycles.
 Requested convergence on MAX density matrix=1.00D-06.
 Requested convergence on             energy=1.00D-06.
 No special actions if energy rises.
 Integral accuracy reduced to 1.0D-05 until final iterations.
 Initial convergence to 1.0D-05 achieved.  Increase integral accuracy.
 SCF Done:  E(UB2PLYPD3) =  -157.447443593     A.U. after   14 cycles
            NFock= 14  Conv=0.42D-08     -V/T= 2.0064
 <Sx>= 0.0000 <Sy>= 0.0000 <Sz>= 0.5000 <S**2>= 0.7546 S= 0.5023
 <L.S>=  0.00000000000    
 Annihilation of the first spin contaminant:
 S**2 before annihilation     0.7546,   after     0.7500
 DoSCS=T DFT=T ScalE2(SS,OS)=  0.270000  0.270000
 ExpMin= 1.03D-01 ExpMax= 8.24D+03 ExpMxC= 2.81D+02 IAcc=3 IRadAn=         5 AccDes= 0.00D+00
 HarFok:  IExCor=  205 AccDes= 0.00D+00 IRadAn=         5 IDoV=-2 UseB2=F ITyADJ=14
 ICtDFT= 12500011 ScaDFX=  1.000000  1.000000  1.000000  1.000000
 Range of M.O.s used for correlation:     5   246
 NBasis=   246 NAE=    17 NBE=    16 NFC=     4 NFV=     0
 NROrb=    242 NOA=    13 NOB=    12 NVA=   229 NVB=   230

 **** Warning!!: The largest alpha MO coefficient is  0.15035693D+02


 **** Warning!!: The largest beta MO coefficient is  0.14657114D+02

 DoSCS=T DFT=T ScalE2(SS,OS)=  0.270000  0.270000
 Fully direct method using O(ONN) memory.
 JobTyp=2 Pass  1:  I=   5 to  17 NPSUse= 40 ParTrn=T ParDer=T DoDerP=T.
 JobTyp=3 Pass  1:  I=   5 to  16 NPSUse= 40 ParTrn=T ParDer=T DoDerP=T.
 Spin components of T(2) and E(2):
     alpha-alpha T2 =       0.4198178598D-01 E2=     -0.2676111902D-01
     alpha-beta  T2 =       0.2479347550D+00 E2=     -0.1735339999D+00
     beta-beta   T2 =       0.3586217473D-01 E2=     -0.2255304248D-01
 (S**2,0)=  0.75458D+00           (S**2,1)=  0.74818D+00
 Scaling Projection term by:   0.270000
 E(PUHF)=      -0.15744919304D+03        E(PMP2)=      -0.15767043464D+03
 E2(B2PLYPD3) =    -0.2228481614D+00 E(B2PLYPD3) =    -0.15767029175472D+03
          IDoAtm=1111111111111
          Differentiating once with respect to electric field.
                with respect to dipole field.
          Differentiating once with respect to nuclear coordinates.
 Keep R1 and R2 ints in memory in canonical form, NReq=967250981.
          There are     1 degrees of freedom in the 1st order CPHF.  IDoFFX=0 NUNeed=     1.
 LinEq1:  Iter=  0 NonCon=     1 RMS=5.65D-04 Max=1.72D-02 NDo=     1
 AX will form     1 AO Fock derivatives at one time.
 LinEq1:  Iter=  1 NonCon=     1 RMS=2.14D-04 Max=3.81D-03 NDo=     1
 LinEq1:  Iter=  2 NonCon=     1 RMS=7.49D-05 Max=2.17D-03 NDo=     1
 LinEq1:  Iter=  3 NonCon=     1 RMS=2.49D-05 Max=4.94D-04 NDo=     1
 LinEq1:  Iter=  4 NonCon=     1 RMS=1.17D-05 Max=1.62D-04 NDo=     1
 LinEq1:  Iter=  5 NonCon=     1 RMS=3.29D-06 Max=5.52D-05 NDo=     1
 LinEq1:  Iter=  6 NonCon=     1 RMS=1.24D-06 Max=2.28D-05 NDo=     1
 LinEq1:  Iter=  7 NonCon=     1 RMS=4.13D-07 Max=6.13D-06 NDo=     1
 LinEq1:  Iter=  8 NonCon=     1 RMS=1.72D-07 Max=2.60D-06 NDo=     1
 LinEq1:  Iter=  9 NonCon=     1 RMS=7.10D-08 Max=1.47D-06 NDo=     1
 LinEq1:  Iter= 10 NonCon=     1 RMS=1.88D-08 Max=2.14D-07 NDo=     1
 LinEq1:  Iter= 11 NonCon=     1 RMS=5.77D-09 Max=7.14D-08 NDo=     1
 LinEq1:  Iter= 12 NonCon=     1 RMS=2.81D-09 Max=3.82D-08 NDo=     1
 LinEq1:  Iter= 13 NonCon=     1 RMS=9.51D-10 Max=1.10D-08 NDo=     1
 LinEq1:  Iter= 14 NonCon=     1 RMS=2.98D-10 Max=4.63D-09 NDo=     1
 LinEq1:  Iter= 15 NonCon=     1 RMS=6.92D-11 Max=1.19D-09 NDo=     1
 LinEq1:  Iter= 16 NonCon=     0 RMS=1.74D-11 Max=3.27D-10 NDo=     1
 Linear equations converged to 1.000D-10 1.000D-09 after    16 iterations.
 End of Minotr F.D. properties file   721 does not exist.
 End of Minotr F.D. properties file   722 does not exist.
 End of Minotr F.D. properties file   788 does not exist.

 **********************************************************************

            Population analysis using the SCF Density.

 **********************************************************************

 Orbital symmetries:
 Alpha Orbitals:
       Occupied  (A) (A) (A) (A) (A) (A) (A) (A) (A) (A) (A) (A)
                 (A) (A) (A) (A) (A)
       Virtual   (A) (A) (A) (A) (A) (A) (A) (A) (A) (A) (A) (A)
                 (A) (A) (A) (A) (A) (A) (A) (A) (A) (A) (A) (A)
                 (A) (A) (A) (A) (A) (A) (A) (A) (A) (A) (A) (A)
                 (A) (A) (A) (A) (A) (A) (A) (A) (A) (A) (A) (A)
                 (A) (A) (A) (A) (A) (A) (A) (A) (A) (A) (A) (A)
                 (A) (A) (A) (A) (A) (A) (A) (A) (A) (A) (A) (A)
                 (A) (A) (A) (A) (A) (A) (A) (A) (A) (A) (A) (A)
                 (A) (A) (A) (A) (A) (A) (A) (A) (A) (A) (A) (A)
                 (A) (A) (A) (A) (A) (A) (A) (A) (A) (A) (A) (A)
                 (A) (A) (A) (A) (A) (A) (A) (A) (A) (A) (A) (A)
                 (A) (A) (A) (A) (A) (A) (A) (A) (A) (A) (A) (A)
                 (A) (A) (A) (A) (A) (A) (A) (A) (A) (A) (A) (A)
                 (A) (A) (A) (A) (A) (A) (A) (A) (A) (A) (A) (A)
                 (A) (A) (A) (A) (A) (A) (A) (A) (A) (A) (A) (A)
                 (A) (A) (A) (A) (A) (A) (A) (A) (A) (A) (A) (A)
                 (A) (A) (A) (A) (A) (A) (A) (A) (A) (A) (A) (A)
                 (A) (A) (A) (A) (A) (A) (A) (A) (A) (A) (A) (A)
                 (A) (A) (A) (A) (A) (A) (A) (A) (A) (A) (A) (A)
                 (A) (A) (A) (A) (A) (A) (A) (A) (A) (A) (A) (A)
                 (A)
 Beta  Orbitals:
       Occupied  (A) (A) (A) (A) (A) (A) (A) (A) (A) (A) (A) (A)
                 (A) (A) (A) (A)
       Virtual   (A) (A) (A) (A) (A) (A) (A) (A) (A) (A) (A) (A)
                 (A) (A) (A) (A) (A) (A) (A) (A) (A) (A) (A) (A)
                 (A) (A) (A) (A) (A) (A) (A) (A) (A) (A) (A) (A)
                 (A) (A) (A) (A) (A) (A) (A) (A) (A) (A) (A) (A)
                 (A) (A) (A) (A) (A) (A) (A) (A) (A) (A) (A) (A)
                 (A) (A) (A) (A) (A) (A) (A) (A) (A) (A) (A) (A)
                 (A) (A) (A) (A) (A) (A) (A) (A) (A) (A) (A) (A)
                 (A) (A) (A) (A) (A) (A) (A) (A) (A) (A) (A) (A)
                 (A) (A) (A) (A) (A) (A) (A) (A) (A) (A) (A) (A)
                 (A) (A) (A) (A) (A) (A) (A) (A) (A) (A) (A) (A)
                 (A) (A) (A) (A) (A) (A) (A) (A) (A) (A) (A) (A)
                 (A) (A) (A) (A) (A) (A) (A) (A) (A) (A) (A) (A)
                 (A) (A) (A) (A) (A) (A) (A) (A) (A) (A) (A) (A)
                 (A) (A) (A) (A) (A) (A) (A) (A) (A) (A) (A) (A)
                 (A) (A) (A) (A) (A) (A) (A) (A) (A) (A) (A) (A)
                 (A) (A) (A) (A) (A) (A) (A) (A) (A) (A) (A) (A)
                 (A) (A) (A) (A) (A) (A) (A) (A) (A) (A) (A) (A)
                 (A) (A) (A) (A) (A) (A) (A) (A) (A) (A) (A) (A)
                 (A) (A) (A) (A) (A) (A) (A) (A) (A) (A) (A) (A)
                 (A) (A)
 The electronic state is 2-A.
 Alpha  occ. eigenvalues --  -10.62992 -10.62135 -10.61313 -10.60593  -0.92973
 Alpha  occ. eigenvalues --   -0.78399  -0.77677  -0.63936  -0.53560  -0.50189
 Alpha  occ. eigenvalues --   -0.48581  -0.44932  -0.44273  -0.40636  -0.39020
 Alpha  occ. eigenvalues --   -0.38335  -0.29950
 Alpha virt. eigenvalues --    0.07505   0.10941   0.11835   0.12685   0.14518
 Alpha virt. eigenvalues --    0.14815   0.16824   0.18977   0.19808   0.21127
 Alpha virt. eigenvalues --    0.24519   0.25066   0.29720   0.30348   0.35359
 Alpha virt. eigenvalues --    0.36206   0.36767   0.37860   0.39441   0.42135
 Alpha virt. eigenvalues --    0.45249   0.49368   0.49678   0.50181   0.51756
 Alpha virt. eigenvalues --    0.52285   0.52394   0.53499   0.54935   0.55214
 Alpha virt. eigenvalues --    0.55945   0.57081   0.58299   0.61539   0.69050
 Alpha virt. eigenvalues --    0.69620   0.73257   0.78726   0.80857   0.83285
 Alpha virt. eigenvalues --    0.85469   0.88718   0.91268   0.95585   0.97322
 Alpha virt. eigenvalues --    0.98302   1.00110   1.02644   1.04860   1.07142
 Alpha virt. eigenvalues --    1.09209   1.09661   1.11625   1.14319   1.18379
 Alpha virt. eigenvalues --    1.19142   1.19610   1.21041   1.23166   1.25854
 Alpha virt. eigenvalues --    1.28050   1.30462   1.31364   1.32563   1.34184
 Alpha virt. eigenvalues --    1.34809   1.37859   1.38115   1.39576   1.40860
 Alpha virt. eigenvalues --    1.45137   1.46218   1.47312   1.49552   1.51931
 Alpha virt. eigenvalues --    1.54281   1.55085   1.56635   1.59028   1.63373
 Alpha virt. eigenvalues --    1.66350   1.71082   1.71530   1.76245   2.26229
 Alpha virt. eigenvalues --    2.34496   2.37191   2.39510   2.42742   2.44053
 Alpha virt. eigenvalues --    2.46997   2.49516   2.56259   2.62000   2.63602
 Alpha virt. eigenvalues --    2.64314   2.67511   2.70116   2.71375   2.73836
 Alpha virt. eigenvalues --    2.74394   2.74935   2.80972   2.82104   2.84695
 Alpha virt. eigenvalues --    2.87403   2.89331   2.90940   2.91574   2.92530
 Alpha virt. eigenvalues --    2.94692   2.97625   2.99382   3.03060   3.04536
 Alpha virt. eigenvalues --    3.09937   3.10464   3.12588   3.14265   3.16175
 Alpha virt. eigenvalues --    3.18193   3.20402   3.21584   3.21812   3.23315
 Alpha virt. eigenvalues --    3.24887   3.25530   3.26824   3.28728   3.33982
 Alpha virt. eigenvalues --    3.37969   3.39809   3.41843   3.43498   3.46224
 Alpha virt. eigenvalues --    3.48342   3.49292   3.51511   3.53334   3.54216
 Alpha virt. eigenvalues --    3.56224   3.57105   3.61080   3.63181   3.63881
 Alpha virt. eigenvalues --    3.67500   3.68297   3.70900   3.74445   3.80059
 Alpha virt. eigenvalues --    3.80776   3.83238   3.84749   3.90485   3.92978
 Alpha virt. eigenvalues --    3.94144   3.94940   3.96649   3.99744   4.00415
 Alpha virt. eigenvalues --    4.03396   4.05143   4.07073   4.07983   4.10062
 Alpha virt. eigenvalues --    4.11742   4.13698   4.14698   4.17049   4.18059
 Alpha virt. eigenvalues --    4.21774   4.23734   4.24434   4.26510   4.27283
 Alpha virt. eigenvalues --    4.28287   4.31356   4.33641   4.36192   4.40276
 Alpha virt. eigenvalues --    4.41790   4.46391   4.47126   4.52190   4.53686
 Alpha virt. eigenvalues --    4.54843   4.65465   4.66971   4.74556   4.76258
 Alpha virt. eigenvalues --    4.79596   4.82195   4.88948   4.89956   4.92479
 Alpha virt. eigenvalues --    4.94852   4.96576   4.98291   5.02174   5.08260
 Alpha virt. eigenvalues --    5.11173   5.17765   5.23565   5.24991   5.25671
 Alpha virt. eigenvalues --    5.27682   5.31691   5.34685   5.39646   5.40073
 Alpha virt. eigenvalues --    5.42094   5.42749   5.45618   5.46415   5.53125
 Alpha virt. eigenvalues --    5.54729   5.57122   5.64421   5.67318   5.91659
 Alpha virt. eigenvalues --    5.99182   6.01708   6.03280   6.03974   6.07915
 Alpha virt. eigenvalues --   11.00654  12.13875  13.44333  13.52342
  Beta  occ. eigenvalues --  -10.62191 -10.61167 -10.61149 -10.60568  -0.92008
  Beta  occ. eigenvalues --   -0.78150  -0.74319  -0.62998  -0.53030  -0.49824
  Beta  occ. eigenvalues --   -0.47349  -0.44617  -0.43495  -0.39839  -0.38420
  Beta  occ. eigenvalues --   -0.37994
  Beta virt. eigenvalues --   -0.00043   0.07658   0.11094   0.12063   0.13267
  Beta virt. eigenvalues --    0.14683   0.15067   0.17017   0.19090   0.20086
  Beta virt. eigenvalues --    0.21409   0.24852   0.25738   0.29818   0.30855
  Beta virt. eigenvalues --    0.35865   0.36594   0.37356   0.40167   0.40392
  Beta virt. eigenvalues --    0.44133   0.46084   0.49665   0.50055   0.50485
  Beta virt. eigenvalues --    0.52136   0.52560   0.53282   0.54284   0.55256
  Beta virt. eigenvalues --    0.55521   0.56697   0.57704   0.58802   0.62450
  Beta virt. eigenvalues --    0.69617   0.70359   0.74102   0.78968   0.81312
  Beta virt. eigenvalues --    0.83498   0.85823   0.89351   0.92000   0.96299
  Beta virt. eigenvalues --    0.97850   0.98421   1.00327   1.03148   1.05147
  Beta virt. eigenvalues --    1.07384   1.09460   1.09851   1.12360   1.15666
  Beta virt. eigenvalues --    1.18793   1.19462   1.20090   1.21708   1.23671
  Beta virt. eigenvalues --    1.26169   1.28822   1.31197   1.32254   1.33073
  Beta virt. eigenvalues --    1.34570   1.35467   1.37981   1.38503   1.39939
  Beta virt. eigenvalues --    1.41288   1.45259   1.46436   1.47485   1.49836
  Beta virt. eigenvalues --    1.52328   1.54630   1.55761   1.56963   1.59285
  Beta virt. eigenvalues --    1.63706   1.67144   1.71499   1.72043   1.76765
  Beta virt. eigenvalues --    2.30933   2.34792   2.37863   2.40077   2.43279
  Beta virt. eigenvalues --    2.44553   2.47688   2.50049   2.57181   2.62312
  Beta virt. eigenvalues --    2.64090   2.64889   2.68392   2.70495   2.72078
  Beta virt. eigenvalues --    2.74155   2.74849   2.75685   2.81916   2.82457
  Beta virt. eigenvalues --    2.85200   2.88045   2.90894   2.91308   2.91674
  Beta virt. eigenvalues --    2.92833   2.96045   2.98216   3.00027   3.04019
  Beta virt. eigenvalues --    3.05187   3.10807   3.11840   3.13322   3.15821
  Beta virt. eigenvalues --    3.16605   3.18815   3.20642   3.22057   3.22536
  Beta virt. eigenvalues --    3.24213   3.25330   3.25936   3.27597   3.29888
  Beta virt. eigenvalues --    3.35917   3.38618   3.40280   3.42213   3.43704
  Beta virt. eigenvalues --    3.46740   3.48742   3.49818   3.52009   3.53606
  Beta virt. eigenvalues --    3.54648   3.56816   3.57563   3.61453   3.63401
  Beta virt. eigenvalues --    3.64194   3.67845   3.68588   3.71291   3.74642
  Beta virt. eigenvalues --    3.80531   3.81020   3.83539   3.85508   3.91047
  Beta virt. eigenvalues --    3.93083   3.94272   3.95236   3.96999   4.00303
  Beta virt. eigenvalues --    4.00649   4.03604   4.05527   4.07327   4.08086
  Beta virt. eigenvalues --    4.10309   4.11954   4.13807   4.15060   4.17462
  Beta virt. eigenvalues --    4.18289   4.22013   4.23863   4.24611   4.26643
  Beta virt. eigenvalues --    4.27445   4.28461   4.31828   4.33755   4.36439
  Beta virt. eigenvalues --    4.40400   4.42009   4.46481   4.47217   4.52352
  Beta virt. eigenvalues --    4.54132   4.55049   4.65569   4.67368   4.74940
  Beta virt. eigenvalues --    4.76428   4.80165   4.82395   4.89148   4.90241
  Beta virt. eigenvalues --    4.93333   4.94987   4.97113   4.98483   5.02323
  Beta virt. eigenvalues --    5.08427   5.11951   5.18822   5.23799   5.25122
  Beta virt. eigenvalues --    5.25847   5.27784   5.31991   5.34986   5.39738
  Beta virt. eigenvalues --    5.40350   5.42169   5.42854   5.45745   5.46623
  Beta virt. eigenvalues --    5.53529   5.54860   5.57273   5.64519   5.67817
  Beta virt. eigenvalues --    5.91838   5.99814   6.01771   6.03405   6.04070
  Beta virt. eigenvalues --    6.08015  11.01220  12.14950  13.44398  13.52413
          Condensed to atoms (all electrons):
               1          2          3          4          5          6
     1  C    4.878952   0.357979  -0.041504   0.402395   0.406906   0.399610
     2  C    0.357979   4.854744   0.412566  -0.035879  -0.039323  -0.036985
     3  H   -0.041504   0.412566   0.632807  -0.005822  -0.005465   0.008373
     4  H    0.402395  -0.035879  -0.005822   0.597548  -0.027568  -0.029107
     5  H    0.406906  -0.039323  -0.005465  -0.027568   0.596661  -0.029736
     6  H    0.399610  -0.036985   0.008373  -0.029107  -0.029736   0.605301
     7  C   -0.065560   0.351471  -0.039707   0.009196  -0.003327  -0.003623
     8  C   -0.056082   0.348608  -0.039383  -0.005356   0.008507  -0.005464
     9  H   -0.001919  -0.047146   0.008119  -0.000361  -0.000315   0.004480
    10  H   -0.001955  -0.047971  -0.007641  -0.000276   0.003838  -0.000372
    11  H   -0.006467  -0.035938   0.008161  -0.000298  -0.000121   0.004479
    12  H    0.008893  -0.036993  -0.005643  -0.000163  -0.000502  -0.000183
    13  H   -0.004706  -0.039133  -0.005914   0.003095  -0.000096  -0.000410
               7          8          9         10         11         12
     1  C   -0.065560  -0.056082  -0.001919  -0.001955  -0.006467   0.008893
     2  C    0.351471   0.348608  -0.047146  -0.047971  -0.035938  -0.036993
     3  H   -0.039707  -0.039383   0.008119  -0.007641   0.008161  -0.005643
     4  H    0.009196  -0.005356  -0.000361  -0.000276  -0.000298  -0.000163
     5  H   -0.003327   0.008507  -0.000315   0.003838  -0.000121  -0.000502
     6  H   -0.003623  -0.005464   0.004480  -0.000372   0.004479  -0.000183
     7  C    5.229031  -0.056625   0.400286   0.406695  -0.006448  -0.001695
     8  C   -0.056625   4.860603  -0.007425   0.008179   0.404448   0.407692
     9  H    0.400286  -0.007425   0.597990  -0.043636   0.004388  -0.000225
    10  H    0.406695   0.008179  -0.043636   0.590910  -0.000150  -0.000008
    11  H   -0.006448   0.404448   0.004388  -0.000150   0.608162  -0.029377
    12  H   -0.001695   0.407692  -0.000225  -0.000008  -0.029377   0.592582
    13  H    0.008202   0.408378  -0.000174  -0.000527  -0.031047  -0.028422
              13
     1  C   -0.004706
     2  C   -0.039133
     3  H   -0.005914
     4  H    0.003095
     5  H   -0.000096
     6  H   -0.000410
     7  C    0.008202
     8  C    0.408378
     9  H   -0.000174
    10  H   -0.000527
    11  H   -0.031047
    12  H   -0.028422
    13  H    0.605177
          Atomic-Atomic Spin Densities.
               1          2          3          4          5          6
     1  C    0.073126   0.015144  -0.005452  -0.007610  -0.001620  -0.003210
     2  C    0.015144  -0.035950   0.002673  -0.003174   0.000245   0.000031
     3  H   -0.005452   0.002673   0.008626   0.001085   0.000164   0.000124
     4  H   -0.007610  -0.003174   0.001085   0.021073   0.001005   0.001691
     5  H   -0.001620   0.000245   0.000164   0.001005  -0.003090   0.000630
     6  H   -0.003210   0.000031   0.000124   0.001691   0.000630  -0.002621
     7  C   -0.034476  -0.037437  -0.003461   0.003744   0.001147   0.002499
     8  C   -0.001237   0.007759   0.001664  -0.000246   0.000010   0.000065
     9  H   -0.003400   0.003083   0.000003   0.000268   0.000092   0.000320
    10  H   -0.003325   0.002101   0.001242   0.000284   0.000178   0.000143
    11  H   -0.000609   0.000825   0.000017   0.000140   0.000010   0.000020
    12  H    0.000954  -0.002035  -0.000544  -0.000215  -0.000017  -0.000072
    13  H    0.001043   0.000406  -0.000301  -0.000839  -0.000009  -0.000047
               7          8          9         10         11         12
     1  C   -0.034476  -0.001237  -0.003400  -0.003325  -0.000609   0.000954
     2  C   -0.037437   0.007759   0.003083   0.002101   0.000825  -0.002035
     3  H   -0.003461   0.001664   0.000003   0.001242   0.000017  -0.000544
     4  H    0.003744  -0.000246   0.000268   0.000284   0.000140  -0.000215
     5  H    0.001147   0.000010   0.000092   0.000178   0.000010  -0.000017
     6  H    0.002499   0.000065   0.000320   0.000143   0.000020  -0.000072
     7  C    1.095443  -0.008926   0.004239   0.004515  -0.000016   0.004776
     8  C   -0.008926   0.009044   0.000645  -0.000101   0.000051  -0.002441
     9  H    0.004239   0.000645  -0.033426   0.006621   0.000057  -0.000273
    10  H    0.004515  -0.000101   0.006621  -0.032216   0.000024  -0.000144
    11  H   -0.000016   0.000051   0.000057   0.000024  -0.000624  -0.000001
    12  H    0.004776  -0.002441  -0.000273  -0.000144  -0.000001   0.000556
    13  H    0.000046  -0.000658  -0.000065   0.000016  -0.000118   0.000927
              13
     1  C    0.001043
     2  C    0.000406
     3  H   -0.000301
     4  H   -0.000839
     5  H   -0.000009
     6  H   -0.000047
     7  C    0.000046
     8  C   -0.000658
     9  H   -0.000065
    10  H    0.000016
    11  H   -0.000118
    12  H    0.000927
    13  H   -0.001226
 Mulliken charges and spin densities:
               1          2
     1  C   -0.276541   0.029327
     2  C   -0.005998  -0.046331
     3  H    0.081054   0.005839
     4  H    0.092596   0.017204
     5  H    0.090542  -0.001255
     6  H    0.083636  -0.000427
     7  C   -0.227896   1.032092
     8  C   -0.276078   0.005629
     9  H    0.085938  -0.021836
    10  H    0.092915  -0.020663
    11  H    0.080209  -0.000225
    12  H    0.094045   0.001471
    13  H    0.085577  -0.000826
 Sum of Mulliken charges =  -0.00000   1.00000
 Mulliken charges and spin densities with hydrogens summed into heavy atoms:
               1          2
     1  C   -0.009767   0.044849
     2  C    0.075056  -0.040492
     7  C   -0.049042   0.989593
     8  C   -0.016247   0.006049
 Electronic spatial extent (au):  <R**2>=            332.7782
 Charge=             -0.0000 electrons
 Dipole moment (field-independent basis, Debye):
    X=              0.2351    Y=             -0.6292    Z=              0.0315  Tot=              0.6724
 Quadrupole moment (field-independent basis, Debye-Ang):
   XX=            -28.3342   YY=            -30.1711   ZZ=            -27.6704
   XY=              0.2262   XZ=              0.0259   YZ=              0.4537
 Traceless Quadrupole moment (field-independent basis, Debye-Ang):
   XX=              0.3911   YY=             -1.4459   ZZ=              1.0548
   XY=              0.2262   XZ=              0.0259   YZ=              0.4537
 Octapole moment (field-independent basis, Debye-Ang**2):
  XXX=              2.3920  YYY=             -6.7690  ZZZ=              1.0007  XYY=             -1.5253
  XXY=              0.6170  XXZ=             -1.4817  XZZ=              0.0617  YZZ=             -0.2430
  YYZ=             -0.4133  XYZ=              0.0717
 Hexadecapole moment (field-independent basis, Debye-Ang**3):
 XXXX=           -215.9266 YYYY=           -207.0021 ZZZZ=            -66.8714 XXXY=             -0.0339
 XXXZ=             -1.1386 YYYX=              0.1789 YYYZ=              2.6633 ZZZX=              0.1579
 ZZZY=              0.6153 XXYY=            -68.1893 XXZZ=            -48.2114 YYZZ=            -45.0353
 XXYZ=             -0.3120 YYXZ=              1.0992 ZZXY=             -0.0586
 N-N= 1.266732726832D+02 E-N=-6.175134498637D+02  KE= 1.564475518289D+02
                          Isotropic Fermi Contact Couplings
        Atom                 a.u.       MegaHertz       Gauss      10(-4) cm-1
     1  C(13)              0.05627      63.25706      22.57169      21.10029
     2  C(13)             -0.01084     -12.18733      -4.34874      -4.06526
     3  H(1)               0.00384      17.18305       6.13134       5.73165
     4  H(1)               0.00653      29.18645      10.41445       9.73555
     5  H(1)              -0.00015      -0.68300      -0.24371      -0.22782
     6  H(1)              -0.00054      -2.41657      -0.86229      -0.80608
     7  C(13)              0.25998     292.26180     104.28628      97.48804
     8  C(13)              0.00746       8.38133       2.99067       2.79571
     9  H(1)              -0.00268     -11.99646      -4.28064      -4.00159
    10  H(1)              -0.00281     -12.56974      -4.48520      -4.19281
    11  H(1)              -0.00029      -1.28426      -0.45826      -0.42838
    12  H(1)              -0.00031      -1.38102      -0.49278      -0.46066
    13  H(1)              -0.00006      -0.27268      -0.09730      -0.09096
 --------------------------------------------------------
       Center         ----  Spin Dipole Couplings  ----
                      3XX-RR        3YY-RR        3ZZ-RR
 --------------------------------------------------------
     1   Atom       -0.022349      0.051542     -0.029193
     2   Atom       -0.020492      0.044455     -0.023964
     3   Atom       -0.008799      0.004415      0.004383
     4   Atom       -0.002875      0.006745     -0.003870
     5   Atom        0.003792      0.004578     -0.008371
     6   Atom       -0.008075      0.005735      0.002340
     7   Atom       -0.057859      0.370971     -0.313113
     8   Atom        0.006208      0.003163     -0.009371
     9   Atom       -0.042241     -0.025393      0.067634
    10   Atom        0.055892     -0.024444     -0.031448
    11   Atom        0.002461     -0.000378     -0.002082
    12   Atom        0.011702     -0.003746     -0.007956
    13   Atom        0.001638      0.001820     -0.003459
 --------------------------------------------------------
                        XY            XZ            YZ
 --------------------------------------------------------
     1   Atom       -0.030585      0.005256     -0.018894
     2   Atom        0.002837      0.003212      0.001254
     3   Atom        0.003486      0.004831      0.014426
     4   Atom        0.002029      0.002014      0.001970
     5   Atom       -0.008405     -0.002343      0.002377
     6   Atom       -0.001468      0.002430     -0.008111
     7   Atom       -0.634322      0.298685     -0.419616
     8   Atom        0.015740     -0.004869     -0.004640
     9   Atom       -0.025510      0.002939      0.005066
    10   Atom       -0.001945     -0.034193     -0.025941
    11   Atom        0.006020     -0.005442     -0.004239
    12   Atom        0.006020      0.001807      0.000501
    13   Atom        0.004627      0.000623      0.000605
 --------------------------------------------------------


 ---------------------------------------------------------------------------------
              Anisotropic Spin Dipole Couplings in Principal Axis System
 ---------------------------------------------------------------------------------

       Atom             a.u.   MegaHertz   Gauss  10(-4) cm-1        Axes

              Baa    -0.0347    -4.658    -1.662    -1.554  0.6400  0.3740  0.6713
     1 C(13)  Bbb    -0.0318    -4.273    -1.525    -1.425 -0.6943 -0.0929  0.7137
              Bcc     0.0666     8.931     3.187     2.979 -0.3293  0.9228 -0.2002
 
              Baa    -0.0259    -3.473    -1.239    -1.158 -0.5141  0.0054  0.8577
     2 C(13)  Bbb    -0.0187    -2.513    -0.897    -0.838  0.8566 -0.0487  0.5137
              Bcc     0.0446     5.986     2.136     1.997  0.0445  0.9988  0.0204
 
              Baa    -0.0109    -5.842    -2.084    -1.949  0.6882  0.4075 -0.6003
     3 H(1)   Bbb    -0.0091    -4.843    -1.728    -1.616  0.6974 -0.5997  0.3924
              Bcc     0.0200    10.685     3.813     3.564  0.2001  0.6887  0.6969
 
              Baa    -0.0055    -2.911    -1.039    -0.971 -0.6007 -0.0291  0.7990
     4 H(1)   Bbb    -0.0022    -1.164    -0.415    -0.388  0.7678 -0.2995  0.5663
              Bcc     0.0076     4.075     1.454     1.359  0.2228  0.9536  0.2023
 
              Baa    -0.0089    -4.743    -1.692    -1.582  0.1142 -0.1031  0.9881
     5 H(1)   Bbb    -0.0042    -2.256    -0.805    -0.753  0.7218  0.6920 -0.0112
              Bcc     0.0131     6.999     2.498     2.335 -0.6826  0.7145  0.1535
 
              Baa    -0.0086    -4.602    -1.642    -1.535  0.9693 -0.0381 -0.2430
     6 H(1)   Bbb    -0.0040    -2.157    -0.770    -0.720  0.2100  0.6427  0.7368
              Bcc     0.0127     6.760     2.412     2.255 -0.1281  0.7652 -0.6310
 
              Baa    -0.5142   -69.005   -24.623   -23.017  0.5638  0.6472  0.5130
     7 C(13)  Bbb    -0.5102   -68.469   -24.432   -22.839 -0.6217 -0.0763  0.7795
              Bcc     1.0245   137.474    49.054    45.856 -0.5437  0.7585 -0.3593
 
              Baa    -0.0112    -1.502    -0.536    -0.501 -0.5611  0.7370  0.3769
     8 C(13)  Bbb    -0.0107    -1.442    -0.515    -0.481  0.4027 -0.1548  0.9021
              Bcc     0.0219     2.945     1.051     0.982  0.7232  0.6580 -0.2099
 
              Baa    -0.0609   -32.496   -11.595   -10.839  0.8086  0.5868 -0.0416
     9 H(1)   Bbb    -0.0070    -3.749    -1.338    -1.251 -0.5881  0.8082 -0.0317
              Bcc     0.0679    36.245    12.933    12.090  0.0150  0.0501  0.9986
 
              Baa    -0.0608   -32.445   -11.577   -10.823  0.2393  0.5723  0.7843
    10 H(1)   Bbb    -0.0074    -3.938    -1.405    -1.313 -0.2548  0.8165 -0.5180
              Bcc     0.0682    36.383    12.982    12.136  0.9369  0.0759 -0.3413
 
              Baa    -0.0058    -3.070    -1.095    -1.024  0.4154  0.2291  0.8803
    11 H(1)   Bbb    -0.0051    -2.743    -0.979    -0.915 -0.5889  0.8053  0.0683
              Bcc     0.0109     5.812     2.074     1.939  0.6933  0.5468 -0.4694
 
              Baa    -0.0081    -4.333    -1.546    -1.445 -0.0963  0.0185  0.9952
    12 H(1)   Bbb    -0.0058    -3.099    -1.106    -1.034 -0.3202  0.9461 -0.0486
              Bcc     0.0139     7.433     2.652     2.479  0.9424  0.3234  0.0852
 
              Baa    -0.0035    -1.886    -0.673    -0.629 -0.0847 -0.0393  0.9956
    13 H(1)   Bbb    -0.0029    -1.546    -0.552    -0.516  0.7115 -0.7019  0.0328
              Bcc     0.0064     3.432     1.225     1.145  0.6976  0.7112  0.0874
 

 ---------------------------------------------------------------------------------

 Calling FoFJK, ICntrl=  10002127 FMM=F ISym2X=0 I1Cent= 0 IOpClX= 1 NMat=1 NMatS=1 NMatT=0.
 ***** Axes restored to original set *****
 -------------------------------------------------------------------
 Center     Atomic                   Forces (Hartrees/Bohr)
 Number     Number              X              Y              Z
 -------------------------------------------------------------------
      1        6          -0.021163705   -0.003623398   -0.004362609
      2        6           0.027468578    0.006205908   -0.014780711
      3        1          -0.006656341   -0.008539287    0.015210504
      4        1           0.004504756   -0.015323296    0.000025774
      5        1           0.002538774    0.008177368    0.014056867
      6        1           0.004287794    0.007611394   -0.012988837
      7        6          -0.052119812   -0.010891010   -0.003090594
      8        6           0.009133502    0.013024454    0.012954589
      9        1           0.018017562    0.005444821   -0.009166133
     10        1           0.019193268    0.003973846    0.009591494
     11        1           0.005049378    0.007572240   -0.012427145
     12        1          -0.016737196    0.000908398    0.002617669
     13        1           0.006483441   -0.014541437    0.002359132
 -------------------------------------------------------------------
 Cartesian Forces:  Max     0.052119812 RMS     0.013936955

 GradGradGradGradGradGradGradGradGradGradGradGradGradGradGradGradGradGrad
 Berny optimization.
 FormGI is forming the generalized inverse of G from B-inverse, IUseBI=4.
 Internal  Forces:  Max     0.018650499 RMS     0.007991094
 Search for a local minimum.
 Step number   1 out of a maximum of  100
 All quantities printed in internal units (Hartrees-Bohrs-Radians)
 Mixed Optimization -- RFO/linear search
 Second derivative matrix not updated -- first step.
 ITU=  0
     Eigenvalues ---    0.00580   0.00580   0.00580   0.03943   0.04164
     Eigenvalues ---    0.04961   0.05764   0.05765   0.05773   0.05776
     Eigenvalues ---    0.05777   0.16000   0.16000   0.16000   0.16000
     Eigenvalues ---    0.16000   0.16000   0.16000   0.16000   0.16683
     Eigenvalues ---    0.17969   0.30822   0.30945   0.30948   0.30949
     Eigenvalues ---    0.31903   0.31905   0.31906   0.31926   0.31926
     Eigenvalues ---    0.31927   0.31927   0.31927
 RFO step:  Lambda=-1.99138875D-02 EMin= 5.79854856D-03
 Linear search not attempted -- first point.
 Iteration  1 RMS(Cart)=  0.05904081 RMS(Int)=  0.00880894
 Iteration  2 RMS(Cart)=  0.00705849 RMS(Int)=  0.00586249
 Iteration  3 RMS(Cart)=  0.00010645 RMS(Int)=  0.00586193
 Iteration  4 RMS(Cart)=  0.00000251 RMS(Int)=  0.00586193
 Iteration  5 RMS(Cart)=  0.00000006 RMS(Int)=  0.00586193
 Variable       Old X    -DE/DX   Delta X   Delta X   Delta X     New X
                                 (Linear)    (Quad)   (Total)
    R1        2.86117   0.00983   0.00000   0.02985   0.02985   2.89103
    R2        2.10978  -0.01593   0.00000  -0.04698  -0.04698   2.06281
    R3        2.10977  -0.01613   0.00000  -0.04755  -0.04755   2.06222
    R4        2.11015  -0.01560   0.00000  -0.04602  -0.04602   2.06413
    R5        2.13054  -0.01865   0.00000  -0.05684  -0.05684   2.07370
    R6        2.86109  -0.00381   0.00000  -0.01157  -0.01157   2.84952
    R7        2.86112   0.00918   0.00000   0.02787   0.02787   2.88900
    R8        2.11018  -0.01550   0.00000  -0.04574  -0.04574   2.06445
    R9        2.10979  -0.01613   0.00000  -0.04754  -0.04754   2.06225
   R10        2.11021  -0.01537   0.00000  -0.04535  -0.04535   2.06487
   R11        2.10978  -0.01676   0.00000  -0.04940  -0.04940   2.06038
   R12        2.10980  -0.01586   0.00000  -0.04675  -0.04675   2.06305
    A1        1.92626   0.00049   0.00000   0.00174   0.00170   1.92796
    A2        1.92627   0.00447   0.00000   0.02650   0.02640   1.95267
    A3        1.92939   0.00080   0.00000   0.00380   0.00374   1.93313
    A4        1.89552  -0.00234   0.00000  -0.01173  -0.01181   1.88371
    A5        1.89274  -0.00123   0.00000  -0.01006  -0.01005   1.88269
    A6        1.89274  -0.00240   0.00000  -0.01137  -0.01149   1.88125
    A7        1.89034  -0.00000   0.00000  -0.00819  -0.00826   1.88208
    A8        1.93065  -0.00406   0.00000  -0.02095  -0.02112   1.90953
    A9        1.93038   0.00205   0.00000   0.01217   0.01228   1.94267
   A10        1.89045   0.00060   0.00000   0.00103   0.00085   1.89129
   A11        1.89029  -0.00138   0.00000  -0.00361  -0.00360   1.88669
   A12        1.93036   0.00275   0.00000   0.01907   0.01915   1.94950
   A13        1.92932   0.01412   0.00000   0.13038   0.10854   2.03786
   A14        1.92639   0.01756   0.00000   0.14963   0.12792   2.05431
   A15        1.89272  -0.00275   0.00000   0.08507   0.05635   1.94907
   A16        1.92932   0.00009   0.00000  -0.00120  -0.00119   1.92814
   A17        1.92628   0.00313   0.00000   0.01821   0.01808   1.94436
   A18        1.92626   0.00331   0.00000   0.01925   0.01912   1.94538
   A19        1.89283  -0.00196   0.00000  -0.01257  -0.01256   1.88027
   A20        1.89272  -0.00203   0.00000  -0.01288  -0.01287   1.87985
   A21        1.89551  -0.00276   0.00000  -0.01208  -0.01234   1.88318
    D1       -1.04789  -0.00070   0.00000  -0.00836  -0.00832  -1.05621
    D2       -3.11721   0.00093   0.00000   0.00755   0.00744  -3.10977
    D3        1.02109  -0.00118   0.00000  -0.01065  -0.01065   1.01044
    D4        1.04748  -0.00042   0.00000  -0.00480  -0.00474   1.04274
    D5       -1.02184   0.00121   0.00000   0.01111   0.01101  -1.01083
    D6        3.11646  -0.00090   0.00000  -0.00709  -0.00707   3.10939
    D7        3.14140  -0.00000   0.00000   0.00061   0.00071  -3.14108
    D8        1.07207   0.00163   0.00000   0.01652   0.01646   1.08853
    D9       -1.07281  -0.00048   0.00000  -0.00168  -0.00162  -1.07443
   D10       -1.07261  -0.00986   0.00000  -0.15988  -0.16537  -1.23798
   D11        1.02132   0.00717   0.00000   0.12710   0.13271   1.15403
   D12        3.14132  -0.00787   0.00000  -0.13836  -0.14389   2.99742
   D13       -1.04794   0.00916   0.00000   0.14861   0.15418  -0.89376
   D14        1.07229  -0.00816   0.00000  -0.14569  -0.15132   0.92097
   D15       -3.11697   0.00887   0.00000   0.14129   0.14675  -2.97021
   D16        1.07204  -0.00071   0.00000   0.00080   0.00086   1.07291
   D17       -3.11716  -0.00107   0.00000  -0.00388  -0.00389  -3.12104
   D18       -1.02180  -0.00037   0.00000   0.00519   0.00533  -1.01647
   D19        3.14105  -0.00036   0.00000  -0.00428  -0.00427   3.13678
   D20       -1.04815  -0.00072   0.00000  -0.00896  -0.00902  -1.05717
   D21        1.04721  -0.00001   0.00000   0.00011   0.00019   1.04741
   D22       -1.07301   0.00114   0.00000   0.00586   0.00579  -1.06722
   D23        1.02097   0.00078   0.00000   0.00119   0.00104   1.02202
   D24        3.11633   0.00148   0.00000   0.01026   0.01025   3.12659
         Item               Value     Threshold  Converged?
 Maximum Force            0.018650     0.000450     NO 
 RMS     Force            0.007991     0.000300     NO 
 Maximum Displacement     0.206945     0.001800     NO 
 RMS     Displacement     0.056022     0.001200     NO 
 Predicted change in Energy=-1.279323D-02
 GradGradGradGradGradGradGradGradGradGradGradGradGradGradGradGradGradGrad

                          Input orientation:                          
 ---------------------------------------------------------------------
 Center     Atomic      Atomic             Coordinates (Angstroms)
 Number     Number       Type             X           Y           Z
 ---------------------------------------------------------------------
      1          6           0       -3.421483    0.661140   -0.008707
      2          6           0       -1.891791    0.640552    0.001537
      3          1           0       -1.542710    1.151278   -0.904824
      4          1           0       -3.789325    1.688885   -0.009868
      5          1           0       -3.829107    0.157454   -0.886793
      6          1           0       -3.821338    0.163021    0.877347
      7          6           0       -1.409590   -0.787498   -0.042289
      8          6           0       -1.334272    1.388463    1.212736
      9          1           0       -1.560815   -1.385634    0.859282
     10          1           0       -1.611621   -1.363666   -0.946797
     11          1           0       -1.663490    0.913411    2.140039
     12          1           0       -0.243978    1.392496    1.210604
     13          1           0       -1.673586    2.425922    1.232481
 ---------------------------------------------------------------------
                    Distance matrix (angstroms):
                    1          2          3          4          5
     1  C    0.000000
     2  C    1.529865   0.000000
     3  H    2.138469   1.097355   0.000000
     4  H    1.091590   2.167895   2.477347   0.000000
     5  H    1.091280   2.185340   2.493115   1.765180   0.000000
     6  H    1.092290   2.172149   3.056948   1.765343   1.764165
     7  C    2.479394   1.507902   2.126157   3.434628   2.731335
     8  C    2.525346   1.528791   2.140973   2.759040   3.485342
     9  H    2.899099   2.225018   3.090036   3.895426   3.251930
    10  H    2.873230   2.234888   2.516238   3.865009   2.689731
    11  H    2.787704   2.167894   3.056527   3.121320   3.797773
    12  H    3.481112   2.177740   2.493978   3.761235   4.333308
    13  H    2.776715   2.179537   2.491970   2.561836   3.779357
                    6          7          8          9         10
     6  H    0.000000
     7  C    2.750590   0.000000
     8  C    2.792792   2.513079   0.000000
     9  H    2.740186   1.092459   2.805684   0.000000
    10  H    3.246709   1.091293   3.509233   1.806927   0.000000
    11  H    2.610323   2.778509   1.092680   2.633721   3.836186
    12  H    3.797391   2.771420   1.090304   3.094430   3.757826
    13  H    3.140013   3.467103   1.091717   3.831443   4.371964
                   11         12         13
    11  H    0.000000
    12  H    1.763062   0.000000
    13  H    1.763932   1.764151   0.000000
 Stoichiometry    C4H9(2)
 Framework group  C1[X(C4H9)]
 Deg. of freedom    33
 Full point group                 C1      NOp   1
 Largest Abelian subgroup         C1      NOp   1
 Largest concise Abelian subgroup C1      NOp   1
                         Standard orientation:                         
 ---------------------------------------------------------------------
 Center     Atomic      Atomic             Coordinates (Angstroms)
 Number     Number       Type             X           Y           Z
 ---------------------------------------------------------------------
      1          6           0        0.843191   -1.119310    0.122199
      2          6           0        0.000204    0.052959   -0.383416
      3          1           0        0.007364    0.023608   -1.480356
      4          1           0        0.421571   -2.067118   -0.217603
      5          1           0        1.873200   -1.062943   -0.233885
      6          1           0        0.868031   -1.135782    1.214082
      7          6           0        0.627799    1.349958    0.061202
      8          6           0       -1.450320   -0.062985    0.085347
      9          1           0        0.566731    1.586365    1.126025
     10          1           0        1.602732    1.610448   -0.354214
     11          1           0       -1.502105   -0.042697    1.176610
     12          1           0       -2.057234    0.760777   -0.291263
     13          1           0       -1.905531   -0.996387   -0.251388
 ---------------------------------------------------------------------
 Rotational constants (GHZ):           8.5298580           7.7874499           4.7440488
 Standard basis: CC-pVTZ (5D, 7F)
 There are   275 symmetry adapted cartesian basis functions of A   symmetry.
 There are   246 symmetry adapted basis functions of A   symmetry.
   246 basis functions,   361 primitive gaussians,   275 cartesian basis functions
    17 alpha electrons       16 beta electrons
       nuclear repulsion energy       126.6551299405 Hartrees.
 NAtoms=   13 NActive=   13 NUniq=   13 SFac= 1.00D+00 NAtFMM=   60 NAOKFM=F Big=F
 Integral buffers will be    131072 words long.
 Raffenetti 2 integral format.
 Two-electron integral symmetry is turned on.
 Nuclear repulsion after empirical dispersion term =      126.6486814895 Hartrees.
 One-electron integrals computed using PRISM.
 NBasis=   246 RedAO= T EigKep=  8.37D-04  NBF=   246
 NBsUse=   246 1.00D-06 EigRej= -1.00D+00 NBFU=   246
 Initial guess from the checkpoint file:  "/localscratch/339542/Gau-86234.chk"
 B after Tr=    -0.000000    0.000000   -0.000000
         Rot=    0.999997    0.001956    0.001334   -0.000493 Ang=   0.28 deg.
 Initial guess <Sx>= 0.0000 <Sy>= 0.0000 <Sz>= 0.5000 <S**2>= 0.7545 S= 0.5022
 ExpMin= 1.03D-01 ExpMax= 8.24D+03 ExpMxC= 2.81D+02 IAcc=3 IRadAn=         5 AccDes= 0.00D+00
 Harris functional with IExCor=  419 and IRadAn=       5 diagonalized for initial guess.
 HarFok:  IExCor=  419 AccDes= 0.00D+00 IRadAn=         5 IDoV= 1 UseB2=F ITyADJ=14
 ICtDFT=  3500011 ScaDFX=  1.000000  1.000000  1.000000  1.000000
 FoFCou: FMM=F IPFlag=           0 FMFlag=      100000 FMFlg1=           0
         NFxFlg=           0 DoJE=T BraDBF=F KetDBF=T FulRan=T
         wScrn=  0.000000 ICntrl=       500 IOpCl=  0 I1Cent=   200000004 NGrid=           0
         NMat0=    1 NMatS0=      1 NMatT0=    0 NMatD0=    1 NMtDS0=    0 NMtDT0=    0
 Petite list used in FoFCou.
 Requested convergence on RMS density matrix=1.00D-08 within 128 cycles.
 Requested convergence on MAX density matrix=1.00D-06.
 Requested convergence on             energy=1.00D-06.
 No special actions if energy rises.
 Integral accuracy reduced to 1.0D-05 until final iterations.
 Initial convergence to 1.0D-05 achieved.  Increase integral accuracy.
 SCF Done:  E(UB2PLYPD3) =  -157.460467504     A.U. after   13 cycles
            NFock= 13  Conv=0.31D-08     -V/T= 2.0050
 <Sx>= 0.0000 <Sy>= 0.0000 <Sz>= 0.5000 <S**2>= 0.7553 S= 0.5027
 <L.S>=  0.00000000000    
 Annihilation of the first spin contaminant:
 S**2 before annihilation     0.7553,   after     0.7500
 DoSCS=T DFT=T ScalE2(SS,OS)=  0.270000  0.270000
 ExpMin= 1.03D-01 ExpMax= 8.24D+03 ExpMxC= 2.81D+02 IAcc=3 IRadAn=         5 AccDes= 0.00D+00
 HarFok:  IExCor=  205 AccDes= 0.00D+00 IRadAn=         5 IDoV=-2 UseB2=F ITyADJ=14
 ICtDFT= 12500011 ScaDFX=  1.000000  1.000000  1.000000  1.000000
 Range of M.O.s used for correlation:     5   246
 NBasis=   246 NAE=    17 NBE=    16 NFC=     4 NFV=     0
 NROrb=    242 NOA=    13 NOB=    12 NVA=   229 NVB=   230

 **** Warning!!: The largest alpha MO coefficient is  0.11308202D+02


 **** Warning!!: The largest beta MO coefficient is  0.10921551D+02

 DoSCS=T DFT=T ScalE2(SS,OS)=  0.270000  0.270000
 Fully direct method using O(ONN) memory.
 JobTyp=2 Pass  1:  I=   5 to  17 NPSUse= 40 ParTrn=T ParDer=T DoDerP=T.
 JobTyp=3 Pass  1:  I=   5 to  16 NPSUse= 40 ParTrn=T ParDer=T DoDerP=T.
 Spin components of T(2) and E(2):
     alpha-alpha T2 =       0.4148001368D-01 E2=     -0.2672969087D-01
     alpha-beta  T2 =       0.2420397792D+00 E2=     -0.1725458858D+00
     beta-beta   T2 =       0.3496753305D-01 E2=     -0.2229649769D-01
 (S**2,0)=  0.75532D+00           (S**2,1)=  0.74784D+00
 Scaling Projection term by:   0.270000
 E(PUHF)=      -0.15746250636D+03        E(PMP2)=      -0.15768220396D+03
 E2(B2PLYPD3) =    -0.2215720744D+00 E(B2PLYPD3) =    -0.15768203957791D+03
          IDoAtm=1111111111111
          Differentiating once with respect to electric field.
                with respect to dipole field.
          Differentiating once with respect to nuclear coordinates.
 Keep R1 and R2 ints in memory in canonical form, NReq=967250981.
          There are     1 degrees of freedom in the 1st order CPHF.  IDoFFX=0 NUNeed=     1.
 LinEq1:  Iter=  0 NonCon=     1 RMS=5.43D-04 Max=1.50D-02 NDo=     1
 AX will form     1 AO Fock derivatives at one time.
 LinEq1:  Iter=  1 NonCon=     1 RMS=1.97D-04 Max=3.68D-03 NDo=     1
 LinEq1:  Iter=  2 NonCon=     1 RMS=7.16D-05 Max=2.07D-03 NDo=     1
 LinEq1:  Iter=  3 NonCon=     1 RMS=2.21D-05 Max=3.73D-04 NDo=     1
 LinEq1:  Iter=  4 NonCon=     1 RMS=1.08D-05 Max=1.35D-04 NDo=     1
 LinEq1:  Iter=  5 NonCon=     1 RMS=2.89D-06 Max=6.24D-05 NDo=     1
 LinEq1:  Iter=  6 NonCon=     1 RMS=1.05D-06 Max=1.72D-05 NDo=     1
 LinEq1:  Iter=  7 NonCon=     1 RMS=3.33D-07 Max=4.59D-06 NDo=     1
 LinEq1:  Iter=  8 NonCon=     1 RMS=1.39D-07 Max=1.80D-06 NDo=     1
 LinEq1:  Iter=  9 NonCon=     1 RMS=5.86D-08 Max=1.10D-06 NDo=     1
 LinEq1:  Iter= 10 NonCon=     1 RMS=1.59D-08 Max=2.06D-07 NDo=     1
 LinEq1:  Iter= 11 NonCon=     1 RMS=4.09D-09 Max=5.41D-08 NDo=     1
 LinEq1:  Iter= 12 NonCon=     1 RMS=2.08D-09 Max=3.37D-08 NDo=     1
 LinEq1:  Iter= 13 NonCon=     1 RMS=7.09D-10 Max=7.80D-09 NDo=     1
 LinEq1:  Iter= 14 NonCon=     1 RMS=2.19D-10 Max=3.07D-09 NDo=     1
 LinEq1:  Iter= 15 NonCon=     0 RMS=4.99D-11 Max=8.52D-10 NDo=     1
 Linear equations converged to 1.000D-10 1.000D-09 after    15 iterations.
 End of Minotr F.D. properties file   721 does not exist.
 End of Minotr F.D. properties file   722 does not exist.
 End of Minotr F.D. properties file   788 does not exist.
 Calling FoFJK, ICntrl=  10002127 FMM=F ISym2X=0 I1Cent= 0 IOpClX= 1 NMat=1 NMatS=1 NMatT=0.
 ***** Axes restored to original set *****
 -------------------------------------------------------------------
 Center     Atomic                   Forces (Hartrees/Bohr)
 Number     Number              X              Y              Z
 -------------------------------------------------------------------
      1        6          -0.005302536    0.001075007    0.000314806
      2        6           0.010980415   -0.004872874   -0.003250291
      3        1          -0.001228704   -0.001413091    0.001716296
      4        1          -0.000048802   -0.000267223    0.000095446
      5        1           0.001260401    0.000502483    0.000949659
      6        1           0.000734694    0.000507206   -0.000694353
      7        6          -0.018201430   -0.003713960    0.000792924
      8        6          -0.000122983    0.000293996    0.001804782
      9        1           0.006614135    0.004545735   -0.000888191
     10        1           0.006430803    0.004835395    0.000894731
     11        1           0.000183843    0.000284966   -0.000712407
     12        1          -0.001022729   -0.000473868   -0.000463617
     13        1          -0.000277106   -0.001303771   -0.000559784
 -------------------------------------------------------------------
 Cartesian Forces:  Max     0.018201430 RMS     0.004171991

 GradGradGradGradGradGradGradGradGradGradGradGradGradGradGradGradGradGrad
 Berny optimization.
 Using GEDIIS/GDIIS optimizer.
 FormGI is forming the generalized inverse of G from B-inverse, IUseBI=4.
 Internal  Forces:  Max     0.007039177 RMS     0.001942977
 Search for a local minimum.
 Step number   2 out of a maximum of  100
 All quantities printed in internal units (Hartrees-Bohrs-Radians)
 Mixed Optimization -- RFO/linear search
 Update second derivatives using D2CorX and points    1    2
 DE= -1.17D-02 DEPred=-1.28D-02 R= 9.18D-01
 TightC=F SS=  1.41D+00  RLast= 4.38D-01 DXNew= 5.0454D-01 1.3150D+00
 Trust test= 9.18D-01 RLast= 4.38D-01 DXMaxT set to 5.05D-01
 ITU=  1  0
 Use linear search instead of GDIIS.
     Eigenvalues ---    0.00580   0.00580   0.00580   0.02641   0.04096
     Eigenvalues ---    0.04939   0.05587   0.05592   0.05705   0.05736
     Eigenvalues ---    0.05846   0.15980   0.16000   0.16000   0.16000
     Eigenvalues ---    0.16000   0.16000   0.16000   0.16658   0.17406
     Eigenvalues ---    0.18399   0.26692   0.30890   0.30947   0.31091
     Eigenvalues ---    0.31618   0.31905   0.31912   0.31915   0.31926
     Eigenvalues ---    0.31927   0.31927   0.33300
 RFO step:  Lambda=-2.79332232D-03 EMin= 5.79854792D-03
 Quartic linear search produced a step of  0.34431.
 Iteration  1 RMS(Cart)=  0.04641702 RMS(Int)=  0.00624422
 Iteration  2 RMS(Cart)=  0.00402733 RMS(Int)=  0.00486016
 Iteration  3 RMS(Cart)=  0.00003645 RMS(Int)=  0.00486006
 Iteration  4 RMS(Cart)=  0.00000046 RMS(Int)=  0.00486006
 Variable       Old X    -DE/DX   Delta X   Delta X   Delta X     New X
                                 (Linear)    (Quad)   (Total)
    R1        2.89103   0.00338   0.01028   0.00340   0.01368   2.90470
    R2        2.06281  -0.00024  -0.01617   0.01687   0.00070   2.06350
    R3        2.06222  -0.00147  -0.01637   0.01187  -0.00450   2.05772
    R4        2.06413  -0.00106  -0.01585   0.01300  -0.00285   2.06128
    R5        2.07370  -0.00247  -0.01957   0.01081  -0.00876   2.06494
    R6        2.84952  -0.00704  -0.00398  -0.02637  -0.03035   2.81917
    R7        2.88900  -0.00098   0.00960  -0.01491  -0.00531   2.88368
    R8        2.06445  -0.00414  -0.01575  -0.00015  -0.01590   2.04855
    R9        2.06225  -0.00449  -0.01637  -0.00093  -0.01730   2.04495
   R10        2.06487  -0.00078  -0.01561   0.01392  -0.00169   2.06318
   R11        2.06038  -0.00102  -0.01701   0.01446  -0.00256   2.05782
   R12        2.06305  -0.00116  -0.01610   0.01286  -0.00324   2.05980
    A1        1.92796   0.00049   0.00059   0.00438   0.00497   1.93293
    A2        1.95267  -0.00106   0.00909  -0.01972  -0.01068   1.94200
    A3        1.93313  -0.00040   0.00129  -0.00512  -0.00387   1.92926
    A4        1.88371   0.00035  -0.00407   0.00815   0.00407   1.88778
    A5        1.88269   0.00004  -0.00346   0.00542   0.00197   1.88466
    A6        1.88125   0.00064  -0.00396   0.00811   0.00408   1.88533
    A7        1.88208  -0.00031  -0.00284  -0.00059  -0.00345   1.87863
    A8        1.90953   0.00172  -0.00727   0.01979   0.01241   1.92195
    A9        1.94267  -0.00142   0.00423  -0.01683  -0.01254   1.93012
   A10        1.89129  -0.00037   0.00029   0.00024   0.00047   1.89176
   A11        1.88669   0.00098  -0.00124   0.01081   0.00956   1.89625
   A12        1.94950  -0.00058   0.00659  -0.01281  -0.00615   1.94336
   A13        2.03786   0.00128   0.03737   0.02146   0.03874   2.07660
   A14        2.05431   0.00089   0.04404   0.01049   0.03447   2.08879
   A15        1.94907   0.00260   0.01940   0.08233   0.07950   2.02858
   A16        1.92814   0.00018  -0.00041   0.00219   0.00178   1.92992
   A17        1.94436  -0.00068   0.00623  -0.01244  -0.00627   1.93809
   A18        1.94538  -0.00100   0.00658  -0.01618  -0.00966   1.93572
   A19        1.88027   0.00031  -0.00432   0.00831   0.00400   1.88427
   A20        1.87985   0.00037  -0.00443   0.00770   0.00328   1.88313
   A21        1.88318   0.00090  -0.00425   0.01204   0.00767   1.89085
    D1       -1.05621   0.00007  -0.00286   0.00551   0.00265  -1.05356
    D2       -3.10977  -0.00026   0.00256  -0.00528  -0.00278  -3.11255
    D3        1.01044   0.00025  -0.00367   0.00861   0.00498   1.01542
    D4        1.04274   0.00014  -0.00163   0.00569   0.00405   1.04678
    D5       -1.01083  -0.00018   0.00379  -0.00510  -0.00138  -1.01221
    D6        3.10939   0.00032  -0.00243   0.00879   0.00638   3.11576
    D7       -3.14108  -0.00004   0.00024  -0.00079  -0.00052   3.14158
    D8        1.08853  -0.00036   0.00567  -0.01159  -0.00594   1.08259
    D9       -1.07443   0.00014  -0.00056   0.00231   0.00181  -1.07262
   D10       -1.23798  -0.00330  -0.05694  -0.09337  -0.15303  -1.39101
   D11        1.15403   0.00404   0.04569   0.09052   0.13903   1.29306
   D12        2.99742  -0.00367  -0.04954  -0.10379  -0.15612   2.84131
   D13       -0.89376   0.00367   0.05309   0.08010   0.13595  -0.75781
   D14        0.92097  -0.00429  -0.05210  -0.10958  -0.16450   0.75647
   D15       -2.97021   0.00305   0.05053   0.07431   0.12757  -2.84264
   D16        1.07291   0.00044   0.00030   0.00490   0.00526   1.07817
   D17       -3.12104   0.00051  -0.00134   0.00867   0.00736  -3.11368
   D18       -1.01647   0.00050   0.00183   0.00434   0.00627  -1.01020
   D19        3.13678  -0.00016  -0.00147   0.00109  -0.00039   3.13639
   D20       -1.05717  -0.00009  -0.00311   0.00486   0.00171  -1.05545
   D21        1.04741  -0.00010   0.00007   0.00053   0.00062   1.04803
   D22       -1.06722  -0.00034   0.00199   0.00065   0.00259  -1.06463
   D23        1.02202  -0.00027   0.00036   0.00442   0.00469   1.02671
   D24        3.12659  -0.00028   0.00353   0.00009   0.00360   3.13019
         Item               Value     Threshold  Converged?
 Maximum Force            0.007039     0.000450     NO 
 RMS     Force            0.001943     0.000300     NO 
 Maximum Displacement     0.202990     0.001800     NO 
 RMS     Displacement     0.045458     0.001200     NO 
 Predicted change in Energy=-2.226021D-03
 GradGradGradGradGradGradGradGradGradGradGradGradGradGradGradGradGradGrad

                          Input orientation:                          
 ---------------------------------------------------------------------
 Center     Atomic      Atomic             Coordinates (Angstroms)
 Number     Number       Type             X           Y           Z
 ---------------------------------------------------------------------
      1          6           0       -3.444112    0.687350   -0.005751
      2          6           0       -1.908202    0.626899   -0.002712
      3          1           0       -1.555515    1.123604   -0.909868
      4          1           0       -3.790487    1.722899   -0.011853
      5          1           0       -3.857401    0.186060   -0.879593
      6          1           0       -3.847946    0.202409    0.883944
      7          6           0       -1.450448   -0.792609   -0.035054
      8          6           0       -1.344533    1.364840    1.208210
      9          1           0       -1.453398   -1.366508    0.884611
     10          1           0       -1.528753   -1.360053   -0.953152
     11          1           0       -1.682658    0.896403    2.134619
     12          1           0       -0.255686    1.350714    1.202742
     13          1           0       -1.673968    2.403815    1.218604
 ---------------------------------------------------------------------
                    Distance matrix (angstroms):
                    1          2          3          4          5
     1  C    0.000000
     2  C    1.537102   0.000000
     3  H    2.138819   1.092720   0.000000
     4  H    1.091960   2.178141   2.482073   0.000000
     5  H    1.088898   2.182347   2.485676   1.766161   0.000000
     6  H    1.090782   2.174617   3.053130   1.765685   1.763638
     7  C    2.483110   1.491840   2.109078   3.435710   2.732117
     8  C    2.518120   1.525979   2.142186   2.756710   3.473176
     9  H    2.995667   2.228870   3.071033   3.976188   3.361862
    10  H    2.959396   2.235016   2.484178   3.937776   2.796154
    11  H    2.779858   2.166030   3.055600   3.119837   3.784121
    12  H    3.473696   2.169754   2.490834   3.756139   4.320288
    13  H    2.752945   2.168850   2.486637   2.541127   3.753431
                    6          7          8          9         10
     6  H    0.000000
     7  C    2.753655   0.000000
     8  C    2.779114   2.492290   0.000000
     9  H    2.862755   1.084045   2.752604   0.000000
    10  H    3.345873   1.082140   3.482882   1.839319   0.000000
    11  H    2.595051   2.759378   1.091786   2.595351   3.827481
    12  H    3.784781   2.748350   1.088952   2.986472   3.690099
    13  H    3.111971   3.440747   1.090001   3.791508   4.347909
                   11         12         13
    11  H    0.000000
    12  H    1.763814   0.000000
    13  H    1.763930   1.766577   0.000000
 Stoichiometry    C4H9(2)
 Framework group  C1[X(C4H9)]
 Deg. of freedom    33
 Full point group                 C1      NOp   1
 Largest Abelian subgroup         C1      NOp   1
 Largest concise Abelian subgroup C1      NOp   1
                         Standard orientation:                         
 ---------------------------------------------------------------------
 Center     Atomic      Atomic             Coordinates (Angstroms)
 Number     Number       Type             X           Y           Z
 ---------------------------------------------------------------------
      1          6           0        0.940963   -1.053455    0.127237
      2          6           0        0.008897    0.058048   -0.381191
      3          1           0        0.035815    0.038874   -1.473411
      4          1           0        0.607368   -2.030650   -0.227984
      5          1           0        1.963177   -0.898868   -0.214640
      6          1           0        0.949697   -1.076534    1.217739
      7          6           0        0.499921    1.389684    0.078403
      8          6           0       -1.425123   -0.193258    0.076019
      9          1           0        0.288015    1.705927    1.093410
     10          1           0        1.372638    1.828775   -0.386994
     11          1           0       -1.487201   -0.185947    1.166014
     12          1           0       -2.096945    0.575022   -0.303741
     13          1           0       -1.780511   -1.162715   -0.273201
 ---------------------------------------------------------------------
 Rotational constants (GHZ):           8.4407650           7.9272178           4.7616814
 Standard basis: CC-pVTZ (5D, 7F)
 There are   275 symmetry adapted cartesian basis functions of A   symmetry.
 There are   246 symmetry adapted basis functions of A   symmetry.
   246 basis functions,   361 primitive gaussians,   275 cartesian basis functions
    17 alpha electrons       16 beta electrons
       nuclear repulsion energy       126.9217225506 Hartrees.
 NAtoms=   13 NActive=   13 NUniq=   13 SFac= 1.00D+00 NAtFMM=   60 NAOKFM=F Big=F
 Integral buffers will be    131072 words long.
 Raffenetti 2 integral format.
 Two-electron integral symmetry is turned on.
 Nuclear repulsion after empirical dispersion term =      126.9152755433 Hartrees.
 One-electron integrals computed using PRISM.
 NBasis=   246 RedAO= T EigKep=  7.94D-04  NBF=   246
 NBsUse=   246 1.00D-06 EigRej= -1.00D+00 NBFU=   246
 Initial guess from the checkpoint file:  "/localscratch/339542/Gau-86234.chk"
 B after Tr=    -0.000000    0.000000    0.000000
         Rot=    0.998836   -0.000528    0.005005   -0.047966 Ang=  -5.53 deg.
 Initial guess <Sx>= 0.0000 <Sy>= 0.0000 <Sz>= 0.5000 <S**2>= 0.7553 S= 0.5026
 ExpMin= 1.03D-01 ExpMax= 8.24D+03 ExpMxC= 2.81D+02 IAcc=3 IRadAn=         5 AccDes= 0.00D+00
 Harris functional with IExCor=  419 and IRadAn=       5 diagonalized for initial guess.
 HarFok:  IExCor=  419 AccDes= 0.00D+00 IRadAn=         5 IDoV= 1 UseB2=F ITyADJ=14
 ICtDFT=  3500011 ScaDFX=  1.000000  1.000000  1.000000  1.000000
 FoFCou: FMM=F IPFlag=           0 FMFlag=      100000 FMFlg1=           0
         NFxFlg=           0 DoJE=T BraDBF=F KetDBF=T FulRan=T
         wScrn=  0.000000 ICntrl=       500 IOpCl=  0 I1Cent=   200000004 NGrid=           0
         NMat0=    1 NMatS0=      1 NMatT0=    0 NMatD0=    1 NMtDS0=    0 NMtDT0=    0
 Petite list used in FoFCou.
 Requested convergence on RMS density matrix=1.00D-08 within 128 cycles.
 Requested convergence on MAX density matrix=1.00D-06.
 Requested convergence on             energy=1.00D-06.
 No special actions if energy rises.
 Integral accuracy reduced to 1.0D-05 until final iterations.
 Initial convergence to 1.0D-05 achieved.  Increase integral accuracy.
 SCF Done:  E(UB2PLYPD3) =  -157.463021567     A.U. after   12 cycles
            NFock= 12  Conv=0.78D-08     -V/T= 2.0046
 <Sx>= 0.0000 <Sy>= 0.0000 <Sz>= 0.5000 <S**2>= 0.7560 S= 0.5030
 <L.S>=  0.00000000000    
 Annihilation of the first spin contaminant:
 S**2 before annihilation     0.7560,   after     0.7500
 DoSCS=T DFT=T ScalE2(SS,OS)=  0.270000  0.270000
 ExpMin= 1.03D-01 ExpMax= 8.24D+03 ExpMxC= 2.81D+02 IAcc=3 IRadAn=         5 AccDes= 0.00D+00
 HarFok:  IExCor=  205 AccDes= 0.00D+00 IRadAn=         5 IDoV=-2 UseB2=F ITyADJ=14
 ICtDFT= 12500011 ScaDFX=  1.000000  1.000000  1.000000  1.000000
 Range of M.O.s used for correlation:     5   246
 NBasis=   246 NAE=    17 NBE=    16 NFC=     4 NFV=     0
 NROrb=    242 NOA=    13 NOB=    12 NVA=   229 NVB=   230

 **** Warning!!: The largest alpha MO coefficient is  0.12291378D+02


 **** Warning!!: The largest beta MO coefficient is  0.12137126D+02

 DoSCS=T DFT=T ScalE2(SS,OS)=  0.270000  0.270000
 Fully direct method using O(ONN) memory.
 JobTyp=2 Pass  1:  I=   5 to  17 NPSUse= 40 ParTrn=T ParDer=T DoDerP=T.
 JobTyp=3 Pass  1:  I=   5 to  16 NPSUse= 40 ParTrn=T ParDer=T DoDerP=T.
 Spin components of T(2) and E(2):
     alpha-alpha T2 =       0.4152424621D-01 E2=     -0.2681973741D-01
     alpha-beta  T2 =       0.2410711261D+00 E2=     -0.1724786755D+00
     beta-beta   T2 =       0.3476111810D-01 E2=     -0.2224002378D-01
 (S**2,0)=  0.75596D+00           (S**2,1)=  0.74756D+00
 Scaling Projection term by:   0.270000
 E(PUHF)=      -0.15746529759D+03        E(PMP2)=      -0.15768474256D+03
 E2(B2PLYPD3) =    -0.2215384367D+00 E(B2PLYPD3) =    -0.15768456000377D+03
          IDoAtm=1111111111111
          Differentiating once with respect to electric field.
                with respect to dipole field.
          Differentiating once with respect to nuclear coordinates.
 Keep R1 and R2 ints in memory in canonical form, NReq=967250981.
          There are     1 degrees of freedom in the 1st order CPHF.  IDoFFX=0 NUNeed=     1.
 LinEq1:  Iter=  0 NonCon=     1 RMS=5.41D-04 Max=1.38D-02 NDo=     1
 AX will form     1 AO Fock derivatives at one time.
 LinEq1:  Iter=  1 NonCon=     1 RMS=1.95D-04 Max=3.62D-03 NDo=     1
 LinEq1:  Iter=  2 NonCon=     1 RMS=7.23D-05 Max=2.05D-03 NDo=     1
 LinEq1:  Iter=  3 NonCon=     1 RMS=2.14D-05 Max=3.43D-04 NDo=     1
 LinEq1:  Iter=  4 NonCon=     1 RMS=1.05D-05 Max=1.31D-04 NDo=     1
 LinEq1:  Iter=  5 NonCon=     1 RMS=2.83D-06 Max=6.14D-05 NDo=     1
 LinEq1:  Iter=  6 NonCon=     1 RMS=1.04D-06 Max=1.57D-05 NDo=     1
 LinEq1:  Iter=  7 NonCon=     1 RMS=3.25D-07 Max=4.09D-06 NDo=     1
[...]
 ! R10   R(8,11)                 1.0903         -DE/DX =    0.0                 !
 ! R11   R(8,12)                 1.0896         -DE/DX =    0.0                 !
 ! R12   R(8,13)                 1.0896         -DE/DX =    0.0                 !
 ! A1    A(2,1,4)              110.9613         -DE/DX =    0.0                 !
 ! A2    A(2,1,5)              111.1574         -DE/DX =    0.0                 !
 ! A3    A(2,1,6)              110.4505         -DE/DX =    0.0                 !
 ! A4    A(4,1,5)              108.069          -DE/DX =    0.0                 !
 ! A5    A(4,1,6)              108.1237         -DE/DX =    0.0                 !
 ! A6    A(5,1,6)              107.9602         -DE/DX =    0.0                 !
 ! A7    A(1,2,3)              107.0789         -DE/DX =    0.0                 !
 ! A8    A(1,2,7)              111.5422         -DE/DX =    0.0                 !
 ! A9    A(1,2,8)              111.228          -DE/DX =    0.0                 !
 ! A10   A(3,2,7)              108.113          -DE/DX =    0.0                 !
 ! A11   A(3,2,8)              107.0789         -DE/DX =    0.0                 !
 ! A12   A(7,2,8)              111.5422         -DE/DX =    0.0                 !
 ! A13   A(2,7,9)              120.7165         -DE/DX =    0.0                 !
 ! A14   A(2,7,10)             120.7164         -DE/DX =    0.0                 !
 ! A15   A(9,7,10)             117.9205         -DE/DX =    0.0                 !
 ! A16   A(2,8,11)             110.4505         -DE/DX =    0.0                 !
 ! A17   A(2,8,12)             111.1574         -DE/DX =    0.0                 !
 ! A18   A(2,8,13)             110.9613         -DE/DX =    0.0                 !
 ! A19   A(11,8,12)            107.9602         -DE/DX =    0.0                 !
 ! A20   A(11,8,13)            108.1237         -DE/DX =    0.0                 !
 ! A21   A(12,8,13)            108.069          -DE/DX =    0.0                 !
 ! D1    D(4,1,2,3)            -58.2955         -DE/DX =    0.0                 !
 ! D2    D(4,1,2,7)           -176.3911         -DE/DX =    0.0                 !
 ! D3    D(4,1,2,8)             58.3804         -DE/DX =    0.0                 !
 ! D4    D(5,1,2,3)             61.9969         -DE/DX =    0.0                 !
 ! D5    D(5,1,2,7)            -56.0988         -DE/DX =    0.0                 !
 ! D6    D(5,1,2,8)            178.6728         -DE/DX =    0.0                 !
 ! D7    D(6,1,2,3)           -178.188          -DE/DX =    0.0                 !
 ! D8    D(6,1,2,7)             63.7164         -DE/DX =    0.0                 !
 ! D9    D(6,1,2,8)            -61.5121         -DE/DX =    0.0                 !
 ! D10   D(1,2,7,9)           -157.2301         -DE/DX =    0.0                 !
 ! D11   D(1,2,7,10)            32.1781         -DE/DX =    0.0                 !
 ! D12   D(3,2,7,9)             85.2968         -DE/DX =    0.0                 !
 ! D13   D(3,2,7,10)           -85.2951         -DE/DX =    0.0                 !
 ! D14   D(8,2,7,9)            -32.1764         -DE/DX =    0.0                 !
 ! D15   D(8,2,7,10)           157.2317         -DE/DX =    0.0                 !
 ! D16   D(1,2,8,11)            61.5122         -DE/DX =    0.0                 !
 ! D17   D(1,2,8,12)          -178.6727         -DE/DX =    0.0                 !
 ! D18   D(1,2,8,13)           -58.3803         -DE/DX =    0.0                 !
 ! D19   D(3,2,8,11)           178.1881         -DE/DX =    0.0                 !
 ! D20   D(3,2,8,12)           -61.9968         -DE/DX =    0.0                 !
 ! D21   D(3,2,8,13)            58.2956         -DE/DX =    0.0                 !
 ! D22   D(7,2,8,11)           -63.7162         -DE/DX =    0.0                 !
 ! D23   D(7,2,8,12)            56.0989         -DE/DX =    0.0                 !
 ! D24   D(7,2,8,13)           176.3913         -DE/DX =    0.0                 !
 --------------------------------------------------------------------------------
 GradGradGradGradGradGradGradGradGradGradGradGradGradGradGradGradGradGrad


 ----------------------------------------------------------------------

 Electric dipole moment (input orientation):
 (Debye = 10**-18 statcoulomb cm , SI units = C m)
                  (au)            (Debye)         (10**-30 SI)
   Tot        0.113611D+00      0.288769D+00      0.963231D+00
   x          0.135871D-01      0.345350D-01      0.115196D+00
   y          0.945504D-01      0.240323D+00      0.801631D+00
   z         -0.615061D-01     -0.156333D+00     -0.521470D+00

 Dipole polarizability, Alpha (input orientation).
 (esu units = cm**3 , SI units = C**2 m**2 J**-1)
 Alpha(0;0):
               (au)            (10**-24 esu)      (10**-40 SI)
   iso        0.488689D+02      0.724162D+01      0.805739D+01
   aniso      0.919279D+01      0.136223D+01      0.151569D+01
   xx         0.500362D+02      0.741460D+01      0.824986D+01
   yx        -0.159812D+01     -0.236817D+00     -0.263494D+00
   yy         0.509071D+02      0.754365D+01      0.839345D+01
   zx         0.317950D+01      0.471154D+00      0.524230D+00
   zy         0.275855D+01      0.408775D+00      0.454824D+00
   zz         0.456633D+02      0.676661D+01      0.752887D+01

 ----------------------------------------------------------------------

 Dipole orientation:
     6         -6.58048219         -1.06584996          0.44943069
     6         -3.69185639         -0.91517467          0.47044028
     1         -3.14013353         -0.01227540          2.26146339
     1         -7.27436254         -2.13023472          2.06975854
     1         -7.42305380          0.81192469          0.51052630
     1         -7.24008301         -2.00281079         -1.26303183
     6         -2.72488757          0.66996447         -1.64212761
     6         -2.50526175         -3.55321941          0.44820242
     1         -0.81791633          0.43896918         -2.32986837
     1         -3.80385755          2.25844039         -2.33163809
     1         -3.03809301         -4.56779784         -1.26415740
     1         -0.44996656         -3.44418422          0.50807436
     1         -3.13375549         -4.65724685          2.06869954

 Electric dipole moment (dipole orientation):
 (Debye = 10**-18 statcoulomb cm , SI units = C m)
                  (au)            (Debye)         (10**-30 SI)
   Tot        0.113611D+00      0.288769D+00      0.963231D+00
   x          0.000000D+00      0.000000D+00      0.000000D+00
   y          0.000000D+00      0.000000D+00      0.000000D+00
   z          0.113611D+00      0.288769D+00      0.963231D+00

 Dipole polarizability, Alpha (dipole orientation).
 (esu units = cm**3 , SI units = C**2 m**2 J**-1)
 Alpha(0;0):
               (au)            (10**-24 esu)      (10**-40 SI)
   iso        0.488689D+02      0.724162D+01      0.805739D+01
   aniso      0.919279D+01      0.136223D+01      0.151569D+01
   xx         0.508926D+02      0.754151D+01      0.839106D+01
   yx        -0.128569D+01     -0.190520D+00     -0.211982D+00
   yy         0.495718D+02      0.734579D+01      0.817329D+01
   zx        -0.235787D+01     -0.349400D+00     -0.388760D+00
   zy        -0.386579D+01     -0.572851D+00     -0.637382D+00
   zz         0.461422D+02      0.683757D+01      0.760782D+01

 ----------------------------------------------------------------------
 1\1\GINC-N68\Freq\UB2PLYPD3-FC\CC-pVTZ\C4H9(2)\ROOT\01-Jun-2019\0\\#N 
 Geom=AllCheck Guess=TCheck SCRF=Check GenChk UB2PLYPD3(FC)/CC-pVTZ Fre
 q\\Title Card Required\\0,2\C,-3.4579062515,0.7333660885,-0.0758109019
 \C,-1.937017187,0.600008341,0.0346235644\H,-1.5035678245,1.1068193127,
 -0.8411941232\H,-3.7555102352,1.7808205969,-0.1151688958\H,-3.83160852
 41,0.2418905887,-0.9736051923\H,-3.9441045328,0.2747645718,0.785673890
 7\C,-1.5095998213,-0.825303916,0.0029439646\C,-1.406474321,1.318379704
 6,1.2778790859\H,-0.5612556302,-1.1260341309,0.4223856093\H,-2.0646263
 66,-1.5549671103,-0.5673680157\H,-1.8288572166,0.878109014,2.181539869
 4\H,-0.321436294,1.2427454736,1.3427799122\H,-1.6711421459,2.375226145
 5,1.2600692324\\Version=ES64L-G16RevB.01\State=2-A\HF=-157.4639868\MP2
 =-157.6855316\PUHF=-157.4664267\PMP2-0=-157.6857293\S2=0.756483\S2-1=0
 .747386\S2A=0.750027\RMSD=1.027e-09\RMSF=8.660e-06\ZeroPoint=0.1171787
 \Thermal=0.123212\Dipole=0.0135871,0.0945504,-0.0615061\DipoleDeriv=0.
 018349,-0.0081054,-0.0135673,0.01813,0.0889691,-0.0189837,-0.0303814,-
 0.0258831,0.1008908,0.1226308,-0.0041306,-0.0344852,0.0134012,0.081196
 4,-0.0128336,-0.0420681,0.0135851,0.1566105,-0.0244579,-0.0254846,0.05
 86439,-0.0243629,-0.0624109,0.0669286,0.058148,0.0686542,-0.1107585,0.
 0052095,0.0375885,-0.0023076,0.0909854,-0.1507453,0.0105039,-0.0001726
 ,0.0019925,0.064014,-0.0059616,-0.0242856,-0.0499506,-0.0517951,0.0158
 495,-0.0934307,-0.0871065,-0.080083,-0.0904178,-0.005708,-0.0095058,0.
 0300592,-0.0505323,0.0251374,0.0737153,0.0958728,0.0651965,-0.0750885,
 -0.0264308,-0.0190963,0.1829312,-0.0378715,0.0524676,0.0732132,0.19106
 32,0.0447997,-0.2211199,0.065159,0.0063499,-0.0424075,-0.0067046,0.082
 2413,-0.052378,-0.0313081,-0.0253922,0.0608752,-0.0628977,0.0707831,-0
 .0753809,0.0392203,0.0045687,-0.0205525,-0.0905892,0.0032914,0.0839053
 ,0.0190398,-0.0458075,-0.083909,-0.0077628,-0.0487282,-0.0693518,-0.07
 14809,-0.0834063,0.0553918,0.0192737,-0.0397855,0.082104,-0.0460778,0.
 0157419,0.0867586,0.036721,0.0235957,-0.0906754,-0.1706966,-0.004897,-
 0.0470469,0.0276449,0.0574046,-0.0091973,-0.0120732,-0.0148998,0.03275
 74,0.0464909,0.0663768,-0.0046833,0.0357251,-0.1616922,-0.034392,-0.01
 6625,0.0085493,0.0336153\Polar=50.036226,-1.5981185,50.9070919,3.17950
 48,2.7585521,45.6633281\PG=C01 [X(C4H9)]\NImag=0\\0.46398846,0.0080662
 7,0.57922012,-0.00454365,0.00418395,0.57498646,-0.18097300,0.00932588,
 -0.00287328,0.47707115,0.00502177,-0.07622691,-0.00286281,0.00170824,0
 .49428337,-0.00456384,-0.00429462,-0.07737177,-0.01277371,-0.01355076,
 0.49413301,-0.01957895,-0.01562042,0.02747933,-0.07820046,-0.03789693,
 0.07089625,0.09318736,0.00123062,0.00199205,-0.00177122,-0.04732534,-0
 .09068409,0.09267656,0.04616886,0.10734850,-0.00141119,-0.00035264,0.0
 0114163,0.07497253,0.07838988,-0.18968557,-0.07916453,-0.09296635,0.21
 424057,-0.06475293,0.06458262,-0.00240852,-0.00922676,0.03308145,-0.00
 082101,0.00171740,-0.00035568,0.00043665,0.07195439,0.06653185,-0.2941
 8760,0.00938536,-0.00103026,-0.00201617,-0.00036250,0.00040558,0.00050
 601,-0.00028763,-0.07343307,0.31920490,-0.00232448,0.00946258,-0.04879
 773,-0.00055418,0.00127153,-0.00121526,0.00012695,-0.00046164,-0.00008
 219,0.00295955,-0.01003788,0.04751243,-0.07528083,-0.03871916,-0.07101
 660,-0.01088705,-0.01522257,-0.02895702,0.00141352,-0.00034367,0.00038
 996,0.00225641,0.00337907,0.00797452,0.08375500,-0.03974893,-0.1025722
 9,-0.09957116,0.00125721,-0.00015191,0.00316772,-0.00038606,-0.0002004
 9,-0.00003363,-0.01087038,-0.01331115,-0.02670689,0.04323804,0.1076443
 9,-0.07242734,-0.09913694,-0.22939310,0.00079352,-0.00004181,-0.001500
 77,-0.00045790,0.00009337,0.00067523,0.00144884,0.00131386,0.00177534,
 0.08004483,0.10983223,0.24708866,-0.09510992,-0.04789016,0.08959050,-0
 .01714755,-0.01375673,0.02706513,-0.00694197,0.00089889,-0.00051514,0.
 00339622,0.00323056,-0.00779224,0.00456622,0.00567707,-0.00881867,0.10
 712932,-0.04843842,-0.09573932,0.08870316,0.00169686,0.00087435,-0.002
 99080,0.00061632,0.00072933,-0.00022363,-0.01419728,-0.01234643,0.0256
 5821,0.00768983,0.00659632,-0.01252550,0.05298444,0.09931135,0.0905137
 1,0.08837305,-0.21438208,-0.00126700,-0.00137855,0.00130541,-0.0006712
 5,-0.00043283,0.00120982,-0.00068707,-0.00044184,-0.00027941,0.0117843
 4,0.01229704,-0.02068402,-0.09973846,-0.09793086,0.23084062,-0.0158632
 7,0.03649281,-0.00183924,-0.08738625,0.04014114,-0.01604429,0.00452040
 ,-0.00614421,-0.00257828,-0.00663757,0.00119522,-0.00036684,0.00132849
 ,0.00047903,0.00031912,0.00193174,0.00031751,-0.00017314,0.49386444,0.
 00993058,-0.00825218,0.00276234,0.04328111,-0.21086995,-0.01181022,0.0
 0380179,-0.02563283,0.00576555,-0.00070427,0.00064729,-0.00019653,-0.0
 0176714,0.00074558,-0.00052100,-0.00179267,0.00080942,-0.00012330,-0.0
 3287251,0.52737364,-0.00204599,0.00549005,-0.00016170,-0.01738980,-0.0
 0709734,-0.05698873,-0.00687372,0.02083129,0.00248347,-0.00192461,0.00
 000159,0.00071783,-0.00002429,0.00088144,0.00018668,-0.00018280,-0.000
 50694,0.00046331,0.24325364,0.10079617,0.23148069,-0.01716838,-0.01689
 554,-0.03141668,-0.09040424,-0.01235967,-0.02662386,0.00396658,0.00489
 274,0.00999189,0.00158951,-0.00061820,-0.00001872,-0.00703482,0.000284
 92,-0.00108627,0.00169840,-0.00020797,-0.00038091,0.00428890,0.0007631
 7,0.00621167,0.56646181,-0.00169733,0.00095341,0.00116826,-0.01338091,
 -0.09499432,-0.04262484,0.00366333,0.00662329,0.01119543,0.00120938,0.
 00033169,0.00088884,0.00164937,0.00019353,0.00038659,-0.00002948,-0.00
 030208,-0.00038686,-0.01296118,-0.02661577,-0.02855732,-0.02058234,0.5
 5450981,-0.00568027,-0.00152156,-0.00387525,-0.02975291,-0.03902598,-0
 .14907013,-0.01108720,-0.01478120,-0.02704322,0.00082714,0.00001553,0.
 00011817,0.00107716,0.00041042,0.00111510,0.00157301,0.00026710,0.0013
 4290,0.00047194,-0.00642221,-0.00195195,-0.02971381,-0.04120941,0.4971
 3128,0.00022178,0.00205336,-0.00049892,-0.00238461,-0.00189203,-0.0021
 8268,-0.00079310,0.00044222,0.00004596,-0.00045091,0.00023569,0.000058
 94,0.00023980,-0.00015162,0.00013707,0.00010091,-0.00011649,-0.0000056
 3,-0.27206766,0.07444730,-0.12150716,0.00033481,-0.00091769,-0.0004833
 7,0.28188016,-0.00040009,-0.00554567,-0.00002855,0.02470297,-0.0010362
 7,0.00926018,-0.00039660,-0.00053776,0.00058665,0.00190679,0.00007951,
 0.00009019,0.00003939,0.00007061,0.00030621,0.00001735,0.00008474,-0.0
 0019195,0.07205258,-0.07581692,0.02154369,0.00095085,0.00197988,0.0009
 8523,-0.08068141,0.07283034,0.00135373,0.00002027,0.00042943,-0.001612
 21,-0.00275624,0.00206273,0.00090789,-0.00050903,-0.00002727,0.0000722
 8,-0.00019082,0.00029685,0.00023582,-0.00001430,0.00011862,-0.00004883
 ,0.00001479,-0.00000085,-0.11677923,0.02238816,-0.06745682,0.00113696,
 0.00014146,0.00093152,0.12688700,-0.02441360,0.06540869,0.00157115,0.0
 0028975,0.00096831,0.00499650,0.00685815,0.00339545,0.00011650,0.00064
 921,0.00012259,0.00003938,-0.00018176,0.00001732,0.00025401,-0.0000063
 9,-0.00021782,-0.00009833,-0.00011740,0.00018253,-0.12390667,-0.096182
 29,-0.09847525,-0.00000605,0.00172465,0.00051968,-0.00752185,-0.017105
 46,-0.01238127,0.12385895,-0.00164647,0.00148425,-0.00054575,-0.015096
 45,-0.01049223,-0.01673623,-0.00015981,-0.00049486,0.00059077,-0.00006
 518,0.00033301,0.00028612,0.00086886,0.00002670,0.00065057,0.00031651,
 -0.00004019,-0.00011559,-0.09559587,-0.18439438,-0.11008847,0.00234880
 ,-0.00483203,0.00212094,0.00616813,0.00801669,0.00502528,0.10352044,0.
 19080434,-0.00062282,0.00020193,0.00019063,0.00081987,0.00230682,0.004
 15870,-0.00002675,-0.00080705,-0.00099690,0.00025252,0.00021424,-0.000
 05551,0.00015507,-0.00010018,0.00010641,0.00024332,-0.00012576,-0.0002
 6673,-0.10241767,-0.11367849,-0.10703615,-0.00054669,-0.00069537,-0.00
 006204,-0.00331735,-0.00771073,-0.00174493,0.10529325,0.12038033,0.105
 45306,0.00140933,0.00089875,-0.00075324,0.00365016,0.00460101,-0.01013
 833,-0.00004771,-0.00092897,-0.00252820,-0.00005800,0.00005299,-0.0000
 1022,0.00009835,0.00001822,0.00024221,0.00010542,-0.00030759,0.0003354
 1,0.00017879,0.00059293,0.00034871,-0.08920309,-0.04244902,0.08578146,
 -0.00015452,-0.00000626,0.00015454,-0.00006297,0.00010644,-0.00004187,
 0.09303046,0.00089061,0.00030007,0.00038311,0.00645679,0.00577201,-0.0
 1437152,-0.00095146,-0.00079956,-0.00312975,-0.00011020,-0.00006975,0.
 00010480,0.00023645,-0.00003614,0.00000289,0.00001344,0.00009409,0.000
 41118,0.00002612,0.00154904,-0.00021839,-0.04273310,-0.09302241,0.0902
 4597,0.00020277,-0.00003604,0.00007012,-0.00002715,0.00014924,0.000106
 36,0.04818177,0.09769793,0.00128125,0.00075416,0.00103105,0.01071676,0
 .01023437,-0.02439151,-0.00223906,-0.00338311,-0.00415577,-0.00010094,
 -0.00001572,-0.00004672,-0.00000654,-0.00023428,0.00053403,-0.00105939
 ,-0.00019855,0.00032720,-0.00032669,0.00173645,0.00147766,0.08521755,0
 .08931789,-0.22301510,0.00031151,-0.00027936,-0.00021549,0.00003072,-0
 .00009177,0.00009736,-0.09251817,-0.09635937,0.24656231,0.00064797,-0.
 00162765,-0.00307246,-0.01072015,0.00122938,0.00074364,0.00053981,0.00
 023054,-0.00040418,0.00024371,0.00001629,0.00016847,-0.00084020,0.0000
 5067,-0.00012596,0.00042918,0.00012915,0.00007318,0.00042730,0.0011089
 5,0.00037737,-0.30998842,0.01972804,-0.01219216,0.00037674,-0.00077720
 ,0.00006958,0.00030941,-0.00017760,0.00012316,-0.01191919,0.00140816,-
 0.00093977,0.33739138,-0.00053158,-0.00159869,-0.00275778,-0.01596190,
 -0.00038353,0.00024285,0.00056977,0.00030693,0.00053489,-0.00025070,0.
 00033821,-0.00011754,-0.00101046,0.00054635,-0.00031720,0.00036671,0.0
 0000589,-0.00004384,-0.00115441,0.00117298,0.00008974,0.02089431,-0.04
 954968,0.00137390,0.00034152,-0.00035323,0.00008099,0.00020736,0.00010
 545,0.00017641,-0.01421944,0.00047115,-0.00136220,-0.02153532,0.050104
 53,-0.00079336,-0.00313779,-0.00477506,-0.02869425,0.00237699,-0.00143
 468,0.00031532,0.00085712,0.00104143,0.00035304,0.00002968,-0.00003859
 ,-0.00195961,-0.00013999,0.00001397,-0.00018418,-0.00025176,0.00016110
 ,0.00003954,0.00146718,0.00065953,-0.01084341,0.00114735,-0.04770505,0
 .00033884,-0.00030087,0.00036394,0.00013808,0.00014966,0.00001434,0.02
 728792,-0.00327733,0.00192661,0.01516805,0.00087441,0.05098766,0.00088
 860,-0.00095651,0.00038443,0.00161227,-0.01151322,0.00000430,0.0001006
 3,0.00058478,0.00064194,-0.00007087,0.00021604,-0.00023908,0.00013110,
 0.00015824,0.00014837,-0.00005964,-0.00004895,0.00003430,-0.00067862,-
 0.00060695,-0.00176776,-0.06453502,0.06404319,-0.00134068,0.00021846,-
 0.00030292,0.00000374,0.00044999,-0.00058779,0.00008598,0.00297298,-0.
 01359420,-0.00036724,-0.00689755,0.03228415,-0.00116598,0.06586768,0.0
 0079112,0.00017276,0.00095110,0.00436581,-0.01407433,0.00139417,0.0001
 8564,0.00084347,-0.00006954,-0.00079348,0.00049048,-0.00024178,-0.0000
 3801,0.00044850,-0.00004327,-0.00003593,-0.00007745,-0.00003566,-0.001
 97623,-0.00071591,-0.00316552,0.06326202,-0.29527532,0.00754127,-0.000
 13175,0.00026413,0.00014293,0.00037091,-0.00066599,-0.00026851,0.00345
 918,-0.01206964,-0.00011849,0.00021658,-0.00116634,0.00020534,-0.06967
 586,0.32182564,0.00126424,-0.00004245,0.00097748,0.00761466,-0.0278661
 0,-0.00000142,0.00079465,0.00065408,0.00119877,-0.00040786,0.00037614,
 0.00009480,0.00030236,0.00021158,-0.00003617,-0.00013226,0.00011054,-0
 .00003727,-0.00355886,-0.00216410,-0.00387382,-0.00192770,0.00922798,-
 0.04791623,0.00021580,0.00015291,-0.00016642,0.00040642,-0.00162585,0.
 00014175,-0.00816023,0.02603192,-0.00013163,0.00001109,0.00122538,-0.0
 0121519,0.00357769,-0.00629204,0.05096534\\-0.00000380,0.00000602,-0.0
 0000141,-0.00000801,-0.00000583,-0.00000117,0.00000294,-0.00000307,-0.
 00000206,0.00000049,0.00000319,0.00000123,-0.00000074,-0.00000110,-0.0
 0000568,-0.00000281,-0.00000456,0.00000481,0.00002092,-0.00002200,-0.0
 0002505,0.00000449,0.00000884,0.00000890,0.00000319,0.00001295,0.00001
 540,-0.00001881,0.00000473,0.00000316,-0.00000228,-0.00000474,0.000002
 39,0.00000752,0.00000066,0.00000019,-0.00000310,0.00000491,-0.00000071
 \\\@


 ALL OUR THINKING ABOUT NATURE MUST NECESSARILY MOVE IN CIRCLES OR SPIRALS;
 FOR WE CAN ONLY UNDERSTAND NATURE IF WE THINK ABOUT HER, AND WE CAN ONLY
 THINK BECAUSE OUR BRAIN IS BUILT IN ACCORDANCE WITH NATURE'S LAWS.

                                             -- TIMOTHY FERRIS, "GALAXIES"
 Job cpu time:       0 days 13 hours  1 minutes 16.5 seconds.
 Elapsed time:       0 days  0 hours 19 minutes 59.9 seconds.
 File lengths (MBytes):  RWF=  20900 Int=      0 D2E=      0 Chk=     11 Scr=      1
 Normal termination of Gaussian 16 at Sat Jun  1 02:52:22 2019.
