 Entering Gaussian System, Link 0=g16
 Initial command:
 /ichec/packages/gaussian/16b01/l1.exe "/localscratch/339543/Gau-81961.inp" -scrdir="/localscratch/339543/"
 Entering Link 1 = /ichec/packages/gaussian/16b01/l1.exe PID=     81996.
  
 Copyright (c) 1988-2017, Gaussian, Inc.  All Rights Reserved.
  
 This is part of the Gaussian(R) 16 program.  It is based on
 the Gaussian(R) 09 system (copyright 2009, Gaussian, Inc.),
 the Gaussian(R) 03 system (copyright 2003, Gaussian, Inc.),
 the Gaussian(R) 98 system (copyright 1998, Gaussian, Inc.),
 the Gaussian(R) 94 system (copyright 1995, Gaussian, Inc.),
 the Gaussian 92(TM) system (copyright 1992, Gaussian, Inc.),
 the Gaussian 90(TM) system (copyright 1990, Gaussian, Inc.),
 the Gaussian 88(TM) system (copyright 1988, Gaussian, Inc.),
 the Gaussian 86(TM) system (copyright 1986, Carnegie Mellon
 University), and the Gaussian 82(TM) system (copyright 1983,
 Carnegie Mellon University). Gaussian is a federally registered
 trademark of Gaussian, Inc.
  
 This software contains proprietary and confidential information,
 including trade secrets, belonging to Gaussian, Inc.
  
 This software is provided under written license and may be
 used, copied, transmitted, or stored only in accord with that
 written license.
  
 The following legend is applicable only to US Government
 contracts under FAR:
  
                    RESTRICTED RIGHTS LEGEND
  
 Use, reproduction and disclosure by the US Government is
 subject to restrictions as set forth in subparagraphs (a)
 and (c) of the Commercial Computer Software - Restricted
 Rights clause in FAR 52.227-19.
  
 Gaussian, Inc.
 340 Quinnipiac St., Bldg. 40, Wallingford CT 06492
  
  
 ---------------------------------------------------------------
 Warning -- This program may not be used in any manner that
 competes with the business of Gaussian, Inc. or will provide
 assistance to any competitor of Gaussian, Inc.  The licensee
 of this program is prohibited from giving any competitor of
 Gaussian, Inc. access to this program.  By using this program,
 the user acknowledges that Gaussian, Inc. is engaged in the
 business of creating and licensing software in the field of
 computational chemistry and represents and warrants to the
 licensee that it is not a competitor of Gaussian, Inc. and that
 it will not use this program in any manner prohibited above.
 ---------------------------------------------------------------
  

 Cite this work as:
 Gaussian 16, Revision B.01,
 M. J. Frisch, G. W. Trucks, H. B. Schlegel, G. E. Scuseria, 
 M. A. Robb, J. R. Cheeseman, G. Scalmani, V. Barone, 
 G. A. Petersson, H. Nakatsuji, X. Li, M. Caricato, A. V. Marenich, 
 J. Bloino, B. G. Janesko, R. Gomperts, B. Mennucci, H. P. Hratchian, 
 J. V. Ortiz, A. F. Izmaylov, J. L. Sonnenberg, D. Williams-Young, 
 F. Ding, F. Lipparini, F. Egidi, J. Goings, B. Peng, A. Petrone, 
 T. Henderson, D. Ranasinghe, V. G. Zakrzewski, J. Gao, N. Rega, 
 G. Zheng, W. Liang, M. Hada, M. Ehara, K. Toyota, R. Fukuda, 
 J. Hasegawa, M. Ishida, T. Nakajima, Y. Honda, O. Kitao, H. Nakai, 
 T. Vreven, K. Throssell, J. A. Montgomery, Jr., J. E. Peralta, 
 F. Ogliaro, M. J. Bearpark, J. J. Heyd, E. N. Brothers, K. N. Kudin, 
 V. N. Staroverov, T. A. Keith, R. Kobayashi, J. Normand, 
 K. Raghavachari, A. P. Rendell, J. C. Burant, S. S. Iyengar, 
 J. Tomasi, M. Cossi, J. M. Millam, M. Klene, C. Adamo, R. Cammi, 
 J. W. Ochterski, R. L. Martin, K. Morokuma, O. Farkas, 
 J. B. Foresman, and D. J. Fox, Gaussian, Inc., Wallingford CT, 2016.
 
 ******************************************
 Gaussian 16:  ES64L-G16RevB.01 20-Dec-2017
                 1-Jun-2019 
 ******************************************
 %mem=80GB
 %nproc=40
 Will use up to   40 processors via shared memory.
 ----------------------------------------------------------------------
 # opt=(maxcyc=500,modredundant) uB2PLYPD3/cc-pvtz scf=maxcyc=500 nosym
 m
 ----------------------------------------------------------------------
 1/6=500,18=120,19=15,38=1/1,3;
 2/9=110,12=2,15=1,17=6,18=5,40=1/2;
 3/5=16,6=1,11=2,25=1,30=1,71=1,74=-60,116=2/1,2,3;
 4//1;
 5/5=2,7=500,38=5/2;
 8/6=4,10=1/1;
 9/15=2,16=-3/6;
 10/5=1,31=1/2;
 6/7=2,8=2,9=2,10=2/1;
 7/12=2,30=1/1,2,3,16;
 1/6=500,18=20,19=15/3(2);
 2/9=110,15=1/2;
 99//99;
 2/9=110,15=1/2;
 3/5=16,6=1,11=2,25=1,30=1,71=1,74=-60,116=2/1,2,3;
 4/5=5,16=3,69=1/1;
 5/5=2,7=500,38=5/2;
 8/6=4,10=1/1;
 9/15=2,16=-3/6;
 10/5=1,31=1/2;
 7/12=2,30=1/1,2,3,16;
 1/6=500,18=20,19=15/3(-8);
 2/9=110,15=1/2;
 6/7=2,8=2,9=2,10=2/1;
 99/9=10/99;
 -------------------
 Title Card Required
 -------------------
 Symbolic Z-matrix:
 Charge =  0 Multiplicity = 1
 C                     0.        1.45619   0. 
 C                     0.        0.1253    0. 
 H                    -0.92542   2.02147  -0.00012 
 H                     0.92542   2.02147   0.00012 
 C                     1.27116  -0.67828   0.00011 
 C                    -1.27116  -0.67828  -0.00011 
 H                     1.3127   -1.32885  -0.87899 
 H                     2.15371  -0.03825   0.00038 
 H                     1.31238  -1.32917   0.87899 
 H                    -1.3127   -1.32885   0.87899 
 H                    -2.15371  -0.03825  -0.00038 
 H                    -1.31238  -1.32917  -0.87899 
 
 The following ModRedundant input section has been read:
 D    *          2       5    *    R                                           
 D       1       2       5       8 S  36 10.000                                
 

 GradGradGradGradGradGradGradGradGradGradGradGradGradGradGradGradGradGrad
 Berny optimization.
 Initialization pass.
                           ----------------------------
                           !    Initial Parameters    !
                           ! (Angstroms and Degrees)  !
 --------------------------                            --------------------------
 ! Name  Definition              Value          Derivative Info.                !
 --------------------------------------------------------------------------------
 ! R1    R(1,2)                  1.3309         estimate D2E/DX2                !
 ! R2    R(1,3)                  1.0844         estimate D2E/DX2                !
 ! R3    R(1,4)                  1.0844         estimate D2E/DX2                !
 ! R4    R(2,5)                  1.5039         estimate D2E/DX2                !
 ! R5    R(2,6)                  1.5039         estimate D2E/DX2                !
 ! R6    R(5,7)                  1.0944         estimate D2E/DX2                !
 ! R7    R(5,8)                  1.0902         estimate D2E/DX2                !
 ! R8    R(5,9)                  1.0944         estimate D2E/DX2                !
 ! R9    R(6,10)                 1.0944         estimate D2E/DX2                !
 ! R10   R(6,11)                 1.0902         estimate D2E/DX2                !
 ! R11   R(6,12)                 1.0944         estimate D2E/DX2                !
 ! A1    A(2,1,3)              121.4178         estimate D2E/DX2                !
 ! A2    A(2,1,4)              121.4178         estimate D2E/DX2                !
 ! A3    A(3,1,4)              117.1643         estimate D2E/DX2                !
 ! A4    A(1,2,5)              122.2995         estimate D2E/DX2                !
 ! A5    A(1,2,6)              122.2995         estimate D2E/DX2                !
 ! A6    A(5,2,6)              115.4009         estimate D2E/DX2                !
 ! A7    A(2,5,7)              110.4663         estimate D2E/DX2                !
 ! A8    A(2,5,8)              111.7506         estimate D2E/DX2                !
 ! A9    A(2,5,9)              110.4679         estimate D2E/DX2                !
 ! A10   A(7,5,8)              108.5695         estimate D2E/DX2                !
 ! A11   A(7,5,9)              106.8633         estimate D2E/DX2                !
 ! A12   A(8,5,9)              108.5699         estimate D2E/DX2                !
 ! A13   A(2,6,10)             110.4663         estimate D2E/DX2                !
 ! A14   A(2,6,11)             111.7506         estimate D2E/DX2                !
 ! A15   A(2,6,12)             110.4678         estimate D2E/DX2                !
 ! A16   A(10,6,11)            108.5696         estimate D2E/DX2                !
 ! A17   A(10,6,12)            106.8633         estimate D2E/DX2                !
 ! A18   A(11,6,12)            108.5698         estimate D2E/DX2                !
 ! D1    D(3,1,2,5)            179.9979         estimate D2E/DX2                !
 ! D2    D(3,1,2,6)             -0.0022         estimate D2E/DX2                !
 ! D3    D(4,1,2,5)             -0.0021         estimate D2E/DX2                !
 ! D4    D(4,1,2,6)            179.9978         estimate D2E/DX2                !
 ! D5    D(1,2,5,8)              0.0111         Scan                            !
 ! D6    D(1,2,6,10)          -120.9775         estimate D2E/DX2                !
 ! D7    D(1,2,6,11)             0.0112         estimate D2E/DX2                !
 ! D8    D(1,2,6,12)           121.0012         estimate D2E/DX2                !
 ! D9    D(5,2,6,10)            59.0224         estimate D2E/DX2                !
 ! D10   D(5,2,6,11)          -179.9889         estimate D2E/DX2                !
 ! D11   D(5,2,6,12)           -58.9989         estimate D2E/DX2                !
 --------------------------------------------------------------------------------
 Trust Radius=3.00D-01 FncErr=1.00D-07 GrdErr=1.00D-07 EigMax=2.50D+02 EigMin=1.00D-04
 Number of optimizations in scan=  37
 Number of steps in this run=    100 maximum allowed number of steps=    100.
 GradGradGradGradGradGradGradGradGradGradGradGradGradGradGradGradGradGrad

                          Input orientation:                          
 ---------------------------------------------------------------------
 Center     Atomic      Atomic             Coordinates (Angstroms)
 Number     Number       Type             X           Y           Z
 ---------------------------------------------------------------------
      1          6           0        0.000000    1.456194    0.000000
      2          6           0        0.000000    0.125300    0.000000
      3          1           0       -0.925421    2.021469   -0.000115
      4          1           0        0.925421    2.021469    0.000115
      5          6           0        1.271161   -0.678280    0.000111
      6          6           0       -1.271161   -0.678280   -0.000110
      7          1           0        1.312700   -1.328853   -0.878994
      8          1           0        2.153713   -0.038247    0.000384
      9          1           0        1.312379   -1.329168    0.878993
     10          1           0       -1.312700   -1.328853    0.878994
     11          1           0       -2.153713   -0.038247   -0.000384
     12          1           0       -1.312379   -1.329168   -0.878993
 ---------------------------------------------------------------------
                    Distance matrix (angstroms):
                    1          2          3          4          5
     1  C    0.000000
     2  C    1.330894   0.000000
     3  H    1.084408   2.109943   0.000000
     4  H    1.084408   2.109943   1.850842   0.000000
     5  C    2.484317   1.503859   3.480462   2.721797   0.000000
     6  C    2.484317   1.503859   2.721797   3.480462   2.542322
     7  H    3.201921   2.147178   4.123866   3.485323   1.094439
     8  H    2.621418   2.159914   3.704524   2.398152   1.090202
     9  H    3.202063   2.147195   4.123997   3.485532   1.094435
    10  H    3.201921   2.147178   3.485323   4.123866   2.805712
    11  H    2.621418   2.159914   2.398152   3.704524   3.484165
    12  H    3.202063   2.147195   3.485532   4.123997   2.805558
                    6          7          8          9         10
     6  C    0.000000
     7  H    2.805712   0.000000
     8  H    3.484165   1.773773   0.000000
     9  H    2.805558   1.757987   1.773774   0.000000
    10  H    1.094438   3.159628   3.801794   2.625079   0.000000
    11  H    1.090202   3.801794   4.307426   3.801786   1.773773
    12  H    1.094436   2.625079   3.801786   3.159093   1.757987
                   11         12
    11  H    0.000000
    12  H    1.773774   0.000000
 Symmetry turned off by external request.
 Stoichiometry    C4H8
 Framework group  C2[C2(CC),X(C2H8)]
 Deg. of freedom    15
 Full point group                 C2      NOp   2
 Rotational constants (GHZ):           9.1689384           8.4348155           4.6448131
 Standard basis: CC-pVTZ (5D, 7F)
   232 basis functions,   344 primitive gaussians,   260 cartesian basis functions
    16 alpha electrons       16 beta electrons
       nuclear repulsion energy       119.8707462632 Hartrees.
 NAtoms=   12 NActive=   12 NUniq=   12 SFac= 1.00D+00 NAtFMM=   60 NAOKFM=F Big=F
 Integral buffers will be    131072 words long.
 Raffenetti 2 integral format.
 Two-electron integral symmetry is turned off.
 Nuclear repulsion after empirical dispersion term =      119.8648595084 Hartrees.
 One-electron integrals computed using PRISM.
 NBasis=   232 RedAO= T EigKep=  3.74D-04  NBF=   232
 NBsUse=   232 1.00D-06 EigRej= -1.00D+00 NBFU=   232
 ExpMin= 1.03D-01 ExpMax= 8.24D+03 ExpMxC= 2.81D+02 IAcc=3 IRadAn=         5 AccDes= 0.00D+00
 Harris functional with IExCor=  419 and IRadAn=       5 diagonalized for initial guess.
 HarFok:  IExCor=  419 AccDes= 0.00D+00 IRadAn=         5 IDoV= 1 UseB2=F ITyADJ=14
 ICtDFT=  3500011 ScaDFX=  1.000000  1.000000  1.000000  1.000000
 FoFCou: FMM=F IPFlag=           0 FMFlag=      100000 FMFlg1=           0
         NFxFlg=           0 DoJE=T BraDBF=F KetDBF=T FulRan=T
         wScrn=  0.000000 ICntrl=       500 IOpCl=  0 I1Cent=   200000004 NGrid=           0
         NMat0=    1 NMatS0=      1 NMatT0=    0 NMatD0=    1 NMtDS0=    0 NMtDT0=    0
 Symmetry not used in FoFCou.
 Initial guess <Sx>= 0.0000 <Sy>= 0.0000 <Sz>= 0.0000 <S**2>=-0.0000 S=-0.0000
 Keep R1 and R2 ints in memory in canonical form, NReq=774238648.
 Requested convergence on RMS density matrix=1.00D-08 within 500 cycles.
 Requested convergence on MAX density matrix=1.00D-06.
 Requested convergence on             energy=1.00D-06.
 No special actions if energy rises.
 Integral accuracy reduced to 1.0D-05 until final iterations.
 Initial convergence to 1.0D-05 achieved.  Increase integral accuracy.
 SCF Done:  E(UB2PLYPD3) =  -156.907134309     A.U. after   11 cycles
            NFock= 11  Conv=0.86D-08     -V/T= 2.0050
 <Sx>= 0.0000 <Sy>= 0.0000 <Sz>= 0.0000 <S**2>=-0.0000 S=-0.0000
 <L.S>=  0.00000000000    
 Annihilation of the first spin contaminant:
 S**2 before annihilation    -0.0000,   after     0.0000
 DoSCS=T DFT=T ScalE2(SS,OS)=  0.270000  0.270000
 ExpMin= 1.03D-01 ExpMax= 8.24D+03 ExpMxC= 2.81D+02 IAcc=3 IRadAn=         5 AccDes= 0.00D+00
 HarFok:  IExCor=  205 AccDes= 0.00D+00 IRadAn=         5 IDoV=-2 UseB2=F ITyADJ=14
 ICtDFT= 12500011 ScaDFX=  1.000000  1.000000  1.000000  1.000000
 Range of M.O.s used for correlation:     5   232
 NBasis=   232 NAE=    16 NBE=    16 NFC=     4 NFV=     0
 NROrb=    228 NOA=    12 NOB=    12 NVA=   216 NVB=   216

 **** Warning!!: The largest alpha MO coefficient is  0.17020185D+02


 **** Warning!!: The largest beta MO coefficient is  0.17020185D+02

 DoSCS=T DFT=T ScalE2(SS,OS)=  0.270000  0.270000
 Fully direct method using O(ONN) memory.
 JobTyp=2 Pass  1:  I=   5 to  16 NPSUse= 40 ParTrn=T ParDer=T DoDerP=T.
 JobTyp=3 Pass  1:  I=   5 to  16 NPSUse= 40 ParTrn=T ParDer=T DoDerP=T.
 Spin components of T(2) and E(2):
     alpha-alpha T2 =       0.4021573160D-01 E2=     -0.2512812498D-01
     alpha-beta  T2 =       0.2587029689D+00 E2=     -0.1737970495D+00
     beta-beta   T2 =       0.4021573160D-01 E2=     -0.2512812498D-01
 (S**2,0)=  0.00000D+00           (S**2,1)=  0.00000D+00
 E(PUHF)=      -0.15690713431D+03        E(PMP2)=      -0.15713118761D+03
 E2(B2PLYPD3) =    -0.2240532995D+00 E(B2PLYPD3) =    -0.15713118760872D+03
          IDoAtm=111111111111
          Differentiating once with respect to electric field.
                with respect to dipole field.
          Differentiating once with respect to nuclear coordinates.
 Keep R1 and R2 ints in memory in canonical form, NReq=774247682.
          There are     1 degrees of freedom in the 1st order CPHF.  IDoFFX=0 NUNeed=     1.
 LinEq1:  Iter=  0 NonCon=     1 RMS=5.60D-04 Max=1.01D-02 NDo=     1
 AX will form     1 AO Fock derivatives at one time.
 LinEq1:  Iter=  1 NonCon=     1 RMS=2.32D-04 Max=4.01D-03 NDo=     1
 LinEq1:  Iter=  2 NonCon=     1 RMS=7.14D-05 Max=2.72D-03 NDo=     1
 LinEq1:  Iter=  3 NonCon=     1 RMS=3.80D-05 Max=8.33D-04 NDo=     1
 LinEq1:  Iter=  4 NonCon=     1 RMS=8.90D-06 Max=2.13D-04 NDo=     1
 LinEq1:  Iter=  5 NonCon=     1 RMS=3.23D-06 Max=4.17D-05 NDo=     1
 LinEq1:  Iter=  6 NonCon=     1 RMS=1.17D-06 Max=1.84D-05 NDo=     1
 LinEq1:  Iter=  7 NonCon=     1 RMS=2.43D-07 Max=3.24D-06 NDo=     1
 LinEq1:  Iter=  8 NonCon=     1 RMS=5.69D-08 Max=7.21D-07 NDo=     1
 LinEq1:  Iter=  9 NonCon=     1 RMS=8.35D-09 Max=1.65D-07 NDo=     1
 LinEq1:  Iter= 10 NonCon=     1 RMS=8.03D-10 Max=1.55D-08 NDo=     1
 LinEq1:  Iter= 11 NonCon=     1 RMS=9.65D-11 Max=1.40D-09 NDo=     1
 LinEq1:  Iter= 12 NonCon=     0 RMS=1.80D-11 Max=2.01D-10 NDo=     1
 Linear equations converged to 1.000D-10 1.000D-09 after    12 iterations.
 End of Minotr F.D. properties file   721 does not exist.
 End of Minotr F.D. properties file   722 does not exist.
 End of Minotr F.D. properties file   788 does not exist.

 **********************************************************************

            Population analysis using the SCF Density.

 **********************************************************************

 Alpha  occ. eigenvalues --  -10.62398 -10.60680 -10.60679 -10.59414  -0.92543
 Alpha  occ. eigenvalues --   -0.79730  -0.78353  -0.60480  -0.52319  -0.51477
 Alpha  occ. eigenvalues --   -0.50028  -0.45051  -0.43461  -0.42910  -0.39736
 Alpha  occ. eigenvalues --   -0.29042
 Alpha virt. eigenvalues --    0.07716   0.07756   0.12014   0.12428   0.14316
 Alpha virt. eigenvalues --    0.15254   0.16090   0.19117   0.20605   0.20975
 Alpha virt. eigenvalues --    0.27390   0.27557   0.29977   0.31672   0.33210
 Alpha virt. eigenvalues --    0.38557   0.40002   0.42586   0.42776   0.43493
 Alpha virt. eigenvalues --    0.49670   0.50074   0.51179   0.52815   0.53296
 Alpha virt. eigenvalues --    0.53628   0.53723   0.54777   0.56004   0.59380
 Alpha virt. eigenvalues --    0.62398   0.64379   0.64985   0.65585   0.71662
 Alpha virt. eigenvalues --    0.74489   0.75040   0.81862   0.84582   0.86457
 Alpha virt. eigenvalues --    0.90153   0.91076   0.95683   1.00706   1.01323
 Alpha virt. eigenvalues --    1.01761   1.02040   1.05180   1.06229   1.09164
 Alpha virt. eigenvalues --    1.09191   1.12239   1.14403   1.16826   1.19189
 Alpha virt. eigenvalues --    1.25481   1.26398   1.29522   1.29557   1.30028
 Alpha virt. eigenvalues --    1.30481   1.33607   1.34911   1.38420   1.40236
 Alpha virt. eigenvalues --    1.40343   1.42410   1.43862   1.46124   1.51543
 Alpha virt. eigenvalues --    1.52516   1.56930   1.58447   1.60066   1.62050
 Alpha virt. eigenvalues --    1.62744   1.71211   1.81386   1.81911   1.94635
 Alpha virt. eigenvalues --    2.15636   2.26538   2.26881   2.33232   2.36683
 Alpha virt. eigenvalues --    2.40329   2.43707   2.46423   2.48148   2.53978
 Alpha virt. eigenvalues --    2.62982   2.66525   2.69120   2.70170   2.72206
 Alpha virt. eigenvalues --    2.73189   2.76492   2.79181   2.84509   2.88322
 Alpha virt. eigenvalues --    2.90868   2.91669   2.93530   2.93774   2.96540
 Alpha virt. eigenvalues --    3.00622   3.00946   3.01059   3.04095   3.04308
 Alpha virt. eigenvalues --    3.07190   3.07621   3.11236   3.11716   3.14684
 Alpha virt. eigenvalues --    3.16571   3.20244   3.20647   3.20849   3.21300
 Alpha virt. eigenvalues --    3.23949   3.24634   3.31690   3.35539   3.38796
 Alpha virt. eigenvalues --    3.40274   3.41988   3.44162   3.45411   3.47682
 Alpha virt. eigenvalues --    3.48330   3.53361   3.53926   3.54020   3.54374
 Alpha virt. eigenvalues --    3.60036   3.61195   3.64213   3.66028   3.66732
 Alpha virt. eigenvalues --    3.70841   3.71629   3.79414   3.81293   3.85186
 Alpha virt. eigenvalues --    3.86612   3.86707   3.93052   3.93324   3.96627
 Alpha virt. eigenvalues --    3.96645   4.00379   4.00959   4.03738   4.04511
 Alpha virt. eigenvalues --    4.08146   4.11342   4.13183   4.13650   4.13795
 Alpha virt. eigenvalues --    4.14100   4.20292   4.21780   4.25712   4.26300
 Alpha virt. eigenvalues --    4.28067   4.33199   4.33812   4.35456   4.40793
 Alpha virt. eigenvalues --    4.43427   4.45510   4.51994   4.58886   4.60147
 Alpha virt. eigenvalues --    4.60343   4.65441   4.65988   4.68061   4.87787
 Alpha virt. eigenvalues --    4.88957   4.90468   4.92655   4.97850   5.03120
 Alpha virt. eigenvalues --    5.04956   5.05068   5.12744   5.13433   5.26036
 Alpha virt. eigenvalues --    5.26329   5.27551   5.27617   5.31028   5.34166
 Alpha virt. eigenvalues --    5.35472   5.41163   5.43544   5.44541   5.45369
 Alpha virt. eigenvalues --    5.46833   5.48283   5.53118   5.59873   5.73158
 Alpha virt. eigenvalues --    5.97121   5.97886   6.00421   6.02282   6.04579
 Alpha virt. eigenvalues --    6.12666   6.34533   9.80558  13.85462  14.12435
 Alpha virt. eigenvalues --   14.44565
  Beta  occ. eigenvalues --  -10.62398 -10.60680 -10.60679 -10.59414  -0.92543
  Beta  occ. eigenvalues --   -0.79730  -0.78353  -0.60480  -0.52319  -0.51477
  Beta  occ. eigenvalues --   -0.50028  -0.45051  -0.43461  -0.42910  -0.39736
  Beta  occ. eigenvalues --   -0.29042
  Beta virt. eigenvalues --    0.07716   0.07756   0.12014   0.12428   0.14316
  Beta virt. eigenvalues --    0.15254   0.16090   0.19117   0.20605   0.20975
  Beta virt. eigenvalues --    0.27390   0.27557   0.29977   0.31672   0.33210
  Beta virt. eigenvalues --    0.38557   0.40002   0.42586   0.42776   0.43493
  Beta virt. eigenvalues --    0.49670   0.50074   0.51179   0.52815   0.53296
  Beta virt. eigenvalues --    0.53628   0.53723   0.54777   0.56004   0.59380
  Beta virt. eigenvalues --    0.62398   0.64379   0.64985   0.65585   0.71662
  Beta virt. eigenvalues --    0.74489   0.75040   0.81862   0.84582   0.86457
  Beta virt. eigenvalues --    0.90153   0.91076   0.95683   1.00706   1.01323
  Beta virt. eigenvalues --    1.01761   1.02040   1.05180   1.06229   1.09164
  Beta virt. eigenvalues --    1.09191   1.12239   1.14403   1.16826   1.19189
  Beta virt. eigenvalues --    1.25481   1.26398   1.29522   1.29557   1.30028
  Beta virt. eigenvalues --    1.30481   1.33607   1.34911   1.38420   1.40236
  Beta virt. eigenvalues --    1.40343   1.42410   1.43862   1.46124   1.51543
  Beta virt. eigenvalues --    1.52516   1.56930   1.58447   1.60066   1.62050
  Beta virt. eigenvalues --    1.62744   1.71211   1.81386   1.81911   1.94635
  Beta virt. eigenvalues --    2.15636   2.26538   2.26881   2.33232   2.36683
  Beta virt. eigenvalues --    2.40329   2.43707   2.46423   2.48148   2.53978
  Beta virt. eigenvalues --    2.62982   2.66525   2.69120   2.70170   2.72206
  Beta virt. eigenvalues --    2.73189   2.76492   2.79181   2.84509   2.88322
  Beta virt. eigenvalues --    2.90868   2.91669   2.93530   2.93774   2.96540
  Beta virt. eigenvalues --    3.00622   3.00946   3.01059   3.04095   3.04308
  Beta virt. eigenvalues --    3.07190   3.07621   3.11236   3.11716   3.14684
  Beta virt. eigenvalues --    3.16571   3.20244   3.20647   3.20849   3.21300
  Beta virt. eigenvalues --    3.23949   3.24634   3.31690   3.35539   3.38796
  Beta virt. eigenvalues --    3.40274   3.41988   3.44162   3.45411   3.47682
  Beta virt. eigenvalues --    3.48330   3.53361   3.53926   3.54020   3.54374
  Beta virt. eigenvalues --    3.60036   3.61195   3.64213   3.66028   3.66732
  Beta virt. eigenvalues --    3.70841   3.71629   3.79414   3.81293   3.85186
  Beta virt. eigenvalues --    3.86612   3.86707   3.93052   3.93324   3.96627
  Beta virt. eigenvalues --    3.96645   4.00379   4.00959   4.03738   4.04511
  Beta virt. eigenvalues --    4.08146   4.11342   4.13183   4.13650   4.13795
  Beta virt. eigenvalues --    4.14100   4.20292   4.21780   4.25712   4.26300
  Beta virt. eigenvalues --    4.28067   4.33199   4.33812   4.35456   4.40793
  Beta virt. eigenvalues --    4.43427   4.45510   4.51994   4.58886   4.60147
  Beta virt. eigenvalues --    4.60343   4.65441   4.65988   4.68061   4.87787
  Beta virt. eigenvalues --    4.88957   4.90468   4.92655   4.97850   5.03120
  Beta virt. eigenvalues --    5.04956   5.05068   5.12744   5.13433   5.26036
  Beta virt. eigenvalues --    5.26329   5.27551   5.27617   5.31028   5.34166
  Beta virt. eigenvalues --    5.35472   5.41163   5.43544   5.44541   5.45369
  Beta virt. eigenvalues --    5.46833   5.48283   5.53118   5.59873   5.73158
  Beta virt. eigenvalues --    5.97121   5.97886   6.00421   6.02282   6.04579
  Beta virt. eigenvalues --    6.12666   6.34533   9.80558  13.85462  14.12435
  Beta virt. eigenvalues --   14.44565
          Condensed to atoms (all electrons):
               1          2          3          4          5          6
     1  C    5.010134   0.639817   0.412048   0.412048  -0.052732  -0.052732
     2  C    0.639817   4.873195  -0.048561  -0.048561   0.362491   0.362491
     3  H    0.412048  -0.048561   0.557431  -0.037173   0.007536  -0.009544
     4  H    0.412048  -0.048561  -0.037173   0.557431  -0.009544   0.007536
     5  C   -0.052732   0.362491   0.007536  -0.009544   4.806389  -0.062337
     6  C   -0.052732   0.362491  -0.009544   0.007536  -0.062337   4.806389
     7  H    0.000235  -0.042387  -0.000375   0.000245   0.405288  -0.002627
     8  H   -0.006573  -0.037602   0.000009   0.003179   0.412282   0.006135
     9  H    0.000238  -0.042391  -0.000375   0.000245   0.405286  -0.002623
    10  H    0.000235  -0.042387   0.000245  -0.000375  -0.002627   0.405288
    11  H   -0.006573  -0.037602   0.003179   0.000009   0.006135   0.412282
    12  H    0.000238  -0.042391   0.000245  -0.000375  -0.002623   0.405286
               7          8          9         10         11         12
     1  C    0.000235  -0.006573   0.000238   0.000235  -0.006573   0.000238
     2  C   -0.042387  -0.037602  -0.042391  -0.042387  -0.037602  -0.042391
     3  H   -0.000375   0.000009  -0.000375   0.000245   0.003179   0.000245
     4  H    0.000245   0.003179   0.000245  -0.000375   0.000009  -0.000375
     5  C    0.405288   0.412282   0.405286  -0.002627   0.006135  -0.002623
     6  C   -0.002627   0.006135  -0.002623   0.405288   0.412282   0.405286
     7  H    0.612003  -0.027176  -0.041652  -0.001570  -0.000105   0.004104
     8  H   -0.027176   0.579091  -0.027178  -0.000105  -0.000385  -0.000104
     9  H   -0.041652  -0.027178   0.612014   0.004104  -0.000104  -0.001573
    10  H   -0.001570  -0.000105   0.004104   0.612002  -0.027176  -0.041652
    11  H   -0.000105  -0.000385  -0.000104  -0.027176   0.579091  -0.027179
    12  H    0.004104  -0.000104  -0.001573  -0.041652  -0.027179   0.612015
          Atomic-Atomic Spin Densities.
               1          2          3          4          5          6
     1  C    0.000000  -0.000000   0.000000   0.000000  -0.000000   0.000000
     2  C   -0.000000  -0.000000  -0.000000  -0.000000  -0.000000  -0.000000
     3  H    0.000000  -0.000000  -0.000000   0.000000   0.000000   0.000000
     4  H    0.000000  -0.000000   0.000000  -0.000000   0.000000  -0.000000
     5  C   -0.000000  -0.000000   0.000000   0.000000   0.000000  -0.000000
     6  C    0.000000  -0.000000   0.000000  -0.000000  -0.000000   0.000000
     7  H    0.000000  -0.000000  -0.000000   0.000000  -0.000000   0.000000
     8  H   -0.000000  -0.000000  -0.000000  -0.000000   0.000000   0.000000
     9  H    0.000000  -0.000000  -0.000000   0.000000   0.000000   0.000000
    10  H   -0.000000  -0.000000   0.000000   0.000000  -0.000000   0.000000
    11  H   -0.000000  -0.000000  -0.000000  -0.000000  -0.000000  -0.000000
    12  H    0.000000  -0.000000   0.000000   0.000000  -0.000000   0.000000
               7          8          9         10         11         12
     1  C    0.000000  -0.000000   0.000000  -0.000000  -0.000000   0.000000
     2  C   -0.000000  -0.000000  -0.000000  -0.000000  -0.000000  -0.000000
     3  H   -0.000000  -0.000000  -0.000000   0.000000  -0.000000   0.000000
     4  H    0.000000  -0.000000   0.000000   0.000000  -0.000000   0.000000
     5  C   -0.000000   0.000000   0.000000  -0.000000  -0.000000  -0.000000
     6  C    0.000000   0.000000   0.000000   0.000000  -0.000000   0.000000
     7  H   -0.000000   0.000000  -0.000000   0.000000  -0.000000  -0.000000
     8  H    0.000000  -0.000000  -0.000000   0.000000   0.000000   0.000000
     9  H   -0.000000  -0.000000  -0.000000  -0.000000  -0.000000  -0.000000
    10  H    0.000000   0.000000  -0.000000  -0.000000   0.000000  -0.000000
    11  H   -0.000000   0.000000  -0.000000   0.000000  -0.000000   0.000000
    12  H   -0.000000   0.000000  -0.000000  -0.000000   0.000000   0.000000
 Mulliken charges and spin densities:
               1          2
     1  C   -0.356384   0.000000
     2  C    0.103887  -0.000000
     3  H    0.115335  -0.000000
     4  H    0.115335  -0.000000
     5  C   -0.275543   0.000000
     6  C   -0.275543   0.000000
     7  H    0.094018  -0.000000
     8  H    0.098429  -0.000000
     9  H    0.094010  -0.000000
    10  H    0.094018  -0.000000
    11  H    0.098429  -0.000000
    12  H    0.094009   0.000000
 Sum of Mulliken charges =  -0.00000  -0.00000
 Mulliken charges and spin densities with hydrogens summed into heavy atoms:
               1          2
     1  C   -0.125715   0.000000
     2  C    0.103887  -0.000000
     5  C    0.010914   0.000000
     6  C    0.010914   0.000000
 Electronic spatial extent (au):  <R**2>=            324.1039
 Charge=             -0.0000 electrons
 Dipole moment (field-independent basis, Debye):
    X=              0.0000    Y=             -0.5523    Z=              0.0000  Tot=              0.5523
 Quadrupole moment (field-independent basis, Debye-Ang):
   XX=            -25.9654   YY=            -26.4712   ZZ=            -28.3444
   XY=              0.0000   XZ=              0.0003   YZ=             -0.0000
 Traceless Quadrupole moment (field-independent basis, Debye-Ang):
   XX=              0.9616   YY=              0.4558   ZZ=             -1.4174
   XY=              0.0000   XZ=              0.0003   YZ=             -0.0000
 Octapole moment (field-independent basis, Debye-Ang**2):
  XXX=              0.0000  YYY=              0.7403  ZZZ=             -0.0000  XYY=             -0.0000
  XXY=              2.2763  XXZ=             -0.0000  XZZ=             -0.0000  YZZ=             -3.6687
  YYZ=              0.0000  XYZ=              0.0009
 Hexadecapole moment (field-independent basis, Debye-Ang**3):
 XXXX=           -212.0592 YYYY=           -196.2485 ZZZZ=            -46.0146 XXXY=              0.0000
 XXXZ=             -0.0055 YYYX=             -0.0000 YYYZ=             -0.0000 ZZZX=             -0.0088
 ZZZY=              0.0000 XXYY=            -66.2755 XXZZ=            -44.3586 YYZZ=            -41.2072
 XXYZ=             -0.0000 YYXZ=             -0.0016 ZZXY=              0.0000
 N-N= 1.198648595084D+02 E-N=-6.030026858130D+02  KE= 1.561298384207D+02
                          Isotropic Fermi Contact Couplings
        Atom                 a.u.       MegaHertz       Gauss      10(-4) cm-1
     1  C(13)             -0.00000      -0.00000      -0.00000      -0.00000
     2  C(13)             -0.00000      -0.00000      -0.00000      -0.00000
     3  H(1)               0.00000       0.00000       0.00000       0.00000
     4  H(1)               0.00000       0.00000       0.00000       0.00000
     5  C(13)              0.00000       0.00000       0.00000       0.00000
     6  C(13)              0.00000       0.00000       0.00000       0.00000
     7  H(1)               0.00000       0.00000       0.00000       0.00000
     8  H(1)              -0.00000      -0.00000      -0.00000      -0.00000
     9  H(1)              -0.00000      -0.00000      -0.00000      -0.00000
    10  H(1)               0.00000       0.00000       0.00000       0.00000
    11  H(1)               0.00000       0.00000       0.00000       0.00000
    12  H(1)               0.00000       0.00000       0.00000       0.00000
 --------------------------------------------------------
       Center         ----  Spin Dipole Couplings  ----
                      3XX-RR        3YY-RR        3ZZ-RR
 --------------------------------------------------------
     1   Atom        0.000000      0.000000      0.000000
     2   Atom        0.000000      0.000000      0.000000
     3   Atom        0.000000      0.000000      0.000000
     4   Atom        0.000000      0.000000      0.000000
     5   Atom        0.000000      0.000000      0.000000
     6   Atom        0.000000      0.000000      0.000000
     7   Atom        0.000000      0.000000      0.000000
     8   Atom        0.000000      0.000000      0.000000
     9   Atom        0.000000      0.000000      0.000000
    10   Atom        0.000000      0.000000      0.000000
    11   Atom        0.000000      0.000000      0.000000
    12   Atom        0.000000      0.000000      0.000000
 --------------------------------------------------------
                        XY            XZ            YZ
 --------------------------------------------------------
     1   Atom        0.000000      0.000000      0.000000
     2   Atom        0.000000      0.000000      0.000000
     3   Atom        0.000000      0.000000      0.000000
     4   Atom        0.000000      0.000000      0.000000
     5   Atom        0.000000      0.000000      0.000000
     6   Atom        0.000000      0.000000      0.000000
     7   Atom        0.000000      0.000000      0.000000
     8   Atom        0.000000      0.000000      0.000000
     9   Atom        0.000000      0.000000      0.000000
    10   Atom        0.000000      0.000000      0.000000
    11   Atom        0.000000      0.000000      0.000000
    12   Atom        0.000000      0.000000      0.000000
 --------------------------------------------------------


 ---------------------------------------------------------------------------------
              Anisotropic Spin Dipole Couplings in Principal Axis System
 ---------------------------------------------------------------------------------

       Atom             a.u.   MegaHertz   Gauss  10(-4) cm-1        Axes

              Baa     0.0000     0.000     0.000     0.000  1.0000  0.0000  0.0000
     1 C(13)  Bbb     0.0000     0.000     0.000     0.000 -0.0000  1.0000  0.0000
              Bcc     0.0000     0.000     0.000     0.000  0.0000  0.0000  1.0000
 
              Baa     0.0000     0.000     0.000     0.000  1.0000  0.0000  0.0000
     2 C(13)  Bbb     0.0000     0.000     0.000     0.000 -0.0000  1.0000  0.0000
              Bcc     0.0000     0.000     0.000     0.000  0.0000  0.0000  1.0000
 
              Baa     0.0000     0.000     0.000     0.000  1.0000  0.0000  0.0000
     3 H(1)   Bbb     0.0000     0.000     0.000     0.000 -0.0000  1.0000  0.0000
              Bcc     0.0000     0.000     0.000     0.000  0.0000  0.0000  1.0000
 
              Baa     0.0000     0.000     0.000     0.000  1.0000  0.0000  0.0000
     4 H(1)   Bbb     0.0000     0.000     0.000     0.000 -0.0000  1.0000  0.0000
              Bcc     0.0000     0.000     0.000     0.000  0.0000  0.0000  1.0000
 
              Baa     0.0000     0.000     0.000     0.000  1.0000  0.0000  0.0000
     5 C(13)  Bbb     0.0000     0.000     0.000     0.000 -0.0000  1.0000  0.0000
              Bcc     0.0000     0.000     0.000     0.000  0.0000  0.0000  1.0000
 
              Baa     0.0000     0.000     0.000     0.000  1.0000  0.0000  0.0000
     6 C(13)  Bbb     0.0000     0.000     0.000     0.000 -0.0000  1.0000  0.0000
              Bcc     0.0000     0.000     0.000     0.000  0.0000  0.0000  1.0000
 
              Baa     0.0000     0.000     0.000     0.000  1.0000  0.0000  0.0000
     7 H(1)   Bbb     0.0000     0.000     0.000     0.000 -0.0000  1.0000  0.0000
              Bcc     0.0000     0.000     0.000     0.000  0.0000  0.0000  1.0000
 
              Baa     0.0000     0.000     0.000     0.000  1.0000  0.0000  0.0000
     8 H(1)   Bbb     0.0000     0.000     0.000     0.000 -0.0000  1.0000  0.0000
              Bcc     0.0000     0.000     0.000     0.000  0.0000  0.0000  1.0000
 
              Baa     0.0000     0.000     0.000     0.000  1.0000  0.0000  0.0000
     9 H(1)   Bbb     0.0000     0.000     0.000     0.000 -0.0000  1.0000  0.0000
              Bcc     0.0000     0.000     0.000     0.000  0.0000  0.0000  1.0000
 
              Baa     0.0000     0.000     0.000     0.000  1.0000  0.0000  0.0000
    10 H(1)   Bbb     0.0000     0.000     0.000     0.000 -0.0000  1.0000  0.0000
              Bcc     0.0000     0.000     0.000     0.000  0.0000  0.0000  1.0000
 
              Baa     0.0000     0.000     0.000     0.000  1.0000  0.0000  0.0000
    11 H(1)   Bbb     0.0000     0.000     0.000     0.000 -0.0000  1.0000  0.0000
              Bcc     0.0000     0.000     0.000     0.000  0.0000  0.0000  1.0000
 
              Baa     0.0000     0.000     0.000     0.000  1.0000  0.0000  0.0000
    12 H(1)   Bbb     0.0000     0.000     0.000     0.000 -0.0000  1.0000  0.0000
              Bcc     0.0000     0.000     0.000     0.000  0.0000  0.0000  1.0000
 

 ---------------------------------------------------------------------------------

 Calling FoFJK, ICntrl=  10002127 FMM=F ISym2X=0 I1Cent= 0 IOpClX= 1 NMat=1 NMatS=1 NMatT=0.
 -------------------------------------------------------------------
 Center     Atomic                   Forces (Hartrees/Bohr)
 Number     Number              X              Y              Z
 -------------------------------------------------------------------
      1        6           0.000000000    0.003586016   -0.000000015
      2        6           0.000000000   -0.002662732    0.000000143
      3        1           0.002017104   -0.001226248    0.000000710
      4        1          -0.002017104   -0.001226248   -0.000000720
      5        6          -0.000265372    0.000244442   -0.000001625
      6        6           0.000265372    0.000244442    0.000000618
      7        1           0.000305731    0.000832944    0.001538855
      8        1          -0.001377629   -0.001146157   -0.000000844
      9        1           0.000305849    0.000833378   -0.001536311
     10        1          -0.000305745    0.000832713   -0.001538456
     11        1           0.001377629   -0.001146157    0.000000934
     12        1          -0.000305835    0.000833609    0.001536711
 -------------------------------------------------------------------
 Cartesian Forces:  Max     0.003586016 RMS     0.001183042

 GradGradGradGradGradGradGradGradGradGradGradGradGradGradGradGradGradGrad
 Berny optimization.
 FormGI is forming the generalized inverse of G from B-inverse, IUseBI=4.
 Internal  Forces:  Max     0.002360587 RMS     0.000953360
 Search for a local minimum.
 Step number   1 out of a maximum of  100 on scan point     1 out of    37
 All quantities printed in internal units (Hartrees-Bohrs-Radians)
 Mixed Optimization -- En-DIIS/RFO-DIIS
 Second derivative matrix not updated -- first step.
 ITU=  0
     Eigenvalues ---    0.00715   0.01704   0.03003   0.03003   0.07101
     Eigenvalues ---    0.07349   0.16000   0.16000   0.16000   0.16000
     Eigenvalues ---    0.16000   0.16000   0.16000   0.16000   0.16000
     Eigenvalues ---    0.16000   0.25000   0.25000   0.31976   0.31976
     Eigenvalues ---    0.34305   0.34305   0.34305   0.34305   0.34789
     Eigenvalues ---    0.34789   0.35467   0.35467   0.592951000.00000
     Eigenvalues --- 1000.000001000.000001000.000001000.000001000.00000
     Eigenvalues --- 1000.000001000.000001000.000001000.000001000.00000
 RFO step:  Lambda=-1.10682494D-04 EMin= 7.14903764D-03
 Linear search not attempted -- first point.
 Iteration  1 RMS(Cart)=  0.00382299 RMS(Int)=  0.00000863
 Iteration  2 RMS(Cart)=  0.00001060 RMS(Int)=  0.00000171
 Iteration  3 RMS(Cart)=  0.00000000 RMS(Int)=  0.00000171
 Iteration  1 RMS(Cart)=  0.00000000 RMS(Int)=  0.00000000
 Variable       Old X    -DE/DX   Delta X   Delta X   Delta X     New X
                                 (Linear)    (Quad)   (Total)
    R1        2.51503   0.00113   0.00000   0.00191   0.00191   2.51694
    R2        2.04923  -0.00236   0.00000  -0.00665  -0.00665   2.04258
    R3        2.04923  -0.00236   0.00000  -0.00665  -0.00665   2.04258
    R4        2.84188  -0.00128   0.00000  -0.00400  -0.00400   2.83788
    R5        2.84188  -0.00128   0.00000  -0.00400  -0.00400   2.83788
    R6        2.06819  -0.00172   0.00000  -0.00501  -0.00501   2.06318
    R7        2.06018  -0.00179   0.00000  -0.00514  -0.00514   2.05504
    R8        2.06818  -0.00172   0.00000  -0.00501  -0.00501   2.06318
    R9        2.06819  -0.00172   0.00000  -0.00501  -0.00501   2.06318
   R10        2.06018  -0.00179   0.00000  -0.00514  -0.00514   2.05504
   R11        2.06818  -0.00172   0.00000  -0.00501  -0.00501   2.06318
    A1        2.11914   0.00000   0.00000   0.00002   0.00002   2.11916
    A2        2.11914   0.00000   0.00000   0.00002   0.00002   2.11916
    A3        2.04490  -0.00001   0.00000  -0.00004  -0.00004   2.04486
    A4        2.13453  -0.00030   0.00000  -0.00121  -0.00121   2.13332
    A5        2.13453  -0.00030   0.00000  -0.00121  -0.00121   2.13332
    A6        2.01413   0.00060   0.00000   0.00242   0.00242   2.01655
    A7        1.92800   0.00054   0.00000   0.00337   0.00337   1.93137
    A8        1.95042  -0.00008   0.00000  -0.00052  -0.00052   1.94989
    A9        1.92803   0.00054   0.00000   0.00335   0.00335   1.93138
   A10        1.89490  -0.00031   0.00000  -0.00192  -0.00193   1.89297
   A11        1.86512  -0.00042   0.00000  -0.00259  -0.00259   1.86252
   A12        1.89490  -0.00031   0.00000  -0.00194  -0.00194   1.89296
   A13        1.92800   0.00052   0.00000   0.00336   0.00335   1.93135
   A14        1.95042  -0.00005   0.00000  -0.00050  -0.00050   1.94991
   A15        1.92803   0.00052   0.00000   0.00335   0.00334   1.93137
   A16        1.89490  -0.00028   0.00000  -0.00191  -0.00191   1.89298
   A17        1.86512  -0.00047   0.00000  -0.00263  -0.00263   1.86248
   A18        1.89490  -0.00028   0.00000  -0.00191  -0.00191   1.89299
    D1        3.14156   0.00000   0.00000  -0.00000  -0.00000   3.14155
    D2       -0.00004   0.00000   0.00000   0.00003   0.00003  -0.00001
    D3       -0.00004   0.00000   0.00000  -0.00000  -0.00000  -0.00004
    D4        3.14155   0.00000   0.00000   0.00003   0.00003   3.14158
    D5        0.00019  -0.00000   0.00000   0.00000   0.00000   0.00019
    D6       -2.11146   0.00003   0.00000   0.00039   0.00040  -2.11106
    D7        0.00020  -0.00000   0.00000  -0.00006  -0.00006   0.00013
    D8        2.11187  -0.00003   0.00000  -0.00053  -0.00053   2.11134
    D9        1.03014   0.00003   0.00000   0.00042   0.00042   1.03056
   D10       -3.14140  -0.00000   0.00000  -0.00004  -0.00004  -3.14144
   D11       -1.02972  -0.00003   0.00000  -0.00050  -0.00050  -1.03023
         Item               Value     Threshold  Converged?
 Maximum Force            0.002361     0.000450     NO 
 RMS     Force            0.000966     0.000300     NO 
 Maximum Displacement     0.007806     0.001800     NO 
 RMS     Displacement     0.003821     0.001200     NO 
 Predicted change in Energy=-5.536197D-05
 GradGradGradGradGradGradGradGradGradGradGradGradGradGradGradGradGradGrad

                          Input orientation:                          
 ---------------------------------------------------------------------
 Center     Atomic      Atomic             Coordinates (Angstroms)
 Number     Number       Type             X           Y           Z
 ---------------------------------------------------------------------
      1          6           0        0.000003    1.455253   -0.000004
      2          6           0       -0.000002    0.123348    0.000011
      3          1           0       -0.922399    2.018716   -0.000116
      4          1           0        0.922409    2.018709    0.000094
      5          6           0        1.270335   -0.677570    0.000117
      6          6           0       -1.270345   -0.677560   -0.000112
      7          1           0        1.316036   -1.327445   -0.875996
      8          1           0        2.149582   -0.037614    0.000371
      9          1           0        1.315731   -1.327711    0.876045
     10          1           0       -1.316023   -1.327472    0.875974
     11          1           0       -2.149600   -0.037615   -0.000343
     12          1           0       -1.315726   -1.327703   -0.876041
 ---------------------------------------------------------------------
                    Distance matrix (angstroms):
                    1          2          3          4          5
     1  C    0.000000
     2  C    1.331905   0.000000
     3  H    1.080887   2.107899   0.000000
     4  H    1.080887   2.107899   1.844808   0.000000
     5  C    2.482474   1.501741   3.475347   2.718634   0.000000
     6  C    2.482474   1.501741   2.718634   3.475347   2.540680
     7  H    3.200423   2.145726   4.120018   3.481267   1.091787
     8  H    2.617125   2.155602   3.696696   2.394664   1.087483
     9  H    3.200546   2.145731   4.120129   3.481454   1.091786
    10  H    3.200441   2.145717   3.481299   4.120033   2.806911
    11  H    2.617145   2.155616   2.394685   3.696716   3.479296
    12  H    3.200535   2.145726   3.481446   4.120113   2.806784
                    6          7          8          9         10
     6  C    0.000000
     7  H    2.806936   0.000000
     8  H    3.479286   1.768187   0.000000
     9  H    2.806802   1.752041   1.768181   0.000000
    10  H    1.091787   3.161824   3.800110   2.631754   0.000000
    11  H    1.087483   3.800140   4.299182   3.800122   1.768195
    12  H    1.091786   2.631761   3.800103   3.161387   1.752015
                   11         12
    11  H    0.000000
    12  H    1.768197   0.000000
 Symmetry turned off by external request.
 Stoichiometry    C4H8
 Framework group  C1[X(C4H8)]
 Deg. of freedom    30
 Full point group                 C1      NOp   1
 Rotational constants (GHZ):           9.1889655           8.4464816           4.6516844
 Standard basis: CC-pVTZ (5D, 7F)
   232 basis functions,   344 primitive gaussians,   260 cartesian basis functions
    16 alpha electrons       16 beta electrons
       nuclear repulsion energy       120.0066834474 Hartrees.
 NAtoms=   12 NActive=   12 NUniq=   12 SFac= 1.00D+00 NAtFMM=   60 NAOKFM=F Big=F
 Integral buffers will be    131072 words long.
 Raffenetti 2 integral format.
 Two-electron integral symmetry is turned off.
 Nuclear repulsion after empirical dispersion term =      120.0007935524 Hartrees.
 One-electron integrals computed using PRISM.
 NBasis=   232 RedAO= T EigKep=  3.76D-04  NBF=   232
 NBsUse=   232 1.00D-06 EigRej= -1.00D+00 NBFU=   232
 Initial guess from the checkpoint file:  "/localscratch/339543/Gau-81996.chk"
 B after Tr=    -0.000003   -0.000432    0.000003
         Rot=    1.000000    0.000001    0.000001    0.000001 Ang=   0.00 deg.
 Initial guess <Sx>= 0.0000 <Sy>= 0.0000 <Sz>= 0.0000 <S**2>=-0.0000 S=-0.0000
 Keep R1 and R2 ints in memory in canonical form, NReq=774238648.
 Requested convergence on RMS density matrix=1.00D-08 within 500 cycles.
 Requested convergence on MAX density matrix=1.00D-06.
 Requested convergence on             energy=1.00D-06.
 No special actions if energy rises.
 SCF Done:  E(UB2PLYPD3) =  -156.907288780     A.U. after    7 cycles
            NFock=  7  Conv=0.63D-08     -V/T= 2.0047
 <Sx>= 0.0000 <Sy>= 0.0000 <Sz>= 0.0000 <S**2>=-0.0000 S=-0.0000
 <L.S>=  0.00000000000    
 Annihilation of the first spin contaminant:
 S**2 before annihilation    -0.0000,   after     0.0000
 DoSCS=T DFT=T ScalE2(SS,OS)=  0.270000  0.270000
 ExpMin= 1.03D-01 ExpMax= 8.24D+03 ExpMxC= 2.81D+02 IAcc=3 IRadAn=         5 AccDes= 0.00D+00
 HarFok:  IExCor=  205 AccDes= 0.00D+00 IRadAn=         5 IDoV=-2 UseB2=F ITyADJ=14
 ICtDFT= 12500011 ScaDFX=  1.000000  1.000000  1.000000  1.000000
 Range of M.O.s used for correlation:     5   232
 NBasis=   232 NAE=    16 NBE=    16 NFC=     4 NFV=     0
 NROrb=    228 NOA=    12 NOB=    12 NVA=   216 NVB=   216

 **** Warning!!: The largest alpha MO coefficient is  0.17012891D+02


 **** Warning!!: The largest beta MO coefficient is  0.17012891D+02

 DoSCS=T DFT=T ScalE2(SS,OS)=  0.270000  0.270000
 Fully direct method using O(ONN) memory.
 JobTyp=2 Pass  1:  I=   5 to  16 NPSUse= 40 ParTrn=T ParDer=T DoDerP=T.
 JobTyp=3 Pass  1:  I=   5 to  16 NPSUse= 40 ParTrn=T ParDer=T DoDerP=T.
 Spin components of T(2) and E(2):
     alpha-alpha T2 =       0.4014864660D-01 E2=     -0.2512676300D-01
     alpha-beta  T2 =       0.2580696521D+00 E2=     -0.1737025392D+00
     beta-beta   T2 =       0.4014864660D-01 E2=     -0.2512676300D-01
 (S**2,0)=  0.00000D+00           (S**2,1)=  0.00000D+00
 E(PUHF)=      -0.15690728878D+03        E(PMP2)=      -0.15713124485D+03
 E2(B2PLYPD3) =    -0.2239560652D+00 E(B2PLYPD3) =    -0.15713124484534D+03
          IDoAtm=111111111111
          Differentiating once with respect to electric field.
                with respect to dipole field.
          Differentiating once with respect to nuclear coordinates.
 Keep R1 and R2 ints in memory in canonical form, NReq=774247682.
          There are     1 degrees of freedom in the 1st order CPHF.  IDoFFX=0 NUNeed=     1.
 LinEq1:  Iter=  0 NonCon=     1 RMS=5.60D-04 Max=1.01D-02 NDo=     1
 AX will form     1 AO Fock derivatives at one time.
 LinEq1:  Iter=  1 NonCon=     1 RMS=2.30D-04 Max=3.98D-03 NDo=     1
 LinEq1:  Iter=  2 NonCon=     1 RMS=7.15D-05 Max=2.73D-03 NDo=     1
 LinEq1:  Iter=  3 NonCon=     1 RMS=3.80D-05 Max=8.40D-04 NDo=     1
 LinEq1:  Iter=  4 NonCon=     1 RMS=8.90D-06 Max=2.13D-04 NDo=     1
 LinEq1:  Iter=  5 NonCon=     1 RMS=3.23D-06 Max=4.18D-05 NDo=     1
 LinEq1:  Iter=  6 NonCon=     1 RMS=1.16D-06 Max=1.84D-05 NDo=     1
 LinEq1:  Iter=  7 NonCon=     1 RMS=2.43D-07 Max=3.22D-06 NDo=     1
 LinEq1:  Iter=  8 NonCon=     1 RMS=5.69D-08 Max=7.29D-07 NDo=     1
 LinEq1:  Iter=  9 NonCon=     1 RMS=8.33D-09 Max=1.64D-07 NDo=     1
 LinEq1:  Iter= 10 NonCon=     1 RMS=8.02D-10 Max=1.55D-08 NDo=     1
 LinEq1:  Iter= 11 NonCon=     1 RMS=9.78D-11 Max=1.42D-09 NDo=     1
 LinEq1:  Iter= 12 NonCon=     0 RMS=1.82D-11 Max=2.03D-10 NDo=     1
 Linear equations converged to 1.000D-10 1.000D-09 after    12 iterations.
 End of Minotr F.D. properties file   721 does not exist.
 End of Minotr F.D. properties file   722 does not exist.
 End of Minotr F.D. properties file   788 does not exist.
 Calling FoFJK, ICntrl=  10002127 FMM=F ISym2X=0 I1Cent= 0 IOpClX= 1 NMat=1 NMatS=1 NMatT=0.
 -------------------------------------------------------------------
 Center     Atomic                   Forces (Hartrees/Bohr)
 Number     Number              X              Y              Z
 -------------------------------------------------------------------
      1        6           0.000000091    0.000342523    0.000000530
      2        6          -0.000001163   -0.000742259   -0.000002698
      3        1          -0.000058340   -0.000061569    0.000000334
      4        1           0.000058330   -0.000061533   -0.000000085
      5        6          -0.000258900    0.000399756    0.000001819
      6        6           0.000262281    0.000394882    0.000000859
      7        1           0.000064972   -0.000065705   -0.000003036
      8        1           0.000084686   -0.000006020   -0.000000939
      9        1           0.000065064   -0.000065985    0.000003636
     10        1          -0.000066658   -0.000064151    0.000005131
     11        1          -0.000083874   -0.000006405    0.000000224
     12        1          -0.000066489   -0.000063535   -0.000005775
 -------------------------------------------------------------------
 Cartesian Forces:  Max     0.000742259 RMS     0.000181256

 GradGradGradGradGradGradGradGradGradGradGradGradGradGradGradGradGradGrad
 Berny optimization.
 Using GEDIIS/GDIIS optimizer.
 FormGI is forming the generalized inverse of G from B-inverse, IUseBI=4.
 Internal  Forces:  Max     0.000398742 RMS     0.000106106
 Search for a local minimum.
 Step number   2 out of a maximum of  100 on scan point     1 out of    37
 All quantities printed in internal units (Hartrees-Bohrs-Radians)
 Mixed Optimization -- En-DIIS/RFO-DIIS
 Swapping is turned off.
 Update second derivatives using D2CorX and points    1    2
 DE= -5.72D-05 DEPred=-5.54D-05 R= 1.03D+00
 TightC=F SS=  1.41D+00  RLast= 1.90D-02 DXNew= 5.0454D-01 5.6999D-02
 Trust test= 1.03D+00 RLast= 1.90D-02 DXMaxT set to 3.00D-01
 ITU=  1  0
     Eigenvalues ---    0.00715   0.01702   0.03003   0.03003   0.07090
     Eigenvalues ---    0.07316   0.15291   0.16000   0.16000   0.16000
     Eigenvalues ---    0.16000   0.16000   0.16000   0.16000   0.16000
     Eigenvalues ---    0.16063   0.24088   0.25000   0.31363   0.31976
     Eigenvalues ---    0.34305   0.34305   0.34305   0.34545   0.34789
     Eigenvalues ---    0.35131   0.35467   0.37463   0.589631000.00000
     Eigenvalues --- 1000.000001000.000001000.000001000.000001000.00000
     Eigenvalues --- 1000.000001000.000001000.000001000.000001000.00000
 En-DIIS/RFO-DIIS/Sim-DIIS IScMMF=       -3 using points:     2    1
 RFO step:  Lambda=-1.92171172D-06.
 DidBck=F Rises=F RFO-DIIS coefs:    1.06872   -0.06872
 Iteration  1 RMS(Cart)=  0.00113894 RMS(Int)=  0.00000058
 Iteration  2 RMS(Cart)=  0.00000065 RMS(Int)=  0.00000017
 Iteration  1 RMS(Cart)=  0.00000000 RMS(Int)=  0.00000000
 Variable       Old X    -DE/DX   Delta X   Delta X   Delta X     New X
                                 (Linear)    (Quad)   (Total)
    R1        2.51694   0.00022   0.00013   0.00028   0.00041   2.51735
    R2        2.04258   0.00002  -0.00046   0.00040  -0.00006   2.04252
    R3        2.04258   0.00002  -0.00046   0.00040  -0.00006   2.04252
    R4        2.83788  -0.00018  -0.00028  -0.00036  -0.00064   2.83724
    R5        2.83788  -0.00018  -0.00028  -0.00036  -0.00064   2.83724
    R6        2.06318   0.00004  -0.00034   0.00040   0.00005   2.06323
    R7        2.05504   0.00006  -0.00035   0.00046   0.00011   2.05515
    R8        2.06318   0.00004  -0.00034   0.00040   0.00005   2.06323
    R9        2.06318   0.00005  -0.00034   0.00040   0.00005   2.06323
   R10        2.05504   0.00006  -0.00035   0.00046   0.00011   2.05515
   R11        2.06318   0.00005  -0.00034   0.00040   0.00005   2.06323
    A1        2.11916  -0.00006   0.00000  -0.00037  -0.00036   2.11880
    A2        2.11916  -0.00006   0.00000  -0.00037  -0.00036   2.11880
    A3        2.04486   0.00011  -0.00000   0.00073   0.00073   2.04559
    A4        2.13332  -0.00020  -0.00008  -0.00076  -0.00084   2.13248
    A5        2.13332  -0.00020  -0.00008  -0.00076  -0.00084   2.13248
    A6        2.01655   0.00040   0.00017   0.00152   0.00169   2.01823
    A7        1.93137   0.00008   0.00023   0.00035   0.00058   1.93195
    A8        1.94989   0.00005  -0.00004   0.00033   0.00030   1.95019
    A9        1.93138   0.00008   0.00023   0.00035   0.00058   1.93195
   A10        1.89297  -0.00006  -0.00013  -0.00029  -0.00042   1.89254
   A11        1.86252  -0.00010  -0.00018  -0.00050  -0.00068   1.86184
   A12        1.89296  -0.00006  -0.00013  -0.00029  -0.00043   1.89254
   A13        1.93135   0.00008   0.00023   0.00036   0.00059   1.93195
   A14        1.94991   0.00004  -0.00003   0.00031   0.00028   1.95019
   A15        1.93137   0.00008   0.00023   0.00035   0.00058   1.93195
   A16        1.89298  -0.00007  -0.00013  -0.00031  -0.00044   1.89254
   A17        1.86248  -0.00009  -0.00018  -0.00046  -0.00064   1.86184
   A18        1.89299  -0.00007  -0.00013  -0.00031  -0.00044   1.89254
    D1        3.14155   0.00000  -0.00000   0.00002   0.00002   3.14157
    D2       -0.00001   0.00000   0.00000   0.00000   0.00000  -0.00001
    D3       -0.00004   0.00000  -0.00000   0.00001   0.00001  -0.00003
    D4        3.14158  -0.00000   0.00000  -0.00001  -0.00001   3.14158
    D5        0.00019  -0.00000   0.00000   0.00000   0.00000   0.00019
    D6       -2.11106  -0.00000   0.00003  -0.00009  -0.00007  -2.11113
    D7        0.00013  -0.00000  -0.00000  -0.00003  -0.00003   0.00010
    D8        2.11134   0.00000  -0.00004   0.00003  -0.00001   2.11133
    D9        1.03056  -0.00000   0.00003  -0.00011  -0.00008   1.03048
   D10       -3.14144  -0.00000  -0.00000  -0.00005  -0.00005  -3.14149
   D11       -1.03023   0.00000  -0.00003   0.00001  -0.00002  -1.03025
         Item               Value     Threshold  Converged?
 Maximum Force            0.000399     0.000450     YES
 RMS     Force            0.000107     0.000300     YES
 Maximum Displacement     0.002846     0.001800     NO 
 RMS     Displacement     0.001139     0.001200     YES
 Predicted change in Energy=-9.608624D-07
 GradGradGradGradGradGradGradGradGradGradGradGradGradGradGradGradGradGrad

                          Input orientation:                          
 ---------------------------------------------------------------------
 Center     Atomic      Atomic             Coordinates (Angstroms)
 Number     Number       Type             X           Y           Z
 ---------------------------------------------------------------------
      1          6           0        0.000000    1.454631   -0.000017
      2          6           0       -0.000000    0.122507    0.000002
      3          1           0       -0.922583    2.017739   -0.000122
      4          1           0        0.922584    2.017738    0.000080
      5          6           0        1.270729   -0.677155    0.000122
      6          6           0       -1.270730   -0.677154   -0.000111
      7          1           0        1.317522   -1.327271   -0.875787
      8          1           0        2.149670   -0.036681    0.000385
      9          1           0        1.317201   -1.327531    0.875856
     10          1           0       -1.317491   -1.327314    0.875769
     11          1           0       -2.149670   -0.036681   -0.000303
     12          1           0       -1.317232   -1.327491   -0.875873
 ---------------------------------------------------------------------
                    Distance matrix (angstroms):
                    1          2          3          4          5
     1  C    0.000000
     2  C    1.332124   0.000000
     3  H    1.080856   2.107858   0.000000
     4  H    1.080857   2.107858   1.845167   0.000000
     5  C    2.481786   1.501403   3.474632   2.717288   0.000000
     6  C    2.481786   1.501403   2.717288   3.474632   2.541459
     7  H    3.200284   2.145863   4.119946   3.480260   1.091814
     8  H    2.616313   2.155557   3.695860   2.392985   1.087541
     9  H    3.200405   2.145868   4.120048   3.480450   1.091814
    10  H    3.200313   2.145864   3.480304   4.119969   2.808620
    11  H    2.616312   2.155555   2.392985   3.695860   3.479847
    12  H    3.200379   2.145868   3.480409   4.120027   2.808531
                    6          7          8          9         10
     6  C    0.000000
     7  H    2.808649   0.000000
     8  H    3.479848   1.767985   0.000000
     9  H    2.808504   1.751643   1.767979   0.000000
    10  H    1.091816   3.164055   3.801742   2.634692   0.000000
    11  H    1.087539   3.801778   4.299340   3.801728   1.767982
    12  H    1.091815   2.634754   3.801767   3.163667   1.751642
                   11         12
    11  H    0.000000
    12  H    1.767984   0.000000
 Symmetry turned off by external request.
 Stoichiometry    C4H8
 Framework group  C1[X(C4H8)]
 Deg. of freedom    30
 Full point group                 C1      NOp   1
 Rotational constants (GHZ):           9.1970889           8.4409131           4.6519578
 Standard basis: CC-pVTZ (5D, 7F)
   232 basis functions,   344 primitive gaussians,   260 cartesian basis functions
    16 alpha electrons       16 beta electrons
       nuclear repulsion energy       120.0105513933 Hartrees.
 NAtoms=   12 NActive=   12 NUniq=   12 SFac= 1.00D+00 NAtFMM=   60 NAOKFM=F Big=F
 Integral buffers will be    131072 words long.
 Raffenetti 2 integral format.
 Two-electron integral symmetry is turned off.
 Nuclear repulsion after empirical dispersion term =      120.0046617609 Hartrees.
 One-electron integrals computed using PRISM.
 NBasis=   232 RedAO= T EigKep=  3.76D-04  NBF=   232
 NBsUse=   232 1.00D-06 EigRej= -1.00D+00 NBFU=   232
 Initial guess from the checkpoint file:  "/localscratch/339543/Gau-81996.chk"
 B after Tr=     0.000002   -0.000190   -0.000004
         Rot=    1.000000    0.000002    0.000000   -0.000001 Ang=   0.00 deg.
 Initial guess <Sx>= 0.0000 <Sy>= 0.0000 <Sz>= 0.0000 <S**2>=-0.0000 S=-0.0000
 Keep R1 and R2 ints in memory in canonical form, NReq=774238648.
 Requested convergence on RMS density matrix=1.00D-08 within 500 cycles.
 Requested convergence on MAX density matrix=1.00D-06.
 Requested convergence on             energy=1.00D-06.
 No special actions if energy rises.
 SCF Done:  E(UB2PLYPD3) =  -156.907285688     A.U. after    6 cycles
            NFock=  6  Conv=0.54D-08     -V/T= 2.0047
 <Sx>= 0.0000 <Sy>= 0.0000 <Sz>= 0.0000 <S**2>=-0.0000 S=-0.0000
 <L.S>=  0.00000000000    
 Annihilation of the first spin contaminant:
 S**2 before annihilation    -0.0000,   after     0.0000
 DoSCS=T DFT=T ScalE2(SS,OS)=  0.270000  0.270000
 ExpMin= 1.03D-01 ExpMax= 8.24D+03 ExpMxC= 2.81D+02 IAcc=3 IRadAn=         5 AccDes= 0.00D+00
 HarFok:  IExCor=  205 AccDes= 0.00D+00 IRadAn=         5 IDoV=-2 UseB2=F ITyADJ=14
 ICtDFT= 12500011 ScaDFX=  1.000000  1.000000  1.000000  1.000000
 Range of M.O.s used for correlation:     5   232
 NBasis=   232 NAE=    16 NBE=    16 NFC=     4 NFV=     0
 NROrb=    228 NOA=    12 NOB=    12 NVA=   216 NVB=   216

 **** Warning!!: The largest alpha MO coefficient is  0.17013703D+02


 **** Warning!!: The largest beta MO coefficient is  0.17013703D+02

 DoSCS=T DFT=T ScalE2(SS,OS)=  0.270000  0.270000
 Fully direct method using O(ONN) memory.
 JobTyp=2 Pass  1:  I=   5 to  16 NPSUse= 40 ParTrn=T ParDer=T DoDerP=T.
 JobTyp=3 Pass  1:  I=   5 to  16 NPSUse= 40 ParTrn=T ParDer=T DoDerP=T.
 Spin components of T(2) and E(2):
     alpha-alpha T2 =       0.4015063370D-01 E2=     -0.2512788527D-01
     alpha-beta  T2 =       0.2580804172D+00 E2=     -0.1737046036D+00
     beta-beta   T2 =       0.4015063370D-01 E2=     -0.2512788527D-01
 (S**2,0)=  0.00000D+00           (S**2,1)=  0.00000D+00
 E(PUHF)=      -0.15690728569D+03        E(PMP2)=      -0.15713124606D+03
 E2(B2PLYPD3) =    -0.2239603742D+00 E(B2PLYPD3) =    -0.15713124606219D+03
          IDoAtm=111111111111
          Differentiating once with respect to electric field.
                with respect to dipole field.
          Differentiating once with respect to nuclear coordinates.
 Keep R1 and R2 ints in memory in canonical form, NReq=774247682.
          There are     1 degrees of freedom in the 1st order CPHF.  IDoFFX=0 NUNeed=     1.
 LinEq1:  Iter=  0 NonCon=     1 RMS=5.60D-04 Max=1.01D-02 NDo=     1
 AX will form     1 AO Fock derivatives at one time.
 LinEq1:  Iter=  1 NonCon=     1 RMS=2.30D-04 Max=3.98D-03 NDo=     1
 LinEq1:  Iter=  2 NonCon=     1 RMS=7.15D-05 Max=2.73D-03 NDo=     1
 LinEq1:  Iter=  3 NonCon=     1 RMS=3.80D-05 Max=8.41D-04 NDo=     1
 LinEq1:  Iter=  4 NonCon=     1 RMS=8.91D-06 Max=2.13D-04 NDo=     1
 LinEq1:  Iter=  5 NonCon=     1 RMS=3.24D-06 Max=4.19D-05 NDo=     1
 LinEq1:  Iter=  6 NonCon=     1 RMS=1.16D-06 Max=1.84D-05 NDo=     1
 LinEq1:  Iter=  7 NonCon=     1 RMS=2.44D-07 Max=3.22D-06 NDo=     1
 LinEq1:  Iter=  8 NonCon=     1 RMS=5.71D-08 Max=7.32D-07 NDo=     1
 LinEq1:  Iter=  9 NonCon=     1 RMS=8.33D-09 Max=1.64D-07 NDo=     1
 LinEq1:  Iter= 10 NonCon=     1 RMS=8.04D-10 Max=1.55D-08 NDo=     1
 LinEq1:  Iter= 11 NonCon=     1 RMS=9.85D-11 Max=1.43D-09 NDo=     1
 LinEq1:  Iter= 12 NonCon=     0 RMS=1.83D-11 Max=2.03D-10 NDo=     1
 Linear equations converged to 1.000D-10 1.000D-09 after    12 iterations.
 End of Minotr F.D. properties file   721 does not exist.
 End of Minotr F.D. properties file   722 does not exist.
 End of Minotr F.D. properties file   788 does not exist.
 Calling FoFJK, ICntrl=  10002127 FMM=F ISym2X=0 I1Cent= 0 IOpClX= 1 NMat=1 NMatS=1 NMatT=0.
 -------------------------------------------------------------------
 Center     Atomic                   Forces (Hartrees/Bohr)
 Number     Number              X              Y              Z
 -------------------------------------------------------------------
      1        6          -0.000000063    0.000098301    0.000000757
      2        6           0.000000260   -0.000202918   -0.000000623
      3        1          -0.000038093   -0.000007295   -0.000000045
      4        1           0.000038079   -0.000007341   -0.000000175
      5        6          -0.000088565    0.000128946    0.000001698
      6        6           0.000089275    0.000127505   -0.000000033
      7        1           0.000020953   -0.000042278   -0.000028491
      8        1           0.000019254    0.000014993   -0.000001172
      9        1           0.000020745   -0.000042023    0.000028513
     10        1          -0.000020763   -0.000041690    0.000027982
     11        1          -0.000020026    0.000015354    0.000000055
     12        1          -0.000021056   -0.000041554   -0.000028466
 -------------------------------------------------------------------
 Cartesian Forces:  Max     0.000202918 RMS     0.000056707

 GradGradGradGradGradGradGradGradGradGradGradGradGradGradGradGradGradGrad
 Berny optimization.
 Using GEDIIS/GDIIS optimizer.
 FormGI is forming the generalized inverse of G from B-inverse, IUseBI=4.
 Internal  Forces:  Max     0.000097970 RMS     0.000034543
 Search for a local minimum.
 Step number   3 out of a maximum of  100 on scan point     1 out of    37
 All quantities printed in internal units (Hartrees-Bohrs-Radians)
 Mixed Optimization -- En-DIIS/RFO-DIIS
 Swapping is turned off.
 Update second derivatives using D2CorX and points    1    2    3
 DE= -1.22D-06 DEPred=-9.61D-07 R= 1.27D+00
 TightC=F SS=  1.41D+00  RLast= 3.04D-03 DXNew= 5.0454D-01 9.1238D-03
 Trust test= 1.27D+00 RLast= 3.04D-03 DXMaxT set to 3.00D-01
 ITU=  1  1  0
     Eigenvalues ---    0.00715   0.01700   0.03003   0.03003   0.07085
     Eigenvalues ---    0.07311   0.12608   0.16000   0.16000   0.16000
     Eigenvalues ---    0.16000   0.16000   0.16000   0.16000   0.16022
     Eigenvalues ---    0.16346   0.22037   0.25000   0.30896   0.31976
     Eigenvalues ---    0.34305   0.34305   0.34305   0.34770   0.34791
     Eigenvalues ---    0.35051   0.35467   0.37165   0.580281000.00000
     Eigenvalues --- 1000.000001000.000001000.000001000.000001000.00000
     Eigenvalues --- 1000.000001000.000001000.000001000.000001000.00000
 En-DIIS/RFO-DIIS/Sim-DIIS IScMMF=       -3 using points:     3    2    1
 RFO step:  Lambda=-2.53937433D-07.
 DidBck=F Rises=F RFO-DIIS coefs:    1.41117   -0.41943    0.00826
 Iteration  1 RMS(Cart)=  0.00048415 RMS(Int)=  0.00000012
 Iteration  2 RMS(Cart)=  0.00000013 RMS(Int)=  0.00000002
 Iteration  1 RMS(Cart)=  0.00000000 RMS(Int)=  0.00000000
 Variable       Old X    -DE/DX   Delta X   Delta X   Delta X     New X
                                 (Linear)    (Quad)   (Total)
    R1        2.51735   0.00008   0.00015   0.00007   0.00022   2.51757
    R2        2.04252   0.00003   0.00003   0.00003   0.00007   2.04259
    R3        2.04252   0.00003   0.00003   0.00003   0.00007   2.04259
    R4        2.83724  -0.00006  -0.00023  -0.00005  -0.00028   2.83696
    R5        2.83724  -0.00005  -0.00023  -0.00005  -0.00028   2.83696
    R6        2.06323   0.00005   0.00006   0.00010   0.00017   2.06340
    R7        2.05515   0.00002   0.00009  -0.00002   0.00006   2.05522
    R8        2.06323   0.00005   0.00006   0.00010   0.00016   2.06339
    R9        2.06323   0.00005   0.00006   0.00010   0.00016   2.06339
   R10        2.05515   0.00003   0.00009  -0.00002   0.00007   2.05522
   R11        2.06323   0.00005   0.00006   0.00010   0.00016   2.06339
    A1        2.11880  -0.00002  -0.00015  -0.00001  -0.00016   2.11863
    A2        2.11880  -0.00002  -0.00015  -0.00001  -0.00016   2.11863
    A3        2.04559   0.00004   0.00030   0.00003   0.00033   2.04592
    A4        2.13248  -0.00005  -0.00034   0.00003  -0.00030   2.13217
    A5        2.13248  -0.00005  -0.00034   0.00003  -0.00030   2.13217
    A6        2.01823   0.00010   0.00067  -0.00007   0.00061   2.01884
    A7        1.93195   0.00003   0.00021   0.00010   0.00031   1.93225
    A8        1.95019  -0.00001   0.00013  -0.00024  -0.00012   1.95007
    A9        1.93195   0.00003   0.00021   0.00009   0.00030   1.93225
   A10        1.89254  -0.00001  -0.00016   0.00004  -0.00012   1.89242
   A11        1.86184  -0.00003  -0.00026  -0.00001  -0.00027   1.86158
   A12        1.89254  -0.00001  -0.00016   0.00003  -0.00013   1.89241
   A13        1.93195   0.00003   0.00022   0.00009   0.00030   1.93225
   A14        1.95019  -0.00001   0.00012  -0.00023  -0.00011   1.95008
   A15        1.93195   0.00003   0.00021   0.00009   0.00030   1.93226
   A16        1.89254  -0.00001  -0.00017   0.00004  -0.00012   1.89242
   A17        1.86184  -0.00003  -0.00024  -0.00002  -0.00026   1.86158
   A18        1.89254  -0.00001  -0.00017   0.00004  -0.00013   1.89242
    D1        3.14157  -0.00000   0.00001  -0.00003  -0.00002   3.14156
    D2       -0.00001   0.00000   0.00000   0.00001   0.00001   0.00001
    D3       -0.00003  -0.00000   0.00000  -0.00001  -0.00001  -0.00004
    D4        3.14158   0.00000  -0.00000   0.00003   0.00002  -3.14158
    D5        0.00019  -0.00000   0.00000   0.00000  -0.00000   0.00019
    D6       -2.11113   0.00000  -0.00003   0.00001  -0.00002  -2.11115
    D7        0.00010  -0.00000  -0.00001  -0.00004  -0.00005   0.00005
    D8        2.11133  -0.00000   0.00000  -0.00008  -0.00008   2.11125
    D9        1.03048   0.00000  -0.00004   0.00004   0.00001   1.03048
   D10       -3.14149   0.00000  -0.00002   0.00000  -0.00002  -3.14151
   D11       -1.03025  -0.00000  -0.00001  -0.00004  -0.00005  -1.03030
         Item               Value     Threshold  Converged?
 Maximum Force            0.000098     0.000450     YES
 RMS     Force            0.000035     0.000300     YES
 Maximum Displacement     0.001198     0.001800     YES
 RMS     Displacement     0.000484     0.001200     YES
 Predicted change in Energy=-1.269543D-07
 Optimization completed.
    -- Stationary point found.
                           ----------------------------
                           !   Optimized Parameters   !
                           ! (Angstroms and Degrees)  !
 --------------------------                            --------------------------
 ! Name  Definition              Value          Derivative Info.                !
 --------------------------------------------------------------------------------
 ! R1    R(1,2)                  1.3321         -DE/DX =    0.0001              !
 ! R2    R(1,3)                  1.0809         -DE/DX =    0.0                 !
 ! R3    R(1,4)                  1.0809         -DE/DX =    0.0                 !
 ! R4    R(2,5)                  1.5014         -DE/DX =   -0.0001              !
 ! R5    R(2,6)                  1.5014         -DE/DX =   -0.0001              !
 ! R6    R(5,7)                  1.0918         -DE/DX =    0.0                 !
 ! R7    R(5,8)                  1.0875         -DE/DX =    0.0                 !
 ! R8    R(5,9)                  1.0918         -DE/DX =    0.0                 !
 ! R9    R(6,10)                 1.0918         -DE/DX =    0.0                 !
 ! R10   R(6,11)                 1.0875         -DE/DX =    0.0                 !
 ! R11   R(6,12)                 1.0918         -DE/DX =    0.0                 !
 ! A1    A(2,1,3)              121.3982         -DE/DX =    0.0                 !
 ! A2    A(2,1,4)              121.3982         -DE/DX =    0.0                 !
 ! A3    A(3,1,4)              117.2036         -DE/DX =    0.0                 !
 ! A4    A(1,2,5)              122.1819         -DE/DX =    0.0                 !
 ! A5    A(1,2,6)              122.1819         -DE/DX =    0.0                 !
 ! A6    A(5,2,6)              115.6362         -DE/DX =    0.0001              !
 ! A7    A(2,5,7)              110.6923         -DE/DX =    0.0                 !
 ! A8    A(2,5,8)              111.7377         -DE/DX =    0.0                 !
 ! A9    A(2,5,9)              110.6927         -DE/DX =    0.0                 !
 ! A10   A(7,5,8)              108.4348         -DE/DX =    0.0                 !
 ! A11   A(7,5,9)              106.6758         -DE/DX =    0.0                 !
 ! A12   A(8,5,9)              108.4343         -DE/DX =    0.0                 !
 ! A13   A(2,6,10)             110.6923         -DE/DX =    0.0                 !
 ! A14   A(2,6,11)             111.7377         -DE/DX =    0.0                 !
 ! A15   A(2,6,12)             110.6927         -DE/DX =    0.0                 !
 ! A16   A(10,6,11)            108.4345         -DE/DX =    0.0                 !
 ! A17   A(10,6,12)            106.6756         -DE/DX =    0.0                 !
 ! A18   A(11,6,12)            108.4348         -DE/DX =    0.0                 !
 ! D1    D(3,1,2,5)            179.9989         -DE/DX =    0.0                 !
 ! D2    D(3,1,2,6)             -0.0005         -DE/DX =    0.0                 !
 ! D3    D(4,1,2,5)             -0.0015         -DE/DX =    0.0                 !
 ! D4    D(4,1,2,6)           -180.0009         -DE/DX =    0.0                 !
 ! D5    D(1,2,5,8)              0.0111         -DE/DX =    0.0                 !
 ! D6    D(1,2,6,10)          -120.9587         -DE/DX =    0.0                 !
 ! D7    D(1,2,6,11)             0.0055         -DE/DX =    0.0                 !
 ! D8    D(1,2,6,12)           120.9703         -DE/DX =    0.0                 !
 ! D9    D(5,2,6,10)            59.0419         -DE/DX =    0.0                 !
 ! D10   D(5,2,6,11)          -179.9939         -DE/DX =    0.0                 !
 ! D11   D(5,2,6,12)           -59.0291         -DE/DX =    0.0                 !
 --------------------------------------------------------------------------------
 Iteration  1 RMS(Cart)=  0.08219079 RMS(Int)=  0.00542130
 Iteration  2 RMS(Cart)=  0.00652504 RMS(Int)=  0.00002047
 Iteration  3 RMS(Cart)=  0.00003651 RMS(Int)=  0.00000000
 Iteration  4 RMS(Cart)=  0.00000000 RMS(Int)=  0.00000000
 Iteration  1 RMS(Cart)=  0.00000000 RMS(Int)=  0.00000000
 GradGradGradGradGradGradGradGradGradGradGradGradGradGradGradGradGradGrad

                          Input orientation:                          
 ---------------------------------------------------------------------
 Center     Atomic      Atomic             Coordinates (Angstroms)
 Number     Number       Type             X           Y           Z
 ---------------------------------------------------------------------
      1          6           0       -0.000187    1.454005   -0.033435
      2          6           0       -0.000044    0.122087   -0.004137
      3          1           0       -0.922891    2.016978   -0.035176
      4          1           0        0.922396    2.016709   -0.056456
      5          6           0        1.270802   -0.677103   -0.001261
      6          6           0       -1.270718   -0.676731    0.028083
      7          1           0        1.392261   -1.212704   -0.944993
      8          1           0        2.143219   -0.045680    0.150434
      9          1           0        1.250160   -1.432437    0.786960
     10          1           0       -1.307712   -1.307648    0.918490
     11          1           0       -2.149430   -0.035897    0.024068
     12          1           0       -1.327857   -1.346243   -0.832577
 ---------------------------------------------------------------------
                    Distance matrix (angstroms):
                    1          2          3          4          5
     1  C    0.000000
     2  C    1.332241   0.000000
     3  H    1.080891   2.107896   0.000000
     4  H    1.080891   2.107896   1.845410   0.000000
     5  C    2.481546   1.501253   3.474409   2.716810   0.000000
     6  C    2.481546   1.501253   2.716810   3.474408   2.541689
     7  H    3.143435   2.146017   4.076585   3.382215   1.091902
     8  H    2.622413   2.155368   3.700006   2.405547   1.087575
     9  H    3.250840   2.146017   4.158909   3.565864   1.091901
    10  H    3.200392   2.146014   3.480044   4.120103   2.809317
    11  H    2.615791   2.155369   2.392113   3.695375   3.479910
    12  H    3.200426   2.146018   3.480101   4.120127   2.809246
                    6          7          8          9         10
     6  C    0.000000
     7  H    2.885412   0.000000
     8  H    3.473926   1.768005   0.000000
     9  H    2.738944   1.751610   1.767997   0.000000
    10  H    1.091901   3.281987   3.753851   2.564290   0.000000
    11  H    1.087575   3.855844   4.294520   3.753604   1.768001
    12  H    1.091901   2.725713   3.834859   3.045735   1.751608
                   11         12
    11  H    0.000000
    12  H    1.768002   0.000000
 Symmetry turned off by external request.
 Stoichiometry    C4H8
 Framework group  C1[X(C4H8)]
 Deg. of freedom    30
 Full point group                 C1      NOp   1
 Rotational constants (GHZ):           9.1997842           8.4388598           4.6521144
 Standard basis: CC-pVTZ (5D, 7F)
   232 basis functions,   344 primitive gaussians,   260 cartesian basis functions
    16 alpha electrons       16 beta electrons
       nuclear repulsion energy       120.0107158680 Hartrees.
 NAtoms=   12 NActive=   12 NUniq=   12 SFac= 1.00D+00 NAtFMM=   60 NAOKFM=F Big=F
 Integral buffers will be    131072 words long.
 Raffenetti 2 integral format.
 Two-electron integral symmetry is turned off.
 Nuclear repulsion after empirical dispersion term =      120.0048263000 Hartrees.
 One-electron integrals computed using PRISM.
 NBasis=   232 RedAO= T EigKep=  3.78D-04  NBF=   232
 NBsUse=   232 1.00D-06 EigRej= -1.00D+00 NBFU=   232
 Initial guess from the checkpoint file:  "/localscratch/339543/Gau-81996.chk"
 B after Tr=    -0.000043   -0.000169   -0.003179
         Rot=    0.999986    0.004665   -0.002364    0.000003 Ang=   0.60 deg.
 Initial guess <Sx>= 0.0000 <Sy>= 0.0000 <Sz>= 0.0000 <S**2>=-0.0000 S=-0.0000
 Keep R1 and R2 ints in memory in canonical form, NReq=774238648.
 Requested convergence on RMS density matrix=1.00D-08 within 500 cycles.
 Requested convergence on MAX density matrix=1.00D-06.
 Requested convergence on             energy=1.00D-06.
 No special actions if energy rises.
 SCF Done:  E(UB2PLYPD3) =  -156.907034848     A.U. after    9 cycles
            NFock=  9  Conv=0.82D-08     -V/T= 2.0047
 <Sx>= 0.0000 <Sy>= 0.0000 <Sz>= 0.0000 <S**2>=-0.0000 S=-0.0000
 <L.S>=  0.00000000000    
 Annihilation of the first spin contaminant:
 S**2 before annihilation    -0.0000,   after    -0.0000
 DoSCS=T DFT=T ScalE2(SS,OS)=  0.270000  0.270000
[...]
  Beta  occ. eigenvalues --   -0.28998
  Beta virt. eigenvalues --    0.07694   0.07783   0.12014   0.12467   0.14344
  Beta virt. eigenvalues --    0.15284   0.16142   0.19116   0.20634   0.21038
  Beta virt. eigenvalues --    0.27391   0.27616   0.30006   0.31713   0.33278
  Beta virt. eigenvalues --    0.38693   0.40031   0.42528   0.42883   0.43559
  Beta virt. eigenvalues --    0.49660   0.50170   0.51212   0.52903   0.53352
  Beta virt. eigenvalues --    0.53728   0.53847   0.54881   0.56182   0.59464
  Beta virt. eigenvalues --    0.62527   0.64443   0.65038   0.65613   0.71612
  Beta virt. eigenvalues --    0.74498   0.75026   0.81815   0.84704   0.86514
  Beta virt. eigenvalues --    0.90363   0.91224   0.95768   1.00793   1.01326
  Beta virt. eigenvalues --    1.01834   1.02055   1.05215   1.06297   1.09213
  Beta virt. eigenvalues --    1.09310   1.12317   1.14583   1.16779   1.19383
  Beta virt. eigenvalues --    1.25556   1.26565   1.29620   1.29631   1.29935
  Beta virt. eigenvalues --    1.30622   1.33703   1.34960   1.38626   1.40338
  Beta virt. eigenvalues --    1.40528   1.42656   1.44055   1.46175   1.51629
  Beta virt. eigenvalues --    1.52845   1.57310   1.58602   1.60344   1.62196
  Beta virt. eigenvalues --    1.62992   1.71490   1.81536   1.82403   1.94718
  Beta virt. eigenvalues --    2.15723   2.26358   2.26705   2.33083   2.36606
  Beta virt. eigenvalues --    2.40344   2.43670   2.46404   2.48234   2.53543
  Beta virt. eigenvalues --    2.63059   2.66495   2.69166   2.70351   2.72343
  Beta virt. eigenvalues --    2.73211   2.76506   2.79255   2.84728   2.88483
  Beta virt. eigenvalues --    2.91005   2.91888   2.93696   2.93915   2.96739
  Beta virt. eigenvalues --    3.00801   3.01053   3.01121   3.04071   3.04413
  Beta virt. eigenvalues --    3.07207   3.07719   3.11282   3.11712   3.14559
  Beta virt. eigenvalues --    3.16884   3.20353   3.20677   3.20932   3.21400
  Beta virt. eigenvalues --    3.24212   3.24768   3.31964   3.35848   3.38977
  Beta virt. eigenvalues --    3.40250   3.42092   3.44268   3.45760   3.47962
  Beta virt. eigenvalues --    3.48503   3.53809   3.54279   3.54439   3.54479
  Beta virt. eigenvalues --    3.60454   3.61564   3.64403   3.66385   3.67003
  Beta virt. eigenvalues --    3.71030   3.71712   3.79782   3.82106   3.85257
  Beta virt. eigenvalues --    3.86692   3.86898   3.93292   3.93747   3.96717
  Beta virt. eigenvalues --    3.96770   4.00775   4.01388   4.03998   4.04553
  Beta virt. eigenvalues --    4.08709   4.11716   4.13590   4.14165   4.14245
  Beta virt. eigenvalues --    4.14400   4.20775   4.22577   4.26109   4.26977
  Beta virt. eigenvalues --    4.28583   4.33638   4.34211   4.36011   4.41470
  Beta virt. eigenvalues --    4.44210   4.46210   4.52794   4.59528   4.60262
  Beta virt. eigenvalues --    4.60877   4.66026   4.66201   4.68508   4.88641
  Beta virt. eigenvalues --    4.89710   4.91460   4.93225   4.98667   5.03852
  Beta virt. eigenvalues --    5.05874   5.06173   5.13534   5.14366   5.26140
  Beta virt. eigenvalues --    5.26797   5.27685   5.28834   5.31911   5.34773
  Beta virt. eigenvalues --    5.36109   5.42019   5.44214   5.45640   5.46069
  Beta virt. eigenvalues --    5.47990   5.49382   5.54325   5.61107   5.73897
  Beta virt. eigenvalues --    5.97425   5.98238   6.01159   6.02731   6.05279
  Beta virt. eigenvalues --    6.13206   6.35695   9.83903  13.90673  14.17722
  Beta virt. eigenvalues --   14.46148
          Condensed to atoms (all electrons):
               1          2          3          4          5          6
     1  C    5.012809   0.639241   0.412534   0.412541  -0.052997  -0.052991
     2  C    0.639241   4.873022  -0.048742  -0.048742   0.362600   0.362608
     3  H    0.412534  -0.048742   0.556029  -0.037223   0.007530  -0.009439
     4  H    0.412541  -0.048742  -0.037223   0.556024  -0.009441   0.007529
     5  C   -0.052997   0.362600   0.007530  -0.009441   4.807580  -0.062274
     6  C   -0.052991   0.362608  -0.009439   0.007529  -0.062274   4.807584
     7  H    0.000229  -0.042313  -0.000373   0.000238   0.405471  -0.002621
     8  H   -0.006726  -0.037916   0.000021   0.003153   0.412857   0.006155
     9  H    0.000237  -0.042315  -0.000373   0.000238   0.405482  -0.002637
    10  H    0.000242  -0.042315   0.000238  -0.000373  -0.002632   0.405482
    11  H   -0.006725  -0.037907   0.003153   0.000021   0.006155   0.412849
    12  H    0.000225  -0.042311   0.000238  -0.000373  -0.002625   0.405473
               7          8          9         10         11         12
     1  C    0.000229  -0.006726   0.000237   0.000242  -0.006725   0.000225
     2  C   -0.042313  -0.037916  -0.042315  -0.042315  -0.037907  -0.042311
     3  H   -0.000373   0.000021  -0.000373   0.000238   0.003153   0.000238
     4  H    0.000238   0.003153   0.000238  -0.000373   0.000021  -0.000373
     5  C    0.405471   0.412857   0.405482  -0.002632   0.006155  -0.002625
     6  C   -0.002621   0.006155  -0.002637   0.405482   0.412849   0.405473
     7  H    0.611883  -0.027326  -0.042164  -0.001586  -0.000107   0.004126
     8  H   -0.027326   0.578736  -0.027330  -0.000107  -0.000386  -0.000107
     9  H   -0.042164  -0.027330   0.611873   0.004128  -0.000107  -0.001583
    10  H   -0.001586  -0.000107   0.004128   0.611873  -0.027335  -0.042162
    11  H   -0.000107  -0.000386  -0.000107  -0.027335   0.578747  -0.027329
    12  H    0.004126  -0.000107  -0.001583  -0.042162  -0.027329   0.611866
          Atomic-Atomic Spin Densities.
               1          2          3          4          5          6
     1  C   -0.000000   0.000000  -0.000000   0.000000   0.000000   0.000000
     2  C    0.000000  -0.000000   0.000000   0.000000  -0.000000  -0.000000
     3  H   -0.000000   0.000000  -0.000000   0.000000  -0.000000  -0.000000
     4  H    0.000000   0.000000   0.000000  -0.000000   0.000000  -0.000000
     5  C    0.000000  -0.000000  -0.000000   0.000000  -0.000000  -0.000000
     6  C    0.000000  -0.000000  -0.000000  -0.000000  -0.000000   0.000000
     7  H    0.000000   0.000000  -0.000000  -0.000000  -0.000000  -0.000000
     8  H    0.000000  -0.000000  -0.000000   0.000000   0.000000   0.000000
     9  H    0.000000   0.000000   0.000000   0.000000   0.000000   0.000000
    10  H   -0.000000  -0.000000  -0.000000  -0.000000   0.000000   0.000000
    11  H   -0.000000   0.000000  -0.000000  -0.000000  -0.000000   0.000000
    12  H    0.000000   0.000000  -0.000000   0.000000  -0.000000  -0.000000
               7          8          9         10         11         12
     1  C    0.000000   0.000000   0.000000  -0.000000  -0.000000   0.000000
     2  C    0.000000  -0.000000   0.000000  -0.000000   0.000000   0.000000
     3  H   -0.000000  -0.000000   0.000000  -0.000000  -0.000000  -0.000000
     4  H   -0.000000   0.000000   0.000000  -0.000000  -0.000000   0.000000
     5  C   -0.000000   0.000000   0.000000   0.000000  -0.000000  -0.000000
     6  C   -0.000000   0.000000   0.000000   0.000000   0.000000  -0.000000
     7  H   -0.000000  -0.000000  -0.000000  -0.000000   0.000000  -0.000000
     8  H   -0.000000  -0.000000   0.000000  -0.000000   0.000000   0.000000
     9  H   -0.000000   0.000000  -0.000000   0.000000  -0.000000  -0.000000
    10  H   -0.000000  -0.000000   0.000000   0.000000  -0.000000   0.000000
    11  H    0.000000   0.000000  -0.000000  -0.000000  -0.000000   0.000000
    12  H   -0.000000   0.000000  -0.000000   0.000000   0.000000  -0.000000
 Mulliken charges and spin densities:
               1          2
     1  C   -0.358619   0.000000
     2  C    0.105088  -0.000000
     3  H    0.116407  -0.000000
     4  H    0.116407  -0.000000
     5  C   -0.277706  -0.000000
     6  C   -0.277720   0.000000
     7  H    0.094543  -0.000000
     8  H    0.098974  -0.000000
     9  H    0.094549   0.000000
    10  H    0.094546   0.000000
    11  H    0.098970   0.000000
    12  H    0.094562  -0.000000
 Sum of Mulliken charges =  -0.00000  -0.00000
 Mulliken charges and spin densities with hydrogens summed into heavy atoms:
               1          2
     1  C   -0.125805  -0.000000
     2  C    0.105088  -0.000000
     5  C    0.010360  -0.000000
     6  C    0.010357   0.000000
 Electronic spatial extent (au):  <R**2>=            324.1931
 Charge=             -0.0000 electrons
 Dipole moment (field-independent basis, Debye):
    X=              0.0877    Y=             -0.3968    Z=              0.3801  Tot=              0.5564
 Quadrupole moment (field-independent basis, Debye-Ang):
   XX=            -26.2839   YY=            -27.2926   ZZ=            -27.1614
   XY=             -0.5562   XZ=             -0.6325   YZ=             -0.7661
 Traceless Quadrupole moment (field-independent basis, Debye-Ang):
   XX=              0.6288   YY=             -0.3800   ZZ=             -0.2488
   XY=             -0.5562   XZ=             -0.6325   YZ=             -0.7661
 Octapole moment (field-independent basis, Debye-Ang**2):
  XXX=              0.5327  YYY=             -1.0423  ZZZ=              7.2618  XYY=             -1.1473
  XXY=              2.0789  XXZ=              1.2889  XZZ=              2.8040  YZZ=              2.2233
  YYZ=              0.6262  XYZ=              0.0495
 Hexadecapole moment (field-independent basis, Debye-Ang**3):
 XXXX=           -188.7504 YYYY=           -126.9587 ZZZZ=           -140.9112 XXXY=             18.9945
 XXXZ=             20.1774 YYYX=             20.1076 YYYZ=             31.6512 ZZZX=             19.0284
 ZZZY=             30.4631 XXYY=            -51.7857 XXZZ=            -54.3820 YYZZ=            -44.1811
 XXYZ=              9.6094 YYXZ=              7.2771 ZZXY=              7.5983
 N-N= 1.200045418366D+02 E-N=-6.033095420739D+02  KE= 1.561662772536D+02
                          Isotropic Fermi Contact Couplings
        Atom                 a.u.       MegaHertz       Gauss      10(-4) cm-1
     1  C(13)              0.00000       0.00000       0.00000       0.00000
     2  C(13)              0.00000       0.00000       0.00000       0.00000
     3  H(1)              -0.00000      -0.00000      -0.00000      -0.00000
     4  H(1)              -0.00000      -0.00000      -0.00000      -0.00000
     5  C(13)             -0.00000      -0.00000      -0.00000      -0.00000
     6  C(13)             -0.00000      -0.00000      -0.00000      -0.00000
     7  H(1)               0.00000       0.00000       0.00000       0.00000
     8  H(1)               0.00000       0.00000       0.00000       0.00000
     9  H(1)              -0.00000      -0.00000      -0.00000      -0.00000
    10  H(1)               0.00000       0.00000       0.00000       0.00000
    11  H(1)              -0.00000      -0.00000      -0.00000      -0.00000
    12  H(1)               0.00000       0.00000       0.00000       0.00000
 --------------------------------------------------------
       Center         ----  Spin Dipole Couplings  ----
                      3XX-RR        3YY-RR        3ZZ-RR
 --------------------------------------------------------
     1   Atom        0.000000      0.000000      0.000000
     2   Atom        0.000000      0.000000      0.000000
     3   Atom        0.000000      0.000000      0.000000
     4   Atom        0.000000      0.000000      0.000000
     5   Atom        0.000000      0.000000      0.000000
     6   Atom        0.000000      0.000000      0.000000
     7   Atom        0.000000      0.000000      0.000000
     8   Atom        0.000000      0.000000      0.000000
     9   Atom        0.000000      0.000000      0.000000
    10   Atom        0.000000      0.000000      0.000000
    11   Atom        0.000000      0.000000      0.000000
    12   Atom        0.000000      0.000000      0.000000
 --------------------------------------------------------
                        XY            XZ            YZ
 --------------------------------------------------------
     1   Atom        0.000000      0.000000      0.000000
     2   Atom        0.000000      0.000000      0.000000
     3   Atom        0.000000      0.000000      0.000000
     4   Atom        0.000000      0.000000      0.000000
     5   Atom        0.000000      0.000000      0.000000
     6   Atom        0.000000      0.000000      0.000000
     7   Atom        0.000000      0.000000      0.000000
     8   Atom        0.000000      0.000000      0.000000
     9   Atom        0.000000      0.000000      0.000000
    10   Atom        0.000000      0.000000      0.000000
    11   Atom        0.000000      0.000000      0.000000
    12   Atom        0.000000      0.000000      0.000000
 --------------------------------------------------------


 ---------------------------------------------------------------------------------
              Anisotropic Spin Dipole Couplings in Principal Axis System
 ---------------------------------------------------------------------------------

       Atom             a.u.   MegaHertz   Gauss  10(-4) cm-1        Axes

              Baa     0.0000     0.000     0.000     0.000  1.0000  0.0000  0.0000
     1 C(13)  Bbb     0.0000     0.000     0.000     0.000 -0.0000  1.0000  0.0000
              Bcc     0.0000     0.000     0.000     0.000  0.0000  0.0000  1.0000
 
              Baa     0.0000     0.000     0.000     0.000  1.0000  0.0000  0.0000
     2 C(13)  Bbb     0.0000     0.000     0.000     0.000 -0.0000  1.0000  0.0000
              Bcc     0.0000     0.000     0.000     0.000  0.0000  0.0000  1.0000
 
              Baa     0.0000     0.000     0.000     0.000  1.0000  0.0000  0.0000
     3 H(1)   Bbb     0.0000     0.000     0.000     0.000 -0.0000  1.0000  0.0000
              Bcc     0.0000     0.000     0.000     0.000  0.0000  0.0000  1.0000
 
              Baa     0.0000     0.000     0.000     0.000  1.0000  0.0000  0.0000
     4 H(1)   Bbb     0.0000     0.000     0.000     0.000 -0.0000  1.0000  0.0000
              Bcc     0.0000     0.000     0.000     0.000  0.0000  0.0000  1.0000
 
              Baa     0.0000     0.000     0.000     0.000  1.0000  0.0000  0.0000
     5 C(13)  Bbb     0.0000     0.000     0.000     0.000 -0.0000  1.0000  0.0000
              Bcc     0.0000     0.000     0.000     0.000  0.0000  0.0000  1.0000
 
              Baa     0.0000     0.000     0.000     0.000  1.0000  0.0000  0.0000
     6 C(13)  Bbb     0.0000     0.000     0.000     0.000 -0.0000  1.0000  0.0000
              Bcc     0.0000     0.000     0.000     0.000  0.0000  0.0000  1.0000
 
              Baa     0.0000     0.000     0.000     0.000  1.0000  0.0000  0.0000
     7 H(1)   Bbb     0.0000     0.000     0.000     0.000 -0.0000  1.0000  0.0000
              Bcc     0.0000     0.000     0.000     0.000  0.0000  0.0000  1.0000
 
              Baa     0.0000     0.000     0.000     0.000  1.0000  0.0000  0.0000
     8 H(1)   Bbb     0.0000     0.000     0.000     0.000 -0.0000  1.0000  0.0000
              Bcc     0.0000     0.000     0.000     0.000  0.0000  0.0000  1.0000
 
              Baa     0.0000     0.000     0.000     0.000  1.0000  0.0000  0.0000
     9 H(1)   Bbb     0.0000     0.000     0.000     0.000 -0.0000  1.0000  0.0000
              Bcc     0.0000     0.000     0.000     0.000  0.0000  0.0000  1.0000
 
              Baa     0.0000     0.000     0.000     0.000  1.0000  0.0000  0.0000
    10 H(1)   Bbb     0.0000     0.000     0.000     0.000 -0.0000  1.0000  0.0000
              Bcc     0.0000     0.000     0.000     0.000  0.0000  0.0000  1.0000
 
              Baa     0.0000     0.000     0.000     0.000  1.0000  0.0000  0.0000
    11 H(1)   Bbb     0.0000     0.000     0.000     0.000 -0.0000  1.0000  0.0000
              Bcc     0.0000     0.000     0.000     0.000  0.0000  0.0000  1.0000
 
              Baa     0.0000     0.000     0.000     0.000  1.0000  0.0000  0.0000
    12 H(1)   Bbb     0.0000     0.000     0.000     0.000 -0.0000  1.0000  0.0000
              Bcc     0.0000     0.000     0.000     0.000  0.0000  0.0000  1.0000
 

 ---------------------------------------------------------------------------------

 1\1\GINC-N69\Scan\UB2PLYPD3-FC\CC-pVTZ\C4H8\ROOT\01-Jun-2019\0\\# opt=
 (maxcyc=500,modredundant) uB2PLYPD3/cc-pvtz scf=maxcyc=500 nosymm\\Tit
 le Card Required\\0,1\C,-0.2443410247,1.0100157381,-1.0576794605\C,-0.
 0340529964,0.0602330535,-0.1474437388\H,-1.1759753858,1.5567539141,-1.
 0959402974\H,0.5095497022,1.2660054912,-1.7887375189\C,1.2528843999,-0
 .7097097138,-0.0785597696\C,-1.0687282271,-0.3094407481,0.8755887847\H
 ,1.0699878638,-1.779266952,-0.2005236895\H,1.9543086352,-0.3910617706,
 -0.8462040627\H,1.7271801753,-0.5824964896,0.8966950299\H,-0.680389779
 1,-0.1678507108,1.8862266406\H,-1.9723302332,0.2861740533,0.7679201375
 \H,-1.33809313,-1.3640198652,0.7886589446\\Version=ES64L-G16RevB.01\HF
 =-156.9072857,-156.9070789,-156.9065024,-156.9056524,-156.9047198,-156
 .9039759,-156.9036935,-156.9039888,-156.9047306,-156.9056477,-156.9064
 791,-156.9070541,-156.9072796,-156.9071232,-156.9065972,-156.9057742,-
 156.9048171,-156.9040147,-156.9036931,-156.9040154,-156.9048197,-156.9
 057745,-156.9065986,-156.9071238,-156.9072803,-156.907054,-156.9064787
 ,-156.9056445,-156.9047282,-156.9039868,-156.903693,-156.903977,-156.9
 047222,-156.9056554,-156.9065045,-156.9070801,-156.9072814\MP2=-157.13
 12461,-157.1310537,-157.1305027,-157.1296834,-157.128775,-157.1280419,
 -157.1277618,-157.1280567,-157.1287883,-157.1296798,-157.1304811,-157.
 1310298,-157.1312445,-157.1310973,-157.1305971,-157.1298057,-157.12887
 59,-157.1280821,-157.1277614,-157.1280828,-157.1288767,-157.1298066,-1
 57.1305983,-157.1310982,-157.1312449,-157.1310298,-157.1304802,-157.12
 9678,-157.1287858,-157.1280547,-157.1277613,-157.1280428,-157.1287773,
 -157.1296863,-157.1305047,-157.1310548,-157.1312461\PUHF=-156.9072857,
 -156.9070789,-156.9065024,-156.9056524,-156.9047198,-156.9039759,-156.
 9036935,-156.9039888,-156.9047306,-156.9056477,-156.9064791,-156.90705
 41,-156.9072796,-156.9071232,-156.9065972,-156.9057742,-156.9048171,-1
 56.9040147,-156.9036931,-156.9040154,-156.9048197,-156.9057745,-156.90
 65986,-156.9071238,-156.9072803,-156.907054,-156.9064787,-156.9056445,
 -156.9047282,-156.9039868,-156.903693,-156.903977,-156.9047222,-156.90
 56554,-156.9065045,-156.9070801,-156.9072814\PMP2-0=-157.1312461,-157.
 1310537,-157.1305027,-157.1296834,-157.128775,-157.1280419,-157.127761
 8,-157.1280567,-157.1287883,-157.1296798,-157.1304811,-157.1310298,-15
 7.1312445,-157.1310973,-157.1305971,-157.1298057,-157.1288759,-157.128
 0821,-157.1277614,-157.1280828,-157.1288767,-157.1298066,-157.1305983,
 -157.1310982,-157.1312449,-157.1310298,-157.1304802,-157.129678,-157.1
 287858,-157.1280547,-157.1277613,-157.1280428,-157.1287773,-157.129686
 3,-157.1305047,-157.1310548,-157.1312461\S2=0.,0.,0.,0.,0.,0.,0.,0.,0.
 ,0.,0.,0.,0.,0.,0.,0.,0.,0.,0.,0.,0.,0.,0.,0.,0.,0.,0.,0.,0.,0.,0.,0.,
 0.,0.,0.,0.,0.\S2-1=0.,0.,0.,0.,0.,0.,0.,0.,0.,0.,0.,0.,0.,0.,0.,0.,0.
 ,0.,0.,0.,0.,0.,0.,0.,0.,0.,0.,0.,0.,0.,0.,0.,0.,0.,0.,0.,0.\S2A=0.,0.
 ,0.,0.,0.,0.,0.,0.,0.,0.,0.,0.,0.,0.,0.,0.,0.,0.,0.,0.,0.,0.,0.,0.,0.,
 0.,0.,0.,0.,0.,0.,0.,0.,0.,0.,0.,0.\RMSD=5.438e-09,6.837e-09,5.575e-09
 ,4.002e-09,7.675e-09,8.483e-09,5.239e-09,5.042e-09,3.018e-09,2.529e-09
 ,8.310e-09,6.107e-09,8.224e-09,3.694e-09,6.059e-09,4.093e-09,2.297e-09
 ,4.729e-09,3.100e-09,3.484e-09,9.476e-09,2.191e-09,7.139e-09,6.006e-09
 ,4.316e-09,9.414e-09,9.546e-09,6.939e-09,5.828e-09,4.646e-09,4.064e-09
 ,6.105e-09,4.639e-09,7.351e-09,6.714e-09,4.158e-09,7.010e-09\PG=C01 [X
 (C4H8)]\\@


 CURIOUSER AND CURIOUSER

                  -- ALICE, IN WONDERLAND
 Job cpu time:       3 days  0 hours 46 minutes  9.8 seconds.
 Elapsed time:       0 days  2 hours 33 minutes 33.5 seconds.
 File lengths (MBytes):  RWF=     51 Int=      0 D2E=      0 Chk=     12 Scr=      1
 Normal termination of Gaussian 16 at Sat Jun  1 16:07:36 2019.
