 Entering Gaussian System, Link 0=g16
 Initial command:
 /ichec/packages/gaussian/16b01/l1.exe "/localscratch/339542/Gau-67259.inp" -scrdir="/localscratch/339542/"
 Entering Link 1 = /ichec/packages/gaussian/16b01/l1.exe PID=     67268.
  
 Copyright (c) 1988-2017, Gaussian, Inc.  All Rights Reserved.
  
 This is part of the Gaussian(R) 16 program.  It is based on
 the Gaussian(R) 09 system (copyright 2009, Gaussian, Inc.),
 the Gaussian(R) 03 system (copyright 2003, Gaussian, Inc.),
 the Gaussian(R) 98 system (copyright 1998, Gaussian, Inc.),
 the Gaussian(R) 94 system (copyright 1995, Gaussian, Inc.),
 the Gaussian 92(TM) system (copyright 1992, Gaussian, Inc.),
 the Gaussian 90(TM) system (copyright 1990, Gaussian, Inc.),
 the Gaussian 88(TM) system (copyright 1988, Gaussian, Inc.),
 the Gaussian 86(TM) system (copyright 1986, Carnegie Mellon
 University), and the Gaussian 82(TM) system (copyright 1983,
 Carnegie Mellon University). Gaussian is a federally registered
 trademark of Gaussian, Inc.
  
 This software contains proprietary and confidential information,
 including trade secrets, belonging to Gaussian, Inc.
  
 This software is provided under written license and may be
 used, copied, transmitted, or stored only in accord with that
 written license.
  
 The following legend is applicable only to US Government
 contracts under FAR:
  
                    RESTRICTED RIGHTS LEGEND
  
 Use, reproduction and disclosure by the US Government is
 subject to restrictions as set forth in subparagraphs (a)
 and (c) of the Commercial Computer Software - Restricted
 Rights clause in FAR 52.227-19.
  
 Gaussian, Inc.
 340 Quinnipiac St., Bldg. 40, Wallingford CT 06492
  
  
 ---------------------------------------------------------------
 Warning -- This program may not be used in any manner that
 competes with the business of Gaussian, Inc. or will provide
 assistance to any competitor of Gaussian, Inc.  The licensee
 of this program is prohibited from giving any competitor of
 Gaussian, Inc. access to this program.  By using this program,
 the user acknowledges that Gaussian, Inc. is engaged in the
 business of creating and licensing software in the field of
 computational chemistry and represents and warrants to the
 licensee that it is not a competitor of Gaussian, Inc. and that
 it will not use this program in any manner prohibited above.
 ---------------------------------------------------------------
  

 Cite this work as:
 Gaussian 16, Revision B.01,
 M. J. Frisch, G. W. Trucks, H. B. Schlegel, G. E. Scuseria, 
 M. A. Robb, J. R. Cheeseman, G. Scalmani, V. Barone, 
 G. A. Petersson, H. Nakatsuji, X. Li, M. Caricato, A. V. Marenich, 
 J. Bloino, B. G. Janesko, R. Gomperts, B. Mennucci, H. P. Hratchian, 
 J. V. Ortiz, A. F. Izmaylov, J. L. Sonnenberg, D. Williams-Young, 
 F. Ding, F. Lipparini, F. Egidi, J. Goings, B. Peng, A. Petrone, 
 T. Henderson, D. Ranasinghe, V. G. Zakrzewski, J. Gao, N. Rega, 
 G. Zheng, W. Liang, M. Hada, M. Ehara, K. Toyota, R. Fukuda, 
 J. Hasegawa, M. Ishida, T. Nakajima, Y. Honda, O. Kitao, H. Nakai, 
 T. Vreven, K. Throssell, J. A. Montgomery, Jr., J. E. Peralta, 
 F. Ogliaro, M. J. Bearpark, J. J. Heyd, E. N. Brothers, K. N. Kudin, 
 V. N. Staroverov, T. A. Keith, R. Kobayashi, J. Normand, 
 K. Raghavachari, A. P. Rendell, J. C. Burant, S. S. Iyengar, 
 J. Tomasi, M. Cossi, J. M. Millam, M. Klene, C. Adamo, R. Cammi, 
 J. W. Ochterski, R. L. Martin, K. Morokuma, O. Farkas, 
 J. B. Foresman, and D. J. Fox, Gaussian, Inc., Wallingford CT, 2016.
 
 ******************************************
 Gaussian 16:  ES64L-G16RevB.01 20-Dec-2017
                 1-Jun-2019 
 ******************************************
 %mem=80GB
 %nproc=40
 Will use up to   40 processors via shared memory.
 -----------------------------------------------
 # opt=maxcyc=500 freq=noraman uB2PLYPD3/cc-pvtz
 -----------------------------------------------
 1/6=500,18=20,19=15,38=1/1,3;
 2/9=110,12=2,17=6,18=5,40=1/2;
 3/5=16,6=1,11=2,25=1,30=1,71=1,74=-60,116=2/1,2,3;
 4//1;
 5/5=2,38=5/2;
 8/6=4,10=1/1;
 9/15=2,16=-3/6;
 10/5=1/2;
 6/7=2,8=2,9=2,10=2/1;
 7/12=2/1,2,3,16;
 1/6=500,18=20,19=15/3(2);
 2/9=110/2;
 99//99;
 2/9=110/2;
 3/5=16,6=1,11=2,25=1,30=1,71=1,74=-60,116=2/1,2,3;
 4/5=5,16=3,69=1/1;
 5/5=2,38=5/2;
 8/6=4,10=1/1;
 9/15=2,16=-3/6;
 10/5=1/2;
 7/12=2/1,2,3,16;
 1/6=500,18=20,19=15/3(-8);
 2/9=110/2;
 6/7=2,8=2,9=2,10=2/1;
 99/9=10/99;
 -------------------
 Title Card Required
 -------------------
 Symbolic Z-matrix:
 Charge =  0 Multiplicity = 2
 C                     0.        1.45619   0. 
 C                     0.        0.1253    0. 
 H                     0.92542   2.02147   0.00012 
 C                     1.27116  -0.67828   0.00011 
 C                    -1.27116  -0.67828  -0.00011 
 H                     1.3127   -1.32885  -0.87899 
 H                     2.15371  -0.03825   0.00038 
 H                     1.31238  -1.32917   0.87899 
 H                    -1.3127   -1.32885   0.87899 
 H                    -2.15371  -0.03825  -0.00038 
 H                    -1.31238  -1.32917  -0.87899 
 

 GradGradGradGradGradGradGradGradGradGradGradGradGradGradGradGradGradGrad
 Berny optimization.
 Initialization pass.
                           ----------------------------
                           !    Initial Parameters    !
                           ! (Angstroms and Degrees)  !
 --------------------------                            --------------------------
 ! Name  Definition              Value          Derivative Info.                !
 --------------------------------------------------------------------------------
 ! R1    R(1,2)                  1.3309         estimate D2E/DX2                !
 ! R2    R(1,3)                  1.0844         estimate D2E/DX2                !
 ! R3    R(2,4)                  1.5039         estimate D2E/DX2                !
 ! R4    R(2,5)                  1.5039         estimate D2E/DX2                !
 ! R5    R(4,6)                  1.0944         estimate D2E/DX2                !
 ! R6    R(4,7)                  1.0902         estimate D2E/DX2                !
 ! R7    R(4,8)                  1.0944         estimate D2E/DX2                !
 ! R8    R(5,9)                  1.0944         estimate D2E/DX2                !
 ! R9    R(5,10)                 1.0902         estimate D2E/DX2                !
 ! R10   R(5,11)                 1.0944         estimate D2E/DX2                !
 ! A1    A(2,1,3)              121.4178         estimate D2E/DX2                !
 ! A2    A(1,2,4)              122.2995         estimate D2E/DX2                !
 ! A3    A(1,2,5)              122.2995         estimate D2E/DX2                !
 ! A4    A(4,2,5)              115.4009         estimate D2E/DX2                !
 ! A5    A(2,4,6)              110.4663         estimate D2E/DX2                !
 ! A6    A(2,4,7)              111.7506         estimate D2E/DX2                !
 ! A7    A(2,4,8)              110.4679         estimate D2E/DX2                !
 ! A8    A(6,4,7)              108.5695         estimate D2E/DX2                !
 ! A9    A(6,4,8)              106.8633         estimate D2E/DX2                !
 ! A10   A(7,4,8)              108.5699         estimate D2E/DX2                !
 ! A11   A(2,5,9)              110.4663         estimate D2E/DX2                !
 ! A12   A(2,5,10)             111.7506         estimate D2E/DX2                !
 ! A13   A(2,5,11)             110.4678         estimate D2E/DX2                !
 ! A14   A(9,5,10)             108.5696         estimate D2E/DX2                !
 ! A15   A(9,5,11)             106.8633         estimate D2E/DX2                !
 ! A16   A(10,5,11)            108.5698         estimate D2E/DX2                !
 ! D1    D(3,1,2,4)             -0.0021         estimate D2E/DX2                !
 ! D2    D(3,1,2,5)            179.9978         estimate D2E/DX2                !
 ! D3    D(1,2,4,6)           -120.9775         estimate D2E/DX2                !
 ! D4    D(1,2,4,7)              0.0111         estimate D2E/DX2                !
 ! D5    D(1,2,4,8)            121.0012         estimate D2E/DX2                !
 ! D6    D(5,2,4,6)             59.0225         estimate D2E/DX2                !
 ! D7    D(5,2,4,7)           -179.9889         estimate D2E/DX2                !
 ! D8    D(5,2,4,8)            -58.9988         estimate D2E/DX2                !
 ! D9    D(1,2,5,9)           -120.9775         estimate D2E/DX2                !
 ! D10   D(1,2,5,10)             0.0112         estimate D2E/DX2                !
 ! D11   D(1,2,5,11)           121.0012         estimate D2E/DX2                !
 ! D12   D(4,2,5,9)             59.0224         estimate D2E/DX2                !
 ! D13   D(4,2,5,10)          -179.9889         estimate D2E/DX2                !
 ! D14   D(4,2,5,11)           -58.9989         estimate D2E/DX2                !
 --------------------------------------------------------------------------------
 Trust Radius=3.00D-01 FncErr=1.00D-07 GrdErr=1.00D-07 EigMax=2.50D+02 EigMin=1.00D-04
 Number of steps in this run=    100 maximum allowed number of steps=    100.
 GradGradGradGradGradGradGradGradGradGradGradGradGradGradGradGradGradGrad

                          Input orientation:                          
 ---------------------------------------------------------------------
 Center     Atomic      Atomic             Coordinates (Angstroms)
 Number     Number       Type             X           Y           Z
 ---------------------------------------------------------------------
      1          6           0        0.000000    1.456194    0.000000
      2          6           0        0.000000    0.125300    0.000000
      3          1           0        0.925421    2.021469    0.000115
      4          6           0        1.271161   -0.678280    0.000111
      5          6           0       -1.271161   -0.678280   -0.000110
      6          1           0        1.312700   -1.328853   -0.878994
      7          1           0        2.153713   -0.038247    0.000384
      8          1           0        1.312379   -1.329168    0.878993
      9          1           0       -1.312700   -1.328853    0.878994
     10          1           0       -2.153713   -0.038247   -0.000384
     11          1           0       -1.312379   -1.329168   -0.878993
 ---------------------------------------------------------------------
                    Distance matrix (angstroms):
                    1          2          3          4          5
     1  C    0.000000
     2  C    1.330894   0.000000
     3  H    1.084408   2.109943   0.000000
     4  C    2.484317   1.503859   2.721797   0.000000
     5  C    2.484317   1.503859   3.480462   2.542322   0.000000
     6  H    3.201921   2.147178   3.485323   1.094439   2.805712
     7  H    2.621418   2.159914   2.398152   1.090202   3.484165
     8  H    3.202063   2.147195   3.485532   1.094435   2.805558
     9  H    3.201921   2.147178   4.123866   2.805712   1.094438
    10  H    2.621418   2.159914   3.704524   3.484165   1.090202
    11  H    3.202063   2.147195   4.123997   2.805558   1.094436
                    6          7          8          9         10
     6  H    0.000000
     7  H    1.773773   0.000000
     8  H    1.757987   1.773774   0.000000
     9  H    3.159628   3.801794   2.625079   0.000000
    10  H    3.801794   4.307426   3.801786   1.773773   0.000000
    11  H    2.625079   3.801786   3.159093   1.757987   1.773774
                   11
    11  H    0.000000
 Stoichiometry    C4H7(2)
 Framework group  C1[X(C4H7)]
 Deg. of freedom    27
 Full point group                 C1      NOp   1
 Largest Abelian subgroup         C1      NOp   1
 Largest concise Abelian subgroup C1      NOp   1
                         Standard orientation:                         
 ---------------------------------------------------------------------
 Center     Atomic      Atomic             Coordinates (Angstroms)
 Number     Number       Type             X           Y           Z
 ---------------------------------------------------------------------
      1          6           0       -0.349384    1.481043    0.000004
      2          6           0       -0.018455    0.191948    0.000004
      3          1           0       -1.386296    1.798457   -0.000111
      4          6           0       -1.049882   -0.902470   -0.000107
      5          6           0        1.412593   -0.270319    0.000114
      6          1           0       -0.928351   -1.542939    0.878998
      7          1           0       -2.063861   -0.501985   -0.000380
      8          1           0       -0.927962   -1.543164   -0.878989
      9          1           0        1.614593   -0.890130   -0.878990
     10          1           0        2.108282    0.569060    0.000388
     11          1           0        1.614361   -0.890515    0.878997
 ---------------------------------------------------------------------
 Rotational constants (GHZ):           9.9883286           8.4989949           4.8673259
 Standard basis: CC-pVTZ (5D, 7F)
 There are   245 symmetry adapted cartesian basis functions of A   symmetry.
 There are   218 symmetry adapted basis functions of A   symmetry.
   218 basis functions,   327 primitive gaussians,   245 cartesian basis functions
    16 alpha electrons       15 beta electrons
       nuclear repulsion energy       112.1495203848 Hartrees.
 NAtoms=   11 NActive=   11 NUniq=   11 SFac= 1.00D+00 NAtFMM=   60 NAOKFM=F Big=F
 Integral buffers will be    131072 words long.
 Raffenetti 2 integral format.
 Two-electron integral symmetry is turned on.
 Nuclear repulsion after empirical dispersion term =      112.1441170996 Hartrees.
 One-electron integrals computed using PRISM.
 NBasis=   218 RedAO= T EigKep=  4.65D-04  NBF=   218
 NBsUse=   218 1.00D-06 EigRej= -1.00D+00 NBFU=   218
 ExpMin= 1.03D-01 ExpMax= 8.24D+03 ExpMxC= 2.81D+02 IAcc=3 IRadAn=         5 AccDes= 0.00D+00
 Harris functional with IExCor=  419 and IRadAn=       5 diagonalized for initial guess.
 HarFok:  IExCor=  419 AccDes= 0.00D+00 IRadAn=         5 IDoV= 1 UseB2=F ITyADJ=14
 ICtDFT=  3500011 ScaDFX=  1.000000  1.000000  1.000000  1.000000
 FoFCou: FMM=F IPFlag=           0 FMFlag=      100000 FMFlg1=           0
         NFxFlg=           0 DoJE=T BraDBF=F KetDBF=T FulRan=T
         wScrn=  0.000000 ICntrl=       500 IOpCl=  0 I1Cent=   200000004 NGrid=           0
         NMat0=    1 NMatS0=      1 NMatT0=    0 NMatD0=    1 NMtDS0=    0 NMtDT0=    0
 Petite list used in FoFCou.
 Initial guess <Sx>= 0.0000 <Sy>= 0.0000 <Sz>= 0.5000 <S**2>= 0.7500 S= 0.5000
 Keep R1 and R2 ints in memory in canonical form, NReq=612885869.
 Requested convergence on RMS density matrix=1.00D-08 within 128 cycles.
 Requested convergence on MAX density matrix=1.00D-06.
 Requested convergence on             energy=1.00D-06.
 No special actions if energy rises.
 Integral accuracy reduced to 1.0D-05 until final iterations.
 Initial convergence to 1.0D-05 achieved.  Increase integral accuracy.
 SCF Done:  E(UB2PLYPD3) =  -156.228146153     A.U. after   18 cycles
            NFock= 18  Conv=0.58D-08     -V/T= 2.0049
 <Sx>= 0.0000 <Sy>= 0.0000 <Sz>= 0.5000 <S**2>= 0.7824 S= 0.5161
 <L.S>=  0.00000000000    
 Annihilation of the first spin contaminant:
 S**2 before annihilation     0.7824,   after     0.7502
 DoSCS=T DFT=T ScalE2(SS,OS)=  0.270000  0.270000
 ExpMin= 1.03D-01 ExpMax= 8.24D+03 ExpMxC= 2.81D+02 IAcc=3 IRadAn=         5 AccDes= 0.00D+00
 HarFok:  IExCor=  205 AccDes= 0.00D+00 IRadAn=         5 IDoV=-2 UseB2=F ITyADJ=14
 ICtDFT= 12500011 ScaDFX=  1.000000  1.000000  1.000000  1.000000
 Range of M.O.s used for correlation:     5   218
 NBasis=   218 NAE=    16 NBE=    15 NFC=     4 NFV=     0
 NROrb=    214 NOA=    12 NOB=    11 NVA=   202 NVB=   203

 **** Warning!!: The largest alpha MO coefficient is  0.16172112D+02


 **** Warning!!: The largest beta MO coefficient is  0.15121461D+02

 DoSCS=T DFT=T ScalE2(SS,OS)=  0.270000  0.270000
 Fully direct method using O(ONN) memory.
 JobTyp=2 Pass  1:  I=   5 to  16 NPSUse= 40 ParTrn=T ParDer=T DoDerP=T.
 JobTyp=3 Pass  1:  I=   5 to  15 NPSUse= 40 ParTrn=T ParDer=T DoDerP=T.
 Spin components of T(2) and E(2):
     alpha-alpha T2 =       0.4180629012D-01 E2=     -0.2607731951D-01
     alpha-beta  T2 =       0.2458850521D+00 E2=     -0.1633110100D+00
     beta-beta   T2 =       0.3699182163D-01 E2=     -0.2249814649D-01
 (S**2,0)=  0.78244D+00           (S**2,1)=  0.76250D+00
 Scaling Projection term by:   0.270000
 E(PUHF)=      -0.15623170072D+03        E(PMP2)=      -0.15644069862D+03
 E2(B2PLYPD3) =    -0.2118864760D+00 E(B2PLYPD3) =    -0.15644003262914D+03
          IDoAtm=11111111111
          Differentiating once with respect to electric field.
                with respect to dipole field.
          Differentiating once with respect to nuclear coordinates.
 Keep R1 and R2 ints in memory in canonical form, NReq=612894013.
          There are     1 degrees of freedom in the 1st order CPHF.  IDoFFX=0 NUNeed=     1.
 LinEq1:  Iter=  0 NonCon=     1 RMS=8.27D-04 Max=2.53D-02 NDo=     1
 AX will form     1 AO Fock derivatives at one time.
 LinEq1:  Iter=  1 NonCon=     1 RMS=3.34D-04 Max=1.11D-02 NDo=     1
 LinEq1:  Iter=  2 NonCon=     1 RMS=2.48D-04 Max=1.09D-02 NDo=     1
 LinEq1:  Iter=  3 NonCon=     1 RMS=1.26D-04 Max=6.28D-03 NDo=     1
 LinEq1:  Iter=  4 NonCon=     1 RMS=5.51D-05 Max=1.81D-03 NDo=     1
 LinEq1:  Iter=  5 NonCon=     1 RMS=1.15D-05 Max=2.32D-04 NDo=     1
 LinEq1:  Iter=  6 NonCon=     1 RMS=3.58D-06 Max=4.19D-05 NDo=     1
 LinEq1:  Iter=  7 NonCon=     1 RMS=1.58D-06 Max=1.80D-05 NDo=     1
 LinEq1:  Iter=  8 NonCon=     1 RMS=4.76D-07 Max=6.28D-06 NDo=     1
 LinEq1:  Iter=  9 NonCon=     1 RMS=1.40D-07 Max=2.35D-06 NDo=     1
 LinEq1:  Iter= 10 NonCon=     1 RMS=4.91D-08 Max=5.66D-07 NDo=     1
 LinEq1:  Iter= 11 NonCon=     1 RMS=2.10D-08 Max=3.09D-07 NDo=     1
 LinEq1:  Iter= 12 NonCon=     1 RMS=7.49D-09 Max=1.04D-07 NDo=     1
 LinEq1:  Iter= 13 NonCon=     1 RMS=1.24D-09 Max=1.58D-08 NDo=     1
 LinEq1:  Iter= 14 NonCon=     1 RMS=2.79D-10 Max=3.30D-09 NDo=     1
 LinEq1:  Iter= 15 NonCon=     1 RMS=7.04D-11 Max=1.78D-09 NDo=     1
 LinEq1:  Iter= 16 NonCon=     0 RMS=1.62D-11 Max=1.91D-10 NDo=     1
 Linear equations converged to 1.000D-10 1.000D-09 after    16 iterations.
 End of Minotr F.D. properties file   721 does not exist.
 End of Minotr F.D. properties file   722 does not exist.
 End of Minotr F.D. properties file   788 does not exist.

 **********************************************************************

            Population analysis using the SCF Density.

 **********************************************************************

 Orbital symmetries:
 Alpha Orbitals:
       Occupied  (A) (A) (A) (A) (A) (A) (A) (A) (A) (A) (A) (A)
                 (A) (A) (A) (A)
       Virtual   (A) (A) (A) (A) (A) (A) (A) (A) (A) (A) (A) (A)
                 (A) (A) (A) (A) (A) (A) (A) (A) (A) (A) (A) (A)
                 (A) (A) (A) (A) (A) (A) (A) (A) (A) (A) (A) (A)
                 (A) (A) (A) (A) (A) (A) (A) (A) (A) (A) (A) (A)
                 (A) (A) (A) (A) (A) (A) (A) (A) (A) (A) (A) (A)
                 (A) (A) (A) (A) (A) (A) (A) (A) (A) (A) (A) (A)
                 (A) (A) (A) (A) (A) (A) (A) (A) (A) (A) (A) (A)
                 (A) (A) (A) (A) (A) (A) (A) (A) (A) (A) (A) (A)
                 (A) (A) (A) (A) (A) (A) (A) (A) (A) (A) (A) (A)
                 (A) (A) (A) (A) (A) (A) (A) (A) (A) (A) (A) (A)
                 (A) (A) (A) (A) (A) (A) (A) (A) (A) (A) (A) (A)
                 (A) (A) (A) (A) (A) (A) (A) (A) (A) (A) (A) (A)
                 (A) (A) (A) (A) (A) (A) (A) (A) (A) (A) (A) (A)
                 (A) (A) (A) (A) (A) (A) (A) (A) (A) (A) (A) (A)
                 (A) (A) (A) (A) (A) (A) (A) (A) (A) (A) (A) (A)
                 (A) (A) (A) (A) (A) (A) (A) (A) (A) (A) (A) (A)
                 (A) (A) (A) (A) (A) (A) (A) (A) (A) (A)
 Beta  Orbitals:
       Occupied  (A) (A) (A) (A) (A) (A) (A) (A) (A) (A) (A) (A)
                 (A) (A) (A)
       Virtual   (A) (A) (A) (A) (A) (A) (A) (A) (A) (A) (A) (A)
                 (A) (A) (A) (A) (A) (A) (A) (A) (A) (A) (A) (A)
                 (A) (A) (A) (A) (A) (A) (A) (A) (A) (A) (A) (A)
                 (A) (A) (A) (A) (A) (A) (A) (A) (A) (A) (A) (A)
                 (A) (A) (A) (A) (A) (A) (A) (A) (A) (A) (A) (A)
                 (A) (A) (A) (A) (A) (A) (A) (A) (A) (A) (A) (A)
                 (A) (A) (A) (A) (A) (A) (A) (A) (A) (A) (A) (A)
                 (A) (A) (A) (A) (A) (A) (A) (A) (A) (A) (A) (A)
                 (A) (A) (A) (A) (A) (A) (A) (A) (A) (A) (A) (A)
                 (A) (A) (A) (A) (A) (A) (A) (A) (A) (A) (A) (A)
                 (A) (A) (A) (A) (A) (A) (A) (A) (A) (A) (A) (A)
                 (A) (A) (A) (A) (A) (A) (A) (A) (A) (A) (A) (A)
                 (A) (A) (A) (A) (A) (A) (A) (A) (A) (A) (A) (A)
                 (A) (A) (A) (A) (A) (A) (A) (A) (A) (A) (A) (A)
                 (A) (A) (A) (A) (A) (A) (A) (A) (A) (A) (A) (A)
                 (A) (A) (A) (A) (A) (A) (A) (A) (A) (A) (A) (A)
                 (A) (A) (A) (A) (A) (A) (A) (A) (A) (A) (A)
 The electronic state is 2-A.
 Alpha  occ. eigenvalues --  -10.63024 -10.62759 -10.61674 -10.60985  -0.93201
 Alpha  occ. eigenvalues --   -0.80284  -0.78866  -0.59975  -0.52574  -0.50316
 Alpha  occ. eigenvalues --   -0.49724  -0.45423  -0.43762  -0.42375  -0.32064
 Alpha  occ. eigenvalues --   -0.30404
 Alpha virt. eigenvalues --    0.07360   0.07675   0.11930   0.12897   0.15079
 Alpha virt. eigenvalues --    0.15362   0.18042   0.18868   0.20712   0.25045
 Alpha virt. eigenvalues --    0.27506   0.29791   0.31268   0.31445   0.38725
 Alpha virt. eigenvalues --    0.39568   0.42141   0.42317   0.44372   0.47915
 Alpha virt. eigenvalues --    0.49603   0.50602   0.52918   0.53004   0.53418
 Alpha virt. eigenvalues --    0.54023   0.54894   0.56463   0.59305   0.61658
 Alpha virt. eigenvalues --    0.64694   0.65915   0.66554   0.72218   0.74702
 Alpha virt. eigenvalues --    0.76374   0.82818   0.86462   0.90138   0.90466
 Alpha virt. eigenvalues --    0.96488   0.99809   1.01722   1.05057   1.05916
 Alpha virt. eigenvalues --    1.06346   1.07288   1.09826   1.09976   1.13427
 Alpha virt. eigenvalues --    1.13958   1.16831   1.20454   1.24198   1.26503
 Alpha virt. eigenvalues --    1.29662   1.30021   1.31375   1.34617   1.35182
 Alpha virt. eigenvalues --    1.38819   1.40066   1.42174   1.43605   1.45837
 Alpha virt. eigenvalues --    1.50591   1.51268   1.54686   1.56399   1.59820
 Alpha virt. eigenvalues --    1.60423   1.65430   1.68966   1.80998   1.84561
 Alpha virt. eigenvalues --    2.13803   2.25636   2.27985   2.32388   2.34523
 Alpha virt. eigenvalues --    2.39893   2.42859   2.46335   2.47404   2.52403
 Alpha virt. eigenvalues --    2.53877   2.62826   2.63115   2.66174   2.69543
 Alpha virt. eigenvalues --    2.71870   2.77500   2.77889   2.81551   2.85859
 Alpha virt. eigenvalues --    2.87651   2.91271   2.92413   2.93636   2.94782
 Alpha virt. eigenvalues --    2.94789   2.96082   3.01194   3.03018   3.05183
 Alpha virt. eigenvalues --    3.07853   3.10795   3.12978   3.13090   3.15075
 Alpha virt. eigenvalues --    3.15113   3.18417   3.20125   3.21319   3.22364
 Alpha virt. eigenvalues --    3.25051   3.26975   3.34411   3.35949   3.39978
 Alpha virt. eigenvalues --    3.40392   3.42355   3.44604   3.46414   3.47752
 Alpha virt. eigenvalues --    3.50731   3.53723   3.54513   3.57800   3.58069
 Alpha virt. eigenvalues --    3.61817   3.63161   3.65864   3.68135   3.71527
 Alpha virt. eigenvalues --    3.74226   3.77759   3.80796   3.81422   3.90091
 Alpha virt. eigenvalues --    3.91499   3.93881   3.94689   3.95592   3.96540
 Alpha virt. eigenvalues --    4.01290   4.02929   4.03314   4.09546   4.09922
 Alpha virt. eigenvalues --    4.12088   4.17519   4.20641   4.21247   4.24868
 Alpha virt. eigenvalues --    4.25877   4.30315   4.30812   4.33335   4.39269
 Alpha virt. eigenvalues --    4.44262   4.44582   4.47079   4.49090   4.56727
 Alpha virt. eigenvalues --    4.60948   4.63870   4.65068   4.67186   4.75145
 Alpha virt. eigenvalues --    4.89801   4.92258   4.93699   4.97181   5.03498
 Alpha virt. eigenvalues --    5.04179   5.18575   5.19347   5.23931   5.24691
 Alpha virt. eigenvalues --    5.26424   5.29753   5.30034   5.33097   5.40180
 Alpha virt. eigenvalues --    5.41656   5.44046   5.44988   5.46178   5.49478
 Alpha virt. eigenvalues --    5.56555   5.66218   5.71297   5.88442   5.99635
 Alpha virt. eigenvalues --    6.01416   6.03535   6.08104   8.88733  13.40509
 Alpha virt. eigenvalues --   13.79254  13.98254
  Beta  occ. eigenvalues --  -10.63084 -10.61483 -10.60887 -10.60855  -0.92427
  Beta  occ. eigenvalues --   -0.79960  -0.75821  -0.58536  -0.51749  -0.50646
  Beta  occ. eigenvalues --   -0.47901  -0.45485  -0.43068  -0.41627  -0.28816
  Beta virt. eigenvalues --   -0.01294   0.07752   0.08519   0.12338   0.13397
  Beta virt. eigenvalues --    0.15043   0.15545   0.18407   0.18887   0.20788
  Beta virt. eigenvalues --    0.25828   0.27575   0.29858   0.31846   0.33387
  Beta virt. eigenvalues --    0.39320   0.40312   0.42507   0.42962   0.45916
  Beta virt. eigenvalues --    0.49112   0.49536   0.50866   0.53143   0.53164
  Beta virt. eigenvalues --    0.53378   0.54609   0.55352   0.58084   0.59554
  Beta virt. eigenvalues --    0.62735   0.65010   0.67151   0.67515   0.72958
  Beta virt. eigenvalues --    0.76268   0.77923   0.82999   0.87154   0.90460
  Beta virt. eigenvalues --    0.90988   0.96488   1.00313   1.01732   1.05539
  Beta virt. eigenvalues --    1.06083   1.07196   1.07725   1.10364   1.10439
  Beta virt. eigenvalues --    1.14289   1.14880   1.16845   1.22467   1.25073
  Beta virt. eigenvalues --    1.26784   1.30133   1.30473   1.31890   1.34794
  Beta virt. eigenvalues --    1.35663   1.38808   1.40087   1.42482   1.44301
  Beta virt. eigenvalues --    1.45800   1.51359   1.52033   1.55182   1.56504
  Beta virt. eigenvalues --    1.59912   1.60752   1.65640   1.69464   1.82589
  Beta virt. eigenvalues --    1.85627   2.14978   2.25725   2.29387   2.32663
  Beta virt. eigenvalues --    2.35692   2.40520   2.43001   2.45887   2.47776
  Beta virt. eigenvalues --    2.52839   2.57904   2.63404   2.64231   2.66484
  Beta virt. eigenvalues --    2.70407   2.71743   2.78313   2.79420   2.82540
  Beta virt. eigenvalues --    2.87566   2.88242   2.91592   2.92629   2.93784
  Beta virt. eigenvalues --    2.95317   2.95757   2.96166   3.02389   3.03486
  Beta virt. eigenvalues --    3.05590   3.10382   3.11464   3.13314   3.13955
  Beta virt. eigenvalues --    3.15510   3.16275   3.19288   3.20975   3.22634
  Beta virt. eigenvalues --    3.22831   3.25737   3.29062   3.35657   3.35773
  Beta virt. eigenvalues --    3.41062   3.41713   3.43834   3.44693   3.46642
  Beta virt. eigenvalues --    3.48768   3.51647   3.53812   3.55099   3.58447
  Beta virt. eigenvalues --    3.58583   3.62181   3.63719   3.66077   3.68410
  Beta virt. eigenvalues --    3.72381   3.75252   3.78725   3.81664   3.81757
  Beta virt. eigenvalues --    3.90315   3.91971   3.94004   3.95004   3.95709
  Beta virt. eigenvalues --    3.96703   4.01299   4.03211   4.03555   4.09661
  Beta virt. eigenvalues --    4.10122   4.12214   4.17534   4.20631   4.21670
  Beta virt. eigenvalues --    4.25041   4.25843   4.30455   4.31396   4.33624
  Beta virt. eigenvalues --    4.39375   4.44379   4.44610   4.47355   4.49493
  Beta virt. eigenvalues --    4.57326   4.61846   4.64195   4.65276   4.67580
  Beta virt. eigenvalues --    4.75663   4.90035   4.92211   4.93961   4.97305
  Beta virt. eigenvalues --    5.04378   5.04595   5.19410   5.20052   5.24407
  Beta virt. eigenvalues --    5.24750   5.26489   5.30052   5.30123   5.33350
  Beta virt. eigenvalues --    5.40426   5.41727   5.44048   5.45110   5.46146
  Beta virt. eigenvalues --    5.49536   5.56740   5.67300   5.71559   5.89785
  Beta virt. eigenvalues --    5.99677   6.01439   6.03573   6.08239   8.89147
  Beta virt. eigenvalues --   13.41673  13.79321  13.98373
          Condensed to atoms (all electrons):
               1          2          3          4          5          6
     1  C    5.333480   0.637109   0.404544  -0.067999  -0.046960   0.000838
     2  C    0.637109   4.888748  -0.074090   0.370578   0.349766  -0.042220
     3  H    0.404544  -0.074090   0.532529  -0.005881   0.006317   0.000009
     4  C   -0.067999   0.370578  -0.005881   4.799436  -0.054594   0.404783
     5  C   -0.046960   0.349766   0.006317  -0.054594   4.797340  -0.002781
     6  H    0.000838  -0.042220   0.000009   0.404783  -0.002781   0.609268
     7  H   -0.005522  -0.038926   0.003490   0.412162   0.005861  -0.026809
     8  H    0.000842  -0.042221   0.000009   0.404779  -0.002778  -0.043357
     9  H   -0.000040  -0.042715  -0.000381  -0.002265   0.407416  -0.001563
    10  H   -0.001866  -0.036564  -0.000129   0.006538   0.410589  -0.000160
    11  H   -0.000037  -0.042720  -0.000381  -0.002261   0.407413   0.004117
               7          8          9         10         11
     1  C   -0.005522   0.000842  -0.000040  -0.001866  -0.000037
     2  C   -0.038926  -0.042221  -0.042715  -0.036564  -0.042720
     3  H    0.003490   0.000009  -0.000381  -0.000129  -0.000381
     4  C    0.412162   0.404779  -0.002265   0.006538  -0.002261
     5  C    0.005861  -0.002778   0.407416   0.410589   0.407413
     6  H   -0.026809  -0.043357  -0.001563  -0.000160   0.004117
     7  H    0.577991  -0.026811  -0.000111  -0.000366  -0.000110
     8  H   -0.026811   0.609278   0.004117  -0.000160  -0.001565
     9  H   -0.000111   0.004117   0.608017  -0.026207  -0.040901
    10  H   -0.000366  -0.000160  -0.026207   0.568648  -0.026209
    11  H   -0.000110  -0.001565  -0.040901  -0.026209   0.608031
          Atomic-Atomic Spin Densities.
               1          2          3          4          5          6
     1  C    1.156206  -0.030248   0.002513  -0.032315  -0.008000   0.002523
     2  C   -0.030248  -0.227277  -0.002494   0.023174   0.013661   0.005182
     3  H    0.002513  -0.002494   0.040714  -0.008276   0.000885   0.000445
     4  C   -0.032315   0.023174  -0.008276   0.096750  -0.005543  -0.004679
     5  C   -0.008000   0.013661   0.000885  -0.005543   0.040736  -0.000122
     6  H    0.002523   0.005182   0.000445  -0.004679  -0.000122  -0.012913
     7  H    0.000558  -0.000114   0.000354  -0.000390   0.000016   0.000879
     8  H    0.002524   0.005179   0.000445  -0.004678  -0.000123   0.005428
     9  H    0.000076   0.003780  -0.000067   0.000803  -0.002685   0.000442
    10  H    0.005765  -0.002545  -0.000409   0.001065  -0.004374  -0.000121
    11  H    0.000076   0.003778  -0.000067   0.000803  -0.002683  -0.001605
               7          8          9         10         11
     1  C    0.000558   0.002524   0.000076   0.005765   0.000076
     2  C   -0.000114   0.005179   0.003780  -0.002545   0.003778
     3  H    0.000354   0.000445  -0.000067  -0.000409  -0.000067
     4  C   -0.000390  -0.004678   0.000803   0.001065   0.000803
     5  C    0.000016  -0.000123  -0.002685  -0.004374  -0.002683
     6  H    0.000879   0.005428   0.000442  -0.000121  -0.001605
     7  H   -0.005743   0.000878   0.000000  -0.000011   0.000000
     8  H    0.000878  -0.012905  -0.001606  -0.000121   0.000442
     9  H    0.000000  -0.001606  -0.012188   0.001541   0.003454
    10  H   -0.000011  -0.000121   0.001541  -0.001053   0.001540
    11  H    0.000000   0.000442   0.003454   0.001540  -0.012185
 Mulliken charges and spin densities:
               1          2
     1  C   -0.254389   1.099677
     2  C    0.073255  -0.207925
     3  H    0.133964   0.034042
     4  C   -0.265277   0.066712
     5  C   -0.277590   0.031767
     6  H    0.097875  -0.004542
     7  H    0.099152  -0.003573
     8  H    0.097868  -0.004536
     9  H    0.094632  -0.006450
    10  H    0.105887   0.001276
    11  H    0.094623  -0.006448
 Sum of Mulliken charges =  -0.00000   1.00000
 Mulliken charges and spin densities with hydrogens summed into heavy atoms:
               1          2
     1  C   -0.120425   1.133719
     2  C    0.073255  -0.207925
     4  C    0.029618   0.054061
     5  C    0.017552   0.020145
 Electronic spatial extent (au):  <R**2>=            305.1080
 Charge=             -0.0000 electrons
 Dipole moment (field-independent basis, Debye):
    X=             -0.3099    Y=             -1.1188    Z=             -0.0001  Tot=              1.1609
 Quadrupole moment (field-independent basis, Debye-Ang):
   XX=            -24.8062   YY=            -27.4047   ZZ=            -27.5269
   XY=             -0.7056   XZ=              0.0003   YZ=             -0.0001
 Traceless Quadrupole moment (field-independent basis, Debye-Ang):
   XX=              1.7730   YY=             -0.8254   ZZ=             -0.9476
   XY=             -0.7056   XZ=              0.0003   YZ=             -0.0001
 Octapole moment (field-independent basis, Debye-Ang**2):
  XXX=             -2.1721  YYY=             -5.4402  ZZZ=             -0.0001  XYY=             -1.4100
  XXY=              1.7537  XXZ=             -0.0005  XZZ=              0.8018  YZZ=             -3.9360
  YYZ=             -0.0000  XYZ=              0.0008
 Hexadecapole moment (field-independent basis, Debye-Ang**3):
 XXXX=           -206.4724 YYYY=           -188.9813 ZZZZ=            -45.1437 XXXY=             -1.9811
 XXXZ=             -0.0050 YYYX=             -3.0777 YYYZ=             -0.0016 ZZZX=             -0.0083
 ZZZY=             -0.0017 XXYY=            -62.2464 XXZZ=            -43.5220 YYZZ=            -37.8631
 XXYZ=             -0.0005 YYXZ=             -0.0016 ZZXY=             -0.0492
 N-N= 1.121441170996D+02 E-N=-5.861505783521D+02  KE= 1.554646100942D+02
                          Isotropic Fermi Contact Couplings
        Atom                 a.u.       MegaHertz       Gauss      10(-4) cm-1
     1  C(13)              0.36852     414.28673     147.82781     138.19118
     2  C(13)              0.01330      14.95622       5.33675       4.98886
     3  H(1)               0.02223      99.38047      35.46142      33.14976
     4  C(13)              0.05374      60.41725      21.55838      20.15303
     5  C(13)              0.02693      30.27032      10.80120      10.09709
     6  H(1)               0.00014       0.64468       0.23004       0.21504
     7  H(1)               0.00017       0.77092       0.27508       0.25715
     8  H(1)               0.00015       0.65541       0.23386       0.21862
     9  H(1)              -0.00097      -4.31698      -1.54041      -1.43999
    10  H(1)              -0.00045      -1.99484      -0.71181      -0.66541
    11  H(1)              -0.00097      -4.31392      -1.53932      -1.43897
 --------------------------------------------------------
       Center         ----  Spin Dipole Couplings  ----
                      3XX-RR        3YY-RR        3ZZ-RR
 --------------------------------------------------------
     1   Atom        0.230878      0.197103     -0.427982
     2   Atom       -0.005934      0.115842     -0.109908
     3   Atom        0.059233     -0.002672     -0.056561
     4   Atom       -0.016824      0.063335     -0.046511
     5   Atom        0.010240      0.013306     -0.023546
     6   Atom       -0.005881      0.005414      0.000467
     7   Atom        0.009448      0.001144     -0.010592
     8   Atom       -0.005880      0.005414      0.000466
     9   Atom       -0.000997      0.003217     -0.002220
    10   Atom        0.012294     -0.001907     -0.010388
    11   Atom       -0.000998      0.003218     -0.002220
 --------------------------------------------------------
                        XY            XZ            YZ
 --------------------------------------------------------
     1   Atom        0.734851      0.000090      0.000096
     2   Atom       -0.010392      0.000010      0.000006
     3   Atom       -0.034841      0.000013     -0.000003
     4   Atom        0.047553      0.000002      0.000001
     5   Atom       -0.033478     -0.000000      0.000000
     6   Atom        0.002464      0.000951     -0.004949
     7   Atom        0.007750      0.000004      0.000002
     8   Atom        0.002461     -0.000955      0.004950
     9   Atom       -0.005239     -0.002084      0.003422
    10   Atom       -0.008330      0.000004     -0.000001
    11   Atom       -0.005237      0.002083     -0.003422
 --------------------------------------------------------


 ---------------------------------------------------------------------------------
              Anisotropic Spin Dipole Couplings in Principal Axis System
 ---------------------------------------------------------------------------------

       Atom             a.u.   MegaHertz   Gauss  10(-4) cm-1        Axes

              Baa    -0.5211   -69.921   -24.949   -23.323 -0.6989  0.7152 -0.0001
     1 C(13)  Bbb    -0.4280   -57.431   -20.493   -19.157 -0.0001 -0.0000  1.0000
              Bcc     0.9490   127.352    45.442    42.480  0.7152  0.6989  0.0001
 
              Baa    -0.1099   -14.749    -5.263    -4.920 -0.0001 -0.0000  1.0000
     2 C(13)  Bbb    -0.0068    -0.914    -0.326    -0.305  0.9964  0.0844  0.0001
              Bcc     0.1167    15.663     5.589     5.225 -0.0844  0.9964  0.0000
 
              Baa    -0.0566   -30.178   -10.768   -10.066 -0.0001 -0.0000  1.0000
     3 H(1)   Bbb    -0.0183    -9.777    -3.489    -3.261  0.4098  0.9122  0.0001
              Bcc     0.0749    39.955    14.257    13.327  0.9122 -0.4098  0.0001
 
              Baa    -0.0465    -6.241    -2.227    -2.082 -0.0002  0.0001  1.0000
     4 C(13)  Bbb    -0.0389    -5.225    -1.864    -1.743  0.9068 -0.4216  0.0002
              Bcc     0.0854    11.466     4.091     3.825  0.4216  0.9068  0.0000
 
              Baa    -0.0235    -3.160    -1.127    -1.054 -0.0000 -0.0000  1.0000
     5 C(13)  Bbb    -0.0217    -2.917    -1.041    -0.973  0.7231  0.6907  0.0000
              Bcc     0.0453     6.077     2.168     2.027 -0.6907  0.7231  0.0000
 
              Baa    -0.0070    -3.757    -1.340    -1.253  0.9001 -0.3026 -0.3135
     6 H(1)   Bbb    -0.0016    -0.860    -0.307    -0.287  0.4211  0.4190  0.8045
              Bcc     0.0087     4.617     1.647     1.540  0.1121  0.8561 -0.5045
 
              Baa    -0.0106    -5.651    -2.017    -1.885 -0.0002 -0.0000  1.0000
     7 H(1)   Bbb    -0.0035    -1.865    -0.666    -0.622 -0.5137  0.8580 -0.0001
              Bcc     0.0141     7.517     2.682     2.507  0.8580  0.5137  0.0002
 
              Baa    -0.0070    -3.757    -1.340    -1.253  0.8999 -0.3026  0.3140
     8 H(1)   Bbb    -0.0016    -0.860    -0.307    -0.287 -0.4215 -0.4189  0.8043
              Bcc     0.0087     4.617     1.647     1.540  0.1118  0.8561  0.5045
 
              Baa    -0.0046    -2.441    -0.871    -0.814  0.7717  0.6050 -0.1960
     9 H(1)   Bbb    -0.0037    -1.978    -0.706    -0.660  0.3678 -0.1732  0.9136
              Bcc     0.0083     4.419     1.577     1.474 -0.5188  0.7772  0.3562
 
              Baa    -0.0104    -5.542    -1.978    -1.849 -0.0002 -0.0001  1.0000
    10 H(1)   Bbb    -0.0058    -3.069    -1.095    -1.024  0.4191  0.9079  0.0001
              Bcc     0.0161     8.611     3.073     2.872  0.9079 -0.4191  0.0002
 
              Baa    -0.0046    -2.440    -0.871    -0.814  0.7715  0.6050  0.1968
    11 H(1)   Bbb    -0.0037    -1.978    -0.706    -0.660 -0.3685  0.1727  0.9135
              Bcc     0.0083     4.418     1.577     1.474 -0.5187  0.7773 -0.3561
 

 ---------------------------------------------------------------------------------

 Calling FoFJK, ICntrl=  10002127 FMM=F ISym2X=0 I1Cent= 0 IOpClX= 1 NMat=1 NMatS=1 NMatT=0.
 ***** Axes restored to original set *****
 -------------------------------------------------------------------
 Center     Atomic                   Forces (Hartrees/Bohr)
 Number     Number              X              Y              Z
 -------------------------------------------------------------------
      1        6           0.023667054   -0.029302035    0.000003160
      2        6          -0.018688207    0.015064338   -0.000001751
      3        1          -0.007701697    0.013188889   -0.000001208
      4        6           0.005354290    0.000337639   -0.000002305
      5        6          -0.002908822   -0.001865258    0.000000553
      6        1          -0.000441763    0.001787608    0.001099066
      7        1          -0.000826645   -0.001751093   -0.000000750
      8        1          -0.000442275    0.001788229   -0.001096051
      9        1          -0.000041805    0.001083422   -0.001387946
     10        1           0.002071564   -0.001415977    0.000001132
     11        1          -0.000041694    0.001084239    0.001386100
 -------------------------------------------------------------------
 Cartesian Forces:  Max     0.029302035 RMS     0.008338207

 GradGradGradGradGradGradGradGradGradGradGradGradGradGradGradGradGradGrad
 Berny optimization.
 FormGI is forming the generalized inverse of G from B-inverse, IUseBI=4.
 Internal  Forces:  Max     0.031291804 RMS     0.005747715
 Search for a local minimum.
 Step number   1 out of a maximum of  100
 All quantities printed in internal units (Hartrees-Bohrs-Radians)
 Mixed Optimization -- RFO/linear search
 Second derivative matrix not updated -- first step.
 ITU=  0
     Eigenvalues ---    0.00715   0.00715   0.01081   0.03003   0.07101
     Eigenvalues ---    0.07101   0.07349   0.07349   0.16000   0.16000
     Eigenvalues ---    0.16000   0.16000   0.16000   0.16000   0.16000
     Eigenvalues ---    0.25000   0.25000   0.31976   0.31976   0.34305
     Eigenvalues ---    0.34305   0.34305   0.34305   0.34789   0.34789
     Eigenvalues ---    0.35467   0.59295
 RFO step:  Lambda=-6.61616940D-03 EMin= 7.14903763D-03
 Linear search not attempted -- first point.
 Iteration  1 RMS(Cart)=  0.04470995 RMS(Int)=  0.00426141
 Iteration  2 RMS(Cart)=  0.00405388 RMS(Int)=  0.00000915
 Iteration  3 RMS(Cart)=  0.00001168 RMS(Int)=  0.00000640
 Iteration  4 RMS(Cart)=  0.00000000 RMS(Int)=  0.00000640
 Variable       Old X    -DE/DX   Delta X   Delta X   Delta X     New X
                                 (Linear)    (Quad)   (Total)
    R1        2.51503  -0.01611   0.00000  -0.02687  -0.02687   2.48815
    R2        2.04923   0.00030   0.00000   0.00084   0.00084   2.05007
    R3        2.84188   0.00192   0.00000   0.00590   0.00590   2.84778
    R4        2.84188   0.00137   0.00000   0.00421   0.00421   2.84609
    R5        2.06819  -0.00196   0.00000  -0.00561  -0.00561   2.06258
    R6        2.06018  -0.00170   0.00000  -0.00479  -0.00479   2.05540
    R7        2.06818  -0.00196   0.00000  -0.00561  -0.00561   2.06258
    R8        2.06819  -0.00176   0.00000  -0.00503  -0.00503   2.06316
    R9        2.06018  -0.00251   0.00000  -0.00708  -0.00708   2.05311
   R10        2.06818  -0.00176   0.00000  -0.00502  -0.00502   2.06316
    A1        2.11914   0.03129   0.00000   0.18781   0.18781   2.30695
    A2        2.13453  -0.00562   0.00000  -0.02190  -0.02190   2.11263
    A3        2.13453   0.00324   0.00000   0.01263   0.01263   2.14716
    A4        2.01413   0.00238   0.00000   0.00927   0.00927   2.02340
    A5        1.92800  -0.00105   0.00000  -0.00634  -0.00634   1.92166
    A6        1.95042   0.00162   0.00000   0.00982   0.00983   1.96025
    A7        1.92803  -0.00105   0.00000  -0.00636  -0.00636   1.92167
    A8        1.89490  -0.00028   0.00000  -0.00161  -0.00160   1.89330
    A9        1.86512   0.00103   0.00000   0.00606   0.00604   1.87116
   A10        1.89490  -0.00028   0.00000  -0.00161  -0.00160   1.89330
   A11        1.92800   0.00013   0.00000   0.00096   0.00096   1.92896
   A12        1.95042  -0.00018   0.00000  -0.00142  -0.00142   1.94900
   A13        1.92803   0.00013   0.00000   0.00095   0.00094   1.92897
   A14        1.89490  -0.00004   0.00000  -0.00052  -0.00052   1.89438
   A15        1.86512  -0.00001   0.00000   0.00060   0.00059   1.86571
   A16        1.89490  -0.00004   0.00000  -0.00052  -0.00052   1.89438
    D1       -0.00004   0.00000   0.00000   0.00000   0.00000  -0.00003
    D2        3.14155   0.00000   0.00000   0.00001   0.00001   3.14156
    D3       -2.11146  -0.00002   0.00000  -0.00023  -0.00022  -2.11168
    D4        0.00019  -0.00000   0.00000  -0.00003  -0.00003   0.00017
    D5        2.11187   0.00002   0.00000   0.00017   0.00016   2.11202
    D6        1.03014  -0.00002   0.00000  -0.00024  -0.00022   1.02991
    D7       -3.14140  -0.00000   0.00000  -0.00003  -0.00003  -3.14143
    D8       -1.02972   0.00002   0.00000   0.00017   0.00015  -1.02957
    D9       -2.11146   0.00008   0.00000   0.00093   0.00093  -2.11053
   D10        0.00020  -0.00000   0.00000  -0.00003  -0.00003   0.00017
   D11        2.11187  -0.00008   0.00000  -0.00099  -0.00099   2.11088
   D12        1.03014   0.00008   0.00000   0.00093   0.00093   1.03107
   D13       -3.14140  -0.00000   0.00000  -0.00002  -0.00002  -3.14142
   D14       -1.02972  -0.00008   0.00000  -0.00099  -0.00099  -1.03071
         Item               Value     Threshold  Converged?
 Maximum Force            0.031292     0.000450     NO 
 RMS     Force            0.005748     0.000300     NO 
 Maximum Displacement     0.215813     0.001800     NO 
 RMS     Displacement     0.044756     0.001200     NO 
 Predicted change in Energy=-3.431098D-03
 GradGradGradGradGradGradGradGradGradGradGradGradGradGradGradGradGradGrad

                          Input orientation:                          
 ---------------------------------------------------------------------
 Center     Atomic      Atomic             Coordinates (Angstroms)
 Number     Number       Type             X           Y           Z
 ---------------------------------------------------------------------
      1          6           0        0.040995    1.427038    0.000008
      2          6           0        0.008954    0.110755    0.000003
      3          1           0        0.862420    2.135672    0.000107
      4          6           0        1.280787   -0.697592    0.000113
      5          6           0       -1.273424   -0.679054   -0.000113
      6          1           0        1.314390   -1.344223   -0.878548
      7          1           0        2.169054   -0.069894    0.000361
      8          1           0        1.314079   -1.344484    0.878591
      9          1           0       -1.323820   -1.327178    0.877028
     10          1           0       -2.144499   -0.029732   -0.000360
     11          1           0       -1.323514   -1.327442   -0.877075
 ---------------------------------------------------------------------
                    Distance matrix (angstroms):
                    1          2          3          4          5
     1  C    0.000000
     2  C    1.316673   0.000000
     3  H    1.084851   2.197429   0.000000
     4  C    2.459906   1.506979   2.863986   0.000000
     5  C    2.482604   1.506085   3.533344   2.554279   0.000000
     6  H    3.173843   2.143123   3.617455   1.091469   2.812628
     7  H    2.601814   2.167641   2.563555   1.087669   3.495959
     8  H    3.173955   2.143127   3.617627   1.091468   2.812488
     9  H    3.196497   2.147816   4.188075   2.819457   1.091779
    10  H    2.626512   2.158031   3.705474   3.489788   1.086458
    11  H    3.196611   2.147825   4.188188   2.819318   1.091778
                    6          7          8          9         10
     6  H    0.000000
     7  H    1.768289   0.000000
     8  H    1.757139   1.768291   0.000000
     9  H    3.168989   3.814378   2.637957   0.000000
    10  H    3.803026   4.313740   3.803011   1.768244   0.000000
    11  H    2.637958   3.814361   3.168525   1.754103   1.768247
                   11
    11  H    0.000000
 Stoichiometry    C4H7(2)
 Framework group  C1[X(C4H7)]
 Deg. of freedom    27
 Full point group                 C1      NOp   1
 Largest Abelian subgroup         C1      NOp   1
 Largest concise Abelian subgroup C1      NOp   1
                         Standard orientation:                         
 ---------------------------------------------------------------------
 Center     Atomic      Atomic             Coordinates (Angstroms)
 Number     Number       Type             X           Y           Z
 ---------------------------------------------------------------------
      1          6           0       -0.387554    1.451694   -0.000002
      2          6           0       -0.018681    0.187748    0.000002
      3          1           0       -1.363365    1.925712   -0.000101
      4          6           0       -1.040380   -0.920004   -0.000107
      5          6           0        1.423476   -0.246392    0.000118
      6          1           0       -0.906859   -1.553591    0.878553
      7          1           0       -2.060017   -0.541369   -0.000355
      8          1           0       -0.906492   -1.553764   -0.878586
      9          1           0        1.638564   -0.859858   -0.877023
     10          1           0        2.098670    0.604785    0.000365
     11          1           0        1.638336   -0.860193    0.877080
 ---------------------------------------------------------------------
 Rotational constants (GHZ):          10.0450697           8.4398470           4.8604131
 Standard basis: CC-pVTZ (5D, 7F)
 There are   245 symmetry adapted cartesian basis functions of A   symmetry.
 There are   218 symmetry adapted basis functions of A   symmetry.
   218 basis functions,   327 primitive gaussians,   245 cartesian basis functions
    16 alpha electrons       15 beta electrons
       nuclear repulsion energy       112.1979384712 Hartrees.
 NAtoms=   11 NActive=   11 NUniq=   11 SFac= 1.00D+00 NAtFMM=   60 NAOKFM=F Big=F
 Integral buffers will be    131072 words long.
 Raffenetti 2 integral format.
 Two-electron integral symmetry is turned on.
 Nuclear repulsion after empirical dispersion term =      112.1925552173 Hartrees.
 One-electron integrals computed using PRISM.
 NBasis=   218 RedAO= T EigKep=  4.07D-04  NBF=   218
 NBsUse=   218 1.00D-06 EigRej= -1.00D+00 NBFU=   218
 Initial guess from the checkpoint file:  "/localscratch/339542/Gau-67268.chk"
 B after Tr=     0.000000   -0.000000    0.000000
         Rot=    0.999974    0.000001    0.000000   -0.007261 Ang=   0.83 deg.
 Initial guess <Sx>= 0.0000 <Sy>= 0.0000 <Sz>= 0.5000 <S**2>= 0.7820 S= 0.5159
 ExpMin= 1.03D-01 ExpMax= 8.24D+03 ExpMxC= 2.81D+02 IAcc=3 IRadAn=         5 AccDes= 0.00D+00
 Harris functional with IExCor=  419 and IRadAn=       5 diagonalized for initial guess.
 HarFok:  IExCor=  419 AccDes= 0.00D+00 IRadAn=         5 IDoV= 1 UseB2=F ITyADJ=14
 ICtDFT=  3500011 ScaDFX=  1.000000  1.000000  1.000000  1.000000
 FoFCou: FMM=F IPFlag=           0 FMFlag=      100000 FMFlg1=           0
         NFxFlg=           0 DoJE=T BraDBF=F KetDBF=T FulRan=T
         wScrn=  0.000000 ICntrl=       500 IOpCl=  0 I1Cent=   200000004 NGrid=           0
         NMat0=    1 NMatS0=      1 NMatT0=    0 NMatD0=    1 NMtDS0=    0 NMtDT0=    0
 Petite list used in FoFCou.
 Keep R1 and R2 ints in memory in canonical form, NReq=612885869.
 Requested convergence on RMS density matrix=1.00D-08 within 128 cycles.
 Requested convergence on MAX density matrix=1.00D-06.
 Requested convergence on             energy=1.00D-06.
 No special actions if energy rises.
 Integral accuracy reduced to 1.0D-05 until final iterations.
 Initial convergence to 1.0D-05 achieved.  Increase integral accuracy.
 SCF Done:  E(UB2PLYPD3) =  -156.232322893     A.U. after   14 cycles
            NFock= 14  Conv=0.71D-08     -V/T= 2.0047
 <Sx>= 0.0000 <Sy>= 0.0000 <Sz>= 0.5000 <S**2>= 0.7772 S= 0.5135
 <L.S>=  0.00000000000    
 Annihilation of the first spin contaminant:
 S**2 before annihilation     0.7772,   after     0.7502
 DoSCS=T DFT=T ScalE2(SS,OS)=  0.270000  0.270000
 ExpMin= 1.03D-01 ExpMax= 8.24D+03 ExpMxC= 2.81D+02 IAcc=3 IRadAn=         5 AccDes= 0.00D+00
 HarFok:  IExCor=  205 AccDes= 0.00D+00 IRadAn=         5 IDoV=-2 UseB2=F ITyADJ=14
 ICtDFT= 12500011 ScaDFX=  1.000000  1.000000  1.000000  1.000000
 Range of M.O.s used for correlation:     5   218
 NBasis=   218 NAE=    16 NBE=    15 NFC=     4 NFV=     0
 NROrb=    214 NOA=    12 NOB=    11 NVA=   202 NVB=   203

 **** Warning!!: The largest alpha MO coefficient is  0.15288874D+02


 **** Warning!!: The largest beta MO coefficient is  0.14227007D+02

 DoSCS=T DFT=T ScalE2(SS,OS)=  0.270000  0.270000
 Fully direct method using O(ONN) memory.
 JobTyp=2 Pass  1:  I=   5 to  16 NPSUse= 40 ParTrn=T ParDer=T DoDerP=T.
 JobTyp=3 Pass  1:  I=   5 to  15 NPSUse= 40 ParTrn=T ParDer=T DoDerP=T.
 Spin components of T(2) and E(2):
     alpha-alpha T2 =       0.4179734548D-01 E2=     -0.2612344044D-01
     alpha-beta  T2 =       0.2445501776D+00 E2=     -0.1631819706D+00
     beta-beta   T2 =       0.3662326599D-01 E2=     -0.2237125586D-01
 (S**2,0)=  0.77716D+00           (S**2,1)=  0.75938D+00
 Scaling Projection term by:   0.270000
 E(PUHF)=      -0.15623565165D+03        E(PMP2)=      -0.15644460544D+03
 E2(B2PLYPD3) =    -0.2116766669D+00 E(B2PLYPD3) =    -0.15644399956002D+03
          IDoAtm=11111111111
          Differentiating once with respect to electric field.
                with respect to dipole field.
          Differentiating once with respect to nuclear coordinates.
 Keep R1 and R2 ints in memory in canonical form, NReq=612894013.
          There are     1 degrees of freedom in the 1st order CPHF.  IDoFFX=0 NUNeed=     1.
 LinEq1:  Iter=  0 NonCon=     1 RMS=7.97D-04 Max=2.41D-02 NDo=     1
 AX will form     1 AO Fock derivatives at one time.
 LinEq1:  Iter=  1 NonCon=     1 RMS=3.17D-04 Max=1.02D-02 NDo=     1
 LinEq1:  Iter=  2 NonCon=     1 RMS=2.34D-04 Max=1.07D-02 NDo=     1
 LinEq1:  Iter=  3 NonCon=     1 RMS=1.20D-04 Max=6.03D-03 NDo=     1
 LinEq1:  Iter=  4 NonCon=     1 RMS=5.27D-05 Max=1.75D-03 NDo=     1
 LinEq1:  Iter=  5 NonCon=     1 RMS=1.08D-05 Max=2.08D-04 NDo=     1
 LinEq1:  Iter=  6 NonCon=     1 RMS=3.24D-06 Max=4.02D-05 NDo=     1
 LinEq1:  Iter=  7 NonCon=     1 RMS=1.43D-06 Max=1.95D-05 NDo=     1
 LinEq1:  Iter=  8 NonCon=     1 RMS=4.39D-07 Max=5.93D-06 NDo=     1
 LinEq1:  Iter=  9 NonCon=     1 RMS=1.30D-07 Max=1.99D-06 NDo=     1
 LinEq1:  Iter= 10 NonCon=     1 RMS=4.65D-08 Max=5.65D-07 NDo=     1
 LinEq1:  Iter= 11 NonCon=     1 RMS=2.02D-08 Max=3.10D-07 NDo=     1
 LinEq1:  Iter= 12 NonCon=     1 RMS=7.17D-09 Max=1.05D-07 NDo=     1
 LinEq1:  Iter= 13 NonCon=     1 RMS=1.11D-09 Max=1.44D-08 NDo=     1
 LinEq1:  Iter= 14 NonCon=     1 RMS=2.28D-10 Max=2.91D-09 NDo=     1
 LinEq1:  Iter= 15 NonCon=     1 RMS=5.83D-11 Max=1.50D-09 NDo=     1
 LinEq1:  Iter= 16 NonCon=     0 RMS=1.32D-11 Max=2.05D-10 NDo=     1
 Linear equations converged to 1.000D-10 1.000D-09 after    16 iterations.
 End of Minotr F.D. properties file   721 does not exist.
 End of Minotr F.D. properties file   722 does not exist.
 End of Minotr F.D. properties file   788 does not exist.
 Calling FoFJK, ICntrl=  10002127 FMM=F ISym2X=0 I1Cent= 0 IOpClX= 1 NMat=1 NMatS=1 NMatT=0.
 ***** Axes restored to original set *****
 -------------------------------------------------------------------
 Center     Atomic                   Forces (Hartrees/Bohr)
 Number     Number              X              Y              Z
 -------------------------------------------------------------------
      1        6           0.007422607   -0.005552674    0.000001368
      2        6          -0.004826557    0.006901240   -0.000000834
      3        1          -0.005269588    0.000296253   -0.000000889
      4        6           0.002345833   -0.002173359   -0.000000037
      5        6          -0.000273725   -0.000083139    0.000000062
      6        1           0.000131941   -0.000077899   -0.000044996
      7        1          -0.000621418    0.000032339   -0.000000325
      8        1           0.000132325   -0.000077598    0.000045926
      9        1           0.000333862    0.000271307   -0.000015033
     10        1           0.000290839    0.000191673    0.000000325
     11        1           0.000333880    0.000271855    0.000014433
 -------------------------------------------------------------------
 Cartesian Forces:  Max     0.007422607 RMS     0.002436746

 GradGradGradGradGradGradGradGradGradGradGradGradGradGradGradGradGradGrad
 Berny optimization.
 Using GEDIIS/GDIIS optimizer.
 FormGI is forming the generalized inverse of G from B-inverse, IUseBI=4.
 Internal  Forces:  Max     0.007516321 RMS     0.001665777
 Search for a local minimum.
 Step number   2 out of a maximum of  100
 All quantities printed in internal units (Hartrees-Bohrs-Radians)
 Mixed Optimization -- RFO/linear search
 Update second derivatives using D2CorX and points    1    2
 DE= -3.97D-03 DEPred=-3.43D-03 R= 1.16D+00
 TightC=F SS=  1.41D+00  RLast= 1.93D-01 DXNew= 5.0454D-01 5.7851D-01
 Trust test= 1.16D+00 RLast= 1.93D-01 DXMaxT set to 5.05D-01
 ITU=  1  0
 Use linear search instead of GDIIS.
     Eigenvalues ---    0.00715   0.00715   0.01076   0.03003   0.07065
     Eigenvalues ---    0.07109   0.07338   0.07400   0.12423   0.16000
     Eigenvalues ---    0.16000   0.16000   0.16000   0.16000   0.16198
     Eigenvalues ---    0.24999   0.25581   0.31927   0.32141   0.34296
     Eigenvalues ---    0.34305   0.34305   0.34329   0.34760   0.34795
     Eigenvalues ---    0.36081   0.57816
 RFO step:  Lambda=-2.29363171D-04 EMin= 7.14903751D-03
 Quartic linear search produced a step of  0.35191.
 Iteration  1 RMS(Cart)=  0.02346417 RMS(Int)=  0.00087736
 Iteration  2 RMS(Cart)=  0.00083356 RMS(Int)=  0.00000410
 Iteration  3 RMS(Cart)=  0.00000035 RMS(Int)=  0.00000410
 Variable       Old X    -DE/DX   Delta X   Delta X   Delta X     New X
                                 (Linear)    (Quad)   (Total)
    R1        2.48815  -0.00520  -0.00946  -0.00352  -0.01298   2.47517
    R2        2.05007  -0.00380   0.00029  -0.01472  -0.01442   2.03565
    R3        2.84778   0.00291   0.00207   0.01051   0.01259   2.86036
    R4        2.84609  -0.00092   0.00148  -0.00518  -0.00370   2.84239
    R5        2.06258   0.00009  -0.00197   0.00204   0.00007   2.06265
    R6        2.05540  -0.00049  -0.00168  -0.00044  -0.00213   2.05327
    R7        2.06258   0.00009  -0.00197   0.00205   0.00007   2.06265
    R8        2.06316  -0.00019  -0.00177   0.00078  -0.00098   2.06218
    R9        2.05311  -0.00012  -0.00249   0.00169  -0.00080   2.05231
   R10        2.06316  -0.00019  -0.00177   0.00078  -0.00098   2.06218
    A1        2.30695   0.00752   0.06609   0.00960   0.07570   2.38265
    A2        2.11263   0.00107  -0.00771   0.01233   0.00462   2.11725
    A3        2.14716  -0.00077   0.00444  -0.00792  -0.00347   2.14368
    A4        2.02340  -0.00030   0.00326  -0.00441  -0.00115   2.02225
    A5        1.92166   0.00028  -0.00223   0.00455   0.00231   1.92398
    A6        1.96025  -0.00067   0.00346  -0.00919  -0.00573   1.95452
    A7        1.92167   0.00028  -0.00224   0.00455   0.00231   1.92398
    A8        1.89330   0.00011  -0.00056   0.00074   0.00019   1.89349
    A9        1.87116  -0.00010   0.00213  -0.00115   0.00096   1.87212
   A10        1.89330   0.00011  -0.00056   0.00074   0.00018   1.89349
   A11        1.92896  -0.00039   0.00034  -0.00352  -0.00319   1.92577
   A12        1.94900  -0.00029  -0.00050  -0.00217  -0.00267   1.94633
   A13        1.92897  -0.00039   0.00033  -0.00353  -0.00320   1.92577
   A14        1.89438   0.00036  -0.00018   0.00307   0.00288   1.89726
   A15        1.86571   0.00042   0.00021   0.00354   0.00374   1.86945
   A16        1.89438   0.00036  -0.00018   0.00307   0.00288   1.89726
    D1       -0.00003   0.00000   0.00000   0.00001   0.00001  -0.00002
    D2        3.14156   0.00000   0.00000   0.00001   0.00001   3.14157
    D3       -2.11168   0.00011  -0.00008   0.00199   0.00192  -2.10976
    D4        0.00017  -0.00000  -0.00001  -0.00008  -0.00009   0.00008
    D5        2.11202  -0.00011   0.00005  -0.00214  -0.00210   2.10993
    D6        1.02991   0.00011  -0.00008   0.00199   0.00192   1.03183
    D7       -3.14143  -0.00000  -0.00001  -0.00008  -0.00009  -3.14151
    D8       -1.02957  -0.00011   0.00005  -0.00214  -0.00210  -1.03167
    D9       -2.11053   0.00001   0.00033  -0.00008   0.00024  -2.11028
   D10        0.00017  -0.00000  -0.00001  -0.00007  -0.00008   0.00009
   D11        2.11088  -0.00001  -0.00035  -0.00006  -0.00041   2.11047
   D12        1.03107   0.00001   0.00033  -0.00009   0.00024   1.03131
   D13       -3.14142  -0.00000  -0.00001  -0.00007  -0.00008  -3.14150
   D14       -1.03071  -0.00001  -0.00035  -0.00006  -0.00041  -1.03112
         Item               Value     Threshold  Converged?
 Maximum Force            0.007516     0.000450     NO 
 RMS     Force            0.001666     0.000300     NO 
 Maximum Displacement     0.095240     0.001800     NO 
 RMS     Displacement     0.023410     0.001200     NO 
 Predicted change in Energy=-3.235455D-04
 GradGradGradGradGradGradGradGradGradGradGradGradGradGradGradGradGradGrad

                          Input orientation:                          
 ---------------------------------------------------------------------
 Center     Atomic      Atomic             Coordinates (Angstroms)
 Number     Number       Type             X           Y           Z
 ---------------------------------------------------------------------
      1          6           0        0.050008    1.417077    0.000011
      2          6           0        0.014843    0.107745    0.000004
      3          1           0        0.812021    2.178481    0.000104
      4          6           0        1.286472   -0.713267    0.000126
      5          6           0       -1.270567   -0.673356   -0.000127
      6          1           0        1.318619   -1.359635   -0.878828
      7          1           0        2.174702   -0.087469    0.000298
      8          1           0        1.318369   -1.359766    0.878994
      9          1           0       -1.321826   -1.319515    0.877765
     10          1           0       -2.135651   -0.016773   -0.000302
     11          1           0       -1.321569   -1.319655   -0.877930
 ---------------------------------------------------------------------
                    Distance matrix (angstroms):
                    1          2          3          4          5
     1  C    0.000000
     2  C    1.309803   0.000000
     3  H    1.077219   2.218883   0.000000
     4  C    2.463171   1.513639   2.930412   0.000000
     5  C    2.472615   1.504127   3.531310   2.557351   0.000000
     6  H    3.176769   2.150671   3.680684   1.091506   2.819039
     7  H    2.603456   2.168662   2.644131   1.086542   3.494730
     8  H    3.176823   2.150673   3.680765   1.091507   2.818972
     9  H    3.184543   2.143413   4.190414   2.817979   1.091257
    10  H    2.614007   2.154096   3.675312   3.492282   1.086035
    11  H    3.184604   2.143417   4.190478   2.817901   1.091257
                    6          7          8          9         10
     6  H    0.000000
     7  H    1.767526   0.000000
     8  H    1.757823   1.767526   0.000000
     9  H    3.171621   3.809670   2.640502   0.000000
    10  H    3.808815   4.310933   3.808812   1.769308   0.000000
    11  H    2.640491   3.809655   3.171382   1.755695   1.769311
                   11
    11  H    0.000000
 Stoichiometry    C4H7(2)
 Framework group  C1[X(C4H7)]
 Deg. of freedom    27
 Full point group                 C1      NOp   1
 Largest Abelian subgroup         C1      NOp   1
 Largest concise Abelian subgroup C1      NOp   1
                         Standard orientation:                         
 ---------------------------------------------------------------------
 Center     Atomic      Atomic             Coordinates (Angstroms)
 Number     Number       Type             X           Y           Z
 ---------------------------------------------------------------------
      1          6           0       -0.345386    1.455884   -0.000005
      2          6           0       -0.014977    0.188440    0.000002
      3          1           0       -1.259871    2.025197   -0.000098
      4          6           0       -1.067946   -0.898923   -0.000120
      5          6           0        1.413797   -0.281673    0.000133
      6          1           0       -0.953059   -1.535811    0.878834
      7          1           0       -2.074704   -0.490251   -0.000292
      8          1           0       -0.952786   -1.535881   -0.878988
      9          1           0        1.609880   -0.899492   -0.877759
     10          1           0        2.107949    0.553565    0.000309
     11          1           0        1.609662   -0.899687    0.877936
 ---------------------------------------------------------------------
 Rotational constants (GHZ):           9.9996126           8.4655246           4.8585893
 Standard basis: CC-pVTZ (5D, 7F)
 There are   245 symmetry adapted cartesian basis functions of A   symmetry.
 There are   218 symmetry adapted basis functions of A   symmetry.
   218 basis functions,   327 primitive gaussians,   245 cartesian basis functions
    16 alpha electrons       15 beta electrons
       nuclear repulsion energy       112.2278788169 Hartrees.
 NAtoms=   11 NActive=   11 NUniq=   11 SFac= 1.00D+00 NAtFMM=   60 NAOKFM=F Big=F
 Integral buffers will be    131072 words long.
 Raffenetti 2 integral format.
 Two-electron integral symmetry is turned on.
 Nuclear repulsion after empirical dispersion term =      112.2225020682 Hartrees.
 One-electron integrals computed using PRISM.
 NBasis=   218 RedAO= T EigKep=  3.75D-04  NBF=   218
 NBsUse=   218 1.00D-06 EigRej= -1.00D+00 NBFU=   218
 Initial guess from the checkpoint file:  "/localscratch/339542/Gau-67268.chk"
 B after Tr=     0.000000   -0.000000   -0.000000
         Rot=    0.999897   -0.000000    0.000002    0.014354 Ang=  -1.64 deg.
 Initial guess <Sx>= 0.0000 <Sy>= 0.0000 <Sz>= 0.5000 <S**2>= 0.7770 S= 0.5134
 ExpMin= 1.03D-01 ExpMax= 8.24D+03 ExpMxC= 2.81D+02 IAcc=3 IRadAn=         5 AccDes= 0.00D+00
 Harris functional with IExCor=  419 and IRadAn=       5 diagonalized for initial guess.
 HarFok:  IExCor=  419 AccDes= 0.00D+00 IRadAn=         5 IDoV= 1 UseB2=F ITyADJ=14
 ICtDFT=  3500011 ScaDFX=  1.000000  1.000000  1.000000  1.000000
 FoFCou: FMM=F IPFlag=           0 FMFlag=      100000 FMFlg1=           0
         NFxFlg=           0 DoJE=T BraDBF=F KetDBF=T FulRan=T
         wScrn=  0.000000 ICntrl=       500 IOpCl=  0 I1Cent=   200000004 NGrid=           0
         NMat0=    1 NMatS0=      1 NMatT0=    0 NMatD0=    1 NMtDS0=    0 NMtDT0=    0
 Petite list used in FoFCou.
 Keep R1 and R2 ints in memory in canonical form, NReq=612885869.
 Requested convergence on RMS density matrix=1.00D-08 within 128 cycles.
 Requested convergence on MAX density matrix=1.00D-06.
 Requested convergence on             energy=1.00D-06.
 No special actions if energy rises.
 Integral accuracy reduced to 1.0D-05 until final iterations.
 Initial convergence to 1.0D-05 achieved.  Increase integral accuracy.
 SCF Done:  E(UB2PLYPD3) =  -156.232770084     A.U. after   13 cycles
            NFock= 13  Conv=0.68D-08     -V/T= 2.0045
 <Sx>= 0.0000 <Sy>= 0.0000 <Sz>= 0.5000 <S**2>= 0.7754 S= 0.5126
 <L.S>=  0.00000000000    
 Annihilation of the first spin contaminant:
 S**2 before annihilation     0.7754,   after     0.7502
 DoSCS=T DFT=T ScalE2(SS,OS)=  0.270000  0.270000
 ExpMin= 1.03D-01 ExpMax= 8.24D+03 ExpMxC= 2.81D+02 IAcc=3 IRadAn=         5 AccDes= 0.00D+00
 HarFok:  IExCor=  205 AccDes= 0.00D+00 IRadAn=         5 IDoV=-2 UseB2=F ITyADJ=14
 ICtDFT= 12500011 ScaDFX=  1.000000  1.000000  1.000000  1.000000
 Range of M.O.s used for correlation:     5   218
 NBasis=   218 NAE=    16 NBE=    15 NFC=     4 NFV=     0
 NROrb=    214 NOA=    12 NOB=    11 NVA=   202 NVB=   203

 **** Warning!!: The largest alpha MO coefficient is  0.14698042D+02


 **** Warning!!: The largest beta MO coefficient is  0.13556594D+02

 DoSCS=T DFT=T ScalE2(SS,OS)=  0.270000  0.270000
 Fully direct method using O(ONN) memory.
 JobTyp=2 Pass  1:  I=   5 to  16 NPSUse= 40 ParTrn=T ParDer=T DoDerP=T.
 JobTyp=3 Pass  1:  I=   5 to  15 NPSUse= 40 ParTrn=T ParDer=T DoDerP=T.
 Spin components of T(2) and E(2):
     alpha-alpha T2 =       0.4181176434D-01 E2=     -0.2615485594D-01
     alpha-beta  T2 =       0.2439957919D+00 E2=     -0.1631435136D+00
     beta-beta   T2 =       0.3648651788D-01 E2=     -0.2232207597D-01
 (S**2,0)=  0.77539D+00           (S**2,1)=  0.75825D+00
 Scaling Projection term by:   0.270000
 E(PUHF)=      -0.15623605171D+03        E(PMP2)=      -0.15644497892D+03
 E2(B2PLYPD3) =    -0.2116204455D+00 E(B2PLYPD3) =    -0.15644439052980D+03
          IDoAtm=11111111111
          Differentiating once with respect to electric field.
                with respect to dipole field.
          Differentiating once with respect to nuclear coordinates.
 Keep R1 and R2 ints in memory in canonical form, NReq=612894013.
          There are     1 degrees of freedom in the 1st order CPHF.  IDoFFX=0 NUNeed=     1.
 LinEq1:  Iter=  0 NonCon=     1 RMS=7.87D-04 Max=2.38D-02 NDo=     1
 AX will form     1 AO Fock derivatives at one time.
 LinEq1:  Iter=  1 NonCon=     1 RMS=3.10D-04 Max=9.86D-03 NDo=     1
 LinEq1:  Iter=  2 NonCon=     1 RMS=2.28D-04 Max=1.07D-02 NDo=     1
 LinEq1:  Iter=  3 NonCon=     1 RMS=1.17D-04 Max=5.94D-03 NDo=     1
 LinEq1:  Iter=  4 NonCon=     1 RMS=5.19D-05 Max=1.76D-03 NDo=     1
 LinEq1:  Iter=  5 NonCon=     1 RMS=1.06D-05 Max=2.10D-04 NDo=     1
 LinEq1:  Iter=  6 NonCon=     1 RMS=3.10D-06 Max=4.06D-05 NDo=     1
 LinEq1:  Iter=  7 NonCon=     1 RMS=1.38D-06 Max=1.98D-05 NDo=     1
 LinEq1:  Iter=  8 NonCon=     1 RMS=4.31D-07 Max=5.82D-06 NDo=     1
 LinEq1:  Iter=  9 NonCon=     1 RMS=1.26D-07 Max=1.85D-06 NDo=     1
 LinEq1:  Iter= 10 NonCon=     1 RMS=4.45D-08 Max=5.18D-07 NDo=     1
 LinEq1:  Iter= 11 NonCon=     1 RMS=1.91D-08 Max=2.99D-07 NDo=     1
 LinEq1:  Iter= 12 NonCon=     1 RMS=7.06D-09 Max=1.06D-07 NDo=     1
 LinEq1:  Iter= 13 NonCon=     1 RMS=1.09D-09 Max=1.44D-08 NDo=     1
 LinEq1:  Iter= 14 NonCon=     1 RMS=2.14D-10 Max=2.65D-09 NDo=     1
 LinEq1:  Iter= 15 NonCon=     1 RMS=5.36D-11 Max=1.35D-09 NDo=     1
 LinEq1:  Iter= 16 NonCon=     0 RMS=1.20D-11 Max=2.02D-10 NDo=     1
 Linear equations converged to 1.000D-10 1.000D-09 after    16 iterations.
 End of Minotr F.D. properties file   721 does not exist.
 End of Minotr F.D. properties file   722 does not exist.
 End of Minotr F.D. properties file   788 does not exist.
 Calling FoFJK, ICntrl=  10002127 FMM=F ISym2X=0 I1Cent= 0 IOpClX= 1 NMat=1 NMatS=1 NMatT=0.
 ***** Axes restored to original set *****
 -------------------------------------------------------------------
 Center     Atomic                   Forces (Hartrees/Bohr)
 Number     Number              X              Y              Z
 -------------------------------------------------------------------
      1        6          -0.000001843    0.000648268    0.000000418
      2        6           0.001217526    0.000239295   -0.000000132
      3        1          -0.000249912    0.000198215   -0.000000289
      4        6           0.000024922   -0.000946500    0.000000378
      5        6          -0.000546621   -0.000370379   -0.000000056
      6        1          -0.000161572    0.000070042    0.000011618
      7        1           0.000059052    0.000277637   -0.000000110
      8        1          -0.000161413    0.000070374   -0.000011590
      9        1          -0.000038382   -0.000103618    0.000051835
     10        1          -0.000103168    0.000019966    0.000000058
     11        1          -0.000038587   -0.000103299   -0.000052130
 -------------------------------------------------------------------
 Cartesian Forces:  Max     0.001217526 RMS     0.000329268

 GradGradGradGradGradGradGradGradGradGradGradGradGradGradGradGradGradGrad
 Berny optimization.
 Using GEDIIS/GDIIS optimizer.
 FormGI is forming the generalized inverse of G from B-inverse, IUseBI=4.
 Internal  Forces:  Max     0.000984730 RMS     0.000305932
 Search for a local minimum.
 Step number   3 out of a maximum of  100
 All quantities printed in internal units (Hartrees-Bohrs-Radians)
 Mixed Optimization -- En-DIIS/RFO-DIIS
 Update second derivatives using D2CorX and points    1    2    3
 DE= -3.91D-04 DEPred=-3.24D-04 R= 1.21D+00
 TightC=F SS=  1.41D+00  RLast= 8.02D-02 DXNew= 8.4853D-01 2.4074D-01
 Trust test= 1.21D+00 RLast= 8.02D-02 DXMaxT set to 5.05D-01
 ITU=  1  1  0
 Use linear search instead of GDIIS.
     Eigenvalues ---    0.00715   0.00715   0.01077   0.03003   0.07100
     Eigenvalues ---    0.07144   0.07372   0.07379   0.09638   0.16000
     Eigenvalues ---    0.16000   0.16000   0.16000   0.16058   0.16193
     Eigenvalues ---    0.25027   0.25865   0.31834   0.32506   0.34305
     Eigenvalues ---    0.34305   0.34316   0.34331   0.34793   0.34826
     Eigenvalues ---    0.36415   0.59506
 RFO step:  Lambda=-1.40847887D-05 EMin= 7.14903126D-03
 Quartic linear search produced a step of  0.06170.
 Iteration  1 RMS(Cart)=  0.00395271 RMS(Int)=  0.00001397
 Iteration  2 RMS(Cart)=  0.00001360 RMS(Int)=  0.00000033
 Iteration  3 RMS(Cart)=  0.00000000 RMS(Int)=  0.00000033
 Variable       Old X    -DE/DX   Delta X   Delta X   Delta X     New X
                                 (Linear)    (Quad)   (Total)
    R1        2.47517   0.00084  -0.00080   0.00179   0.00099   2.47616
    R2        2.03565  -0.00004  -0.00089   0.00033  -0.00056   2.03509
    R3        2.86036   0.00009   0.00078  -0.00007   0.00071   2.86107
    R4        2.84239   0.00091  -0.00023   0.00315   0.00292   2.84531
    R5        2.06265  -0.00006   0.00000  -0.00020  -0.00019   2.06245
    R6        2.05327   0.00021  -0.00013   0.00068   0.00055   2.05381
    R7        2.06265  -0.00006   0.00000  -0.00020  -0.00019   2.06245
    R8        2.06218   0.00010  -0.00006   0.00033   0.00027   2.06245
    R9        2.05231   0.00009  -0.00005   0.00028   0.00023   2.05254
   R10        2.06218   0.00010  -0.00006   0.00033   0.00027   2.06245
    A1        2.38265   0.00065   0.00467   0.00306   0.00773   2.39038
    A2        2.11725   0.00098   0.00029   0.00394   0.00422   2.12147
    A3        2.14368  -0.00034  -0.00021  -0.00128  -0.00150   2.14219
    A4        2.02225  -0.00064  -0.00007  -0.00266  -0.00273   2.01952
    A5        1.92398  -0.00016   0.00014  -0.00119  -0.00105   1.92293
    A6        1.95452  -0.00019  -0.00035  -0.00099  -0.00134   1.95318
    A7        1.92398  -0.00016   0.00014  -0.00119  -0.00105   1.92293
    A8        1.89349   0.00020   0.00001   0.00133   0.00134   1.89483
    A9        1.87212   0.00014   0.00006   0.00085   0.00091   1.87303
   A10        1.89349   0.00020   0.00001   0.00133   0.00134   1.89483
   A11        1.92577   0.00005  -0.00020   0.00039   0.00019   1.92596
   A12        1.94633   0.00005  -0.00016   0.00050   0.00033   1.94666
   A13        1.92577   0.00005  -0.00020   0.00039   0.00019   1.92596
   A14        1.89726  -0.00004   0.00018  -0.00028  -0.00010   1.89715
   A15        1.86945  -0.00008   0.00023  -0.00077  -0.00054   1.86891
   A16        1.89726  -0.00004   0.00018  -0.00028  -0.00011   1.89716
    D1       -0.00002   0.00000   0.00000   0.00001   0.00001  -0.00001
    D2        3.14157   0.00000   0.00000   0.00001   0.00001   3.14158
    D3       -2.10976  -0.00001   0.00012  -0.00023  -0.00012  -2.10988
    D4        0.00008  -0.00000  -0.00001  -0.00003  -0.00003   0.00005
    D5        2.10993   0.00001  -0.00013   0.00018   0.00005   2.10998
    D6        1.03183  -0.00001   0.00012  -0.00023  -0.00011   1.03172
    D7       -3.14151  -0.00000  -0.00001  -0.00003  -0.00003  -3.14154
    D8       -1.03167   0.00001  -0.00013   0.00018   0.00005  -1.03161
    D9       -2.11028  -0.00002   0.00002  -0.00027  -0.00025  -2.11053
   D10        0.00009  -0.00000  -0.00000  -0.00003  -0.00003   0.00006
   D11        2.11047   0.00002  -0.00003   0.00021   0.00018   2.11066
   D12        1.03131  -0.00002   0.00002  -0.00027  -0.00025   1.03106
   D13       -3.14150  -0.00000  -0.00000  -0.00003  -0.00003  -3.14154
   D14       -1.03112   0.00002  -0.00003   0.00021   0.00018  -1.03094
         Item               Value     Threshold  Converged?
 Maximum Force            0.000985     0.000450     NO 
 RMS     Force            0.000306     0.000300     NO 
 Maximum Displacement     0.015781     0.001800     NO 
 RMS     Displacement     0.003949     0.001200     NO 
 Predicted change in Energy=-8.158627D-06
 GradGradGradGradGradGradGradGradGradGradGradGradGradGradGradGradGradGrad

                          Input orientation:                          
 ---------------------------------------------------------------------
 Center     Atomic      Atomic             Coordinates (Angstroms)
 Number     Number       Type             X           Y           Z
 ---------------------------------------------------------------------
      1          6           0        0.050787    1.418671    0.000011
      2          6           0        0.017514    0.108766    0.000003
      3          1           0        0.805563    2.186833    0.000102
      4          6           0        1.287179   -0.715970    0.000132
      5          6           0       -1.269250   -0.673082   -0.000132
      6          1           0        1.316471   -1.362035   -0.879018
      7          1           0        2.176537   -0.091274    0.000277
      8          1           0        1.316242   -1.362117    0.879230
      9          1           0       -1.320617   -1.319582    0.877681
     10          1           0       -2.134621   -0.016674   -0.000278
     11          1           0       -1.320384   -1.319669   -0.877894
 ---------------------------------------------------------------------
                    Distance matrix (angstroms):
                    1          2          3          4          5
     1  C    0.000000
     2  C    1.310327   0.000000
     3  H    1.076921   2.222472   0.000000
     4  C    2.466852   1.514015   2.942485   0.000000
     5  C    2.473444   1.505672   3.533265   2.556789   0.000000
     6  H    3.179146   2.150168   3.691658   1.091404   2.816567
     7  H    2.607441   2.168271   2.658823   1.086832   3.494560
     8  H    3.179179   2.150170   3.691707   1.091404   2.816526
     9  H    3.185762   2.145015   4.193534   2.816920   1.091401
    10  H    2.614617   2.155787   3.674251   3.492525   1.086157
    11  H    3.185801   2.145018   4.193576   2.816871   1.091401
                    6          7          8          9         10
     6  H    0.000000
     7  H    1.768532   0.000000
     8  H    1.758248   1.768533   0.000000
     9  H    3.168915   3.809024   2.637202   0.000000
    10  H    3.806864   4.311803   3.806863   1.769459   0.000000
    11  H    2.637195   3.809015   3.168766   1.755575   1.769460
                   11
    11  H    0.000000
 Stoichiometry    C4H7(2)
 Framework group  C1[X(C4H7)]
 Deg. of freedom    27
 Full point group                 C1      NOp   1
 Largest Abelian subgroup         C1      NOp   1
 Largest concise Abelian subgroup C1      NOp   1
                         Standard orientation:                         
 ---------------------------------------------------------------------
 Center     Atomic      Atomic             Coordinates (Angstroms)
 Number     Number       Type             X           Y           Z
[...]
 Iteration  2 RMS(Cart)=  0.00000011 RMS(Int)=  0.00000000
 Variable       Old X    -DE/DX   Delta X   Delta X   Delta X     New X
                                 (Linear)    (Quad)   (Total)
    R1        2.47574  -0.00002   0.00000  -0.00001  -0.00001   2.47573
    R2        2.03512   0.00001   0.00000   0.00009   0.00009   2.03520
    R3        2.86083  -0.00006   0.00000  -0.00041  -0.00041   2.86042
    R4        2.84626   0.00004   0.00000   0.00031   0.00031   2.84656
    R5        2.06228   0.00000   0.00000   0.00001   0.00001   2.06230
    R6        2.05389  -0.00002   0.00000  -0.00003  -0.00003   2.05385
    R7        2.06228   0.00000   0.00000   0.00001   0.00001   2.06230
    R8        2.06248  -0.00001   0.00000  -0.00003  -0.00003   2.06245
    R9        2.05257  -0.00002   0.00000  -0.00005  -0.00005   2.05252
   R10        2.06248  -0.00001   0.00000  -0.00003  -0.00003   2.06245
    A1        2.39177  -0.00007   0.00000  -0.00066  -0.00066   2.39111
    A2        2.12426   0.00011   0.00000   0.00078   0.00078   2.12504
    A3        2.14061  -0.00009   0.00000  -0.00063  -0.00063   2.13998
    A4        2.01832  -0.00003   0.00000  -0.00015  -0.00015   2.01817
    A5        1.92222   0.00000   0.00000   0.00001   0.00001   1.92222
    A6        1.95331   0.00003   0.00000   0.00031   0.00031   1.95362
    A7        1.92222   0.00000   0.00000   0.00001   0.00001   1.92222
    A8        1.89529  -0.00002   0.00000  -0.00013  -0.00013   1.89516
    A9        1.87345  -0.00000   0.00000  -0.00009  -0.00009   1.87336
   A10        1.89529  -0.00002   0.00000  -0.00013  -0.00013   1.89516
   A11        1.92562  -0.00001   0.00000  -0.00006  -0.00006   1.92557
   A12        1.94694  -0.00001   0.00000  -0.00012  -0.00012   1.94682
   A13        1.92563  -0.00001   0.00000  -0.00006  -0.00006   1.92557
   A14        1.89728   0.00001   0.00000   0.00005   0.00005   1.89734
   A15        1.86906   0.00001   0.00000   0.00014   0.00014   1.86920
   A16        1.89728   0.00001   0.00000   0.00005   0.00005   1.89734
    D1       -0.00001   0.00000   0.00000   0.00001   0.00001  -0.00000
    D2        3.14159   0.00000   0.00000   0.00001   0.00001   3.14159
    D3       -2.11008  -0.00000   0.00000  -0.00008  -0.00008  -2.11016
    D4        0.00003  -0.00000   0.00000  -0.00003  -0.00003   0.00000
    D5        2.11014   0.00000   0.00000   0.00002   0.00002   2.11016
    D6        1.03151  -0.00000   0.00000  -0.00008  -0.00008   1.03144
    D7       -3.14156  -0.00000   0.00000  -0.00003  -0.00003  -3.14159
    D8       -1.03145   0.00000   0.00000   0.00002   0.00002  -1.03144
    D9       -2.11068   0.00000   0.00000   0.00002   0.00002  -2.11066
   D10        0.00003  -0.00000   0.00000  -0.00003  -0.00003   0.00000
   D11        2.11075  -0.00000   0.00000  -0.00009  -0.00009   2.11066
   D12        1.03092   0.00000   0.00000   0.00002   0.00002   1.03093
   D13       -3.14156  -0.00000   0.00000  -0.00003  -0.00003  -3.14159
   D14       -1.03085  -0.00000   0.00000  -0.00009  -0.00009  -1.03093
         Item               Value     Threshold  Converged?
 Maximum Force            0.000112     0.000450     YES
 RMS     Force            0.000030     0.000300     YES
 Maximum Displacement     0.000946     0.001800     YES
 RMS     Displacement     0.000308     0.001200     YES
 Predicted change in Energy=-1.278523D-07
 Optimization completed.
    -- Stationary point found.
                           ----------------------------
                           !   Optimized Parameters   !
                           ! (Angstroms and Degrees)  !
 --------------------------                            --------------------------
 ! Name  Definition              Value          Derivative Info.                !
 --------------------------------------------------------------------------------
 ! R1    R(1,2)                  1.3101         -DE/DX =    0.0                 !
 ! R2    R(1,3)                  1.0769         -DE/DX =    0.0                 !
 ! R3    R(2,4)                  1.5139         -DE/DX =   -0.0001              !
 ! R4    R(2,5)                  1.5062         -DE/DX =    0.0                 !
 ! R5    R(4,6)                  1.0913         -DE/DX =    0.0                 !
 ! R6    R(4,7)                  1.0869         -DE/DX =    0.0                 !
 ! R7    R(4,8)                  1.0913         -DE/DX =    0.0                 !
 ! R8    R(5,9)                  1.0914         -DE/DX =    0.0                 !
 ! R9    R(5,10)                 1.0862         -DE/DX =    0.0                 !
 ! R10   R(5,11)                 1.0914         -DE/DX =    0.0                 !
 ! A1    A(2,1,3)              137.0384         -DE/DX =   -0.0001              !
 ! A2    A(1,2,4)              121.7109         -DE/DX =    0.0001              !
 ! A3    A(1,2,5)              122.648          -DE/DX =   -0.0001              !
 ! A4    A(4,2,5)              115.6411         -DE/DX =    0.0                 !
 ! A5    A(2,4,6)              110.1349         -DE/DX =    0.0                 !
 ! A6    A(2,4,7)              111.9161         -DE/DX =    0.0                 !
 ! A7    A(2,4,8)              110.135          -DE/DX =    0.0                 !
 ! A8    A(6,4,7)              108.5922         -DE/DX =    0.0                 !
 ! A9    A(6,4,8)              107.3406         -DE/DX =    0.0                 !
 ! A10   A(7,4,8)              108.5922         -DE/DX =    0.0                 !
 ! A11   A(2,5,9)              110.3301         -DE/DX =    0.0                 !
 ! A12   A(2,5,10)             111.5513         -DE/DX =    0.0                 !
 ! A13   A(2,5,11)             110.3302         -DE/DX =    0.0                 !
 ! A14   A(9,5,10)             108.7063         -DE/DX =    0.0                 !
 ! A15   A(9,5,11)             107.0892         -DE/DX =    0.0                 !
 ! A16   A(10,5,11)            108.7064         -DE/DX =    0.0                 !
 ! D1    D(3,1,2,4)             -0.0005         -DE/DX =    0.0                 !
 ! D2    D(3,1,2,5)            179.9996         -DE/DX =    0.0                 !
 ! D3    D(1,2,4,6)           -120.8986         -DE/DX =    0.0                 !
 ! D4    D(1,2,4,7)              0.0017         -DE/DX =    0.0                 !
 ! D5    D(1,2,4,8)            120.9021         -DE/DX =    0.0                 !
 ! D6    D(5,2,4,6)             59.1014         -DE/DX =    0.0                 !
 ! D7    D(5,2,4,7)           -179.9984         -DE/DX =    0.0                 !
 ! D8    D(5,2,4,8)            -59.098          -DE/DX =    0.0                 !
 ! D9    D(1,2,5,9)           -120.9328         -DE/DX =    0.0                 !
 ! D10   D(1,2,5,10)             0.0019         -DE/DX =    0.0                 !
 ! D11   D(1,2,5,11)           120.9369         -DE/DX =    0.0                 !
 ! D12   D(4,2,5,9)             59.0672         -DE/DX =    0.0                 !
 ! D13   D(4,2,5,10)          -179.998          -DE/DX =    0.0                 !
 ! D14   D(4,2,5,11)           -59.0631         -DE/DX =    0.0                 !
 --------------------------------------------------------------------------------
 GradGradGradGradGradGradGradGradGradGradGradGradGradGradGradGradGradGrad


 ----------------------------------------------------------------------

 Electric dipole moment (input orientation):
 (Debye = 10**-18 statcoulomb cm , SI units = C m)
                  (au)            (Debye)         (10**-30 SI)
   Tot        0.394952D+00      0.100387D+01      0.334854D+01
   x          0.222864D+00      0.566463D+00      0.188952D+01
   y         -0.326065D+00     -0.828776D+00     -0.276450D+01
   z          0.249836D-04      0.635020D-04      0.211820D-03

 Dipole polarizability, Alpha (input orientation).
 (esu units = cm**3 , SI units = C**2 m**2 J**-1)
 Alpha(0;0):
               (au)            (10**-24 esu)      (10**-40 SI)
   iso        0.475842D+02      0.705125D+01      0.784558D+01
   aniso      0.205651D+02      0.304743D+01      0.339072D+01
   xx         0.480445D+02      0.711946D+01      0.792146D+01
   yx         0.135970D+01      0.201487D+00      0.224184D+00
   yy         0.591425D+02      0.876401D+01      0.975128D+01
   zx         0.133929D-02      0.198463D-03      0.220820D-03
   zy         0.198895D-03      0.294732D-04      0.327934D-04
   zz         0.355657D+02      0.527029D+01      0.586399D+01

 ----------------------------------------------------------------------

 Dipole orientation:
     6          1.31365433          0.89806482         -2.16049751
     6          0.12046307          0.08235726         -0.15047534
     1          2.96102229          2.02426237         -2.55994069
     6          1.02692341          0.70201820          2.49124893
     6         -2.22583841         -1.52163289         -0.30296421
     1          1.43154252         -1.03395935          3.52839783
     1          2.72233224          1.86110875          2.46781084
     1         -0.44379002          1.70910055          3.52845639
     1         -3.79672249         -0.58601212          0.65136493
     1         -2.76291385         -1.88885666         -2.24969204
     1         -1.92432638         -3.32495301          0.65146375

 Electric dipole moment (dipole orientation):
 (Debye = 10**-18 statcoulomb cm , SI units = C m)
                  (au)            (Debye)         (10**-30 SI)
   Tot        0.394952D+00      0.100387D+01      0.334854D+01
   x          0.000000D+00      0.000000D+00      0.000000D+00
   y          0.000000D+00      0.000000D+00      0.000000D+00
   z          0.394952D+00      0.100387D+01      0.334854D+01

 Dipole polarizability, Alpha (dipole orientation).
 (esu units = cm**3 , SI units = C**2 m**2 J**-1)
 Alpha(0;0):
               (au)            (10**-24 esu)      (10**-40 SI)
   iso        0.475842D+02      0.705125D+01      0.784558D+01
   aniso      0.205651D+02      0.304743D+01      0.339072D+01
   xx         0.473416D+02      0.701531D+01      0.780558D+01
   yx         0.805036D+01      0.119294D+01      0.132733D+01
   yy         0.410691D+02      0.608582D+01      0.677138D+01
   zx        -0.467571D+01     -0.692869D+00     -0.770921D+00
   zy        -0.319654D+01     -0.473679D+00     -0.527039D+00
   zz         0.543419D+02      0.805264D+01      0.895977D+01

 ----------------------------------------------------------------------
 1\1\GINC-N68\Freq\UB2PLYPD3-FC\CC-pVTZ\C4H7(2)\ROOT\01-Jun-2019\0\\#N 
 Geom=AllCheck Guess=TCheck SCRF=Check GenChk UB2PLYPD3(FC)/CC-pVTZ Fre
 q\\Title Card Required\\0,2\C,0.0500686454,1.4190442584,0.0000109009\C
 ,0.0188190037,0.109313447,0.0000043685\H,0.8025999172,2.1894272523,0.0
 000989283\C,1.2873527969,-0.7169283045,0.0001369626\C,-1.2684000785,-0
 .6727511718,-0.0001353486\H,1.3150616757,-1.3628422693,-0.8790627689\H
 ,2.1775971495,-0.0934287702,0.0002626436\H,1.3148473604,-1.3628915595,
 0.8793071554\H,-1.3193998097,-1.3192420316,0.8777233593\H,-2.133943382
 3,-0.0165426314,-0.0002599886\H,-1.3191822783,-1.3192912193,-0.8779702
 125\\Version=ES64L-G16RevB.01\State=2-A\HF=-156.2327609\MP2=-156.44440
 19\PUHF=-156.2360555\PMP2-0=-156.4449927\S2=0.775479\S2-1=0.758283\S2A
 =0.750197\RMSD=6.632e-10\RMSF=5.263e-05\ZeroPoint=0.0948534\Thermal=0.
 1002227\Dipole=0.2228636,-0.3260654,0.000025\DipoleDeriv=-0.1884454,0.
 1607284,0.0000135,0.0345923,-0.2319439,0.0000049,0.0000125,0.0000198,-
 0.296118,0.1866667,-0.0060799,0.0000323,-0.00326,0.193534,0.,0.0000316
 ,-0.0000014,-0.1401415,0.0246271,-0.1421049,-0.0000214,-0.0311398,0.08
 62731,-0.0000041,-0.0000213,-0.0000174,0.2121029,0.0170589,-0.0370814,
 -0.0000111,0.0322395,0.0525745,0.0000025,-0.0000093,-0.0000084,0.12725
 28,0.0022172,0.0254037,-0.0000187,-0.0283907,0.0463617,-0.0000016,-0.0
 000158,0.0000091,0.1800498,0.0312383,0.0393846,-0.0252252,0.0405818,-0
 .0373989,-0.0827419,0.0106264,-0.1092758,-0.0538905,-0.0863623,-0.0366
 572,-0.0000204,-0.1075181,-0.0094134,-0.000015,-0.0000219,-0.0000056,0
 .0724554,0.0312359,0.0393559,0.025247,0.0405617,-0.0374076,0.0827537,-
 0.0106041,0.1092881,-0.0538787,0.0290363,-0.036935,-0.0304048,-0.04039
 16,-0.0295195,0.0799253,0.0179486,0.1133423,-0.0598312,-0.0763076,0.03
 08897,-0.0000189,0.1030963,-0.0035321,0.0000147,-0.0000209,0.0000046,0
 .071819,0.0290349,-0.0369041,0.0304276,-0.0403715,-0.0295279,-0.079938
 5,-0.0179257,-0.1133553,-0.0598199\Polar=48.0444685,1.3596989,59.14248
 95,0.0013393,0.0001989,35.5656798\PG=C01 [X(C4H7)]\NImag=0\\0.27393953
 ,0.18505074,0.84741843,0.00002636,0.00002333,0.04422315,-0.07139701,0.
 00012837,-0.00000380,0.44670134,-0.04052707,-0.58581655,-0.00000605,0.
 03178592,0.83850343,-0.00000383,-0.00000148,-0.03841563,0.00002896,0.0
 0000527,0.17525973,-0.19122448,-0.18392675,-0.00001983,0.00731379,0.01
 450979,0.00000089,0.18255105,-0.14935331,-0.20380020,-0.00001759,-0.02
 531813,-0.00609254,-0.00000280,0.17370212,0.20979564,-0.00001977,-0.00
 002161,-0.02144933,0.00000079,0.00000175,-0.00073227,0.00001956,0.0000
 2035,0.01527411,-0.00267447,0.01152440,-0.00000195,-0.15731331,0.03887
 328,-0.00000921,0.00066747,-0.00093145,0.00000035,0.50991183,0.0303012
 7,-0.03332722,0.00000296,0.05123409,-0.10319209,0.00000542,-0.00217498
 ,0.00277474,-0.00000024,0.06715864,0.53344047,-0.00000181,0.00000109,0
 .01527149,-0.00000942,0.00000420,-0.06989700,0.00000034,-0.00000012,-0
 .00205510,-0.00000059,0.00000718,0.52874035,-0.00077029,-0.01329961,-0
 .00000008,-0.17349388,-0.04612676,-0.00001083,-0.00041660,0.00243838,-
 0.00000109,-0.02978787,-0.01431938,-0.00000455,0.51918284,-0.02774553,
 -0.02763179,-0.00000295,-0.05750399,-0.10580197,-0.00000631,-0.0007382
 1,-0.00250586,-0.00000002,0.01656941,0.01018010,0.00000186,-0.05910358
 ,0.54640390,-0.00000005,-0.00000132,0.00050719,-0.00001137,-0.00000533
 ,-0.07262548,-0.00000112,0.00000018,0.00923474,-0.00000445,-0.00000168
 ,0.00989481,-0.00000025,-0.00000603,0.53303071,-0.00255216,0.00116716,
 -0.00127334,-0.00234409,0.01888329,0.02308992,0.00028568,-0.00012937,-
 0.00027527,-0.04712937,0.00044470,0.00607705,0.00162034,-0.00002318,-0
 .00068790,0.04955044,0.00278797,-0.00009820,0.00135998,0.00380746,-0.0
 1569695,-0.01419985,-0.00040271,0.00034044,-0.00047051,-0.00112999,-0.
 13358918,-0.12705636,-0.00125325,0.00042911,0.00124805,-0.00462251,0.1
 4633496,0.00053695,0.00058425,0.00028240,-0.00068065,0.00048700,0.0023
 5847,0.00006943,0.00006053,-0.00008652,0.00316986,-0.12431050,-0.21758
 924,0.00009982,0.00012339,-0.00002824,-0.00354983,0.13739793,0.2358674
 3,0.00159619,-0.00190912,0.00000030,-0.02125451,-0.01566101,-0.0000026
 7,-0.00006327,0.00080926,-0.00000005,-0.22561862,-0.12836263,-0.000025
 37,-0.00369032,0.00461547,-0.00000056,0.00128365,0.00118666,-0.0002875
 0,0.24704979,0.00093108,0.00123544,0.00000014,0.01615491,0.01179849,0.
 00000230,-0.00010514,-0.00008145,-0.00000005,-0.13085136,-0.14139463,-
 0.00001841,0.00272888,-0.00208394,0.00000028,-0.01440926,-0.01073674,0
 .00168216,0.13887120,0.15139989,0.00000024,-0.00000014,-0.00052074,-0.
 00000175,-0.00000164,-0.00184907,-0.00000003,0.00000010,0.00022934,-0.
 00002546,-0.00001811,-0.04754064,-0.00000039,0.00000038,0.00071402,-0.
 02243330,-0.01492509,0.00092865,0.00002833,0.00001982,0.04603851,-0.00
 255249,0.00116750,0.00127271,-0.00233855,0.01888459,-0.02309012,0.0002
 8566,-0.00012937,0.00027538,-0.04712741,0.00041468,-0.00603537,0.00162
 028,-0.00002327,0.00068827,-0.00051005,-0.00074226,0.00015527,0.001278
 14,-0.01441010,0.02243257,0.04954892,0.00278841,-0.00009831,-0.0013592
 8,0.00380376,-0.01569747,0.01419995,-0.00040284,0.00034048,0.00047042,
 -0.00116062,-0.13360351,0.12706069,-0.00125304,0.00042925,-0.00124822,
 -0.00073830,0.01224765,-0.01618552,0.00118306,-0.01073747,0.01492469,-
 0.00458928,0.14635048,-0.00053756,-0.00058395,0.00028247,0.00067985,-0
 .00048331,0.00235363,-0.00006938,-0.00006054,-0.00008644,-0.00312847,0
 .12431530,-0.21757740,-0.00009946,-0.00012346,-0.00002802,-0.00015010,
 0.01618726,-0.02191913,0.00028766,-0.00168636,0.00093496,0.00350421,-0
 .13740413,0.23585376,-0.00256063,-0.00052653,0.00069693,-0.00268983,-0
 .01910018,0.02417132,0.00010770,-0.00058667,-0.00167921,0.00166250,-0.
 00010696,-0.00044462,-0.04821218,-0.00383912,0.00926346,-0.00004318,-0
 .00003964,-0.00002668,0.00039499,0.00006272,-0.00034502,-0.00057879,0.
 00057689,-0.00043963,0.05060320,-0.00183894,0.00070271,0.00090200,-0.0
 0426063,-0.01524566,0.01368828,-0.00027875,-0.00045376,-0.00113442,0.0
 0124305,0.00037131,-0.00123717,-0.00244657,-0.13384102,0.12596469,0.00
 007248,0.00006744,-0.00005597,0.00011635,-0.00003302,-0.00032825,-0.00
 057368,0.00074674,-0.00003854,0.00871969,0.14673647,0.00038147,-0.0002
 8847,0.00015022,-0.00060959,-0.00075608,0.00257558,0.00003980,-0.00015
 322,-0.00016508,0.00008007,-0.00013328,0.00003203,0.00787587,0.1243707
 9,-0.21636234,-0.00001306,0.00004713,-0.00016473,0.00004524,-0.0001762
 0,0.00024223,0.00045297,-0.00007370,0.00010941,-0.00853351,-0.13732210
 ,0.23497122,0.00075640,0.00115058,0.00000018,-0.02050006,0.01757974,-0
 .00000272,0.00038566,0.00008534,0.00000006,-0.00425331,-0.00448256,-0.
 00000060,-0.21784400,0.13160063,-0.00002471,0.00041754,-0.00016851,0.0
 0007382,-0.00137100,0.00096440,-0.00000018,0.00041753,-0.00016846,-0.0
 0007378,0.00195347,-0.00183803,-0.00042009,0.23808980,-0.00055582,0.00
 071306,-0.00000005,-0.01557478,0.01248744,-0.00000226,0.00009652,0.000
 13630,0.00000002,-0.00253822,-0.00203140,-0.00000030,0.13505089,-0.151
 72232,0.00001934,-0.00007128,-0.00004527,0.00017826,-0.00096554,0.0006
 6647,-0.00000008,-0.00007124,-0.00004526,-0.00017828,0.01375882,-0.011
 11578,-0.00167360,-0.14288892,0.16207326,0.00000013,0.00000007,-0.0004
 8120,-0.00000173,0.00000193,-0.00159823,0.00000005,0.,0.00000124,-0.00
 000045,-0.00000039,0.00068851,-0.00002484,0.00001888,-0.04798465,-0.00
 033109,0.00033767,0.00024151,-0.00000018,0.00000009,0.00058045,0.00033
 108,-0.00033775,0.00024154,-0.02196750,0.01572187,0.00092166,0.0000275
 5,-0.00002078,0.04646114,-0.00256059,-0.00052675,-0.00069749,-0.002683
 89,-0.01910159,-0.02417171,0.00010733,-0.00058678,0.00167926,0.0016625
 5,-0.00010688,0.00044495,-0.04820831,-0.00380864,-0.00922133,-0.000578
 80,0.00057679,0.00043950,0.00039497,0.00006266,0.00034500,-0.00004324,
 -0.00003957,0.00002666,-0.00063724,0.00108504,0.00070082,0.00194797,0.
 01375958,0.02196697,0.05059925,-0.00183880,0.00070263,-0.00090250,-0.0
 0425698,-0.01524612,-0.01368852,-0.00027904,-0.00045379,0.00113431,0.0
 0124287,0.00037142,0.00123734,-0.00241595,-0.13385544,-0.12596996,-0.0
 0057375,0.00074675,0.00003846,0.00011630,-0.00003302,0.00032832,0.0000
 7241,0.00006744,0.00005601,0.00108099,0.01206458,0.01615872,-0.0018341
 9,-0.01111652,-0.01572158,0.00868615,0.14675208,-0.00038213,0.00028823
 ,0.00014995,0.00060871,0.00075225,0.00257027,-0.00003971,0.00015312,-0
 .00016470,-0.00007970,0.00013333,0.00003220,-0.00783420,-0.12437653,-0
 .21635274,-0.00045309,0.00007378,0.00010941,-0.00004519,0.00017622,0.0
 0024227,0.00001303,-0.00004715,-0.00016478,-0.00069553,-0.01616039,-0.
 02231021,0.00042046,0.00167773,0.00092803,0.00848736,0.13732941,0.2349
 6030\\0.00014629,0.00000311,-0.00000015,-0.00022862,-0.00002037,0.0000
 0012,-0.00003624,0.00001513,0.00000009,0.00008427,-0.00003423,-0.00000
 008,0.00007403,0.00002239,-0.00000004,-0.00000602,0.00000143,0.0000015
 7,0.00000104,0.00002876,0.00000005,-0.00000606,0.00000135,-0.00000165,
 -0.00000547,-0.00001021,0.00000062,-0.00001778,0.00000298,-0.00000004,
 -0.00000544,-0.00001034,-0.00000049\\\@


 TOWERING GENIUS DISDAINS A BEATEN PATH.  IT SEEKS 
 REGIONS HITHERTO UNEXPLORED.

                                -- ABRAHAM LINCOLN
 Job cpu time:       0 days  8 hours  3 minutes 32.6 seconds.
 Elapsed time:       0 days  0 hours 12 minutes 24.8 seconds.
 File lengths (MBytes):  RWF=  14059 Int=      0 D2E=      0 Chk=      9 Scr=      1
 Normal termination of Gaussian 16 at Sat Jun  1 03:57:54 2019.
