 Entering Gaussian System, Link 0=g16
 Initial command:
 /ichec/packages/gaussian/16b01/l1.exe "/localscratch/339542/Gau-8410.inp" -scrdir="/localscratch/339542/"
 Entering Link 1 = /ichec/packages/gaussian/16b01/l1.exe PID=      8415.
  
 Copyright (c) 1988-2017, Gaussian, Inc.  All Rights Reserved.
  
 This is part of the Gaussian(R) 16 program.  It is based on
 the Gaussian(R) 09 system (copyright 2009, Gaussian, Inc.),
 the Gaussian(R) 03 system (copyright 2003, Gaussian, Inc.),
 the Gaussian(R) 98 system (copyright 1998, Gaussian, Inc.),
 the Gaussian(R) 94 system (copyright 1995, Gaussian, Inc.),
 the Gaussian 92(TM) system (copyright 1992, Gaussian, Inc.),
 the Gaussian 90(TM) system (copyright 1990, Gaussian, Inc.),
 the Gaussian 88(TM) system (copyright 1988, Gaussian, Inc.),
 the Gaussian 86(TM) system (copyright 1986, Carnegie Mellon
 University), and the Gaussian 82(TM) system (copyright 1983,
 Carnegie Mellon University). Gaussian is a federally registered
 trademark of Gaussian, Inc.
  
 This software contains proprietary and confidential information,
 including trade secrets, belonging to Gaussian, Inc.
  
 This software is provided under written license and may be
 used, copied, transmitted, or stored only in accord with that
 written license.
  
 The following legend is applicable only to US Government
 contracts under FAR:
  
                    RESTRICTED RIGHTS LEGEND
  
 Use, reproduction and disclosure by the US Government is
 subject to restrictions as set forth in subparagraphs (a)
 and (c) of the Commercial Computer Software - Restricted
 Rights clause in FAR 52.227-19.
  
 Gaussian, Inc.
 340 Quinnipiac St., Bldg. 40, Wallingford CT 06492
  
  
 ---------------------------------------------------------------
 Warning -- This program may not be used in any manner that
 competes with the business of Gaussian, Inc. or will provide
 assistance to any competitor of Gaussian, Inc.  The licensee
 of this program is prohibited from giving any competitor of
 Gaussian, Inc. access to this program.  By using this program,
 the user acknowledges that Gaussian, Inc. is engaged in the
 business of creating and licensing software in the field of
 computational chemistry and represents and warrants to the
 licensee that it is not a competitor of Gaussian, Inc. and that
 it will not use this program in any manner prohibited above.
 ---------------------------------------------------------------
  

 Cite this work as:
 Gaussian 16, Revision B.01,
 M. J. Frisch, G. W. Trucks, H. B. Schlegel, G. E. Scuseria, 
 M. A. Robb, J. R. Cheeseman, G. Scalmani, V. Barone, 
 G. A. Petersson, H. Nakatsuji, X. Li, M. Caricato, A. V. Marenich, 
 J. Bloino, B. G. Janesko, R. Gomperts, B. Mennucci, H. P. Hratchian, 
 J. V. Ortiz, A. F. Izmaylov, J. L. Sonnenberg, D. Williams-Young, 
 F. Ding, F. Lipparini, F. Egidi, J. Goings, B. Peng, A. Petrone, 
 T. Henderson, D. Ranasinghe, V. G. Zakrzewski, J. Gao, N. Rega, 
 G. Zheng, W. Liang, M. Hada, M. Ehara, K. Toyota, R. Fukuda, 
 J. Hasegawa, M. Ishida, T. Nakajima, Y. Honda, O. Kitao, H. Nakai, 
 T. Vreven, K. Throssell, J. A. Montgomery, Jr., J. E. Peralta, 
 F. Ogliaro, M. J. Bearpark, J. J. Heyd, E. N. Brothers, K. N. Kudin, 
 V. N. Staroverov, T. A. Keith, R. Kobayashi, J. Normand, 
 K. Raghavachari, A. P. Rendell, J. C. Burant, S. S. Iyengar, 
 J. Tomasi, M. Cossi, J. M. Millam, M. Klene, C. Adamo, R. Cammi, 
 J. W. Ochterski, R. L. Martin, K. Morokuma, O. Farkas, 
 J. B. Foresman, and D. J. Fox, Gaussian, Inc., Wallingford CT, 2016.
 
 ******************************************
 Gaussian 16:  ES64L-G16RevB.01 20-Dec-2017
                 1-Jun-2019 
 ******************************************
 %mem=80GB
 %nproc=40
 Will use up to   40 processors via shared memory.
 -----------------------------------------------
 # opt=maxcyc=500 freq=noraman uB2PLYPD3/cc-pvtz
 -----------------------------------------------
 1/6=500,18=20,19=15,38=1/1,3;
 2/9=110,12=2,17=6,18=5,40=1/2;
 3/5=16,6=1,11=2,25=1,30=1,71=1,74=-60,116=2/1,2,3;
 4//1;
 5/5=2,38=5/2;
 8/6=4,10=1/1;
 9/15=2,16=-3/6;
 10/5=1/2;
 6/7=2,8=2,9=2,10=2/1;
 7/12=2/1,2,3,16;
 1/6=500,18=20,19=15/3(2);
 2/9=110/2;
 99//99;
 2/9=110/2;
 3/5=16,6=1,11=2,25=1,30=1,71=1,74=-60,116=2/1,2,3;
 4/5=5,16=3,69=1/1;
 5/5=2,38=5/2;
 8/6=4,10=1/1;
 9/15=2,16=-3/6;
 10/5=1/2;
 7/12=2/1,2,3,16;
 1/6=500,18=20,19=15/3(-8);
 2/9=110/2;
 6/7=2,8=2,9=2,10=2/1;
 99/9=10/99;
 -------------------
 Title Card Required
 -------------------
 Symbolic Z-matrix:
 Charge =  0 Multiplicity = 1
 C                    -3.38787   0.64054   0. 
 C                    -1.8738    0.64054   0. 
 H                    -1.51964   1.17508  -0.92733 
 H                    -3.77642   1.68719   0. 
 H                    -3.77644   0.11633  -0.90591 
 H                    -3.77977   0.11817   0.90579 
 C                    -1.34066  -0.77609  -0.03455 
 C                    -1.34103   1.38093   1.20842 
 H                    -0.22452  -0.77076  -0.06054 
 H                    -1.67033  -1.341     0.87051 
 H                    -1.71536  -1.31043  -0.94039 
 H                    -1.67134   0.8815    2.15099 
 H                    -0.22489   1.40041   1.19125 
 H                    -1.71556   2.43267   1.21597 
 

 GradGradGradGradGradGradGradGradGradGradGradGradGradGradGradGradGradGrad
 Berny optimization.
 Initialization pass.
                           ----------------------------
                           !    Initial Parameters    !
                           ! (Angstroms and Degrees)  !
 --------------------------                            --------------------------
 ! Name  Definition              Value          Derivative Info.                !
 --------------------------------------------------------------------------------
 ! R1    R(1,2)                  1.5141         estimate D2E/DX2                !
 ! R2    R(1,4)                  1.1164         estimate D2E/DX2                !
 ! R3    R(1,5)                  1.1164         estimate D2E/DX2                !
 ! R4    R(1,6)                  1.1166         estimate D2E/DX2                !
 ! R5    R(2,3)                  1.1274         estimate D2E/DX2                !
 ! R6    R(2,7)                  1.514          estimate D2E/DX2                !
 ! R7    R(2,8)                  1.514          estimate D2E/DX2                !
 ! R8    R(7,9)                  1.1165         estimate D2E/DX2                !
 ! R9    R(7,10)                 1.1167         estimate D2E/DX2                !
 ! R10   R(7,11)                 1.1165         estimate D2E/DX2                !
 ! R11   R(8,12)                 1.1167         estimate D2E/DX2                !
 ! R12   R(8,13)                 1.1164         estimate D2E/DX2                !
 ! R13   R(8,14)                 1.1165         estimate D2E/DX2                !
 ! A1    A(2,1,4)              110.3664         estimate D2E/DX2                !
 ! A2    A(2,1,5)              110.3674         estimate D2E/DX2                !
 ! A3    A(2,1,6)              110.5459         estimate D2E/DX2                !
 ! A4    A(4,1,5)              108.6055         estimate D2E/DX2                !
 ! A5    A(4,1,6)              108.446          estimate D2E/DX2                !
 ! A6    A(5,1,6)              108.4462         estimate D2E/DX2                !
 ! A7    A(1,2,3)              108.3085         estimate D2E/DX2                !
 ! A8    A(1,2,7)              110.6182         estimate D2E/DX2                !
 ! A9    A(1,2,8)              110.6028         estimate D2E/DX2                !
 ! A10   A(3,2,7)              108.3146         estimate D2E/DX2                !
 ! A11   A(3,2,8)              108.3057         estimate D2E/DX2                !
 ! A12   A(7,2,8)              110.6013         estimate D2E/DX2                !
 ! A13   A(2,7,9)              110.3714         estimate D2E/DX2                !
 ! A14   A(2,7,10)             110.5421         estimate D2E/DX2                !
 ! A15   A(2,7,11)             110.3742         estimate D2E/DX2                !
 ! A16   A(9,7,10)             108.4467         estimate D2E/DX2                !
 ! A17   A(9,7,11)             108.5976         estimate D2E/DX2                !
 ! A18   A(10,7,11)            108.4451         estimate D2E/DX2                !
 ! A19   A(2,8,12)             110.5421         estimate D2E/DX2                !
 ! A20   A(2,8,13)             110.3677         estimate D2E/DX2                !
 ! A21   A(2,8,14)             110.3667         estimate D2E/DX2                !
 ! A22   A(12,8,13)            108.4512         estimate D2E/DX2                !
 ! A23   A(12,8,14)            108.4449         estimate D2E/DX2                !
 ! A24   A(13,8,14)            108.6049         estimate D2E/DX2                !
 ! D1    D(4,1,2,3)            -60.0395         estimate D2E/DX2                !
 ! D2    D(4,1,2,7)           -178.603          estimate D2E/DX2                !
 ! D3    D(4,1,2,8)             58.5042         estimate D2E/DX2                !
 ! D4    D(5,1,2,3)             60.0161         estimate D2E/DX2                !
 ! D5    D(5,1,2,7)            -58.5474         estimate D2E/DX2                !
 ! D6    D(5,1,2,8)            178.5598         estimate D2E/DX2                !
 ! D7    D(6,1,2,3)            179.9887         estimate D2E/DX2                !
 ! D8    D(6,1,2,7)             61.4253         estimate D2E/DX2                !
 ! D9    D(6,1,2,8)            -61.4675         estimate D2E/DX2                !
 ! D10   D(1,2,7,9)            178.5705         estimate D2E/DX2                !
 ! D11   D(1,2,7,10)           -61.456          estimate D2E/DX2                !
 ! D12   D(1,2,7,11)            58.5172         estimate D2E/DX2                !
 ! D13   D(3,2,7,9)             60.0107         estimate D2E/DX2                !
 ! D14   D(3,2,7,10)           179.9842         estimate D2E/DX2                !
 ! D15   D(3,2,7,11)           -60.0426         estimate D2E/DX2                !
 ! D16   D(8,2,7,9)            -58.5358         estimate D2E/DX2                !
 ! D17   D(8,2,7,10)            61.4376         estimate D2E/DX2                !
 ! D18   D(8,2,7,11)          -178.5891         estimate D2E/DX2                !
 ! D19   D(1,2,8,12)            61.4235         estimate D2E/DX2                !
 ! D20   D(1,2,8,13)          -178.5999         estimate D2E/DX2                !
 ! D21   D(1,2,8,14)           -58.5446         estimate D2E/DX2                !
 ! D22   D(3,2,8,12)           179.9689         estimate D2E/DX2                !
 ! D23   D(3,2,8,13)           -60.0544         estimate D2E/DX2                !
 ! D24   D(3,2,8,14)            60.0009         estimate D2E/DX2                !
 ! D25   D(7,2,8,12)           -61.4791         estimate D2E/DX2                !
 ! D26   D(7,2,8,13)            58.4975         estimate D2E/DX2                !
 ! D27   D(7,2,8,14)           178.5528         estimate D2E/DX2                !
 --------------------------------------------------------------------------------
 Trust Radius=3.00D-01 FncErr=1.00D-07 GrdErr=1.00D-07 EigMax=2.50D+02 EigMin=1.00D-04
 Number of steps in this run=    100 maximum allowed number of steps=    100.
 GradGradGradGradGradGradGradGradGradGradGradGradGradGradGradGradGradGrad

                          Input orientation:                          
 ---------------------------------------------------------------------
 Center     Atomic      Atomic             Coordinates (Angstroms)
 Number     Number       Type             X           Y           Z
 ---------------------------------------------------------------------
      1          6           0       -3.387873    0.640535    0.000000
      2          6           0       -1.873805    0.640535    0.000000
      3          1           0       -1.519640    1.175076   -0.927328
      4          1           0       -3.776423    1.687190    0.000000
      5          1           0       -3.776439    0.116334   -0.905912
      6          1           0       -3.779769    0.118173    0.905788
      7          6           0       -1.340659   -0.776092   -0.034548
      8          6           0       -1.341033    1.380934    1.208422
      9          1           0       -0.224518   -0.770764   -0.060536
     10          1           0       -1.670326   -1.341005    0.870507
     11          1           0       -1.715358   -1.310435   -0.940387
     12          1           0       -1.671339    0.881498    2.150986
     13          1           0       -0.224887    1.400405    1.191249
     14          1           0       -1.715556    2.432672    1.215971
 ---------------------------------------------------------------------
                    Distance matrix (angstroms):
                    1          2          3          4          5
     1  C    0.000000
     2  C    1.514068   0.000000
     3  H    2.153129   1.127433   0.000000
     4  H    1.116449   2.171507   2.493044   0.000000
     5  H    1.116444   2.171515   2.492897   1.813357   0.000000
     6  H    1.116645   2.173939   3.096053   1.811706   1.811704
     7  C    2.489801   1.514025   2.153171   3.464376   2.736553
     8  C    2.489584   1.514041   2.153069   2.735910   3.464221
     9  H    3.464426   2.171538   2.492983   4.319865   3.757359
    10  H    2.763015   2.173865   3.096059   3.789907   3.116924
    11  H    2.736406   2.171570   2.493239   3.757402   2.506973
    12  H    2.762479   2.173890   3.096000   3.115647   3.789663
    13  H    3.464240   2.171499   2.493096   3.756957   4.319774
    14  H    2.736235   2.171493   2.492722   2.506292   3.757000
                    6          7          8          9         10
     6  H    0.000000
     7  C    2.762825   0.000000
     8  C    2.762894   2.489525   0.000000
     9  H    3.789961   1.116456   2.736177   0.000000
    10  H    2.565189   1.116661   2.762530   1.811733   0.000000
    11  H    3.116260   1.116452   3.464241   1.813281   1.811712
    12  H    2.564890   2.762881   1.116676   3.116744   2.564985
    13  H    3.789828   2.735812   1.116448   2.506180   3.115686
    14  H    3.116744   3.464176   1.116457   3.756949   3.789727
                   11         12         13         14
    11  H    0.000000
    12  H    3.789867   0.000000
    13  H    3.756864   1.811790   0.000000
    14  H    4.319807   1.811725   1.813362   0.000000
 Stoichiometry    C4H10
 Framework group  C1[X(C4H10)]
 Deg. of freedom    36
 Full point group                 C1      NOp   1
 Largest Abelian subgroup         C1      NOp   1
 Largest concise Abelian subgroup C1      NOp   1
                         Standard orientation:                         
 ---------------------------------------------------------------------
 Center     Atomic      Atomic             Coordinates (Angstroms)
 Number     Number       Type             X           Y           Z
 ---------------------------------------------------------------------
      1          6           0       -1.273699   -0.666299    0.098693
      2          6           0        0.000003   -0.000080   -0.376949
      3          1           0       -0.000056   -0.000004   -1.504382
      4          1           0       -2.166351   -0.109811   -0.275409
      5          1           0       -1.326049   -1.716720   -0.275903
      6          1           0       -1.312175   -0.686761    1.214487
      7          6           0        1.213953   -0.769729    0.098694
      8          6           0        0.059746    1.436069    0.098686
      9          1           0        2.149767   -0.289679   -0.275842
     10          1           0        1.250821   -0.792800    1.214508
     11          1           0        1.178752   -1.821056   -0.275390
     12          1           0        0.061049    1.479553    1.214514
     13          1           0        0.988006    1.930963   -0.275305
     14          1           0       -0.823779    2.006554   -0.276022
 ---------------------------------------------------------------------
 Rotational constants (GHZ):           7.8994903           7.8977836           4.6169078
 Standard basis: CC-pVTZ (5D, 7F)
 There are   290 symmetry adapted cartesian basis functions of A   symmetry.
 There are   260 symmetry adapted basis functions of A   symmetry.
   260 basis functions,   378 primitive gaussians,   290 cartesian basis functions
    17 alpha electrons       17 beta electrons
       nuclear repulsion energy       134.7835894216 Hartrees.
 NAtoms=   14 NActive=   14 NUniq=   14 SFac= 1.00D+00 NAtFMM=   60 NAOKFM=F Big=F
 Integral buffers will be    131072 words long.
 Raffenetti 2 integral format.
 Two-electron integral symmetry is turned on.
 Nuclear repulsion after empirical dispersion term =      134.7767079363 Hartrees.
 One-electron integrals computed using PRISM.
 NBasis=   260 RedAO= T EigKep=  7.91D-04  NBF=   260
 NBsUse=   260 1.00D-06 EigRej= -1.00D+00 NBFU=   260
 ExpMin= 1.03D-01 ExpMax= 8.24D+03 ExpMxC= 2.81D+02 IAcc=3 IRadAn=         5 AccDes= 0.00D+00
 Harris functional with IExCor=  419 and IRadAn=       5 diagonalized for initial guess.
 HarFok:  IExCor=  419 AccDes= 0.00D+00 IRadAn=         5 IDoV= 1 UseB2=F ITyADJ=14
 ICtDFT=  3500011 ScaDFX=  1.000000  1.000000  1.000000  1.000000
 FoFCou: FMM=F IPFlag=           0 FMFlag=      100000 FMFlg1=           0
         NFxFlg=           0 DoJE=T BraDBF=F KetDBF=T FulRan=T
         wScrn=  0.000000 ICntrl=       500 IOpCl=  0 I1Cent=   200000004 NGrid=           0
         NMat0=    1 NMatS0=      1 NMatT0=    0 NMatD0=    1 NMtDS0=    0 NMtDT0=    0
 Petite list used in FoFCou.
 Initial guess <Sx>= 0.0000 <Sy>= 0.0000 <Sz>= 0.0000 <S**2>=-0.0000 S=-0.0000
 Requested convergence on RMS density matrix=1.00D-08 within 128 cycles.
 Requested convergence on MAX density matrix=1.00D-06.
 Requested convergence on             energy=1.00D-06.
 No special actions if energy rises.
 Integral accuracy reduced to 1.0D-05 until final iterations.
 Initial convergence to 1.0D-05 achieved.  Increase integral accuracy.
 SCF Done:  E(UB2PLYPD3) =  -158.116004423     A.U. after   11 cycles
            NFock= 11  Conv=0.31D-08     -V/T= 2.0065
 <Sx>= 0.0000 <Sy>= 0.0000 <Sz>= 0.0000 <S**2>=-0.0000 S=-0.0000
 <L.S>=  0.00000000000    
 Annihilation of the first spin contaminant:
 S**2 before annihilation    -0.0000,   after     0.0000
 DoSCS=T DFT=T ScalE2(SS,OS)=  0.270000  0.270000
 ExpMin= 1.03D-01 ExpMax= 8.24D+03 ExpMxC= 2.81D+02 IAcc=3 IRadAn=         5 AccDes= 0.00D+00
 HarFok:  IExCor=  205 AccDes= 0.00D+00 IRadAn=         5 IDoV=-2 UseB2=F ITyADJ=14
 ICtDFT= 12500011 ScaDFX=  1.000000  1.000000  1.000000  1.000000
 Range of M.O.s used for correlation:     5   260
 NBasis=   260 NAE=    17 NBE=    17 NFC=     4 NFV=     0
 NROrb=    256 NOA=    13 NOB=    13 NVA=   243 NVB=   243

 **** Warning!!: The largest alpha MO coefficient is  0.15785127D+02


 **** Warning!!: The largest beta MO coefficient is  0.15785127D+02

 DoSCS=T DFT=T ScalE2(SS,OS)=  0.270000  0.270000
 Fully direct method using O(ONN) memory.
 JobTyp=2 Pass  1:  I=   5 to  17 NPSUse= 40 ParTrn=T ParDer=T DoDerP=T.
 JobTyp=3 Pass  1:  I=   5 to  17 NPSUse= 40 ParTrn=T ParDer=T DoDerP=T.
 Spin components of T(2) and E(2):
     alpha-alpha T2 =       0.4020169596D-01 E2=     -0.2565501891D-01
     alpha-beta  T2 =       0.2613162878D+00 E2=     -0.1839205951D+00
     beta-beta   T2 =       0.4020169596D-01 E2=     -0.2565501891D-01
 (S**2,0)=  0.00000D+00           (S**2,1)=  0.00000D+00
 E(PUHF)=      -0.15811600442D+03        E(PMP2)=      -0.15835123506D+03
 E2(B2PLYPD3) =    -0.2352306329D+00 E(B2PLYPD3) =    -0.15835123505542D+03
          IDoAtm=11111111111111
          Differentiating once with respect to electric field.
                with respect to dipole field.
          Differentiating once with respect to nuclear coordinates.
 Keep R1 and R2 ints in memory in canonical form, NReq=1196157298.
          There are     1 degrees of freedom in the 1st order CPHF.  IDoFFX=0 NUNeed=     1.
 LinEq1:  Iter=  0 NonCon=     1 RMS=4.62D-04 Max=7.64D-03 NDo=     1
 AX will form     1 AO Fock derivatives at one time.
 LinEq1:  Iter=  1 NonCon=     1 RMS=2.08D-04 Max=3.17D-03 NDo=     1
 LinEq1:  Iter=  2 NonCon=     1 RMS=4.10D-05 Max=5.78D-04 NDo=     1
 LinEq1:  Iter=  3 NonCon=     1 RMS=1.47D-05 Max=1.74D-04 NDo=     1
 LinEq1:  Iter=  4 NonCon=     1 RMS=3.56D-06 Max=5.70D-05 NDo=     1
 LinEq1:  Iter=  5 NonCon=     1 RMS=1.07D-06 Max=1.58D-05 NDo=     1
 LinEq1:  Iter=  6 NonCon=     1 RMS=2.35D-07 Max=3.15D-06 NDo=     1
 LinEq1:  Iter=  7 NonCon=     1 RMS=3.48D-08 Max=5.65D-07 NDo=     1
 LinEq1:  Iter=  8 NonCon=     1 RMS=3.45D-09 Max=8.32D-08 NDo=     1
 LinEq1:  Iter=  9 NonCon=     1 RMS=3.45D-10 Max=1.02D-08 NDo=     1
 LinEq1:  Iter= 10 NonCon=     0 RMS=7.36D-11 Max=8.03D-10 NDo=     1
 Linear equations converged to 1.000D-10 1.000D-09 after    10 iterations.
 End of Minotr F.D. properties file   721 does not exist.
 End of Minotr F.D. properties file   722 does not exist.
 End of Minotr F.D. properties file   788 does not exist.

 **********************************************************************

            Population analysis using the SCF Density.

 **********************************************************************

 Orbital symmetries:
 Alpha Orbitals:
       Occupied  (A) (A) (A) (A) (A) (A) (A) (A) (A) (A) (A) (A)
                 (A) (A) (A) (A) (A)
       Virtual   (A) (A) (A) (A) (A) (A) (A) (A) (A) (A) (A) (A)
                 (A) (A) (A) (A) (A) (A) (A) (A) (A) (A) (A) (A)
                 (A) (A) (A) (A) (A) (A) (A) (A) (A) (A) (A) (A)
                 (A) (A) (A) (A) (A) (A) (A) (A) (A) (A) (A) (A)
                 (A) (A) (A) (A) (A) (A) (A) (A) (A) (A) (A) (A)
                 (A) (A) (A) (A) (A) (A) (A) (A) (A) (A) (A) (A)
                 (A) (A) (A) (A) (A) (A) (A) (A) (A) (A) (A) (A)
                 (A) (A) (A) (A) (A) (A) (A) (A) (A) (A) (A) (A)
                 (A) (A) (A) (A) (A) (A) (A) (A) (A) (A) (A) (A)
                 (A) (A) (A) (A) (A) (A) (A) (A) (A) (A) (A) (A)
                 (A) (A) (A) (A) (A) (A) (A) (A) (A) (A) (A) (A)
                 (A) (A) (A) (A) (A) (A) (A) (A) (A) (A) (A) (A)
                 (A) (A) (A) (A) (A) (A) (A) (A) (A) (A) (A) (A)
                 (A) (A) (A) (A) (A) (A) (A) (A) (A) (A) (A) (A)
                 (A) (A) (A) (A) (A) (A) (A) (A) (A) (A) (A) (A)
                 (A) (A) (A) (A) (A) (A) (A) (A) (A) (A) (A) (A)
                 (A) (A) (A) (A) (A) (A) (A) (A) (A) (A) (A) (A)
                 (A) (A) (A) (A) (A) (A) (A) (A) (A) (A) (A) (A)
                 (A) (A) (A) (A) (A) (A) (A) (A) (A) (A) (A) (A)
                 (A) (A) (A) (A) (A) (A) (A) (A) (A) (A) (A) (A)
                 (A) (A) (A)
 Beta  Orbitals:
       Occupied  (A) (A) (A) (A) (A) (A) (A) (A) (A) (A) (A) (A)
                 (A) (A) (A) (A) (A)
       Virtual   (A) (A) (A) (A) (A) (A) (A) (A) (A) (A) (A) (A)
                 (A) (A) (A) (A) (A) (A) (A) (A) (A) (A) (A) (A)
                 (A) (A) (A) (A) (A) (A) (A) (A) (A) (A) (A) (A)
                 (A) (A) (A) (A) (A) (A) (A) (A) (A) (A) (A) (A)
                 (A) (A) (A) (A) (A) (A) (A) (A) (A) (A) (A) (A)
                 (A) (A) (A) (A) (A) (A) (A) (A) (A) (A) (A) (A)
                 (A) (A) (A) (A) (A) (A) (A) (A) (A) (A) (A) (A)
                 (A) (A) (A) (A) (A) (A) (A) (A) (A) (A) (A) (A)
                 (A) (A) (A) (A) (A) (A) (A) (A) (A) (A) (A) (A)
                 (A) (A) (A) (A) (A) (A) (A) (A) (A) (A) (A) (A)
                 (A) (A) (A) (A) (A) (A) (A) (A) (A) (A) (A) (A)
                 (A) (A) (A) (A) (A) (A) (A) (A) (A) (A) (A) (A)
                 (A) (A) (A) (A) (A) (A) (A) (A) (A) (A) (A) (A)
                 (A) (A) (A) (A) (A) (A) (A) (A) (A) (A) (A) (A)
                 (A) (A) (A) (A) (A) (A) (A) (A) (A) (A) (A) (A)
                 (A) (A) (A) (A) (A) (A) (A) (A) (A) (A) (A) (A)
                 (A) (A) (A) (A) (A) (A) (A) (A) (A) (A) (A) (A)
                 (A) (A) (A) (A) (A) (A) (A) (A) (A) (A) (A) (A)
                 (A) (A) (A) (A) (A) (A) (A) (A) (A) (A) (A) (A)
                 (A) (A) (A) (A) (A) (A) (A) (A) (A) (A) (A) (A)
                 (A) (A) (A)
 The electronic state is 1-A.
 Alpha  occ. eigenvalues --  -10.61462 -10.60396 -10.60396 -10.60394  -0.92332
 Alpha  occ. eigenvalues --   -0.77880  -0.77878  -0.63701  -0.53385  -0.49690
 Alpha  occ. eigenvalues --   -0.49688  -0.44263  -0.44262  -0.41827  -0.38302
 Alpha  occ. eigenvalues --   -0.38298  -0.37728
 Alpha virt. eigenvalues --    0.07327   0.11219   0.12068   0.12068   0.14664
 Alpha virt. eigenvalues --    0.14665   0.14971   0.19231   0.19233   0.20907
 Alpha virt. eigenvalues --    0.21022   0.24521   0.24522   0.29957   0.29958
 Alpha virt. eigenvalues --    0.35754   0.36080   0.36084   0.38910   0.41486
 Alpha virt. eigenvalues --    0.41490   0.47307   0.49351   0.49352   0.49622
 Alpha virt. eigenvalues --    0.51967   0.52557   0.52559   0.53987   0.55211
 Alpha virt. eigenvalues --    0.55212   0.55603   0.57137   0.58783   0.58784
 Alpha virt. eigenvalues --    0.68833   0.68836   0.68954   0.78168   0.78174
 Alpha virt. eigenvalues --    0.82952   0.85409   0.85412   0.87972   0.92148
 Alpha virt. eigenvalues --    0.97467   0.97470   0.98487   0.98489   1.04069
 Alpha virt. eigenvalues --    1.04774   1.04776   1.09825   1.09825   1.10845
 Alpha virt. eigenvalues --    1.11218   1.16764   1.19936   1.20955   1.20960
 Alpha virt. eigenvalues --    1.23233   1.23236   1.27194   1.30294   1.30296
 Alpha virt. eigenvalues --    1.32932   1.32935   1.35933   1.36050   1.38338
 Alpha virt. eigenvalues --    1.38342   1.38691   1.38693   1.46434   1.46437
 Alpha virt. eigenvalues --    1.46637   1.49344   1.49348   1.51225   1.53958
 Alpha virt. eigenvalues --    1.58145   1.58149   1.58385   1.62809   1.64827
 Alpha virt. eigenvalues --    1.64828   1.72306   1.77114   1.77117   2.34935
 Alpha virt. eigenvalues --    2.34945   2.42323   2.43458   2.44264   2.44271
 Alpha virt. eigenvalues --    2.50515   2.50520   2.61587   2.65350   2.65352
 Alpha virt. eigenvalues --    2.69016   2.69019   2.70724   2.74345   2.75134
 Alpha virt. eigenvalues --    2.75167   2.75169   2.83249   2.84313   2.84316
 Alpha virt. eigenvalues --    2.90346   2.90353   2.91695   2.92033   2.92037
 Alpha virt. eigenvalues --    2.92954   2.98160   3.00943   3.00946   3.09112
 Alpha virt. eigenvalues --    3.11285   3.11287   3.12608   3.17632   3.17635
 Alpha virt. eigenvalues --    3.18956   3.20454   3.20457   3.23095   3.23099
 Alpha virt. eigenvalues --    3.23187   3.25692   3.27463   3.27467   3.29176
 Alpha virt. eigenvalues --    3.38297   3.38301   3.43769   3.43771   3.46350
 Alpha virt. eigenvalues --    3.46869   3.49485   3.49491   3.51096   3.54566
 Alpha virt. eigenvalues --    3.54569   3.58565   3.58565   3.59375   3.64182
 Alpha virt. eigenvalues --    3.64183   3.65270   3.68407   3.71052   3.75647
 Alpha virt. eigenvalues --    3.75655   3.77440   3.82616   3.82618   3.89859
 Alpha virt. eigenvalues --    3.89863   3.92031   3.92318   3.95616   3.95619
 Alpha virt. eigenvalues --    3.97108   3.97112   4.06547   4.06553   4.08792
 Alpha virt. eigenvalues --    4.09125   4.09471   4.09477   4.13477   4.14539
 Alpha virt. eigenvalues --    4.14544   4.21226   4.21229   4.24241   4.24245
 Alpha virt. eigenvalues --    4.27050   4.27053   4.27059   4.28655   4.29642
 Alpha virt. eigenvalues --    4.34335   4.34337   4.40395   4.40782   4.42432
 Alpha virt. eigenvalues --    4.42436   4.48628   4.48983   4.48987   4.57274
 Alpha virt. eigenvalues --    4.57281   4.67349   4.67350   4.74208   4.77280
 Alpha virt. eigenvalues --    4.84203   4.84210   4.87286   4.87291   4.93010
 Alpha virt. eigenvalues --    4.94747   4.97642   4.97644   5.01544   5.08429
 Alpha virt. eigenvalues --    5.08435   5.24558   5.24563   5.25353   5.26333
 Alpha virt. eigenvalues --    5.26336   5.26337   5.32715   5.39544   5.39548
 Alpha virt. eigenvalues --    5.40539   5.42655   5.42662   5.45037   5.45042
 Alpha virt. eigenvalues --    5.45718   5.56359   5.56547   5.56551   5.57952
 Alpha virt. eigenvalues --    5.68523   5.68526   5.93787   6.02262   6.02552
 Alpha virt. eigenvalues --    6.02558   6.05490   6.05493   6.10932  11.35370
 Alpha virt. eigenvalues --   13.50381  13.50390  13.56461
  Beta  occ. eigenvalues --  -10.61462 -10.60396 -10.60396 -10.60394  -0.92332
  Beta  occ. eigenvalues --   -0.77880  -0.77878  -0.63701  -0.53385  -0.49690
  Beta  occ. eigenvalues --   -0.49688  -0.44263  -0.44262  -0.41827  -0.38302
  Beta  occ. eigenvalues --   -0.38298  -0.37728
  Beta virt. eigenvalues --    0.07327   0.11219   0.12068   0.12068   0.14664
  Beta virt. eigenvalues --    0.14665   0.14971   0.19231   0.19233   0.20907
  Beta virt. eigenvalues --    0.21022   0.24521   0.24522   0.29957   0.29958
  Beta virt. eigenvalues --    0.35754   0.36080   0.36084   0.38910   0.41486
  Beta virt. eigenvalues --    0.41490   0.47307   0.49351   0.49352   0.49622
  Beta virt. eigenvalues --    0.51967   0.52557   0.52559   0.53987   0.55211
  Beta virt. eigenvalues --    0.55212   0.55603   0.57137   0.58783   0.58784
  Beta virt. eigenvalues --    0.68833   0.68836   0.68954   0.78168   0.78174
  Beta virt. eigenvalues --    0.82952   0.85409   0.85412   0.87972   0.92148
  Beta virt. eigenvalues --    0.97467   0.97470   0.98487   0.98489   1.04069
  Beta virt. eigenvalues --    1.04774   1.04776   1.09825   1.09825   1.10845
  Beta virt. eigenvalues --    1.11218   1.16764   1.19936   1.20955   1.20960
  Beta virt. eigenvalues --    1.23233   1.23236   1.27194   1.30294   1.30296
  Beta virt. eigenvalues --    1.32932   1.32935   1.35933   1.36050   1.38338
  Beta virt. eigenvalues --    1.38342   1.38691   1.38693   1.46434   1.46437
  Beta virt. eigenvalues --    1.46637   1.49344   1.49348   1.51225   1.53958
  Beta virt. eigenvalues --    1.58145   1.58149   1.58385   1.62809   1.64827
  Beta virt. eigenvalues --    1.64828   1.72306   1.77114   1.77117   2.34935
  Beta virt. eigenvalues --    2.34945   2.42323   2.43458   2.44264   2.44271
  Beta virt. eigenvalues --    2.50515   2.50520   2.61587   2.65350   2.65352
  Beta virt. eigenvalues --    2.69016   2.69019   2.70724   2.74345   2.75134
  Beta virt. eigenvalues --    2.75167   2.75169   2.83249   2.84313   2.84316
  Beta virt. eigenvalues --    2.90346   2.90353   2.91695   2.92033   2.92037
  Beta virt. eigenvalues --    2.92954   2.98160   3.00943   3.00946   3.09112
  Beta virt. eigenvalues --    3.11285   3.11287   3.12608   3.17632   3.17635
  Beta virt. eigenvalues --    3.18956   3.20454   3.20457   3.23095   3.23099
  Beta virt. eigenvalues --    3.23187   3.25692   3.27463   3.27467   3.29176
  Beta virt. eigenvalues --    3.38297   3.38301   3.43769   3.43771   3.46350
  Beta virt. eigenvalues --    3.46869   3.49485   3.49491   3.51096   3.54566
  Beta virt. eigenvalues --    3.54569   3.58565   3.58565   3.59375   3.64182
  Beta virt. eigenvalues --    3.64183   3.65270   3.68407   3.71052   3.75647
  Beta virt. eigenvalues --    3.75655   3.77440   3.82616   3.82618   3.89859
  Beta virt. eigenvalues --    3.89863   3.92031   3.92318   3.95616   3.95619
  Beta virt. eigenvalues --    3.97108   3.97112   4.06547   4.06553   4.08792
  Beta virt. eigenvalues --    4.09125   4.09471   4.09477   4.13477   4.14539
  Beta virt. eigenvalues --    4.14544   4.21226   4.21229   4.24241   4.24245
  Beta virt. eigenvalues --    4.27050   4.27053   4.27059   4.28655   4.29642
  Beta virt. eigenvalues --    4.34335   4.34337   4.40395   4.40782   4.42432
  Beta virt. eigenvalues --    4.42436   4.48628   4.48983   4.48987   4.57274
  Beta virt. eigenvalues --    4.57281   4.67349   4.67350   4.74208   4.77280
  Beta virt. eigenvalues --    4.84203   4.84210   4.87286   4.87291   4.93010
  Beta virt. eigenvalues --    4.94747   4.97642   4.97644   5.01544   5.08429
  Beta virt. eigenvalues --    5.08435   5.24558   5.24563   5.25353   5.26333
  Beta virt. eigenvalues --    5.26336   5.26337   5.32715   5.39544   5.39548
  Beta virt. eigenvalues --    5.40539   5.42655   5.42662   5.45037   5.45042
  Beta virt. eigenvalues --    5.45718   5.56359   5.56547   5.56551   5.57952
  Beta virt. eigenvalues --    5.68523   5.68526   5.93787   6.02262   6.02552
  Beta virt. eigenvalues --    6.02558   6.05490   6.05493   6.10932  11.35370
  Beta virt. eigenvalues --   13.50381  13.50390  13.56461
          Condensed to atoms (all electrons):
               1          2          3          4          5          6
     1  C    4.862485   0.353684  -0.040894   0.408817   0.408809   0.403348
     2  C    0.353684   4.873995   0.416612  -0.038443  -0.038445  -0.036644
     3  H   -0.040894   0.416612   0.636723  -0.005679  -0.005685   0.008338
     4  H    0.408817  -0.038443  -0.005679   0.601540  -0.028700  -0.030298
     5  H    0.408809  -0.038445  -0.005685  -0.028700   0.601533  -0.030297
     6  H    0.403348  -0.036644   0.008338  -0.030298  -0.030297   0.608861
     7  C   -0.056404   0.353684  -0.040893   0.008482  -0.005502  -0.005838
     8  C   -0.056432   0.353668  -0.040897  -0.005512   0.008486  -0.005844
     9  H    0.008482  -0.038439  -0.005683  -0.000510  -0.000081  -0.000128
    10  H   -0.005841  -0.036654   0.008339  -0.000128  -0.000325   0.004371
    11  H   -0.005504  -0.038443  -0.005678  -0.000081   0.003579  -0.000326
    12  H   -0.005843  -0.036654   0.008340  -0.000326  -0.000128   0.004371
    13  H    0.008486  -0.038447  -0.005677  -0.000080  -0.000511  -0.000128
    14  H   -0.005508  -0.038445  -0.005689   0.003579  -0.000081  -0.000325
               7          8          9         10         11         12
     1  C   -0.056404  -0.056432   0.008482  -0.005841  -0.005504  -0.005843
     2  C    0.353684   0.353668  -0.038439  -0.036654  -0.038443  -0.036654
     3  H   -0.040893  -0.040897  -0.005683   0.008339  -0.005678   0.008340
     4  H    0.008482  -0.005512  -0.000510  -0.000128  -0.000081  -0.000326
     5  H   -0.005502   0.008486  -0.000081  -0.000325   0.003579  -0.000128
     6  H   -0.005838  -0.005844  -0.000128   0.004371  -0.000326   0.004371
     7  C    4.862493  -0.056437   0.408822   0.403345   0.408802  -0.005841
     8  C   -0.056437   4.862525  -0.005515  -0.005842   0.008487   0.403349
     9  H    0.408822  -0.005515   0.601539  -0.030294  -0.028712  -0.000325
    10  H    0.403345  -0.005842  -0.030294   0.608873  -0.030295   0.004370
    11  H    0.408802   0.008487  -0.028712  -0.030295   0.601554  -0.000128
    12  H   -0.005841   0.403349  -0.000325   0.004370  -0.000128   0.608881
    13  H   -0.005513   0.408811   0.003579  -0.000326  -0.000080  -0.030291
    14  H    0.008486   0.408815  -0.000080  -0.000128  -0.000511  -0.030299
              13         14
     1  C    0.008486  -0.005508
     2  C   -0.038447  -0.038445
     3  H   -0.005677  -0.005689
     4  H   -0.000080   0.003579
     5  H   -0.000511  -0.000081
     6  H   -0.000128  -0.000325
     7  C   -0.005513   0.008486
     8  C    0.408811   0.408815
     9  H    0.003579  -0.000080
    10  H   -0.000326  -0.000128
    11  H   -0.000080  -0.000511
    12  H   -0.030291  -0.030299
    13  H    0.601547  -0.028702
    14  H   -0.028702   0.601553
          Atomic-Atomic Spin Densities.
               1          2          3          4          5          6
     1  C   -0.000000   0.000000   0.000000   0.000000  -0.000000  -0.000000
     2  C    0.000000  -0.000000  -0.000000  -0.000000  -0.000000  -0.000000
     3  H    0.000000  -0.000000   0.000000   0.000000   0.000000   0.000000
     4  H    0.000000  -0.000000   0.000000   0.000000  -0.000000   0.000000
     5  H   -0.000000  -0.000000   0.000000  -0.000000   0.000000  -0.000000
     6  H   -0.000000  -0.000000   0.000000   0.000000  -0.000000   0.000000
     7  C    0.000000   0.000000   0.000000  -0.000000   0.000000   0.000000
     8  C   -0.000000  -0.000000   0.000000   0.000000  -0.000000   0.000000
     9  H    0.000000   0.000000   0.000000  -0.000000  -0.000000  -0.000000
    10  H   -0.000000  -0.000000  -0.000000  -0.000000   0.000000  -0.000000
    11  H   -0.000000   0.000000  -0.000000   0.000000  -0.000000  -0.000000
    12  H   -0.000000  -0.000000  -0.000000   0.000000  -0.000000   0.000000
    13  H   -0.000000   0.000000   0.000000  -0.000000   0.000000  -0.000000
    14  H    0.000000   0.000000   0.000000  -0.000000  -0.000000  -0.000000
               7          8          9         10         11         12
     1  C    0.000000  -0.000000   0.000000  -0.000000  -0.000000  -0.000000
     2  C    0.000000  -0.000000   0.000000  -0.000000   0.000000  -0.000000
     3  H    0.000000   0.000000   0.000000  -0.000000  -0.000000  -0.000000
     4  H   -0.000000   0.000000  -0.000000  -0.000000   0.000000   0.000000
     5  H    0.000000  -0.000000  -0.000000   0.000000  -0.000000  -0.000000
     6  H    0.000000   0.000000  -0.000000  -0.000000  -0.000000   0.000000
     7  C   -0.000000  -0.000000  -0.000000   0.000000   0.000000  -0.000000
     8  C   -0.000000  -0.000000  -0.000000   0.000000  -0.000000   0.000000
     9  H   -0.000000  -0.000000  -0.000000   0.000000  -0.000000  -0.000000
    10  H    0.000000   0.000000   0.000000  -0.000000   0.000000   0.000000
    11  H    0.000000  -0.000000  -0.000000   0.000000  -0.000000  -0.000000
    12  H   -0.000000   0.000000  -0.000000   0.000000  -0.000000  -0.000000
    13  H   -0.000000  -0.000000  -0.000000  -0.000000   0.000000   0.000000
    14  H    0.000000  -0.000000   0.000000  -0.000000   0.000000  -0.000000
              13         14
     1  C   -0.000000   0.000000
     2  C    0.000000   0.000000
     3  H    0.000000   0.000000
     4  H   -0.000000  -0.000000
     5  H    0.000000  -0.000000
     6  H   -0.000000  -0.000000
     7  C   -0.000000   0.000000
     8  C   -0.000000  -0.000000
     9  H   -0.000000   0.000000
    10  H   -0.000000  -0.000000
    11  H    0.000000   0.000000
    12  H    0.000000  -0.000000
    13  H    0.000000  -0.000000
    14  H   -0.000000   0.000000
 Mulliken charges and spin densities:
               1          2
     1  C   -0.277684  -0.000000
     2  C   -0.011029  -0.000000
     3  H    0.078422   0.000000
     4  H    0.087340   0.000000
     5  H    0.087348   0.000000
     6  H    0.080540   0.000000
     7  C   -0.277686   0.000000
     8  C   -0.277663  -0.000000
     9  H    0.087347  -0.000000
    10  H    0.080535  -0.000000
    11  H    0.087338   0.000000
    12  H    0.080525   0.000000
    13  H    0.087333   0.000000
    14  H    0.087335  -0.000000
 Sum of Mulliken charges =  -0.00000  -0.00000
 Mulliken charges and spin densities with hydrogens summed into heavy atoms:
               1          2
     1  C   -0.022457   0.000000
     2  C    0.067393   0.000000
     7  C   -0.022466   0.000000
     8  C   -0.022471  -0.000000
 Electronic spatial extent (au):  <R**2>=            351.3958
 Charge=             -0.0000 electrons
 Dipole moment (field-independent basis, Debye):
    X=             -0.0000    Y=             -0.0001    Z=             -0.1307  Tot=              0.1307
 Quadrupole moment (field-independent basis, Debye-Ang):
   XX=            -29.5019   YY=            -29.5030   ZZ=            -28.5497
   XY=             -0.0003   XZ=             -0.0002   YZ=             -0.0002
 Traceless Quadrupole moment (field-independent basis, Debye-Ang):
   XX=             -0.3171   YY=             -0.3181   ZZ=              0.6352
   XY=             -0.0003   XZ=             -0.0002   YZ=             -0.0002
 Octapole moment (field-independent basis, Debye-Ang**2):
  XXX=              0.2928  YYY=             -2.3268  ZZZ=              0.8718  XYY=             -0.2917
  XXY=              2.3253  XXZ=             -1.4837  XZZ=             -0.0006  YZZ=             -0.0000
  YYZ=             -1.4836  XYZ=              0.0001
 Hexadecapole moment (field-independent basis, Debye-Ang**3):
 XXXX=           -218.5985 YYYY=           -218.5594 ZZZZ=            -68.6242 XXXY=             -0.0010
 XXXZ=             -0.1451 YYYX=             -0.0008 YYYZ=              1.1409 ZZZX=             -0.0005
 ZZZY=             -0.0007 XXYY=            -72.8583 XXZZ=            -48.8305 YYZZ=            -48.8234
 XXYZ=             -1.1417 YYXZ=              0.1439 ZZXY=             -0.0004
 N-N= 1.347767079363D+02 E-N=-6.350847058056D+02  KE= 1.570874685797D+02
                          Isotropic Fermi Contact Couplings
        Atom                 a.u.       MegaHertz       Gauss      10(-4) cm-1
     1  C(13)             -0.00000      -0.00000      -0.00000      -0.00000
     2  C(13)              0.00000       0.00000       0.00000       0.00000
     3  H(1)              -0.00000      -0.00000      -0.00000      -0.00000
     4  H(1)              -0.00000      -0.00000      -0.00000      -0.00000
     5  H(1)               0.00000       0.00000       0.00000       0.00000
     6  H(1)              -0.00000      -0.00000      -0.00000      -0.00000
     7  C(13)             -0.00000      -0.00000      -0.00000      -0.00000
     8  C(13)             -0.00000      -0.00000      -0.00000      -0.00000
     9  H(1)              -0.00000      -0.00000      -0.00000      -0.00000
    10  H(1)              -0.00000      -0.00000      -0.00000      -0.00000
    11  H(1)               0.00000       0.00000       0.00000       0.00000
    12  H(1)               0.00000       0.00000       0.00000       0.00000
    13  H(1)              -0.00000      -0.00000      -0.00000      -0.00000
    14  H(1)              -0.00000      -0.00000      -0.00000      -0.00000
 --------------------------------------------------------
       Center         ----  Spin Dipole Couplings  ----
                      3XX-RR        3YY-RR        3ZZ-RR
 --------------------------------------------------------
     1   Atom        0.000000      0.000000      0.000000
     2   Atom        0.000000      0.000000      0.000000
     3   Atom        0.000000      0.000000      0.000000
     4   Atom        0.000000      0.000000      0.000000
     5   Atom        0.000000      0.000000      0.000000
     6   Atom        0.000000      0.000000      0.000000
     7   Atom        0.000000      0.000000      0.000000
     8   Atom        0.000000      0.000000      0.000000
     9   Atom        0.000000      0.000000      0.000000
    10   Atom        0.000000      0.000000      0.000000
    11   Atom        0.000000      0.000000      0.000000
    12   Atom        0.000000      0.000000      0.000000
    13   Atom        0.000000      0.000000      0.000000
    14   Atom        0.000000      0.000000      0.000000
 --------------------------------------------------------
                        XY            XZ            YZ
 --------------------------------------------------------
     1   Atom        0.000000      0.000000      0.000000
     2   Atom        0.000000      0.000000      0.000000
     3   Atom        0.000000      0.000000      0.000000
     4   Atom        0.000000      0.000000      0.000000
     5   Atom        0.000000      0.000000      0.000000
     6   Atom        0.000000      0.000000      0.000000
     7   Atom        0.000000      0.000000      0.000000
     8   Atom        0.000000      0.000000      0.000000
     9   Atom        0.000000      0.000000      0.000000
    10   Atom        0.000000      0.000000      0.000000
    11   Atom        0.000000      0.000000      0.000000
    12   Atom        0.000000      0.000000      0.000000
    13   Atom        0.000000      0.000000      0.000000
    14   Atom        0.000000      0.000000      0.000000
 --------------------------------------------------------


 ---------------------------------------------------------------------------------
              Anisotropic Spin Dipole Couplings in Principal Axis System
 ---------------------------------------------------------------------------------

       Atom             a.u.   MegaHertz   Gauss  10(-4) cm-1        Axes

              Baa     0.0000     0.000     0.000     0.000  1.0000  0.0000  0.0000
     1 C(13)  Bbb     0.0000     0.000     0.000     0.000 -0.0000  1.0000  0.0000
              Bcc     0.0000     0.000     0.000     0.000  0.0000  0.0000  1.0000
 
              Baa     0.0000     0.000     0.000     0.000  1.0000  0.0000  0.0000
     2 C(13)  Bbb     0.0000     0.000     0.000     0.000 -0.0000  1.0000  0.0000
              Bcc     0.0000     0.000     0.000     0.000  0.0000  0.0000  1.0000
 
              Baa     0.0000     0.000     0.000     0.000  1.0000  0.0000  0.0000
     3 H(1)   Bbb     0.0000     0.000     0.000     0.000 -0.0000  1.0000  0.0000
              Bcc     0.0000     0.000     0.000     0.000  0.0000  0.0000  1.0000
 
              Baa     0.0000     0.000     0.000     0.000  1.0000  0.0000  0.0000
     4 H(1)   Bbb     0.0000     0.000     0.000     0.000 -0.0000  1.0000  0.0000
              Bcc     0.0000     0.000     0.000     0.000  0.0000  0.0000  1.0000
 
              Baa     0.0000     0.000     0.000     0.000  1.0000  0.0000  0.0000
     5 H(1)   Bbb     0.0000     0.000     0.000     0.000 -0.0000  1.0000  0.0000
              Bcc     0.0000     0.000     0.000     0.000  0.0000  0.0000  1.0000
 
              Baa     0.0000     0.000     0.000     0.000  1.0000  0.0000  0.0000
     6 H(1)   Bbb     0.0000     0.000     0.000     0.000 -0.0000  1.0000  0.0000
              Bcc     0.0000     0.000     0.000     0.000  0.0000  0.0000  1.0000
 
              Baa     0.0000     0.000     0.000     0.000  1.0000  0.0000  0.0000
     7 C(13)  Bbb     0.0000     0.000     0.000     0.000 -0.0000  1.0000  0.0000
              Bcc     0.0000     0.000     0.000     0.000  0.0000  0.0000  1.0000
 
              Baa     0.0000     0.000     0.000     0.000  1.0000  0.0000  0.0000
     8 C(13)  Bbb     0.0000     0.000     0.000     0.000 -0.0000  1.0000  0.0000
              Bcc     0.0000     0.000     0.000     0.000  0.0000  0.0000  1.0000
 
              Baa     0.0000     0.000     0.000     0.000  1.0000  0.0000  0.0000
     9 H(1)   Bbb     0.0000     0.000     0.000     0.000 -0.0000  1.0000  0.0000
              Bcc     0.0000     0.000     0.000     0.000  0.0000  0.0000  1.0000
 
              Baa     0.0000     0.000     0.000     0.000  1.0000  0.0000  0.0000
    10 H(1)   Bbb     0.0000     0.000     0.000     0.000 -0.0000  1.0000  0.0000
              Bcc     0.0000     0.000     0.000     0.000  0.0000  0.0000  1.0000
 
              Baa     0.0000     0.000     0.000     0.000  1.0000  0.0000  0.0000
    11 H(1)   Bbb     0.0000     0.000     0.000     0.000 -0.0000  1.0000  0.0000
              Bcc     0.0000     0.000     0.000     0.000  0.0000  0.0000  1.0000
 
              Baa     0.0000     0.000     0.000     0.000  1.0000  0.0000  0.0000
    12 H(1)   Bbb     0.0000     0.000     0.000     0.000 -0.0000  1.0000  0.0000
              Bcc     0.0000     0.000     0.000     0.000  0.0000  0.0000  1.0000
 
              Baa     0.0000     0.000     0.000     0.000  1.0000  0.0000  0.0000
    13 H(1)   Bbb     0.0000     0.000     0.000     0.000 -0.0000  1.0000  0.0000
              Bcc     0.0000     0.000     0.000     0.000  0.0000  0.0000  1.0000
 
              Baa     0.0000     0.000     0.000     0.000  1.0000  0.0000  0.0000
    14 H(1)   Bbb     0.0000     0.000     0.000     0.000 -0.0000  1.0000  0.0000
              Bcc     0.0000     0.000     0.000     0.000  0.0000  0.0000  1.0000
 

 ---------------------------------------------------------------------------------

 Calling FoFJK, ICntrl=  10002127 FMM=F ISym2X=0 I1Cent= 0 IOpClX= 1 NMat=1 NMatS=1 NMatT=0.
 ***** Axes restored to original set *****
 -------------------------------------------------------------------
 Center     Atomic                   Forces (Hartrees/Bohr)
 Number     Number              X              Y              Z
 -------------------------------------------------------------------
      1        6          -0.017869144    0.002307424   -0.004032265
      2        6           0.005349116    0.008102126   -0.014002826
      3        1          -0.005904584   -0.008920496    0.015456784
      4        1           0.002888118   -0.015991628    0.000101988
      5        1           0.002884638    0.007916434    0.013891175
      6        1           0.004348390    0.007341778   -0.012730440
      7        6           0.008365481   -0.015882734   -0.004479964
      8        6           0.008367080    0.011825882    0.011491354
      9        1          -0.015982087   -0.002926362    0.000439278
     10        1           0.005048217    0.006857417   -0.012754432
     11        1           0.006706117    0.005282873    0.013823143
     12        1           0.005063499    0.007594501   -0.012335259
     13        1          -0.015977420    0.001104561    0.002755924
     14        1           0.006712580   -0.014611775    0.002375540
 -------------------------------------------------------------------
 Cartesian Forces:  Max     0.017869144 RMS     0.009708632

 GradGradGradGradGradGradGradGradGradGradGradGradGradGradGradGradGradGrad
 Berny optimization.
 FormGI is forming the generalized inverse of G from B-inverse, IUseBI=4.
 Internal  Forces:  Max     0.018797644 RMS     0.006734849
 Search for a local minimum.
 Step number   1 out of a maximum of  100
 All quantities printed in internal units (Hartrees-Bohrs-Radians)
 Mixed Optimization -- RFO/linear search
 Second derivative matrix not updated -- first step.
 ITU=  0
     Eigenvalues ---    0.00580   0.00580   0.00580   0.03841   0.04943
     Eigenvalues ---    0.04946   0.05764   0.05764   0.05765   0.05776
     Eigenvalues ---    0.05776   0.05777   0.16000   0.16000   0.16000
     Eigenvalues ---    0.16000   0.16000   0.16000   0.16000   0.16000
     Eigenvalues ---    0.16000   0.16682   0.16685   0.30822   0.30945
     Eigenvalues ---    0.30948   0.30949   0.31903   0.31905   0.31906
     Eigenvalues ---    0.31926   0.31926   0.31926   0.31927   0.31927
     Eigenvalues ---    0.31927
 RFO step:  Lambda=-9.39581101D-03 EMin= 5.79854856D-03
 Linear search not attempted -- first point.
 Iteration  1 RMS(Cart)=  0.02791566 RMS(Int)=  0.00027315
 Iteration  2 RMS(Cart)=  0.00034741 RMS(Int)=  0.00010335
 Iteration  3 RMS(Cart)=  0.00000010 RMS(Int)=  0.00010335
 Variable       Old X    -DE/DX   Delta X   Delta X   Delta X     New X
                                 (Linear)    (Quad)   (Total)
    R1        2.86117   0.00775   0.00000   0.02430   0.02430   2.88547
    R2        2.10978  -0.01600   0.00000  -0.04867  -0.04867   2.06111
    R3        2.10977  -0.01599   0.00000  -0.04866  -0.04866   2.06111
    R4        2.11015  -0.01529   0.00000  -0.04654  -0.04654   2.06361
    R5        2.13054  -0.01880   0.00000  -0.05918  -0.05918   2.07135
    R6        2.86109   0.00776   0.00000   0.02435   0.02435   2.88544
    R7        2.86112   0.00778   0.00000   0.02440   0.02440   2.88552
    R8        2.10980  -0.01600   0.00000  -0.04869  -0.04869   2.06111
    R9        2.11018  -0.01530   0.00000  -0.04657  -0.04657   2.06361
   R10        2.10979  -0.01599   0.00000  -0.04867  -0.04867   2.06112
   R11        2.11021  -0.01531   0.00000  -0.04660  -0.04660   2.06361
   R12        2.10978  -0.01600   0.00000  -0.04867  -0.04867   2.06111
   R13        2.10980  -0.01600   0.00000  -0.04868  -0.04868   2.06111
    A1        1.92626   0.00340   0.00000   0.02098   0.02081   1.94707
    A2        1.92627   0.00340   0.00000   0.02099   0.02083   1.94710
    A3        1.92939   0.00014   0.00000  -0.00105  -0.00103   1.92836
    A4        1.89552  -0.00301   0.00000  -0.01415  -0.01447   1.88106
    A5        1.89274  -0.00208   0.00000  -0.01409  -0.01408   1.87866
    A6        1.89274  -0.00209   0.00000  -0.01411  -0.01410   1.87865
    A7        1.89034  -0.00045   0.00000  -0.00950  -0.00945   1.88090
    A8        1.93065   0.00041   0.00000   0.00892   0.00877   1.93942
    A9        1.93038   0.00044   0.00000   0.00915   0.00900   1.93938
   A10        1.89045  -0.00045   0.00000  -0.00955  -0.00950   1.88095
   A11        1.89029  -0.00046   0.00000  -0.00945  -0.00939   1.88090
   A12        1.93036   0.00045   0.00000   0.00917   0.00902   1.93938
   A13        1.92634   0.00338   0.00000   0.02090   0.02074   1.94708
   A14        1.92932   0.00014   0.00000  -0.00101  -0.00099   1.92833
   A15        1.92639   0.00339   0.00000   0.02093   0.02077   1.94716
   A16        1.89275  -0.00208   0.00000  -0.01411  -0.01410   1.87865
   A17        1.89538  -0.00299   0.00000  -0.01405  -0.01437   1.88102
   A18        1.89272  -0.00208   0.00000  -0.01409  -0.01407   1.87865
   A19        1.92932   0.00014   0.00000  -0.00102  -0.00101   1.92831
   A20        1.92628   0.00340   0.00000   0.02102   0.02085   1.94713
   A21        1.92626   0.00340   0.00000   0.02100   0.02083   1.94709
   A22        1.89283  -0.00209   0.00000  -0.01417  -0.01415   1.87868
   A23        1.89272  -0.00209   0.00000  -0.01411  -0.01409   1.87863
   A24        1.89551  -0.00301   0.00000  -0.01415  -0.01446   1.88105
    D1       -1.04789  -0.00032   0.00000  -0.00473  -0.00481  -1.05270
    D2       -3.11721   0.00027   0.00000   0.00749   0.00743  -3.10978
    D3        1.02109  -0.00089   0.00000  -0.01668  -0.01679   1.00431
    D4        1.04748   0.00031   0.00000   0.00466   0.00475   1.05223
    D5       -1.02184   0.00090   0.00000   0.01687   0.01699  -1.00486
    D6        3.11646  -0.00026   0.00000  -0.00729  -0.00723   3.10923
    D7        3.14140  -0.00000   0.00000  -0.00004  -0.00004   3.14136
    D8        1.07207   0.00058   0.00000   0.01218   0.01220   1.08428
    D9       -1.07281  -0.00058   0.00000  -0.01199  -0.01201  -1.08482
   D10        3.11664  -0.00026   0.00000  -0.00739  -0.00733   3.10931
   D11       -1.07261  -0.00058   0.00000  -0.01214  -0.01216  -1.08477
   D12        1.02132  -0.00090   0.00000  -0.01682  -0.01693   1.00439
   D13        1.04738   0.00032   0.00000   0.00479   0.00487   1.05226
   D14        3.14132   0.00000   0.00000   0.00005   0.00005   3.14136
   D15       -1.04794  -0.00031   0.00000  -0.00464  -0.00472  -1.05266
   D16       -1.02164   0.00089   0.00000   0.01676   0.01687  -1.00478
   D17        1.07229   0.00058   0.00000   0.01201   0.01204   1.08433
   D18       -3.11697   0.00026   0.00000   0.00733   0.00727  -3.10970
   D19        1.07204   0.00057   0.00000   0.01209   0.01211   1.08416
   D20       -3.11716   0.00025   0.00000   0.00735   0.00729  -3.10987
   D21       -1.02180   0.00089   0.00000   0.01677   0.01688  -1.00492
   D22        3.14105   0.00000   0.00000   0.00011   0.00011   3.14116
   D23       -1.04815  -0.00031   0.00000  -0.00463  -0.00472  -1.05286
   D24        1.04721   0.00032   0.00000   0.00479   0.00487   1.05209
   D25       -1.07301  -0.00057   0.00000  -0.01193  -0.01195  -1.08496
   D26        1.02097  -0.00089   0.00000  -0.01666  -0.01678   1.00420
   D27        3.11633  -0.00025   0.00000  -0.00724  -0.00719   3.10915
         Item               Value     Threshold  Converged?
 Maximum Force            0.018798     0.000450     NO 
 RMS     Force            0.006735     0.000300     NO 
 Maximum Displacement     0.062266     0.001800     NO 
 RMS     Displacement     0.027741     0.001200     NO 
 Predicted change in Energy=-4.859839D-03
 GradGradGradGradGradGradGradGradGradGradGradGradGradGradGradGradGradGrad

                          Input orientation:                          
 ---------------------------------------------------------------------
 Center     Atomic      Atomic             Coordinates (Angstroms)
 Number     Number       Type             X           Y           Z
 ---------------------------------------------------------------------
      1          6           0       -3.401781    0.645936   -0.009508
      2          6           0       -1.874923    0.638840    0.003050
      3          1           0       -1.530595    1.158467   -0.898556
      4          1           0       -3.797872    1.662163   -0.008006
      5          1           0       -3.797763    0.135498   -0.888296
      6          1           0       -3.793622    0.136751    0.873493
      7          6           0       -1.330942   -0.787091   -0.044459
      8          6           0       -1.331182    1.395066    1.213029
      9          1           0       -0.240587   -0.799504   -0.068525
     10          1           0       -1.648847   -1.346985    0.837557
     11          1           0       -1.689518   -1.323861   -0.923621
     12          1           0       -1.649639    0.912996    2.139683
     13          1           0       -0.240818    1.421834    1.212166
     14          1           0       -1.689536    2.424950    1.236204
 ---------------------------------------------------------------------
                    Distance matrix (angstroms):
                    1          2          3          4          5
     1  C    0.000000
     2  C    1.526927   0.000000
     3  H    2.134111   1.096114   0.000000
     4  H    1.090692   2.178313   2.487435   0.000000
     5  H    1.090695   2.178340   2.487291   1.762276   0.000000
     6  H    1.092016   2.165911   3.050467   1.761800   1.761795
     7  C    2.518564   1.526910   2.134137   3.476481   2.765581
     8  C    2.518566   1.526951   2.134135   2.765290   3.476507
     9  H    3.476483   2.178305   2.487313   4.326402   3.768256
    10  H    2.786043   2.165875   3.050469   3.793186   3.129563
    11  H    2.765420   2.178368   2.487536   3.768269   2.564307
    12  H    2.785740   2.165898   3.050462   3.128694   3.793098
    13  H    3.476521   2.178380   2.487576   3.768184   4.326483
    14  H    2.765588   2.178354   2.487256   2.564173   3.768250
                    6          7          8          9         10
     6  H    0.000000
     7  C    2.785841   0.000000
     8  C    2.786081   2.518548   0.000000
     9  H    3.793155   1.090691   2.765486   0.000000
    10  H    2.608222   1.092015   2.785809   1.761794   0.000000
    11  H    3.128939   1.090699   3.476527   1.762255   1.761800
    12  H    2.608151   2.786098   1.092014   3.129579   2.608265
    13  H    3.793224   2.765290   1.090692   2.564081   3.128775
    14  H    3.129630   3.476477   1.090695   3.768139   3.793160
                   11         12         13         14
    11  H    0.000000
    12  H    3.793277   0.000000
    13  H    3.768177   1.761811   0.000000
    14  H    4.326480   1.761780   1.762272   0.000000
 Stoichiometry    C4H10
 Framework group  C1[X(C4H10)]
 Deg. of freedom    36
 Full point group                 C1      NOp   1
 Largest Abelian subgroup         C1      NOp   1
 Largest concise Abelian subgroup C1      NOp   1
                         Standard orientation:                         
 ---------------------------------------------------------------------
 Center     Atomic      Atomic             Coordinates (Angstroms)
 Number     Number       Type             X           Y           Z
 ---------------------------------------------------------------------
      1          6           0       -1.410643   -0.352818    0.094800
      2          6           0       -0.000002   -0.000024   -0.371177
      3          1           0       -0.000031   -0.000006   -1.467291
      4          1           0       -2.143438    0.372330   -0.261262
      5          1           0       -1.716038   -1.337333   -0.261681
      6          1           0       -1.460817   -0.365636    1.185588
      7          6           0        1.010871   -1.045230    0.094799
      8          6           0        0.399776    1.398057    0.094794
      9          1           0        2.016173   -0.817372   -0.261652
     10          1           0        1.047025   -1.082260    1.185588
     11          1           0        0.749414   -2.042469   -0.261259
     12          1           0        0.413605    1.447923    1.185581
     13          1           0        1.394206    1.670131   -0.261147
     14          1           0       -0.300113    2.154782   -0.261770
 ---------------------------------------------------------------------
 Rotational constants (GHZ):           7.8229341           7.8228467           4.5286973
 Standard basis: CC-pVTZ (5D, 7F)
 There are   290 symmetry adapted cartesian basis functions of A   symmetry.
 There are   260 symmetry adapted basis functions of A   symmetry.
   260 basis functions,   378 primitive gaussians,   290 cartesian basis functions
    17 alpha electrons       17 beta electrons
       nuclear repulsion energy       134.8082101887 Hartrees.
 NAtoms=   14 NActive=   14 NUniq=   14 SFac= 1.00D+00 NAtFMM=   60 NAOKFM=F Big=F
 Integral buffers will be    131072 words long.
 Raffenetti 2 integral format.
 Two-electron integral symmetry is turned on.
 Nuclear repulsion after empirical dispersion term =      134.8013574929 Hartrees.
 One-electron integrals computed using PRISM.
 NBasis=   260 RedAO= T EigKep=  8.10D-04  NBF=   260
 NBsUse=   260 1.00D-06 EigRej= -1.00D+00 NBFU=   260
 Initial guess from the checkpoint file:  "/localscratch/339542/Gau-8415.chk"
 B after Tr=    -0.000000    0.000000   -0.000000
         Rot=    0.992990   -0.000003   -0.000003    0.118195 Ang= -13.58 deg.
 Initial guess <Sx>= 0.0000 <Sy>= 0.0000 <Sz>= 0.0000 <S**2>=-0.0000 S=-0.0000
 ExpMin= 1.03D-01 ExpMax= 8.24D+03 ExpMxC= 2.81D+02 IAcc=3 IRadAn=         5 AccDes= 0.00D+00
 Harris functional with IExCor=  419 and IRadAn=       5 diagonalized for initial guess.
 HarFok:  IExCor=  419 AccDes= 0.00D+00 IRadAn=         5 IDoV= 1 UseB2=F ITyADJ=14
 ICtDFT=  3500011 ScaDFX=  1.000000  1.000000  1.000000  1.000000
 FoFCou: FMM=F IPFlag=           0 FMFlag=      100000 FMFlg1=           0
         NFxFlg=           0 DoJE=T BraDBF=F KetDBF=T FulRan=T
         wScrn=  0.000000 ICntrl=       500 IOpCl=  0 I1Cent=   200000004 NGrid=           0
         NMat0=    1 NMatS0=      1 NMatT0=    0 NMatD0=    1 NMtDS0=    0 NMtDT0=    0
 Petite list used in FoFCou.
 Requested convergence on RMS density matrix=1.00D-08 within 128 cycles.
 Requested convergence on MAX density matrix=1.00D-06.
 Requested convergence on             energy=1.00D-06.
 No special actions if energy rises.
 Integral accuracy reduced to 1.0D-05 until final iterations.
 Initial convergence to 1.0D-05 achieved.  Increase integral accuracy.
 SCF Done:  E(UB2PLYPD3) =  -158.122044346     A.U. after   10 cycles
            NFock= 10  Conv=0.58D-09     -V/T= 2.0049
 <Sx>= 0.0000 <Sy>= 0.0000 <Sz>= 0.0000 <S**2>=-0.0000 S=-0.0000
 <L.S>=  0.00000000000    
 Annihilation of the first spin contaminant:
 S**2 before annihilation    -0.0000,   after     0.0000
 DoSCS=T DFT=T ScalE2(SS,OS)=  0.270000  0.270000
 ExpMin= 1.03D-01 ExpMax= 8.24D+03 ExpMxC= 2.81D+02 IAcc=3 IRadAn=         5 AccDes= 0.00D+00
 HarFok:  IExCor=  205 AccDes= 0.00D+00 IRadAn=         5 IDoV=-2 UseB2=F ITyADJ=14
 ICtDFT= 12500011 ScaDFX=  1.000000  1.000000  1.000000  1.000000
 Range of M.O.s used for correlation:     5   260
 NBasis=   260 NAE=    17 NBE=    17 NFC=     4 NFV=     0
 NROrb=    256 NOA=    13 NOB=    13 NVA=   243 NVB=   243

 **** Warning!!: The largest alpha MO coefficient is  0.15765989D+02


 **** Warning!!: The largest beta MO coefficient is  0.15765989D+02

 DoSCS=T DFT=T ScalE2(SS,OS)=  0.270000  0.270000
 Fully direct method using O(ONN) memory.
 JobTyp=2 Pass  1:  I=   5 to  17 NPSUse= 40 ParTrn=T ParDer=T DoDerP=T.
 JobTyp=3 Pass  1:  I=   5 to  17 NPSUse= 40 ParTrn=T ParDer=T DoDerP=T.
 Spin components of T(2) and E(2):
     alpha-alpha T2 =       0.3953076607D-01 E2=     -0.2553268954D-01
     alpha-beta  T2 =       0.2553396467D+00 E2=     -0.1829163101D+00
     beta-beta   T2 =       0.3953076607D-01 E2=     -0.2553268954D-01
 (S**2,0)=  0.00000D+00           (S**2,1)=  0.00000D+00
 E(PUHF)=      -0.15812204435D+03        E(PMP2)=      -0.15835602604D+03
 E2(B2PLYPD3) =    -0.2339816892D+00 E(B2PLYPD3) =    -0.15835602603518D+03
          IDoAtm=11111111111111
          Differentiating once with respect to electric field.
                with respect to dipole field.
          Differentiating once with respect to nuclear coordinates.
 Keep R1 and R2 ints in memory in canonical form, NReq=1196157298.
          There are     1 degrees of freedom in the 1st order CPHF.  IDoFFX=0 NUNeed=     1.
 LinEq1:  Iter=  0 NonCon=     1 RMS=4.47D-04 Max=7.35D-03 NDo=     1
 AX will form     1 AO Fock derivatives at one time.
 LinEq1:  Iter=  1 NonCon=     1 RMS=1.90D-04 Max=2.40D-03 NDo=     1
 LinEq1:  Iter=  2 NonCon=     1 RMS=3.83D-05 Max=5.26D-04 NDo=     1
 LinEq1:  Iter=  3 NonCon=     1 RMS=1.38D-05 Max=1.53D-04 NDo=     1
 LinEq1:  Iter=  4 NonCon=     1 RMS=3.32D-06 Max=4.78D-05 NDo=     1
 LinEq1:  Iter=  5 NonCon=     1 RMS=9.51D-07 Max=1.44D-05 NDo=     1
 LinEq1:  Iter=  6 NonCon=     1 RMS=2.06D-07 Max=2.71D-06 NDo=     1
 LinEq1:  Iter=  7 NonCon=     1 RMS=3.14D-08 Max=5.64D-07 NDo=     1
 LinEq1:  Iter=  8 NonCon=     1 RMS=3.01D-09 Max=5.91D-08 NDo=     1
 LinEq1:  Iter=  9 NonCon=     1 RMS=3.02D-10 Max=8.07D-09 NDo=     1
 LinEq1:  Iter= 10 NonCon=     0 RMS=4.75D-11 Max=6.98D-10 NDo=     1
 Linear equations converged to 1.000D-10 1.000D-09 after    10 iterations.
 End of Minotr F.D. properties file   721 does not exist.
 End of Minotr F.D. properties file   722 does not exist.
 End of Minotr F.D. properties file   788 does not exist.
 Calling FoFJK, ICntrl=  10002127 FMM=F ISym2X=0 I1Cent= 0 IOpClX= 1 NMat=1 NMatS=1 NMatT=0.
 ***** Axes restored to original set *****
 -------------------------------------------------------------------
 Center     Atomic                   Forces (Hartrees/Bohr)
 Number     Number              X              Y              Z
 -------------------------------------------------------------------
      1        6          -0.000950899   -0.000334980    0.000576932
      2        6           0.001258937    0.001897174   -0.003252438
      3        1          -0.000414740   -0.000631366    0.001090578
      4        1           0.000657636   -0.000252618    0.000115502
      5        1           0.000662691    0.000026702    0.000278343
      6        1           0.000053832    0.000028004   -0.000047465
      7        6           0.000039188   -0.001023426    0.000560453
      8        6           0.000021558    0.000020575    0.001155490
      9        1          -0.000465591    0.000526691    0.000136903
     10        1           0.000004024    0.000058751   -0.000045490
     11        1          -0.000204608    0.000628171    0.000293422
     12        1           0.000009133    0.000008083   -0.000075727
     13        1          -0.000468146   -0.000383852   -0.000391727
     14        1          -0.000203017   -0.000567907   -0.000394775
 -------------------------------------------------------------------
 Cartesian Forces:  Max     0.003252438 RMS     0.000766722

 GradGradGradGradGradGradGradGradGradGradGradGradGradGradGradGradGradGrad
 Berny optimization.
 Using GEDIIS/GDIIS optimizer.
 FormGI is forming the generalized inverse of G from B-inverse, IUseBI=4.
 Internal  Forces:  Max     0.001326643 RMS     0.000373221
 Search for a local minimum.
 Step number   2 out of a maximum of  100
 All quantities printed in internal units (Hartrees-Bohrs-Radians)
 Mixed Optimization -- En-DIIS/RFO-DIIS
 Update second derivatives using D2CorX and points    1    2
 DE= -4.79D-03 DEPred=-4.86D-03 R= 9.86D-01
 TightC=F SS=  1.41D+00  RLast= 1.84D-01 DXNew= 5.0454D-01 5.5291D-01
 Trust test= 9.86D-01 RLast= 1.84D-01 DXMaxT set to 5.05D-01
 ITU=  1  0
 Use linear search instead of GDIIS.
     Eigenvalues ---    0.00580   0.00580   0.00580   0.03752   0.04983
     Eigenvalues ---    0.04984   0.05565   0.05565   0.05579   0.05694
     Eigenvalues ---    0.05694   0.05694   0.15993   0.16000   0.16000
     Eigenvalues ---    0.16000   0.16000   0.16000   0.16000   0.16000
     Eigenvalues ---    0.16496   0.16929   0.16929   0.30104   0.30946
     Eigenvalues ---    0.30949   0.31077   0.31738   0.31904   0.31906
     Eigenvalues ---    0.31926   0.31926   0.31926   0.31927   0.31927
     Eigenvalues ---    0.32205
 RFO step:  Lambda=-7.05435576D-05 EMin= 5.79854867D-03
 Quartic linear search produced a step of  0.00052.
 Iteration  1 RMS(Cart)=  0.00461034 RMS(Int)=  0.00001801
 Iteration  2 RMS(Cart)=  0.00002253 RMS(Int)=  0.00001089
 Iteration  3 RMS(Cart)=  0.00000000 RMS(Int)=  0.00001089
 Variable       Old X    -DE/DX   Delta X   Delta X   Delta X     New X
                                 (Linear)    (Quad)   (Total)
    R1        2.88547  -0.00043   0.00001  -0.00118  -0.00116   2.88431
    R2        2.06111  -0.00047  -0.00003  -0.00193  -0.00196   2.05915
    R3        2.06111  -0.00048  -0.00003  -0.00194  -0.00197   2.05915
    R4        2.06361  -0.00007  -0.00002  -0.00065  -0.00067   2.06294
    R5        2.07135  -0.00133  -0.00003  -0.00485  -0.00488   2.06648
    R6        2.88544  -0.00043   0.00001  -0.00117  -0.00116   2.88429
    R7        2.88552  -0.00045   0.00001  -0.00124  -0.00123   2.88429
    R8        2.06111  -0.00047  -0.00003  -0.00193  -0.00196   2.05915
    R9        2.06361  -0.00007  -0.00002  -0.00064  -0.00066   2.06295
   R10        2.06112  -0.00048  -0.00003  -0.00194  -0.00197   2.05915
   R11        2.06361  -0.00007  -0.00002  -0.00065  -0.00067   2.06293
   R12        2.06111  -0.00048  -0.00003  -0.00194  -0.00196   2.05915
   R13        2.06111  -0.00048  -0.00003  -0.00194  -0.00197   2.05915
    A1        1.94707  -0.00061   0.00001  -0.00375  -0.00374   1.94333
    A2        1.94710  -0.00062   0.00001  -0.00379  -0.00378   1.94332
    A3        1.92836   0.00019  -0.00000   0.00140   0.00140   1.92976
    A4        1.88106   0.00062  -0.00001   0.00338   0.00337   1.88442
    A5        1.87866   0.00024  -0.00001   0.00157   0.00157   1.88022
    A6        1.87865   0.00024  -0.00001   0.00158   0.00157   1.88022
    A7        1.88090   0.00019  -0.00000   0.00498   0.00499   1.88589
    A8        1.93942  -0.00018   0.00000  -0.00468  -0.00472   1.93470
    A9        1.93938  -0.00017   0.00000  -0.00465  -0.00469   1.93469
   A10        1.88095   0.00019  -0.00000   0.00496   0.00497   1.88592
   A11        1.88090   0.00019  -0.00000   0.00499   0.00500   1.88590
   A12        1.93938  -0.00017   0.00000  -0.00462  -0.00466   1.93472
   A13        1.94708  -0.00061   0.00001  -0.00375  -0.00375   1.94333
   A14        1.92833   0.00019  -0.00000   0.00142   0.00142   1.92975
   A15        1.94716  -0.00063   0.00001  -0.00384  -0.00383   1.94333
   A16        1.87865   0.00024  -0.00001   0.00159   0.00158   1.88023
   A17        1.88102   0.00063  -0.00001   0.00341   0.00339   1.88441
   A18        1.87865   0.00024  -0.00001   0.00157   0.00157   1.88022
   A19        1.92831   0.00020  -0.00000   0.00143   0.00143   1.92974
   A20        1.94713  -0.00062   0.00001  -0.00383  -0.00382   1.94331
   A21        1.94709  -0.00062   0.00001  -0.00379  -0.00378   1.94331
   A22        1.87868   0.00024  -0.00001   0.00157   0.00157   1.88024
   A23        1.87863   0.00024  -0.00001   0.00161   0.00160   1.88023
   A24        1.88105   0.00063  -0.00001   0.00340   0.00339   1.88444
    D1       -1.05270   0.00003  -0.00000   0.00049   0.00048  -1.05222
    D2       -3.10978  -0.00021   0.00000  -0.00590  -0.00589  -3.11567
    D3        1.00431   0.00027  -0.00001   0.00692   0.00690   1.01121
    D4        1.05223  -0.00003   0.00000  -0.00041  -0.00040   1.05182
    D5       -1.00486  -0.00027   0.00001  -0.00679  -0.00677  -1.01163
    D6        3.10923   0.00021  -0.00000   0.00603   0.00602   3.11525
    D7        3.14136  -0.00000  -0.00000   0.00003   0.00003   3.14139
    D8        1.08428  -0.00024   0.00001  -0.00635  -0.00634   1.07794
    D9       -1.08482   0.00024  -0.00001   0.00646   0.00645  -1.07837
   D10        3.10931   0.00021  -0.00000   0.00596   0.00595   3.11526
   D11       -1.08477   0.00024  -0.00001   0.00644   0.00643  -1.07834
   D12        1.00439   0.00027  -0.00001   0.00686   0.00684   1.01122
   D13        1.05226  -0.00003   0.00000  -0.00044  -0.00043   1.05183
   D14        3.14136   0.00000   0.00000   0.00005   0.00005   3.14141
   D15       -1.05266   0.00003  -0.00000   0.00046   0.00046  -1.05221
   D16       -1.00478  -0.00027   0.00001  -0.00687  -0.00686  -1.01163
   D17        1.08433  -0.00024   0.00001  -0.00639  -0.00638   1.07795
   D18       -3.10970  -0.00021   0.00000  -0.00598  -0.00597  -3.11567
   D19        1.08416  -0.00024   0.00001  -0.00622  -0.00620   1.07795
   D20       -3.10987  -0.00021   0.00000  -0.00579  -0.00578  -3.11565
   D21       -1.00492  -0.00027   0.00001  -0.00672  -0.00670  -1.01161
   D22        3.14116   0.00000   0.00000   0.00021   0.00021   3.14137
   D23       -1.05286   0.00003  -0.00000   0.00064   0.00063  -1.05223
   D24        1.05209  -0.00003   0.00000  -0.00029  -0.00028   1.05180
   D25       -1.08496   0.00024  -0.00001   0.00663   0.00662  -1.07834
   D26        1.00420   0.00027  -0.00001   0.00706   0.00704   1.01124
   D27        3.10915   0.00021  -0.00000   0.00613   0.00612   3.11527
         Item               Value     Threshold  Converged?
 Maximum Force            0.001327     0.000450     NO 
 RMS     Force            0.000373     0.000300     NO 
 Maximum Displacement     0.012094     0.001800     NO 
 RMS     Displacement     0.004631     0.001200     NO 
 Predicted change in Energy=-3.510878D-05
 GradGradGradGradGradGradGradGradGradGradGradGradGradGradGradGradGradGrad

                          Input orientation:                          
 ---------------------------------------------------------------------
 Center     Atomic      Atomic             Coordinates (Angstroms)
 Number     Number       Type             X           Y           Z
 ---------------------------------------------------------------------
      1          6           0       -3.399147    0.645233   -0.008274
      2          6           0       -1.872852    0.641942   -0.002282
      3          1           0       -1.529311    1.160324   -0.901768
      4          1           0       -3.793582    1.660992   -0.005556
      5          1           0       -3.793408    0.133857   -0.885998
      6          1           0       -3.787222    0.135562    0.875671
      7          6           0       -1.332516   -0.784927   -0.043126
      8          6           0       -1.332755    1.392843    1.211817
      9          1           0       -0.243154   -0.795999   -0.065848
     10          1           0       -1.652279   -1.341508    0.839879
     11          1           0       -1.692524   -1.320371   -0.921219
     12          1           0       -1.652855    0.908128    2.136103
     13          1           0       -0.243391    1.417880    1.210294
     14          1           0       -1.692628    2.421104    1.234518
 ---------------------------------------------------------------------
                    Distance matrix (angstroms):
                    1          2          3          4          5
     1  C    0.000000
     2  C    1.526311   0.000000
     3  H    2.135401   1.093533   0.000000
     4  H    1.089657   2.174323   2.486119   0.000000
     5  H    1.089654   2.174314   2.485964   1.762759   0.000000
     6  H    1.091661   2.166110   3.050833   1.761686   1.761680
     7  C    2.513471   1.526298   2.135415   3.469982   2.758729
     8  C    2.513468   1.526301   2.135402   2.758545   3.469969
     9  H    3.469980   2.174312   2.485994   4.318100   3.760530
    10  H    2.778139   2.166094   3.050840   3.783510   3.120863
    11  H    2.758556   2.174313   2.486135   3.760507   2.555334
    12  H    2.777949   2.166090   3.050824   3.120291   3.783458
    13  H    3.469969   2.174296   2.486107   3.760485   4.318075
    14  H    2.758706   2.174299   2.485952   2.555300   3.760500
                    6          7          8          9         10
     6  H    0.000000
     7  C    2.777961   0.000000
     8  C    2.778157   2.513477   0.000000
     9  H    3.783475   1.089656   2.758748   0.000000
    10  H    2.596343   1.091664   2.777969   1.761691   0.000000
    11  H    3.120306   1.089657   3.469987   1.762754   1.761685
    12  H    2.596357   2.778146   1.091658   3.120881   2.596355
    13  H    3.783523   2.758553   1.089653   2.555347   3.120320
    14  H    3.120864   3.469970   1.089653   3.760543   3.783466
                   11         12         13         14
    11  H    0.000000
    12  H    3.783517   0.000000
    13  H    3.760499   1.761692   0.000000
    14  H    4.318083   1.761684   1.762763   0.000000
 Stoichiometry    C4H10
 Framework group  C1[X(C4H10)]
 Deg. of freedom    36
 Full point group                 C1      NOp   1
 Largest Abelian subgroup         C1      NOp   1
 Largest concise Abelian subgroup C1      NOp   1
                         Standard orientation:                         
 ---------------------------------------------------------------------
 Center     Atomic      Atomic             Coordinates (Angstroms)
 Number     Number       Type             X           Y           Z
 ---------------------------------------------------------------------
      1          6           0       -0.576526   -1.331712    0.096057
      2          6           0        0.000005    0.000010   -0.376967
      3          1           0       -0.000013    0.000004   -1.470500
      4          1           0       -1.597206   -1.470618   -0.259289
      5          1           0        0.020425   -2.171040   -0.259645
      6          1           0       -0.595338   -1.375724    1.186669
      7          6           0        1.441563    0.166571    0.096059
      8          6           0       -0.865041    1.165142    0.096063
      9          1           0        1.869980    1.103212   -0.259625
     10          1           0        1.489072    0.172253    1.186674
     11          1           0        2.072202   -0.647904   -0.259299
     12          1           0       -0.893727    1.203430    1.186672
     13          1           0       -0.475004    2.118520   -0.259301
     14          1           0       -1.890396    1.067806   -0.259630
 ---------------------------------------------------------------------
 Rotational constants (GHZ):           7.8437696           7.8437076           4.5485188
 Standard basis: CC-pVTZ (5D, 7F)
 There are   290 symmetry adapted cartesian basis functions of A   symmetry.
 There are   260 symmetry adapted basis functions of A   symmetry.
   260 basis functions,   378 primitive gaussians,   290 cartesian basis functions
    17 alpha electrons       17 beta electrons
       nuclear repulsion energy       134.9684488886 Hartrees.
 NAtoms=   14 NActive=   14 NUniq=   14 SFac= 1.00D+00 NAtFMM=   60 NAOKFM=F Big=F
 Integral buffers will be    131072 words long.
 Raffenetti 2 integral format.
 Two-electron integral symmetry is turned on.
 Nuclear repulsion after empirical dispersion term =      134.9615840255 Hartrees.
 One-electron integrals computed using PRISM.
 NBasis=   260 RedAO= T EigKep=  8.03D-04  NBF=   260
 NBsUse=   260 1.00D-06 EigRej= -1.00D+00 NBFU=   260
 Initial guess from the checkpoint file:  "/localscratch/339542/Gau-8415.chk"
 B after Tr=     0.000000   -0.000000    0.000000
         Rot=    0.896684   -0.000001   -0.000005   -0.442672 Ang= -52.55 deg.
 Initial guess <Sx>= 0.0000 <Sy>= 0.0000 <Sz>= 0.0000 <S**2>=-0.0000 S=-0.0000
 Requested convergence on RMS density matrix=1.00D-08 within 128 cycles.
[...]
 ! A22   A(12,8,13)            107.73           -DE/DX =    0.0001              !
 ! A23   A(12,8,14)            107.7293         -DE/DX =    0.0001              !
 ! A24   A(13,8,14)            107.9703         -DE/DX =    0.0                 !
 ! D1    D(4,1,2,3)            -60.2876         -DE/DX =    0.0                 !
 ! D2    D(4,1,2,7)           -178.5147         -DE/DX =    0.0                 !
 ! D3    D(4,1,2,8)             57.9379         -DE/DX =   -0.0001              !
 ! D4    D(5,1,2,3)             60.2651         -DE/DX =    0.0                 !
 ! D5    D(5,1,2,7)            -57.9621         -DE/DX =    0.0001              !
 ! D6    D(5,1,2,8)            178.4905         -DE/DX =    0.0                 !
 ! D7    D(6,1,2,3)            179.9884         -DE/DX =    0.0                 !
 ! D8    D(6,1,2,7)             61.7612         -DE/DX =    0.0                 !
 ! D9    D(6,1,2,8)            -61.7862         -DE/DX =    0.0                 !
 ! D10   D(1,2,7,9)            178.4912         -DE/DX =    0.0                 !
 ! D11   D(1,2,7,10)           -61.7845         -DE/DX =    0.0                 !
 ! D12   D(1,2,7,11)            57.9389         -DE/DX =   -0.0001              !
 ! D13   D(3,2,7,9)             60.2652         -DE/DX =    0.0                 !
 ! D14   D(3,2,7,10)          -180.0105         -DE/DX =    0.0                 !
 ! D15   D(3,2,7,11)           -60.2871         -DE/DX =    0.0                 !
 ! D16   D(8,2,7,9)            -57.9622         -DE/DX =    0.0001              !
 ! D17   D(8,2,7,10)            61.7621         -DE/DX =    0.0                 !
 ! D18   D(8,2,7,11)          -178.5145         -DE/DX =    0.0                 !
 ! D19   D(1,2,8,12)            61.7623         -DE/DX =    0.0                 !
 ! D20   D(1,2,8,13)          -178.5135         -DE/DX =    0.0                 !
 ! D21   D(1,2,8,14)           -57.9612         -DE/DX =    0.0001              !
 ! D22   D(3,2,8,12)           179.9873         -DE/DX =    0.0                 !
 ! D23   D(3,2,8,13)           -60.2885         -DE/DX =    0.0                 !
 ! D24   D(3,2,8,14)            60.2639         -DE/DX =    0.0                 !
 ! D25   D(7,2,8,12)           -61.7846         -DE/DX =    0.0                 !
 ! D26   D(7,2,8,13)            57.9396         -DE/DX =   -0.0001              !
 ! D27   D(7,2,8,14)           178.492          -DE/DX =    0.0                 !
 --------------------------------------------------------------------------------
 GradGradGradGradGradGradGradGradGradGradGradGradGradGradGradGradGradGrad


 ----------------------------------------------------------------------

 Electric dipole moment (input orientation):
 (Debye = 10**-18 statcoulomb cm , SI units = C m)
                  (au)            (Debye)         (10**-30 SI)
   Tot        0.505834D-01      0.128570D+00      0.428864D+00
   x          0.158918D-01      0.403930D-01      0.134737D+00
   y          0.239776D-01      0.609449D-01      0.203290D+00
   z         -0.416078D-01     -0.105756D+00     -0.352765D+00

 Dipole polarizability, Alpha (input orientation).
 (esu units = cm**3 , SI units = C**2 m**2 J**-1)
 Alpha(0;0):
               (au)            (10**-24 esu)      (10**-40 SI)
   iso        0.504938D+02      0.748241D+01      0.832531D+01
   aniso      0.632121D+01      0.936706D+00      0.104223D+01
   xx         0.519771D+02      0.770221D+01      0.856986D+01
   yx        -0.941325D+00     -0.139490D+00     -0.155204D+00
   yy         0.511804D+02      0.758416D+01      0.843851D+01
   zx         0.163350D+01      0.242060D+00      0.269328D+00
   zy         0.246476D+01      0.365239D+00      0.406384D+00
   zz         0.483240D+02      0.716088D+01      0.796755D+01

 ----------------------------------------------------------------------

 Dipole orientation:
     6         -6.18012947         -1.58644664         -1.42722146
     6         -3.44798612         -1.35068297         -0.53332673
     1         -3.44801270         -1.35073603          1.53315102
     1         -7.04036750         -3.33264575         -0.75573649
     1         -7.32696482         -0.01386545         -0.75502617
     1         -6.27027359         -1.59378182         -3.48817913
     6         -2.28612132          1.13330266         -1.42718723
     6         -1.87776617         -3.59889374         -1.42724721
     1         -0.35079132          1.34021094         -0.75503559
     1         -2.24748112          1.21507482         -3.48814953
     1         -3.36823656          2.75137854         -0.75564225
     1         -1.82631754         -3.67321586         -3.48820036
     1          0.06457674         -3.47079817         -0.75569968
     1         -2.66629631         -5.37836824         -0.75510611

 Electric dipole moment (dipole orientation):
 (Debye = 10**-18 statcoulomb cm , SI units = C m)
                  (au)            (Debye)         (10**-30 SI)
   Tot        0.505834D-01      0.128570D+00      0.428864D+00
   x          0.000000D+00      0.000000D+00      0.000000D+00
   y          0.000000D+00      0.000000D+00      0.000000D+00
   z          0.505834D-01      0.128570D+00      0.428864D+00

 Dipole polarizability, Alpha (dipole orientation).
 (esu units = cm**3 , SI units = C**2 m**2 J**-1)
 Alpha(0;0):
               (au)            (10**-24 esu)      (10**-40 SI)
   iso        0.504938D+02      0.748241D+01      0.832531D+01
   aniso      0.632121D+01      0.936706D+00      0.104223D+01
   xx         0.526009D+02      0.779465D+01      0.867272D+01
   yx        -0.451800D-04     -0.669498D-05     -0.744917D-05
   yy         0.526009D+02      0.779464D+01      0.867271D+01
   zx         0.861098D-04      0.127602D-04      0.141976D-04
   zy         0.101556D-03      0.150490D-04      0.167442D-04
   zz         0.462797D+02      0.685794D+01      0.763049D+01

 ----------------------------------------------------------------------
 1\1\GINC-N68\Freq\UB2PLYPD3-FC\CC-pVTZ\C4H10\ROOT\01-Jun-2019\0\\#N Ge
 om=AllCheck Guess=TCheck SCRF=Check GenChk UB2PLYPD3(FC)/CC-pVTZ Freq\
 \Title Card Required\\0,1\C,-3.3991471809,0.6452332761,-0.0082740759\C
 ,-1.8728517873,0.6419419189,-0.0022824372\H,-1.5293113332,1.1603244142
 ,-0.9017677416\H,-3.7935818938,1.6609923031,-0.005555805\H,-3.79340818
 58,0.1338569712,-0.8859975572\H,-3.7872215178,0.1355620667,0.875670664
 \C,-1.3325159173,-0.7849268541,-0.0431261695\C,-1.3327550662,1.3928432
 443,1.2118172787\H,-0.243153562,-0.7959993632,-0.0658481378\H,-1.65227
 90697,-1.3415080296,0.8398794915\H,-1.6925242314,-1.3203714359,-0.9212
 186503\H,-1.6528553015,0.9081284854,2.136103182\H,-0.2433908889,1.4178
 801178,1.2102936034\H,-1.6926283643,2.4211039253,1.2345183547\\Version
 =ES64L-G16RevB.01\State=1-A\HF=-158.1220982\MP2=-158.3560561\PUHF=-158
 .1220982\PMP2-0=-158.3560561\S2=0.\S2-1=0.\S2A=0.\RMSD=1.004e-09\RMSF=
 1.472e-04\ZeroPoint=0.1321522\Thermal=0.1378578\Dipole=0.0158918,0.023
 9776,-0.0416078\DipoleDeriv=-0.0101216,0.0028436,-0.0049479,0.0154963,
 0.0807875,-0.022219,-0.0268674,-0.0222273,0.1065382,0.1524994,-0.00704
 01,0.0122168,-0.0070592,0.1465169,0.0184363,0.0122164,0.0184423,0.1251
 512,-0.0286659,-0.0272422,0.0472679,-0.0272387,-0.051725,0.0713283,0.0
 472747,0.0713227,-0.1343787,-0.0098609,0.058517,0.0028339,0.1074168,-0
 .1416683,0.0012679,0.0078316,-0.0068089,0.063605,-0.0098541,-0.0317677
 ,-0.0491905,-0.0605949,0.0096401,-0.0944476,-0.0890182,-0.0863709,-0.0
 877325,0.00906,-0.0103973,0.018012,-0.0480075,0.0089135,0.0846453,0.08
 32472,0.0846514,-0.0891093,0.0627805,0.0426726,-0.0173903,0.0304033,0.
 0079775,-0.0147165,-0.009872,-0.0355091,0.1064429,0.0628008,-0.0063537
 ,-0.0456353,-0.0067041,0.0598752,-0.0656211,-0.0312421,-0.0448179,0.05
 45054,-0.1800859,0.0434036,0.0065079,-0.0053842,0.0283662,0.0026748,-0
 .003571,0.0033698,0.0637838,0.0309515,-0.0393994,0.0694907,-0.0028582,
 -0.0126501,0.0479788,0.0470917,0.1098829,-0.0894357,0.0348184,-0.04417
 28,-0.0746031,-0.0148914,-0.0348872,-0.0781858,-0.0525571,-0.1119389,-
 0.0878685,0.0309238,-0.0403743,0.0689821,-0.0393377,-0.0016156,0.10346
 71,0.026128,0.0415626,-0.1004281,-0.1800814,-0.0273686,-0.0343391,0.00
 5823,0.0575026,-0.013502,0.002809,-0.014216,0.0346542,0.0348354,0.0866
 793,0.0007949,0.0529365,-0.1570335,-0.0411065,-0.0134707,-0.0073428,0.
 034272\Polar=51.9770601,-0.9413249,51.1804255,1.6335014,2.4647578,48.3
 240034\PG=C01 [X(C4H10)]\NImag=0\\0.47036319,-0.00289196,0.57860432,0.
 00497867,0.00532531,0.57242992,-0.18829563,-0.00228436,0.00399371,0.49
 127704,-0.00091222,-0.07836510,0.00096664,0.01747545,0.50611358,0.0015
 7375,0.00097723,-0.07947427,-0.03035576,-0.04582342,0.55918044,-0.0149
 0699,-0.01661181,0.02882363,-0.07258644,-0.03732662,0.06476429,0.08397
 811,0.00008623,-0.00003822,-0.00019389,-0.03732190,-0.10417512,0.09772
 338,0.03997422,0.11780650,-0.00015338,-0.00019880,0.00019251,0.0647624
 9,0.09772351,-0.21741952,-0.06936521,-0.10466484,0.23909789,-0.0788867
 2,0.08486911,-0.00020745,-0.01103850,0.03282337,-0.00077128,0.00140807
 ,-0.00028374,0.00045987,0.08748873,0.08641079,-0.27979040,-0.00011560,
 -0.00149450,0.00033161,-0.00034686,0.00058363,0.00048129,-0.00030826,-
 0.09518931,0.30347782,-0.00014266,-0.00040010,-0.04805757,0.00042711,-
 0.00066730,-0.00168766,-0.00006980,-0.00038547,-0.00000018,-0.00007851
 ,0.00059456,0.04711490,-0.07887651,-0.04233568,-0.07352846,-0.01105049
 ,-0.01576245,-0.02878510,0.00140797,-0.00025448,0.00047570,0.00358087,
 0.00475221,0.01024045,0.08748336,-0.04315744,-0.10646719,-0.10077291,0
 .00038664,-0.00163123,0.00045846,-0.00023010,-0.00017750,-0.00000169,-
 0.01123807,-0.01362936,-0.02541192,0.04774624,0.11199931,-0.07482273,-
 0.10049410,-0.22140498,0.00150069,0.00078965,0.00026309,-0.00053957,0.
 00007498,0.00066204,0.00101833,0.00083141,0.00060375,0.08230635,0.1114
 7974,0.23861892,-0.07654663,-0.04104056,0.07118632,-0.01393066,-0.0168
 4543,0.02918284,-0.00697703,0.00016559,-0.00028940,0.00347196,0.004838
 56,-0.01022748,0.00347108,0.00642301,-0.00930649,0.08626831,-0.0413624
 2,-0.10506141,0.09881450,-0.00019744,-0.00117874,0.00021257,0.00002081
 ,0.00090943,-0.00048173,-0.01106796,-0.01378150,0.02566386,0.00633325,
 0.00772059,-0.01328255,0.04627247,0.11032075,0.07173843,0.09881109,-0.
 21945621,0.00030581,0.00021084,-0.00141357,-0.00003666,-0.00048160,0.0
 0146800,-0.00091075,-0.00083458,0.00054686,0.00912106,0.01322119,-0.02
 095158,-0.08023828,-0.10989813,0.23752523,-0.01931556,0.03667172,0.000
 54326,-0.09093642,0.03444093,0.00115665,0.00332219,-0.00904141,-0.0003
 4476,-0.00720494,0.00069090,0.00000499,0.00163323,0.00044395,0.0003578
 0,0.00171622,0.00039328,-0.00028163,0.56722821,0.00616489,-0.00318836,
 0.00010819,0.03576057,-0.17578756,-0.00051733,0.00719536,-0.01892473,-
 0.00067898,-0.00179450,0.00130044,-0.00001093,-0.00131583,0.00062227,0
 .00005202,-0.00144816,0.00080647,-0.00010394,0.03357431,0.48175818,0.0
 0045720,-0.00034775,0.00021429,0.00031655,0.00177260,-0.07944019,-0.01
 029425,0.02681703,0.00085069,-0.00006439,-0.00032348,0.00022703,-0.000
 74786,0.00075557,-0.00000073,0.00060685,-0.00107313,0.00022496,0.00387
 561,0.00433838,0.57243781,-0.01931740,-0.01886909,-0.03147849,-0.09090
 538,-0.01824753,-0.02917184,0.00332370,0.00483347,0.00765155,0.0016290
 1,-0.00053229,-0.00020905,-0.00720543,-0.00035345,-0.00059618,0.001715
 73,0.00004666,-0.00047846,0.00454352,0.00513859,0.00935462,0.56722699,
 -0.00348538,-0.00074428,-0.00176750,-0.01821432,-0.10312447,-0.0403497
 8,0.00529689,0.00721760,0.01166666,0.00130433,0.00050635,0.00082074,0.
 00095541,0.00035210,0.00022675,0.00020239,-0.00014012,-0.00052355,-0.0
 1066852,-0.02382115,-0.03017512,-0.02018557,0.55339959,-0.00511158,-0.
 00131388,-0.00223958,-0.03075223,-0.04263124,-0.15210167,-0.01137969,-
 0.01583280,-0.02529330,0.00075942,0.00011955,0.00011388,0.00151878,0.0
 0053877,0.00117505,0.00156041,0.00044517,0.00117065,0.00024587,-0.0057
 0570,-0.00302221,-0.02710682,-0.03719393,0.50078549,0.00060168,0.00363
 537,-0.00023037,-0.01141840,-0.00163288,0.00014204,0.00048138,0.000242
 22,-0.00045644,-0.00089479,0.00010805,0.00005407,0.00030872,-0.0001402
 3,0.00006642,0.00037647,-0.00013586,-0.00007151,-0.31120829,-0.0011488
 7,0.00605388,0.00040431,-0.00099136,-0.00017776,0.33931913,0.00114188,
 -0.00650778,-0.00030745,0.03266298,0.00071767,-0.00156013,-0.00061299,
 0.00139117,0.00035759,0.00221195,-0.00002189,-0.00003319,-0.00016193,0
 .00000808,0.00023535,-0.00004092,-0.00000465,-0.00026271,-0.00268312,-
 0.04735664,-0.00016302,0.00084368,0.00172905,0.00076058,-0.00028902,0.
 05153347,-0.00000301,-0.00018727,0.00022789,-0.00003621,0.00024296,-0.
 00169431,-0.00035466,-0.00018620,0.00002303,0.00001935,0.00002610,0.00
 063375,0.00040392,0.00010286,0.00023006,-0.00044014,-0.00004169,0.0002
 4102,0.00573546,-0.00023268,-0.04819916,0.00085205,0.00014081,0.000110
 91,-0.00619818,0.00020661,0.04724912,0.00123651,0.00023911,-0.00123902
 ,0.00262525,0.00628230,-0.01007553,-0.00014715,0.00259566,-0.00027125,
 0.00009841,-0.00024513,0.00011567,-0.00005718,-0.00000746,-0.00005656,
 0.00007733,-0.00006276,0.00042109,-0.07130945,-0.03916266,0.06337454,-
 0.00000225,-0.00060799,-0.00011609,-0.00895194,-0.01643856,0.02758653,
 0.07344479,-0.00161089,0.00125284,0.00024398,-0.00989068,-0.01838438,0
 .02734103,0.00273807,-0.00592325,-0.00061986,-0.00015071,0.00027994,-0
 .00042254,0.00012121,-0.00000864,-0.00007546,0.00086730,0.00037655,-0.
 00050960,-0.03885432,-0.11046979,0.10408819,-0.00040063,0.00155223,0.0
 0163186,-0.00008335,-0.00070319,-0.00054472,0.04117266,0.12336842,-0.0
 0004902,-0.00028707,0.00025058,-0.00015828,-0.00005313,-0.00074668,-0.
 00035805,-0.00038078,0.00147103,-0.00021969,-0.00015330,0.00023449,0.0
 0006706,0.00007090,-0.00009330,-0.00061611,0.00022187,0.00013360,0.063
 18200,0.10460564,-0.21925941,-0.00030133,-0.00061428,0.00119623,-0.000
 24071,-0.00078622,-0.00011113,-0.07015349,-0.11659174,0.23727968,0.001
 04995,0.00021670,0.00094962,0.00252360,0.00526350,0.01059627,0.0001811
 8,-0.00070040,-0.00016926,0.00014849,-0.00019766,-0.00004688,-0.000047
 90,0.00006507,-0.00027881,-0.00005209,-0.00000809,0.00004518,-0.078099
 53,-0.04295002,-0.07241961,-0.00077399,0.00205251,0.00004607,-0.009976
 66,-0.01564758,-0.02739333,0.00297062,0.00579599,0.00869716,0.08106619
 ,-0.00154555,0.00122006,-0.00037885,-0.01137099,-0.01454765,-0.0267478
 1,-0.00071098,0.00105045,0.00046752,-0.00021706,0.00016279,0.00041813,
 0.00084295,0.00028659,0.00043298,0.00012670,-0.00001420,0.00008426,-0.
 04211639,-0.10726462,-0.10160043,0.00339851,-0.00608372,0.00142033,-0.
 00011157,-0.00072706,0.00060630,0.00660812,0.00820293,0.01350236,0.045
 42237,0.11842824,-0.00012421,0.00036623,-0.00001963,-0.00002372,0.0013
 3133,-0.00037757,0.00025998,-0.00045687,0.00065880,0.00019543,0.000148
 57,0.00023533,0.00052575,-0.00011103,0.00029772,-0.00005013,-0.0000774
 0,-0.00009519,-0.07168659,-0.10269240,-0.22138738,0.00051998,-0.000640
 18,0.00117967,0.00066327,0.00158839,0.00125834,-0.00960599,-0.01307411
 ,-0.02094004,0.07971788,0.11342080,0.23860967,0.00123961,0.00095285,-0
 .00082360,0.00260703,0.00555236,-0.01050571,-0.00014636,-0.00106691,-0
 .00238191,-0.00005880,0.00005171,-0.00002235,0.00009843,0.00002333,0.0
 0026978,0.00008635,-0.00032712,0.00027628,-0.00000218,0.00040482,0.000
 46937,-0.07135905,-0.03521638,0.06572864,-0.00004729,-0.00011748,0.000
 11002,0.00015665,0.00009345,0.00028858,-0.00009359,0.00019567,-0.00006
 745,0.07350381,0.00085005,0.00048532,0.00015812,0.00509967,0.00665378,
 -0.01456864,-0.00106262,-0.00082219,-0.00333729,-0.00011686,-0.0000742
 4,0.00011127,0.00026580,-0.00000402,0.00001129,0.00009783,0.00006976,0
 .00040373,0.00046124,0.00173041,-0.00071686,-0.03520819,-0.10134073,0.
 09929399,0.00005417,-0.00008156,0.00001623,-0.00029781,0.00001431,0.00
 039814,-0.00003694,0.00017800,0.00025222,0.04008207,0.10744065,0.00137
 123,0.00069059,0.00102370,0.00846004,0.01282693,-0.02581640,-0.0025469
 0,-0.00357719,-0.00363063,-0.00007326,-0.00003801,-0.00002914,0.000020
 54,-0.00025776,0.00051870,-0.00104825,-0.00032797,0.00045488,0.0001930
 2,0.00153158,0.00101771,0.06536800,0.09876792,-0.22836141,-0.00000958,
 -0.00007987,-0.00003214,0.00006632,-0.00110514,0.00043367,-0.00023519,
 -0.00008190,0.00052853,-0.07086664,-0.10734782,0.25317758,0.00060275,-
 0.00162187,-0.00326035,-0.01140252,0.00069345,0.00148347,0.00047978,0.
 00027332,-0.00043959,0.00030862,0.00001267,0.00015461,-0.00089448,-0.0
 0010139,-0.00006636,0.00037641,0.00013000,0.00008191,0.00040570,0.0006
 5001,0.00076809,-0.31120774,-0.00462030,0.00395765,0.00060680,-0.00064
 637,-0.00013938,-0.00004781,-0.00001981,-0.00005201,0.00039890,0.00004
 308,-0.00008569,-0.00896261,0.00025347,-0.00005047,0.33930777,-0.00056
 977,-0.00168084,-0.00298688,-0.01634412,-0.00165444,0.00161842,0.00061
 476,0.00044086,0.00036425,-0.00026826,0.00032116,-0.00007822,-0.001126
 41,0.00046556,-0.00025656,0.00040114,0.00004749,-0.00007166,-0.0011576
 9,0.00090432,0.00061513,-0.00358314,-0.04815261,0.00022416,0.00044065,
 -0.00019525,-0.00026986,-0.00003572,-0.00007253,0.00001043,0.00023450,
 0.00020593,0.00012797,-0.01562415,-0.00082785,-0.00046698,0.00547031,0
 .04849099,-0.00098817,-0.00310440,-0.00459986,-0.02827317,-0.00017944,
 0.00067956,0.00035125,0.00090883,0.00097005,0.00034261,0.00005408,-0.0
 0008293,-0.00190396,-0.00031644,0.00014601,-0.00018547,-0.00029290,0.0
 0018896,-0.00030155,0.00123418,0.00093307,0.00512458,0.00030011,-0.047
 39031,0.00048506,-0.00030560,0.00013322,0.00015674,-0.00008538,-0.0000
 4118,0.00012110,0.00035694,-0.00005820,0.02805481,-0.00071279,0.000032
 15,-0.00277862,0.00196762,0.05026915,0.00105176,-0.00092954,0.00029254
 ,0.00253152,-0.01180422,0.00076591,0.00018160,0.00049814,0.00052160,-0
 .00005042,0.00021038,-0.00020017,0.00014832,0.00013987,0.00014732,-0.0
 0005345,-0.00003481,0.00002754,-0.00077270,-0.00106851,-0.00175061,-0.
 07807202,0.08417829,0.00082732,0.00039887,-0.00022253,-0.00014242,-0.0
 0009378,0.00022171,-0.00008610,0.00070481,-0.00056485,-0.00023852,0.00
 297799,-0.01044186,-0.00064887,-0.00997156,0.03154790,-0.00020520,0.08
 101905,0.00088178,0.00028104,0.00090634,0.00573300,-0.01496793,0.00158
 289,0.00013138,0.00076371,-0.00028810,-0.00088229,0.00043598,-0.000198
 89,-0.00006028,0.00046343,-0.00002551,-0.00001990,-0.00007043,-0.00004
 534,-0.00215488,-0.00030923,-0.00398710,0.08311898,-0.28134984,-0.0017
 5685,0.00005269,0.00021857,0.00012054,-0.00003976,0.00051457,0.0000571
 9,0.00049004,-0.00109772,-0.00018353,0.00499578,-0.01342165,-0.0005343
 9,-0.00051656,0.00170720,0.00017519,-0.09172998,0.30683229,0.00127548,
 0.00016289,0.00091321,0.00983296,-0.02650993,0.00004876,0.00074563,0.0
 0063540,0.00094959,-0.00046968,0.00034582,0.00014750,0.00028577,0.0002
 4426,-0.00006477,-0.00013467,0.00011754,-0.00003761,-0.00268014,-0.001
 92802,-0.00459649,0.00047140,-0.00065865,-0.04732340,-0.00008017,0.000
 34967,-0.00007061,-0.00020296,-0.00027649,0.00019247,0.00036979,-0.001
 90064,0.00010994,-0.01052983,0.02603841,0.00068280,0.00042674,-0.00079
 783,-0.00117969,0.00068968,0.00417757,0.05022830\\0.00039583,-0.000046
 55,0.00007381,0.00007570,0.00011420,-0.00019312,-0.00000336,-0.0000018
 7,0.00000577,0.00006821,-0.00020908,-0.00000991,0.00006866,0.00011410,
 0.00017644,-0.00013985,0.00003236,-0.00005795,-0.00017294,0.00035792,0
 .00008272,-0.00017676,-0.00024650,-0.00026138,-0.00021986,-0.00001182,
 -0.00000721,0.00007853,-0.00011989,-0.00005898,0.00008550,0.00010165,0
 .00017610,0.00007694,0.00011104,0.00007114,-0.00022250,0.00000811,0.00
 000339,0.00008591,-0.00020367,-0.00000083\\\@


 COMMON SENSE IS NOT SO COMMON.   -- VOLTAIRE
 Job cpu time:       0 days 16 hours  7 minutes 43.3 seconds.
 Elapsed time:       0 days  0 hours 24 minutes 42.0 seconds.
 File lengths (MBytes):  RWF=  24979 Int=      0 D2E=      0 Chk=     13 Scr=      1
 Normal termination of Gaussian 16 at Sat Jun  1 02:00:09 2019.
