 Entering Gaussian System, Link 0=g16
 Initial command:
 /ichec/packages/gaussian/16b01/l1.exe "/localscratch/339542/Gau-53985.inp" -scrdir="/localscratch/339542/"
 Entering Link 1 = /ichec/packages/gaussian/16b01/l1.exe PID=     54000.
  
 Copyright (c) 1988-2017, Gaussian, Inc.  All Rights Reserved.
  
 This is part of the Gaussian(R) 16 program.  It is based on
 the Gaussian(R) 09 system (copyright 2009, Gaussian, Inc.),
 the Gaussian(R) 03 system (copyright 2003, Gaussian, Inc.),
 the Gaussian(R) 98 system (copyright 1998, Gaussian, Inc.),
 the Gaussian(R) 94 system (copyright 1995, Gaussian, Inc.),
 the Gaussian 92(TM) system (copyright 1992, Gaussian, Inc.),
 the Gaussian 90(TM) system (copyright 1990, Gaussian, Inc.),
 the Gaussian 88(TM) system (copyright 1988, Gaussian, Inc.),
 the Gaussian 86(TM) system (copyright 1986, Carnegie Mellon
 University), and the Gaussian 82(TM) system (copyright 1983,
 Carnegie Mellon University). Gaussian is a federally registered
 trademark of Gaussian, Inc.
  
 This software contains proprietary and confidential information,
 including trade secrets, belonging to Gaussian, Inc.
  
 This software is provided under written license and may be
 used, copied, transmitted, or stored only in accord with that
 written license.
  
 The following legend is applicable only to US Government
 contracts under FAR:
  
                    RESTRICTED RIGHTS LEGEND
  
 Use, reproduction and disclosure by the US Government is
 subject to restrictions as set forth in subparagraphs (a)
 and (c) of the Commercial Computer Software - Restricted
 Rights clause in FAR 52.227-19.
  
 Gaussian, Inc.
 340 Quinnipiac St., Bldg. 40, Wallingford CT 06492
  
  
 ---------------------------------------------------------------
 Warning -- This program may not be used in any manner that
 competes with the business of Gaussian, Inc. or will provide
 assistance to any competitor of Gaussian, Inc.  The licensee
 of this program is prohibited from giving any competitor of
 Gaussian, Inc. access to this program.  By using this program,
 the user acknowledges that Gaussian, Inc. is engaged in the
 business of creating and licensing software in the field of
 computational chemistry and represents and warrants to the
 licensee that it is not a competitor of Gaussian, Inc. and that
 it will not use this program in any manner prohibited above.
 ---------------------------------------------------------------
  

 Cite this work as:
 Gaussian 16, Revision B.01,
 M. J. Frisch, G. W. Trucks, H. B. Schlegel, G. E. Scuseria, 
 M. A. Robb, J. R. Cheeseman, G. Scalmani, V. Barone, 
 G. A. Petersson, H. Nakatsuji, X. Li, M. Caricato, A. V. Marenich, 
 J. Bloino, B. G. Janesko, R. Gomperts, B. Mennucci, H. P. Hratchian, 
 J. V. Ortiz, A. F. Izmaylov, J. L. Sonnenberg, D. Williams-Young, 
 F. Ding, F. Lipparini, F. Egidi, J. Goings, B. Peng, A. Petrone, 
 T. Henderson, D. Ranasinghe, V. G. Zakrzewski, J. Gao, N. Rega, 
 G. Zheng, W. Liang, M. Hada, M. Ehara, K. Toyota, R. Fukuda, 
 J. Hasegawa, M. Ishida, T. Nakajima, Y. Honda, O. Kitao, H. Nakai, 
 T. Vreven, K. Throssell, J. A. Montgomery, Jr., J. E. Peralta, 
 F. Ogliaro, M. J. Bearpark, J. J. Heyd, E. N. Brothers, K. N. Kudin, 
 V. N. Staroverov, T. A. Keith, R. Kobayashi, J. Normand, 
 K. Raghavachari, A. P. Rendell, J. C. Burant, S. S. Iyengar, 
 J. Tomasi, M. Cossi, J. M. Millam, M. Klene, C. Adamo, R. Cammi, 
 J. W. Ochterski, R. L. Martin, K. Morokuma, O. Farkas, 
 J. B. Foresman, and D. J. Fox, Gaussian, Inc., Wallingford CT, 2016.
 
 ******************************************
 Gaussian 16:  ES64L-G16RevB.01 20-Dec-2017
                 1-Jun-2019 
 ******************************************
 %mem=80GB
 %nproc=40
 Will use up to   40 processors via shared memory.
 -----------------------------------------------
 # opt=maxcyc=500 freq=noraman uB2PLYPD3/cc-pvtz
 -----------------------------------------------
 1/6=500,18=20,19=15,38=1/1,3;
 2/9=110,12=2,17=6,18=5,40=1/2;
 3/5=16,6=1,11=2,25=1,30=1,71=1,74=-60,116=2/1,2,3;
 4//1;
 5/5=2,38=5/2;
 8/6=4,10=1/1;
 9/15=2,16=-3/6;
 10/5=1/2;
 6/7=2,8=2,9=2,10=2/1;
 7/12=2/1,2,3,16;
 1/6=500,18=20,19=15/3(2);
 2/9=110/2;
 99//99;
 2/9=110/2;
 3/5=16,6=1,11=2,25=1,30=1,71=1,74=-60,116=2/1,2,3;
 4/5=5,16=3,69=1/1;
 5/5=2,38=5/2;
 8/6=4,10=1/1;
 9/15=2,16=-3/6;
 10/5=1/2;
 7/12=2/1,2,3,16;
 1/6=500,18=20,19=15/3(-8);
 2/9=110/2;
 6/7=2,8=2,9=2,10=2/1;
 99/9=10/99;
 -------------------
 Title Card Required
 -------------------
 Symbolic Z-matrix:
 Charge =  0 Multiplicity = 1
 C                     0.        1.45619   0. 
 C                     0.        0.1253    0. 
 H                    -0.92542   2.02147  -0.00012 
 H                     0.92542   2.02147   0.00012 
 C                     1.27116  -0.67828   0.00011 
 C                    -1.27116  -0.67828  -0.00011 
 H                     1.3127   -1.32885  -0.87899 
 H                     2.15371  -0.03825   0.00038 
 H                     1.31238  -1.32917   0.87899 
 H                    -1.3127   -1.32885   0.87899 
 H                    -2.15371  -0.03825  -0.00038 
 H                    -1.31238  -1.32917  -0.87899 
 

 GradGradGradGradGradGradGradGradGradGradGradGradGradGradGradGradGradGrad
 Berny optimization.
 Initialization pass.
                           ----------------------------
                           !    Initial Parameters    !
                           ! (Angstroms and Degrees)  !
 --------------------------                            --------------------------
 ! Name  Definition              Value          Derivative Info.                !
 --------------------------------------------------------------------------------
 ! R1    R(1,2)                  1.3309         estimate D2E/DX2                !
 ! R2    R(1,3)                  1.0844         estimate D2E/DX2                !
 ! R3    R(1,4)                  1.0844         estimate D2E/DX2                !
 ! R4    R(2,5)                  1.5039         estimate D2E/DX2                !
 ! R5    R(2,6)                  1.5039         estimate D2E/DX2                !
 ! R6    R(5,7)                  1.0944         estimate D2E/DX2                !
 ! R7    R(5,8)                  1.0902         estimate D2E/DX2                !
 ! R8    R(5,9)                  1.0944         estimate D2E/DX2                !
 ! R9    R(6,10)                 1.0944         estimate D2E/DX2                !
 ! R10   R(6,11)                 1.0902         estimate D2E/DX2                !
 ! R11   R(6,12)                 1.0944         estimate D2E/DX2                !
 ! A1    A(2,1,3)              121.4178         estimate D2E/DX2                !
 ! A2    A(2,1,4)              121.4178         estimate D2E/DX2                !
 ! A3    A(3,1,4)              117.1643         estimate D2E/DX2                !
 ! A4    A(1,2,5)              122.2995         estimate D2E/DX2                !
 ! A5    A(1,2,6)              122.2995         estimate D2E/DX2                !
 ! A6    A(5,2,6)              115.4009         estimate D2E/DX2                !
 ! A7    A(2,5,7)              110.4663         estimate D2E/DX2                !
 ! A8    A(2,5,8)              111.7506         estimate D2E/DX2                !
 ! A9    A(2,5,9)              110.4679         estimate D2E/DX2                !
 ! A10   A(7,5,8)              108.5695         estimate D2E/DX2                !
 ! A11   A(7,5,9)              106.8633         estimate D2E/DX2                !
 ! A12   A(8,5,9)              108.5699         estimate D2E/DX2                !
 ! A13   A(2,6,10)             110.4663         estimate D2E/DX2                !
 ! A14   A(2,6,11)             111.7506         estimate D2E/DX2                !
 ! A15   A(2,6,12)             110.4678         estimate D2E/DX2                !
 ! A16   A(10,6,11)            108.5696         estimate D2E/DX2                !
 ! A17   A(10,6,12)            106.8633         estimate D2E/DX2                !
 ! A18   A(11,6,12)            108.5698         estimate D2E/DX2                !
 ! D1    D(3,1,2,5)            179.9979         estimate D2E/DX2                !
 ! D2    D(3,1,2,6)             -0.0022         estimate D2E/DX2                !
 ! D3    D(4,1,2,5)             -0.0021         estimate D2E/DX2                !
 ! D4    D(4,1,2,6)            179.9978         estimate D2E/DX2                !
 ! D5    D(1,2,5,7)           -120.9775         estimate D2E/DX2                !
 ! D6    D(1,2,5,8)              0.0111         estimate D2E/DX2                !
 ! D7    D(1,2,5,9)            121.0012         estimate D2E/DX2                !
 ! D8    D(6,2,5,7)             59.0225         estimate D2E/DX2                !
 ! D9    D(6,2,5,8)           -179.9889         estimate D2E/DX2                !
 ! D10   D(6,2,5,9)            -58.9988         estimate D2E/DX2                !
 ! D11   D(1,2,6,10)          -120.9775         estimate D2E/DX2                !
 ! D12   D(1,2,6,11)             0.0112         estimate D2E/DX2                !
 ! D13   D(1,2,6,12)           121.0012         estimate D2E/DX2                !
 ! D14   D(5,2,6,10)            59.0224         estimate D2E/DX2                !
 ! D15   D(5,2,6,11)          -179.9889         estimate D2E/DX2                !
 ! D16   D(5,2,6,12)           -58.9989         estimate D2E/DX2                !
 --------------------------------------------------------------------------------
 Trust Radius=3.00D-01 FncErr=1.00D-07 GrdErr=1.00D-07 EigMax=2.50D+02 EigMin=1.00D-04
 Number of steps in this run=    100 maximum allowed number of steps=    100.
 GradGradGradGradGradGradGradGradGradGradGradGradGradGradGradGradGradGrad

                          Input orientation:                          
 ---------------------------------------------------------------------
 Center     Atomic      Atomic             Coordinates (Angstroms)
 Number     Number       Type             X           Y           Z
 ---------------------------------------------------------------------
      1          6           0        0.000000    1.456194    0.000000
      2          6           0        0.000000    0.125300    0.000000
      3          1           0       -0.925421    2.021469   -0.000115
      4          1           0        0.925421    2.021469    0.000115
      5          6           0        1.271161   -0.678280    0.000111
      6          6           0       -1.271161   -0.678280   -0.000110
      7          1           0        1.312700   -1.328853   -0.878994
      8          1           0        2.153713   -0.038247    0.000384
      9          1           0        1.312379   -1.329168    0.878993
     10          1           0       -1.312700   -1.328853    0.878994
     11          1           0       -2.153713   -0.038247   -0.000384
     12          1           0       -1.312379   -1.329168   -0.878993
 ---------------------------------------------------------------------
                    Distance matrix (angstroms):
                    1          2          3          4          5
     1  C    0.000000
     2  C    1.330894   0.000000
     3  H    1.084408   2.109943   0.000000
     4  H    1.084408   2.109943   1.850842   0.000000
     5  C    2.484317   1.503859   3.480462   2.721797   0.000000
     6  C    2.484317   1.503859   2.721797   3.480462   2.542322
     7  H    3.201921   2.147178   4.123866   3.485323   1.094439
     8  H    2.621418   2.159914   3.704524   2.398152   1.090202
     9  H    3.202063   2.147195   4.123997   3.485532   1.094435
    10  H    3.201921   2.147178   3.485323   4.123866   2.805712
    11  H    2.621418   2.159914   2.398152   3.704524   3.484165
    12  H    3.202063   2.147195   3.485532   4.123997   2.805558
                    6          7          8          9         10
     6  C    0.000000
     7  H    2.805712   0.000000
     8  H    3.484165   1.773773   0.000000
     9  H    2.805558   1.757987   1.773774   0.000000
    10  H    1.094438   3.159628   3.801794   2.625079   0.000000
    11  H    1.090202   3.801794   4.307426   3.801786   1.773773
    12  H    1.094436   2.625079   3.801786   3.159093   1.757987
                   11         12
    11  H    0.000000
    12  H    1.773774   0.000000
 Stoichiometry    C4H8
 Framework group  C2[C2(CC),X(C2H8)]
 Deg. of freedom    15
 Full point group                 C2      NOp   2
 Largest Abelian subgroup         C2      NOp   2
 Largest concise Abelian subgroup C2      NOp   2
                         Standard orientation:                         
 ---------------------------------------------------------------------
 Center     Atomic      Atomic             Coordinates (Angstroms)
 Number     Number       Type             X           Y           Z
 ---------------------------------------------------------------------
      1          6           0        0.000000    0.000000    1.456194
      2          6           0        0.000000    0.000000    0.125300
      3          1           0        0.000034    0.925421    2.021469
      4          1           0       -0.000034   -0.925421    2.021469
      5          6           0        0.000000   -1.271161   -0.678280
      6          6           0       -0.000000    1.271161   -0.678280
      7          1           0        0.879109   -1.312623   -1.328853
      8          1           0       -0.000196   -2.153713   -0.038247
      9          1           0       -0.878878   -1.312456   -1.329168
     10          1           0       -0.879109    1.312623   -1.328853
     11          1           0        0.000196    2.153713   -0.038247
     12          1           0        0.878878    1.312456   -1.329168
 ---------------------------------------------------------------------
 Rotational constants (GHZ):           9.1689384           8.4348155           4.6448131
 Standard basis: CC-pVTZ (5D, 7F)
 There are   133 symmetry adapted cartesian basis functions of A   symmetry.
 There are   127 symmetry adapted cartesian basis functions of B   symmetry.
 There are   118 symmetry adapted basis functions of A   symmetry.
 There are   114 symmetry adapted basis functions of B   symmetry.
   232 basis functions,   344 primitive gaussians,   260 cartesian basis functions
    16 alpha electrons       16 beta electrons
       nuclear repulsion energy       119.8707462622 Hartrees.
 NAtoms=   12 NActive=   12 NUniq=    7 SFac= 2.94D+00 NAtFMM=   60 NAOKFM=F Big=F
 Integral buffers will be    131072 words long.
 Raffenetti 2 integral format.
 Two-electron integral symmetry is turned on.
 Nuclear repulsion after empirical dispersion term =      119.8648595074 Hartrees.
 One-electron integrals computed using PRISM.
 NBasis=   232 RedAO= T EigKep=  3.74D-04  NBF=   118   114
 NBsUse=   232 1.00D-06 EigRej= -1.00D+00 NBFU=   118   114
 ExpMin= 1.03D-01 ExpMax= 8.24D+03 ExpMxC= 2.81D+02 IAcc=3 IRadAn=         5 AccDes= 0.00D+00
 Harris functional with IExCor=  419 and IRadAn=       5 diagonalized for initial guess.
 HarFok:  IExCor=  419 AccDes= 0.00D+00 IRadAn=         5 IDoV= 1 UseB2=F ITyADJ=14
 ICtDFT=  3500011 ScaDFX=  1.000000  1.000000  1.000000  1.000000
 FoFCou: FMM=F IPFlag=           0 FMFlag=      100000 FMFlg1=           0
         NFxFlg=           0 DoJE=T BraDBF=F KetDBF=T FulRan=T
         wScrn=  0.000000 ICntrl=       500 IOpCl=  0 I1Cent=   200000004 NGrid=           0
         NMat0=    1 NMatS0=      1 NMatT0=    0 NMatD0=    1 NMtDS0=    0 NMtDT0=    0
 Petite list used in FoFCou.
 Initial guess orbital symmetries:
 Alpha Orbitals:
       Occupied  (A) (B) (A) (A) (A) (B) (A) (A) (B) (A) (B) (A)
                 (A) (B) (B) (B)
       Virtual   (B) (A) (B) (A) (B) (B) (A) (A) (A) (B) (B) (A)
                 (B) (A) (A) (B) (A) (A) (B) (B) (A) (B) (B) (B)
                 (A) (A) (A) (B) (B) (B) (A) (A) (A) (B) (A) (A)
                 (A) (B) (A) (B) (B) (B) (A) (A) (B) (B) (A) (B)
                 (B) (A) (A) (A) (B) (B) (B) (A) (B) (A) (B) (B)
                 (A) (A) (B) (A) (A) (B) (B) (A) (A) (A) (B) (B)
                 (A) (B) (B) (A) (A) (A) (A) (B) (B) (A) (A) (A)
                 (B) (B) (B) (B) (A) (A) (B) (A) (A) (B) (B) (B)
                 (B) (B) (A) (A) (B) (B) (B) (A) (A) (A) (B) (B)
                 (A) (B) (A) (B) (A) (A) (A) (B) (A) (B) (A) (A)
                 (B) (B) (A) (B) (A) (B) (B) (A) (A) (A) (B) (B)
                 (A) (A) (B) (B) (A) (A) (B) (B) (A) (A) (A) (B)
                 (A) (B) (B) (A) (B) (B) (A) (B) (A) (B) (A) (B)
                 (A) (B) (A) (B) (A) (A) (B) (B) (B) (A) (A) (B)
                 (A) (B) (A) (B) (A) (A) (B) (B) (B) (A) (A) (A)
                 (B) (B) (A) (A) (B) (B) (B) (A) (A) (B) (A) (B)
                 (A) (B) (A) (A) (B) (B) (A) (B) (A) (A) (A) (B)
                 (B) (A) (B) (B) (A) (A) (B) (B) (A) (A) (B) (A)
 Beta  Orbitals:
       Occupied  (A) (B) (A) (A) (A) (B) (A) (A) (B) (A) (B) (A)
                 (A) (B) (B) (B)
       Virtual   (B) (A) (B) (A) (B) (B) (A) (A) (A) (B) (B) (A)
                 (B) (A) (A) (B) (A) (A) (B) (B) (A) (B) (B) (B)
                 (A) (A) (A) (B) (B) (B) (A) (A) (A) (B) (A) (A)
                 (A) (B) (A) (B) (B) (B) (A) (A) (B) (B) (A) (B)
                 (B) (A) (A) (A) (B) (B) (B) (A) (B) (A) (B) (B)
                 (A) (A) (B) (A) (A) (B) (B) (A) (A) (A) (B) (B)
                 (A) (B) (B) (A) (A) (A) (A) (B) (B) (A) (A) (A)
                 (B) (B) (B) (B) (A) (A) (B) (A) (A) (B) (B) (B)
                 (B) (B) (A) (A) (B) (B) (B) (A) (A) (A) (B) (B)
                 (A) (B) (A) (B) (A) (A) (A) (B) (A) (B) (A) (A)
                 (B) (B) (A) (B) (A) (B) (B) (A) (A) (A) (B) (B)
                 (A) (A) (B) (B) (A) (A) (B) (B) (A) (A) (A) (B)
                 (A) (B) (B) (A) (B) (B) (A) (B) (A) (B) (A) (B)
                 (A) (B) (A) (B) (A) (A) (B) (B) (B) (A) (A) (B)
                 (A) (B) (A) (B) (A) (A) (B) (B) (B) (A) (A) (A)
                 (B) (B) (A) (A) (B) (B) (B) (A) (A) (B) (A) (B)
                 (A) (B) (A) (A) (B) (B) (A) (B) (A) (A) (A) (B)
                 (B) (A) (B) (B) (A) (A) (B) (B) (A) (A) (B) (A)
 The electronic state of the initial guess is 1-A.
 Initial guess <Sx>= 0.0000 <Sy>= 0.0000 <Sz>= 0.0000 <S**2>= 0.0000 S= 0.0000
 Keep R1 and R2 ints in memory in symmetry-blocked form, NReq=547994801.
 Requested convergence on RMS density matrix=1.00D-08 within 128 cycles.
 Requested convergence on MAX density matrix=1.00D-06.
 Requested convergence on             energy=1.00D-06.
 No special actions if energy rises.
 Integral accuracy reduced to 1.0D-05 until final iterations.
 Initial convergence to 1.0D-05 achieved.  Increase integral accuracy.
 SCF Done:  E(UB2PLYPD3) =  -156.907134309     A.U. after   11 cycles
            NFock= 11  Conv=0.86D-08     -V/T= 2.0050
 <Sx>= 0.0000 <Sy>= 0.0000 <Sz>= 0.0000 <S**2>=-0.0000 S=-0.0000
 <L.S>=  0.00000000000    
 Annihilation of the first spin contaminant:
 S**2 before annihilation    -0.0000,   after    -0.0000
 DoSCS=T DFT=T ScalE2(SS,OS)=  0.270000  0.270000
 ExpMin= 1.03D-01 ExpMax= 8.24D+03 ExpMxC= 2.81D+02 IAcc=3 IRadAn=         5 AccDes= 0.00D+00
 HarFok:  IExCor=  205 AccDes= 0.00D+00 IRadAn=         5 IDoV=-2 UseB2=F ITyADJ=14
 ICtDFT= 12500011 ScaDFX=  1.000000  1.000000  1.000000  1.000000
 Range of M.O.s used for correlation:     5   232
 NBasis=   232 NAE=    16 NBE=    16 NFC=     4 NFV=     0
 NROrb=    228 NOA=    12 NOB=    12 NVA=   216 NVB=   216

 **** Warning!!: The largest alpha MO coefficient is  0.17020185D+02


 **** Warning!!: The largest beta MO coefficient is  0.17020185D+02

 DoSCS=T DFT=T ScalE2(SS,OS)=  0.270000  0.270000
 Fully direct method using O(ONN) memory.
 JobTyp=2 Pass  1:  I=   5 to  16 NPSUse= 40 ParTrn=T ParDer=T DoDerP=T.
 JobTyp=3 Pass  1:  I=   5 to  16 NPSUse= 40 ParTrn=T ParDer=T DoDerP=T.
 Spin components of T(2) and E(2):
     alpha-alpha T2 =       0.4021573160D-01 E2=     -0.2512812498D-01
     alpha-beta  T2 =       0.2587029689D+00 E2=     -0.1737970495D+00
     beta-beta   T2 =       0.4021573160D-01 E2=     -0.2512812498D-01
 (S**2,0)=  0.00000D+00           (S**2,1)=  0.00000D+00
 E(PUHF)=      -0.15690713431D+03        E(PMP2)=      -0.15713118761D+03
 E2(B2PLYPD3) =    -0.2240532995D+00 E(B2PLYPD3) =    -0.15713118760871D+03
          IDoAtm=111111111111
          Differentiating once with respect to electric field.
                with respect to dipole field.
          Differentiating once with respect to nuclear coordinates.
 Keep R1 and R2 ints in memory in symmetry-blocked form, NReq=547996945.
          There are     1 degrees of freedom in the 1st order CPHF.  IDoFFX=0 NUNeed=     1.
 LinEq1:  Iter=  0 NonCon=     1 RMS=5.60D-04 Max=1.01D-02 NDo=     1
 AX will form     1 AO Fock derivatives at one time.
 LinEq1:  Iter=  1 NonCon=     1 RMS=2.32D-04 Max=4.01D-03 NDo=     1
 LinEq1:  Iter=  2 NonCon=     1 RMS=7.14D-05 Max=2.72D-03 NDo=     1
 LinEq1:  Iter=  3 NonCon=     1 RMS=3.80D-05 Max=8.33D-04 NDo=     1
 LinEq1:  Iter=  4 NonCon=     1 RMS=8.90D-06 Max=2.13D-04 NDo=     1
 LinEq1:  Iter=  5 NonCon=     1 RMS=3.23D-06 Max=4.17D-05 NDo=     1
 LinEq1:  Iter=  6 NonCon=     1 RMS=1.17D-06 Max=1.84D-05 NDo=     1
 LinEq1:  Iter=  7 NonCon=     1 RMS=2.43D-07 Max=3.24D-06 NDo=     1
 LinEq1:  Iter=  8 NonCon=     1 RMS=5.69D-08 Max=7.21D-07 NDo=     1
 LinEq1:  Iter=  9 NonCon=     1 RMS=8.35D-09 Max=1.65D-07 NDo=     1
 LinEq1:  Iter= 10 NonCon=     1 RMS=8.03D-10 Max=1.55D-08 NDo=     1
 LinEq1:  Iter= 11 NonCon=     1 RMS=9.65D-11 Max=1.39D-09 NDo=     1
 LinEq1:  Iter= 12 NonCon=     0 RMS=1.80D-11 Max=2.02D-10 NDo=     1
 Linear equations converged to 1.000D-10 1.000D-09 after    12 iterations.
 End of Minotr F.D. properties file   721 does not exist.
 End of Minotr F.D. properties file   722 does not exist.
 End of Minotr F.D. properties file   788 does not exist.

 **********************************************************************

            Population analysis using the SCF Density.

 **********************************************************************

 Orbital symmetries:
 Alpha Orbitals:
       Occupied  (A) (B) (A) (A) (A) (B) (A) (A) (B) (A) (B) (A)
                 (B) (A) (B) (B)
       Virtual   (B) (A) (B) (A) (B) (B) (A) (A) (A) (B) (A) (B)
                 (A) (B) (A) (B) (A) (B) (B) (A) (B) (A) (B) (A)
                 (A) (B) (A) (B) (B) (A) (B) (A) (A) (B) (A) (A)
                 (A) (B) (B) (A) (B) (B) (A) (B) (A) (B) (A) (B)
                 (B) (A) (A) (A) (B) (B) (B) (A) (B) (B) (A) (B)
                 (A) (A) (B) (A) (A) (B) (B) (A) (A) (B) (A) (B)
                 (A) (B) (A) (B) (A) (A) (A) (B) (B) (A) (A) (A)
                 (B) (B) (B) (B) (A) (A) (B) (A) (A) (B) (B) (B)
                 (B) (B) (A) (A) (B) (B) (A) (B) (A) (B) (B) (A)
                 (B) (A) (A) (B) (A) (A) (A) (B) (A) (B) (A) (A)
                 (B) (B) (A) (B) (A) (B) (B) (A) (A) (B) (A) (A)
                 (B) (B) (A) (B) (A) (A) (B) (B) (A) (A) (A) (B)
                 (B) (B) (A) (B) (A) (A) (B) (B) (A) (B) (A) (B)
                 (A) (B) (B) (A) (A) (A) (B) (B) (A) (B) (B) (A)
                 (A) (B) (A) (B) (A) (B) (A) (B) (A) (B) (A) (B)
                 (B) (A) (A) (A) (B) (B) (B) (A) (A) (B) (B) (A)
                 (A) (B) (A) (A) (B) (B) (B) (A) (A) (A) (A) (B)
                 (B) (B) (A) (B) (A) (A) (B) (B) (A) (A) (B) (A)
 Beta  Orbitals:
       Occupied  (A) (B) (A) (A) (A) (B) (A) (A) (B) (A) (B) (A)
                 (B) (A) (B) (B)
       Virtual   (B) (A) (B) (A) (B) (B) (A) (A) (A) (B) (A) (B)
                 (A) (B) (A) (B) (A) (B) (B) (A) (B) (A) (B) (A)
                 (A) (B) (A) (B) (B) (A) (B) (A) (A) (B) (A) (A)
                 (A) (B) (B) (A) (B) (B) (A) (B) (A) (B) (A) (B)
                 (B) (A) (A) (A) (B) (B) (B) (A) (B) (B) (A) (B)
                 (A) (A) (B) (A) (A) (B) (B) (A) (A) (B) (A) (B)
                 (A) (B) (A) (B) (A) (A) (A) (B) (B) (A) (A) (A)
                 (B) (B) (B) (B) (A) (A) (B) (A) (A) (B) (B) (B)
                 (B) (B) (A) (A) (B) (B) (A) (B) (A) (B) (B) (A)
                 (B) (A) (A) (B) (A) (A) (A) (B) (A) (B) (A) (A)
                 (B) (B) (A) (B) (A) (B) (B) (A) (A) (B) (A) (A)
                 (B) (B) (A) (B) (A) (A) (B) (B) (A) (A) (A) (B)
                 (B) (B) (A) (B) (A) (A) (B) (B) (A) (B) (A) (B)
                 (A) (B) (B) (A) (A) (A) (B) (B) (A) (B) (B) (A)
                 (A) (B) (A) (B) (A) (B) (A) (B) (A) (B) (A) (B)
                 (B) (A) (A) (A) (B) (B) (B) (A) (A) (B) (B) (A)
                 (A) (B) (A) (A) (B) (B) (B) (A) (A) (A) (A) (B)
                 (B) (B) (A) (B) (A) (A) (B) (B) (A) (A) (B) (A)
 The electronic state is 1-A.
 Alpha  occ. eigenvalues --  -10.62398 -10.60680 -10.60679 -10.59414  -0.92543
 Alpha  occ. eigenvalues --   -0.79730  -0.78353  -0.60480  -0.52319  -0.51477
 Alpha  occ. eigenvalues --   -0.50028  -0.45051  -0.43461  -0.42910  -0.39736
 Alpha  occ. eigenvalues --   -0.29042
 Alpha virt. eigenvalues --    0.07716   0.07756   0.12014   0.12428   0.14316
 Alpha virt. eigenvalues --    0.15254   0.16090   0.19117   0.20605   0.20975
 Alpha virt. eigenvalues --    0.27390   0.27557   0.29977   0.31672   0.33210
 Alpha virt. eigenvalues --    0.38557   0.40002   0.42586   0.42776   0.43493
 Alpha virt. eigenvalues --    0.49670   0.50074   0.51179   0.52815   0.53296
 Alpha virt. eigenvalues --    0.53628   0.53723   0.54777   0.56004   0.59380
 Alpha virt. eigenvalues --    0.62398   0.64379   0.64985   0.65585   0.71662
 Alpha virt. eigenvalues --    0.74489   0.75040   0.81862   0.84582   0.86457
 Alpha virt. eigenvalues --    0.90153   0.91076   0.95683   1.00706   1.01323
 Alpha virt. eigenvalues --    1.01761   1.02040   1.05180   1.06229   1.09164
 Alpha virt. eigenvalues --    1.09191   1.12239   1.14403   1.16826   1.19189
 Alpha virt. eigenvalues --    1.25481   1.26398   1.29522   1.29557   1.30028
 Alpha virt. eigenvalues --    1.30481   1.33607   1.34911   1.38420   1.40236
 Alpha virt. eigenvalues --    1.40343   1.42410   1.43862   1.46124   1.51543
 Alpha virt. eigenvalues --    1.52516   1.56930   1.58447   1.60066   1.62050
 Alpha virt. eigenvalues --    1.62744   1.71211   1.81386   1.81911   1.94635
 Alpha virt. eigenvalues --    2.15636   2.26538   2.26881   2.33232   2.36683
 Alpha virt. eigenvalues --    2.40329   2.43707   2.46423   2.48148   2.53978
 Alpha virt. eigenvalues --    2.62982   2.66525   2.69120   2.70170   2.72206
 Alpha virt. eigenvalues --    2.73189   2.76492   2.79181   2.84509   2.88322
 Alpha virt. eigenvalues --    2.90868   2.91669   2.93530   2.93774   2.96540
 Alpha virt. eigenvalues --    3.00622   3.00946   3.01059   3.04095   3.04308
 Alpha virt. eigenvalues --    3.07190   3.07621   3.11236   3.11716   3.14684
 Alpha virt. eigenvalues --    3.16571   3.20244   3.20647   3.20849   3.21300
 Alpha virt. eigenvalues --    3.23949   3.24634   3.31690   3.35539   3.38796
 Alpha virt. eigenvalues --    3.40274   3.41988   3.44162   3.45411   3.47682
 Alpha virt. eigenvalues --    3.48330   3.53361   3.53926   3.54020   3.54374
 Alpha virt. eigenvalues --    3.60036   3.61195   3.64213   3.66028   3.66732
 Alpha virt. eigenvalues --    3.70841   3.71629   3.79414   3.81293   3.85186
 Alpha virt. eigenvalues --    3.86612   3.86707   3.93052   3.93324   3.96627
 Alpha virt. eigenvalues --    3.96645   4.00379   4.00959   4.03738   4.04511
 Alpha virt. eigenvalues --    4.08146   4.11342   4.13183   4.13650   4.13795
 Alpha virt. eigenvalues --    4.14100   4.20292   4.21780   4.25712   4.26300
 Alpha virt. eigenvalues --    4.28067   4.33199   4.33812   4.35456   4.40793
 Alpha virt. eigenvalues --    4.43427   4.45510   4.51994   4.58886   4.60147
 Alpha virt. eigenvalues --    4.60343   4.65441   4.65988   4.68061   4.87787
 Alpha virt. eigenvalues --    4.88957   4.90468   4.92655   4.97850   5.03120
 Alpha virt. eigenvalues --    5.04956   5.05068   5.12744   5.13433   5.26036
 Alpha virt. eigenvalues --    5.26329   5.27551   5.27617   5.31028   5.34166
 Alpha virt. eigenvalues --    5.35472   5.41163   5.43544   5.44541   5.45369
 Alpha virt. eigenvalues --    5.46833   5.48283   5.53118   5.59873   5.73158
 Alpha virt. eigenvalues --    5.97121   5.97886   6.00421   6.02282   6.04579
 Alpha virt. eigenvalues --    6.12666   6.34533   9.80558  13.85462  14.12435
 Alpha virt. eigenvalues --   14.44565
  Beta  occ. eigenvalues --  -10.62398 -10.60680 -10.60679 -10.59414  -0.92543
  Beta  occ. eigenvalues --   -0.79730  -0.78353  -0.60480  -0.52319  -0.51477
  Beta  occ. eigenvalues --   -0.50028  -0.45051  -0.43461  -0.42910  -0.39736
  Beta  occ. eigenvalues --   -0.29042
  Beta virt. eigenvalues --    0.07716   0.07756   0.12014   0.12428   0.14316
  Beta virt. eigenvalues --    0.15254   0.16090   0.19117   0.20605   0.20975
  Beta virt. eigenvalues --    0.27390   0.27557   0.29977   0.31672   0.33210
  Beta virt. eigenvalues --    0.38557   0.40002   0.42586   0.42776   0.43493
  Beta virt. eigenvalues --    0.49670   0.50074   0.51179   0.52815   0.53296
  Beta virt. eigenvalues --    0.53628   0.53723   0.54777   0.56004   0.59380
  Beta virt. eigenvalues --    0.62398   0.64379   0.64985   0.65585   0.71662
  Beta virt. eigenvalues --    0.74489   0.75040   0.81862   0.84582   0.86457
  Beta virt. eigenvalues --    0.90153   0.91076   0.95683   1.00706   1.01323
  Beta virt. eigenvalues --    1.01761   1.02040   1.05180   1.06229   1.09164
  Beta virt. eigenvalues --    1.09191   1.12239   1.14403   1.16826   1.19189
  Beta virt. eigenvalues --    1.25481   1.26398   1.29522   1.29557   1.30028
  Beta virt. eigenvalues --    1.30481   1.33607   1.34911   1.38420   1.40236
  Beta virt. eigenvalues --    1.40343   1.42410   1.43862   1.46124   1.51543
  Beta virt. eigenvalues --    1.52516   1.56930   1.58447   1.60066   1.62050
  Beta virt. eigenvalues --    1.62744   1.71211   1.81386   1.81911   1.94635
  Beta virt. eigenvalues --    2.15636   2.26538   2.26881   2.33232   2.36683
  Beta virt. eigenvalues --    2.40329   2.43707   2.46423   2.48148   2.53978
  Beta virt. eigenvalues --    2.62982   2.66525   2.69120   2.70170   2.72206
  Beta virt. eigenvalues --    2.73189   2.76492   2.79181   2.84509   2.88322
  Beta virt. eigenvalues --    2.90868   2.91669   2.93530   2.93774   2.96540
  Beta virt. eigenvalues --    3.00622   3.00946   3.01059   3.04095   3.04308
  Beta virt. eigenvalues --    3.07190   3.07621   3.11236   3.11716   3.14684
  Beta virt. eigenvalues --    3.16571   3.20244   3.20647   3.20849   3.21300
  Beta virt. eigenvalues --    3.23949   3.24634   3.31690   3.35539   3.38796
  Beta virt. eigenvalues --    3.40274   3.41988   3.44162   3.45411   3.47682
  Beta virt. eigenvalues --    3.48330   3.53361   3.53926   3.54020   3.54374
  Beta virt. eigenvalues --    3.60036   3.61195   3.64213   3.66028   3.66732
  Beta virt. eigenvalues --    3.70841   3.71629   3.79414   3.81293   3.85186
  Beta virt. eigenvalues --    3.86612   3.86707   3.93052   3.93324   3.96627
  Beta virt. eigenvalues --    3.96645   4.00379   4.00959   4.03738   4.04511
  Beta virt. eigenvalues --    4.08146   4.11342   4.13183   4.13650   4.13795
  Beta virt. eigenvalues --    4.14100   4.20292   4.21780   4.25712   4.26300
  Beta virt. eigenvalues --    4.28067   4.33199   4.33812   4.35456   4.40793
  Beta virt. eigenvalues --    4.43427   4.45510   4.51994   4.58886   4.60147
  Beta virt. eigenvalues --    4.60343   4.65441   4.65988   4.68061   4.87787
  Beta virt. eigenvalues --    4.88957   4.90468   4.92655   4.97850   5.03120
  Beta virt. eigenvalues --    5.04956   5.05068   5.12744   5.13433   5.26036
  Beta virt. eigenvalues --    5.26329   5.27551   5.27617   5.31028   5.34166
  Beta virt. eigenvalues --    5.35472   5.41163   5.43544   5.44541   5.45369
  Beta virt. eigenvalues --    5.46833   5.48283   5.53118   5.59873   5.73158
  Beta virt. eigenvalues --    5.97121   5.97886   6.00421   6.02282   6.04579
  Beta virt. eigenvalues --    6.12666   6.34533   9.80558  13.85462  14.12435
  Beta virt. eigenvalues --   14.44565
          Condensed to atoms (all electrons):
               1          2          3          4          5          6
     1  C    5.010134   0.639817   0.412048   0.412048  -0.052732  -0.052732
     2  C    0.639817   4.873195  -0.048561  -0.048561   0.362491   0.362491
     3  H    0.412048  -0.048561   0.557431  -0.037173   0.007536  -0.009544
     4  H    0.412048  -0.048561  -0.037173   0.557431  -0.009544   0.007536
     5  C   -0.052732   0.362491   0.007536  -0.009544   4.806389  -0.062337
     6  C   -0.052732   0.362491  -0.009544   0.007536  -0.062337   4.806389
     7  H    0.000235  -0.042387  -0.000375   0.000245   0.405288  -0.002627
     8  H   -0.006573  -0.037602   0.000009   0.003179   0.412282   0.006135
     9  H    0.000238  -0.042391  -0.000375   0.000245   0.405286  -0.002623
    10  H    0.000235  -0.042387   0.000245  -0.000375  -0.002627   0.405288
    11  H   -0.006573  -0.037602   0.003179   0.000009   0.006135   0.412282
    12  H    0.000238  -0.042391   0.000245  -0.000375  -0.002623   0.405286
               7          8          9         10         11         12
     1  C    0.000235  -0.006573   0.000238   0.000235  -0.006573   0.000238
     2  C   -0.042387  -0.037602  -0.042391  -0.042387  -0.037602  -0.042391
     3  H   -0.000375   0.000009  -0.000375   0.000245   0.003179   0.000245
     4  H    0.000245   0.003179   0.000245  -0.000375   0.000009  -0.000375
     5  C    0.405288   0.412282   0.405286  -0.002627   0.006135  -0.002623
     6  C   -0.002627   0.006135  -0.002623   0.405288   0.412282   0.405286
     7  H    0.612003  -0.027176  -0.041652  -0.001570  -0.000105   0.004104
     8  H   -0.027176   0.579091  -0.027178  -0.000105  -0.000385  -0.000104
     9  H   -0.041652  -0.027178   0.612014   0.004104  -0.000104  -0.001573
    10  H   -0.001570  -0.000105   0.004104   0.612003  -0.027176  -0.041652
    11  H   -0.000105  -0.000385  -0.000104  -0.027176   0.579091  -0.027178
    12  H    0.004104  -0.000104  -0.001573  -0.041652  -0.027178   0.612014
          Atomic-Atomic Spin Densities.
               1          2          3          4          5          6
     1  C   -0.000000   0.000000  -0.000000  -0.000000   0.000000   0.000000
     2  C    0.000000   0.000000   0.000000   0.000000   0.000000   0.000000
     3  H   -0.000000   0.000000   0.000000   0.000000  -0.000000   0.000000
     4  H   -0.000000   0.000000   0.000000   0.000000   0.000000  -0.000000
     5  C    0.000000   0.000000  -0.000000   0.000000  -0.000000   0.000000
     6  C    0.000000   0.000000   0.000000  -0.000000   0.000000  -0.000000
     7  H   -0.000000  -0.000000   0.000000  -0.000000   0.000000  -0.000000
     8  H   -0.000000   0.000000  -0.000000   0.000000  -0.000000   0.000000
     9  H   -0.000000   0.000000  -0.000000  -0.000000   0.000000  -0.000000
    10  H   -0.000000  -0.000000  -0.000000   0.000000  -0.000000   0.000000
    11  H   -0.000000   0.000000   0.000000  -0.000000   0.000000  -0.000000
    12  H   -0.000000   0.000000  -0.000000  -0.000000  -0.000000   0.000000
               7          8          9         10         11         12
     1  C   -0.000000  -0.000000  -0.000000  -0.000000  -0.000000  -0.000000
     2  C   -0.000000   0.000000   0.000000  -0.000000   0.000000   0.000000
     3  H    0.000000  -0.000000  -0.000000  -0.000000   0.000000  -0.000000
     4  H   -0.000000   0.000000  -0.000000   0.000000  -0.000000  -0.000000
     5  C    0.000000  -0.000000   0.000000  -0.000000   0.000000  -0.000000
     6  C   -0.000000   0.000000  -0.000000   0.000000  -0.000000   0.000000
     7  H    0.000000  -0.000000  -0.000000  -0.000000  -0.000000   0.000000
     8  H   -0.000000   0.000000   0.000000  -0.000000   0.000000  -0.000000
     9  H   -0.000000   0.000000   0.000000   0.000000  -0.000000  -0.000000
    10  H   -0.000000  -0.000000   0.000000   0.000000  -0.000000  -0.000000
    11  H   -0.000000   0.000000  -0.000000  -0.000000   0.000000   0.000000
    12  H    0.000000  -0.000000  -0.000000  -0.000000   0.000000   0.000000
 Mulliken charges and spin densities:
               1          2
     1  C   -0.356384  -0.000000
     2  C    0.103887   0.000000
     3  H    0.115335   0.000000
     4  H    0.115335   0.000000
     5  C   -0.275543  -0.000000
     6  C   -0.275543  -0.000000
     7  H    0.094018   0.000000
     8  H    0.098429  -0.000000
     9  H    0.094010   0.000000
    10  H    0.094018   0.000000
    11  H    0.098429  -0.000000
    12  H    0.094010   0.000000
 Sum of Mulliken charges =  -0.00000  -0.00000
 Mulliken charges and spin densities with hydrogens summed into heavy atoms:
               1          2
     1  C   -0.125715  -0.000000
     2  C    0.103887   0.000000
     5  C    0.010914   0.000000
     6  C    0.010914   0.000000
 Electronic spatial extent (au):  <R**2>=            324.1039
 Charge=             -0.0000 electrons
 Dipole moment (field-independent basis, Debye):
    X=             -0.0000    Y=             -0.0000    Z=             -0.5523  Tot=              0.5523
 Quadrupole moment (field-independent basis, Debye-Ang):
   XX=            -28.3444   YY=            -25.9654   ZZ=            -26.4712
   XY=              0.0001   XZ=              0.0000   YZ=             -0.0000
 Traceless Quadrupole moment (field-independent basis, Debye-Ang):
   XX=             -1.4174   YY=              0.9616   ZZ=              0.4558
   XY=              0.0001   XZ=              0.0000   YZ=             -0.0000
 Octapole moment (field-independent basis, Debye-Ang**2):
  XXX=             -0.0000  YYY=              0.0000  ZZZ=              0.7404  XYY=             -0.0000
  XXY=              0.0000  XXZ=             -3.6687  XZZ=             -0.0000  YZZ=             -0.0000
  YYZ=              2.2763  XYZ=              0.0004
 Hexadecapole moment (field-independent basis, Debye-Ang**3):
 XXXX=            -46.0146 YYYY=           -212.0592 ZZZZ=           -196.2485 XXXY=             -0.0012
 XXXZ=              0.0000 YYYX=              0.0013 YYYZ=             -0.0000 ZZZX=              0.0000
 ZZZY=             -0.0000 XXYY=            -44.3586 XXZZ=            -41.2072 YYZZ=            -66.2755
 XXYZ=              0.0000 YYXZ=              0.0000 ZZXY=              0.0006
 N-N= 1.198648595074D+02 E-N=-6.030026858108D+02  KE= 1.561298384203D+02
 Symmetry A    KE= 1.108627359972D+02
 Symmetry B    KE= 4.526710242308D+01
 Symmetry A    SP=-1.478823975680D-14
 Symmetry B    SP=-9.520568919308D-15
                          Isotropic Fermi Contact Couplings
        Atom                 a.u.       MegaHertz       Gauss      10(-4) cm-1
     1  C(13)             -0.00000      -0.00000      -0.00000      -0.00000
     2  C(13)             -0.00000      -0.00000      -0.00000      -0.00000
     3  H(1)              -0.00000      -0.00000      -0.00000      -0.00000
     4  H(1)              -0.00000      -0.00000      -0.00000      -0.00000
     5  C(13)              0.00000       0.00000       0.00000       0.00000
     6  C(13)              0.00000       0.00000       0.00000       0.00000
     7  H(1)              -0.00000      -0.00000      -0.00000      -0.00000
     8  H(1)              -0.00000      -0.00000      -0.00000      -0.00000
     9  H(1)              -0.00000      -0.00000      -0.00000      -0.00000
    10  H(1)              -0.00000      -0.00000      -0.00000      -0.00000
    11  H(1)              -0.00000      -0.00000      -0.00000      -0.00000
    12  H(1)              -0.00000      -0.00000      -0.00000      -0.00000
 --------------------------------------------------------
       Center         ----  Spin Dipole Couplings  ----
                      3XX-RR        3YY-RR        3ZZ-RR
 --------------------------------------------------------
     1   Atom        0.000000      0.000000      0.000000
     2   Atom        0.000000      0.000000      0.000000
     3   Atom        0.000000      0.000000      0.000000
     4   Atom        0.000000      0.000000      0.000000
     5   Atom        0.000000      0.000000      0.000000
     6   Atom        0.000000      0.000000      0.000000
     7   Atom        0.000000      0.000000      0.000000
     8   Atom        0.000000      0.000000      0.000000
     9   Atom        0.000000      0.000000      0.000000
    10   Atom        0.000000      0.000000      0.000000
    11   Atom        0.000000      0.000000      0.000000
    12   Atom        0.000000      0.000000      0.000000
 --------------------------------------------------------
                        XY            XZ            YZ
 --------------------------------------------------------
     1   Atom        0.000000      0.000000      0.000000
     2   Atom        0.000000      0.000000      0.000000
     3   Atom        0.000000      0.000000      0.000000
     4   Atom        0.000000      0.000000      0.000000
     5   Atom        0.000000      0.000000      0.000000
     6   Atom        0.000000      0.000000      0.000000
     7   Atom        0.000000      0.000000      0.000000
     8   Atom        0.000000      0.000000      0.000000
     9   Atom        0.000000      0.000000      0.000000
    10   Atom        0.000000      0.000000      0.000000
    11   Atom        0.000000      0.000000      0.000000
    12   Atom        0.000000      0.000000      0.000000
 --------------------------------------------------------


 ---------------------------------------------------------------------------------
              Anisotropic Spin Dipole Couplings in Principal Axis System
 ---------------------------------------------------------------------------------

       Atom             a.u.   MegaHertz   Gauss  10(-4) cm-1        Axes

              Baa     0.0000     0.000     0.000     0.000  1.0000  0.0000  0.0000
     1 C(13)  Bbb     0.0000     0.000     0.000     0.000 -0.0000  1.0000  0.0000
              Bcc     0.0000     0.000     0.000     0.000  0.0000  0.0000  1.0000
 
              Baa     0.0000     0.000     0.000     0.000  1.0000  0.0000  0.0000
     2 C(13)  Bbb     0.0000     0.000     0.000     0.000 -0.0000  1.0000  0.0000
              Bcc     0.0000     0.000     0.000     0.000  0.0000  0.0000  1.0000
 
              Baa     0.0000     0.000     0.000     0.000  1.0000  0.0000  0.0000
     3 H(1)   Bbb     0.0000     0.000     0.000     0.000 -0.0000  1.0000  0.0000
              Bcc     0.0000     0.000     0.000     0.000  0.0000  0.0000  1.0000
 
              Baa     0.0000     0.000     0.000     0.000  1.0000  0.0000  0.0000
     4 H(1)   Bbb     0.0000     0.000     0.000     0.000 -0.0000  1.0000  0.0000
              Bcc     0.0000     0.000     0.000     0.000  0.0000  0.0000  1.0000
 
              Baa     0.0000     0.000     0.000     0.000  1.0000  0.0000  0.0000
     5 C(13)  Bbb     0.0000     0.000     0.000     0.000 -0.0000  1.0000  0.0000
              Bcc     0.0000     0.000     0.000     0.000  0.0000  0.0000  1.0000
 
              Baa     0.0000     0.000     0.000     0.000  1.0000  0.0000  0.0000
     6 C(13)  Bbb     0.0000     0.000     0.000     0.000 -0.0000  1.0000  0.0000
              Bcc     0.0000     0.000     0.000     0.000  0.0000  0.0000  1.0000
 
              Baa     0.0000     0.000     0.000     0.000  1.0000  0.0000  0.0000
     7 H(1)   Bbb     0.0000     0.000     0.000     0.000 -0.0000  1.0000  0.0000
              Bcc     0.0000     0.000     0.000     0.000  0.0000  0.0000  1.0000
 
              Baa     0.0000     0.000     0.000     0.000  1.0000  0.0000  0.0000
     8 H(1)   Bbb     0.0000     0.000     0.000     0.000 -0.0000  1.0000  0.0000
              Bcc     0.0000     0.000     0.000     0.000  0.0000  0.0000  1.0000
 
              Baa     0.0000     0.000     0.000     0.000  1.0000  0.0000  0.0000
     9 H(1)   Bbb     0.0000     0.000     0.000     0.000 -0.0000  1.0000  0.0000
              Bcc     0.0000     0.000     0.000     0.000  0.0000  0.0000  1.0000
 
              Baa     0.0000     0.000     0.000     0.000  1.0000  0.0000  0.0000
    10 H(1)   Bbb     0.0000     0.000     0.000     0.000 -0.0000  1.0000  0.0000
              Bcc     0.0000     0.000     0.000     0.000  0.0000  0.0000  1.0000
 
              Baa     0.0000     0.000     0.000     0.000  1.0000  0.0000  0.0000
    11 H(1)   Bbb     0.0000     0.000     0.000     0.000 -0.0000  1.0000  0.0000
              Bcc     0.0000     0.000     0.000     0.000  0.0000  0.0000  1.0000
 
              Baa     0.0000     0.000     0.000     0.000  1.0000  0.0000  0.0000
    12 H(1)   Bbb     0.0000     0.000     0.000     0.000 -0.0000  1.0000  0.0000
              Bcc     0.0000     0.000     0.000     0.000  0.0000  0.0000  1.0000
 

 ---------------------------------------------------------------------------------

 Calling FoFJK, ICntrl=  10002127 FMM=F ISym2X=1 I1Cent= 0 IOpClX= 1 NMat=1 NMatS=1 NMatT=0.
 ***** Axes restored to original set *****
 -------------------------------------------------------------------
 Center     Atomic                   Forces (Hartrees/Bohr)
 Number     Number              X              Y              Z
 -------------------------------------------------------------------
      1        6           0.000000000    0.003586016    0.000000000
      2        6          -0.000000000   -0.002662732   -0.000000000
      3        1           0.002017104   -0.001226248    0.000000711
      4        1          -0.002017104   -0.001226248   -0.000000711
      5        6          -0.000265372    0.000244442   -0.000001593
      6        6           0.000265372    0.000244442    0.000001593
      7        1           0.000305723    0.000832949    0.001538854
      8        1          -0.001377629   -0.001146157   -0.000000844
      9        1           0.000305857    0.000833372   -0.001536312
     10        1          -0.000305723    0.000832949   -0.001538854
     11        1           0.001377629   -0.001146157    0.000000844
     12        1          -0.000305857    0.000833372    0.001536312
 -------------------------------------------------------------------
 Cartesian Forces:  Max     0.003586016 RMS     0.001183042

 GradGradGradGradGradGradGradGradGradGradGradGradGradGradGradGradGradGrad
 Berny optimization.
 FormGI is forming the generalized inverse of G from B-inverse, IUseBI=4.
 Internal  Forces:  Max     0.002360587 RMS     0.000898706
 Search for a local minimum.
 Step number   1 out of a maximum of  100
 All quantities printed in internal units (Hartrees-Bohrs-Radians)
 Mixed Optimization -- En-DIIS/RFO-DIIS
 Second derivative matrix not updated -- first step.
 ITU=  0
     Eigenvalues ---    0.00715   0.00715   0.01346   0.03003   0.03003
     Eigenvalues ---    0.07101   0.07101   0.07349   0.07349   0.16000
     Eigenvalues ---    0.16000   0.16000   0.16000   0.16000   0.16000
     Eigenvalues ---    0.16000   0.16000   0.25000   0.25000   0.31976
     Eigenvalues ---    0.31976   0.34305   0.34305   0.34305   0.34305
     Eigenvalues ---    0.34789   0.34789   0.35467   0.35467   0.59295
 RFO step:  Lambda=-1.10676058D-04 EMin= 7.14903764D-03
 Linear search not attempted -- first point.
 Iteration  1 RMS(Cart)=  0.00360050 RMS(Int)=  0.00000813
 Iteration  2 RMS(Cart)=  0.00001031 RMS(Int)=  0.00000201
 Iteration  3 RMS(Cart)=  0.00000000 RMS(Int)=  0.00000201
 ClnCor:  largest displacement from symmetrization is 1.43D-12 for atom     4.
 Variable       Old X    -DE/DX   Delta X   Delta X   Delta X     New X
                                 (Linear)    (Quad)   (Total)
    R1        2.51503   0.00113   0.00000   0.00191   0.00191   2.51694
    R2        2.04923  -0.00236   0.00000  -0.00665  -0.00665   2.04258
    R3        2.04923  -0.00236   0.00000  -0.00665  -0.00665   2.04258
    R4        2.84188  -0.00128   0.00000  -0.00400  -0.00400   2.83788
    R5        2.84188  -0.00128   0.00000  -0.00400  -0.00400   2.83788
    R6        2.06819  -0.00172   0.00000  -0.00501  -0.00501   2.06318
    R7        2.06018  -0.00179   0.00000  -0.00514  -0.00514   2.05504
    R8        2.06818  -0.00172   0.00000  -0.00501  -0.00501   2.06318
    R9        2.06819  -0.00172   0.00000  -0.00501  -0.00501   2.06318
   R10        2.06018  -0.00179   0.00000  -0.00514  -0.00514   2.05504
   R11        2.06818  -0.00172   0.00000  -0.00501  -0.00501   2.06318
    A1        2.11914   0.00000   0.00000   0.00002   0.00002   2.11916
    A2        2.11914   0.00000   0.00000   0.00002   0.00002   2.11916
    A3        2.04490  -0.00001   0.00000  -0.00004  -0.00004   2.04486
    A4        2.13453  -0.00030   0.00000  -0.00121  -0.00121   2.13332
    A5        2.13453  -0.00030   0.00000  -0.00121  -0.00121   2.13332
    A6        2.01413   0.00060   0.00000   0.00242   0.00242   2.01655
    A7        1.92800   0.00052   0.00000   0.00336   0.00335   1.93135
    A8        1.95042  -0.00005   0.00000  -0.00050  -0.00050   1.94991
    A9        1.92803   0.00052   0.00000   0.00334   0.00334   1.93137
   A10        1.89490  -0.00028   0.00000  -0.00191  -0.00191   1.89298
   A11        1.86512  -0.00047   0.00000  -0.00263  -0.00263   1.86248
   A12        1.89490  -0.00028   0.00000  -0.00191  -0.00191   1.89299
   A13        1.92800   0.00052   0.00000   0.00336   0.00335   1.93135
   A14        1.95042  -0.00005   0.00000  -0.00050  -0.00050   1.94991
   A15        1.92803   0.00052   0.00000   0.00334   0.00334   1.93137
   A16        1.89490  -0.00028   0.00000  -0.00191  -0.00191   1.89298
   A17        1.86512  -0.00047   0.00000  -0.00263  -0.00263   1.86248
   A18        1.89490  -0.00028   0.00000  -0.00191  -0.00191   1.89299
    D1        3.14156   0.00000   0.00000   0.00001   0.00001   3.14157
    D2       -0.00004   0.00000   0.00000   0.00001   0.00001  -0.00002
    D3       -0.00004   0.00000   0.00000   0.00001   0.00001  -0.00002
    D4        3.14156   0.00000   0.00000   0.00001   0.00001   3.14157
    D5       -2.11146   0.00003   0.00000   0.00041   0.00041  -2.11105
    D6        0.00019  -0.00000   0.00000  -0.00005  -0.00005   0.00014
    D7        2.11187  -0.00003   0.00000  -0.00051  -0.00052   2.11135
    D8        1.03014   0.00003   0.00000   0.00041   0.00041   1.03055
    D9       -3.14140  -0.00000   0.00000  -0.00005  -0.00005  -3.14145
   D10       -1.02972  -0.00003   0.00000  -0.00051  -0.00052  -1.03024
   D11       -2.11146   0.00003   0.00000   0.00041   0.00041  -2.11105
   D12        0.00019  -0.00000   0.00000  -0.00005  -0.00005   0.00014
   D13        2.11187  -0.00003   0.00000  -0.00051  -0.00052   2.11135
   D14        1.03014   0.00003   0.00000   0.00041   0.00041   1.03055
   D15       -3.14140  -0.00000   0.00000  -0.00005  -0.00005  -3.14145
   D16       -1.02972  -0.00003   0.00000  -0.00051  -0.00052  -1.03024
         Item               Value     Threshold  Converged?
 Maximum Force            0.002361     0.000450     NO 
 RMS     Force            0.000899     0.000300     NO 
 Maximum Displacement     0.007777     0.001800     NO 
 RMS     Displacement     0.003598     0.001200     NO 
 Predicted change in Energy=-5.535953D-05
 GradGradGradGradGradGradGradGradGradGradGradGradGradGradGradGradGradGrad

                          Input orientation:                          
 ---------------------------------------------------------------------
 Center     Atomic      Atomic             Coordinates (Angstroms)
 Number     Number       Type             X           Y           Z
 ---------------------------------------------------------------------
      1          6           0        0.000000    1.455258    0.000000
      2          6           0        0.000000    0.123352    0.000000
      3          1           0       -0.922404    2.018717   -0.000108
      4          1           0        0.922404    2.018717    0.000108
      5          6           0        1.270340   -0.677560    0.000118
      6          6           0       -1.270340   -0.677560   -0.000118
      7          1           0        1.316012   -1.327472   -0.875968
      8          1           0        2.149598   -0.037618    0.000345
      9          1           0        1.315722   -1.327703    0.876047
     10          1           0       -1.316012   -1.327472    0.875968
     11          1           0       -2.149598   -0.037618   -0.000345
     12          1           0       -1.315722   -1.327703   -0.876047
 ---------------------------------------------------------------------
                    Distance matrix (angstroms):
                    1          2          3          4          5
     1  C    0.000000
     2  C    1.331905   0.000000
     3  H    1.080887   2.107899   0.000000
     4  H    1.080887   2.107899   1.844808   0.000000
     5  C    2.482474   1.501741   3.475347   2.718634   0.000000
     6  C    2.482474   1.501741   2.718634   3.475347   2.540680
     7  H    3.200437   2.145717   4.120027   3.481296   1.091787
     8  H    2.617145   2.155616   3.696716   2.394685   1.087483
     9  H    3.200539   2.145727   4.120119   3.481450   1.091786
    10  H    3.200437   2.145717   3.481296   4.120027   2.806906
    11  H    2.617145   2.155616   2.394685   3.696716   3.479296
    12  H    3.200539   2.145727   3.481450   4.120119   2.806789
                    6          7          8          9         10
     6  C    0.000000
     7  H    2.806906   0.000000
     8  H    3.479296   1.768195   0.000000
     9  H    2.806789   1.752015   1.768197   0.000000
    10  H    1.091787   3.161777   3.800117   2.631734   0.000000
    11  H    1.087483   3.800117   4.299195   3.800108   1.768195
    12  H    1.091786   2.631734   3.800108   3.161380   1.752015
                   11         12
    11  H    0.000000
    12  H    1.768197   0.000000
 Stoichiometry    C4H8
 Framework group  C2[C2(CC),X(C2H8)]
 Deg. of freedom    15
 Full point group                 C2      NOp   2
 Largest Abelian subgroup         C2      NOp   2
 Largest concise Abelian subgroup C2      NOp   2
                         Standard orientation:                         
 ---------------------------------------------------------------------
 Center     Atomic      Atomic             Coordinates (Angstroms)
 Number     Number       Type             X           Y           Z
 ---------------------------------------------------------------------
      1          6           0       -0.000000    0.000000    1.455483
      2          6           0       -0.000000    0.000000    0.123578
      3          1           0        0.000022    0.922404    2.018942
      4          1           0       -0.000022   -0.922404    2.018942
      5          6           0        0.000000   -1.270340   -0.677335
      6          6           0        0.000000    1.270340   -0.677335
      7          1           0        0.876090   -1.315931   -1.327247
      8          1           0       -0.000145   -2.149598   -0.037393
      9          1           0       -0.875924   -1.315803   -1.327478
     10          1           0       -0.876090    1.315931   -1.327247
     11          1           0        0.000145    2.149598   -0.037393
     12          1           0        0.875924    1.315803   -1.327478
 ---------------------------------------------------------------------
 Rotational constants (GHZ):           9.1889554           8.4464981           4.6516829
 Standard basis: CC-pVTZ (5D, 7F)
 There are   133 symmetry adapted cartesian basis functions of A   symmetry.
 There are   127 symmetry adapted cartesian basis functions of B   symmetry.
 There are   118 symmetry adapted basis functions of A   symmetry.
 There are   114 symmetry adapted basis functions of B   symmetry.
   232 basis functions,   344 primitive gaussians,   260 cartesian basis functions
    16 alpha electrons       16 beta electrons
       nuclear repulsion energy       120.0066904987 Hartrees.
 NAtoms=   12 NActive=   12 NUniq=    7 SFac= 2.94D+00 NAtFMM=   60 NAOKFM=F Big=F
 Integral buffers will be    131072 words long.
 Raffenetti 2 integral format.
 Two-electron integral symmetry is turned on.
 Nuclear repulsion after empirical dispersion term =      120.0008006019 Hartrees.
 One-electron integrals computed using PRISM.
 NBasis=   232 RedAO= T EigKep=  3.76D-04  NBF=   118   114
 NBsUse=   232 1.00D-06 EigRej= -1.00D+00 NBFU=   118   114
 Initial guess from the checkpoint file:  "/localscratch/339542/Gau-54000.chk"
 B after Tr=    -0.000000   -0.000000   -0.000000
         Rot=    1.000000    0.000000   -0.000000   -0.000002 Ang=  -0.00 deg.
 Initial guess orbital symmetries:
 Alpha Orbitals:
       Occupied  (A) (B) (A) (A) (A) (B) (A) (A) (B) (A) (B) (A)
                 (B) (A) (B) (B)
       Virtual   (B) (A) (B) (A) (B) (B) (A) (A) (A) (B) (A) (B)
                 (A) (B) (A) (B) (A) (B) (B) (A) (B) (A) (B) (A)
                 (A) (B) (A) (B) (B) (A) (B) (A) (A) (B) (A) (A)
                 (A) (B) (B) (A) (B) (B) (A) (B) (A) (B) (A) (B)
                 (B) (A) (A) (A) (B) (B) (B) (A) (B) (B) (A) (B)
                 (A) (A) (B) (A) (A) (B) (B) (A) (A) (B) (A) (B)
                 (A) (B) (A) (B) (A) (A) (A) (B) (B) (A) (A) (A)
                 (B) (B) (B) (B) (A) (A) (B) (A) (A) (B) (B) (B)
                 (B) (B) (A) (A) (B) (B) (A) (B) (A) (B) (B) (A)
                 (B) (A) (A) (B) (A) (A) (A) (B) (A) (B) (A) (A)
                 (B) (B) (A) (B) (A) (B) (B) (A) (A) (B) (A) (A)
                 (B) (B) (A) (B) (A) (A) (B) (B) (A) (A) (A) (B)
                 (B) (B) (A) (B) (A) (A) (B) (B) (A) (B) (A) (B)
                 (A) (B) (B) (A) (A) (A) (B) (B) (A) (B) (B) (A)
                 (A) (B) (A) (B) (A) (B) (A) (B) (A) (B) (A) (B)
                 (B) (A) (A) (A) (B) (B) (B) (A) (A) (B) (B) (A)
                 (A) (B) (A) (A) (B) (B) (B) (A) (A) (A) (A) (B)
                 (B) (B) (A) (B) (A) (A) (B) (B) (A) (A) (B) (A)
 Beta  Orbitals:
       Occupied  (A) (B) (A) (A) (A) (B) (A) (A) (B) (A) (B) (A)
                 (B) (A) (B) (B)
       Virtual   (B) (A) (B) (A) (B) (B) (A) (A) (A) (B) (A) (B)
                 (A) (B) (A) (B) (A) (B) (B) (A) (B) (A) (B) (A)
                 (A) (B) (A) (B) (B) (A) (B) (A) (A) (B) (A) (A)
                 (A) (B) (B) (A) (B) (B) (A) (B) (A) (B) (A) (B)
                 (B) (A) (A) (A) (B) (B) (B) (A) (B) (B) (A) (B)
                 (A) (A) (B) (A) (A) (B) (B) (A) (A) (B) (A) (B)
                 (A) (B) (A) (B) (A) (A) (A) (B) (B) (A) (A) (A)
                 (B) (B) (B) (B) (A) (A) (B) (A) (A) (B) (B) (B)
                 (B) (B) (A) (A) (B) (B) (A) (B) (A) (B) (B) (A)
                 (B) (A) (A) (B) (A) (A) (A) (B) (A) (B) (A) (A)
                 (B) (B) (A) (B) (A) (B) (B) (A) (A) (B) (A) (A)
                 (B) (B) (A) (B) (A) (A) (B) (B) (A) (A) (A) (B)
                 (B) (B) (A) (B) (A) (A) (B) (B) (A) (B) (A) (B)
                 (A) (B) (B) (A) (A) (A) (B) (B) (A) (B) (B) (A)
                 (A) (B) (A) (B) (A) (B) (A) (B) (A) (B) (A) (B)
                 (B) (A) (A) (A) (B) (B) (B) (A) (A) (B) (B) (A)
                 (A) (B) (A) (A) (B) (B) (B) (A) (A) (A) (A) (B)
                 (B) (B) (A) (B) (A) (A) (B) (B) (A) (A) (B) (A)
 Initial guess <Sx>= 0.0000 <Sy>= 0.0000 <Sz>= 0.0000 <S**2>=-0.0000 S=-0.0000
 Keep R1 and R2 ints in memory in symmetry-blocked form, NReq=547994801.
 Requested convergence on RMS density matrix=1.00D-08 within 128 cycles.
 Requested convergence on MAX density matrix=1.00D-06.
 Requested convergence on             energy=1.00D-06.
 No special actions if energy rises.
 SCF Done:  E(UB2PLYPD3) =  -156.907288776     A.U. after    7 cycles
            NFock=  7  Conv=0.63D-08     -V/T= 2.0047
 <Sx>= 0.0000 <Sy>= 0.0000 <Sz>= 0.0000 <S**2>=-0.0000 S=-0.0000
 <L.S>=  0.00000000000    
 Annihilation of the first spin contaminant:
 S**2 before annihilation    -0.0000,   after    -0.0000
 DoSCS=T DFT=T ScalE2(SS,OS)=  0.270000  0.270000
 ExpMin= 1.03D-01 ExpMax= 8.24D+03 ExpMxC= 2.81D+02 IAcc=3 IRadAn=         5 AccDes= 0.00D+00
 HarFok:  IExCor=  205 AccDes= 0.00D+00 IRadAn=         5 IDoV=-2 UseB2=F ITyADJ=14
 ICtDFT= 12500011 ScaDFX=  1.000000  1.000000  1.000000  1.000000
 Range of M.O.s used for correlation:     5   232
 NBasis=   232 NAE=    16 NBE=    16 NFC=     4 NFV=     0
 NROrb=    228 NOA=    12 NOB=    12 NVA=   216 NVB=   216

 **** Warning!!: The largest alpha MO coefficient is  0.17012836D+02


 **** Warning!!: The largest beta MO coefficient is  0.17012836D+02

 DoSCS=T DFT=T ScalE2(SS,OS)=  0.270000  0.270000
 Fully direct method using O(ONN) memory.
 JobTyp=2 Pass  1:  I=   5 to  16 NPSUse= 40 ParTrn=T ParDer=T DoDerP=T.
 JobTyp=3 Pass  1:  I=   5 to  16 NPSUse= 40 ParTrn=T ParDer=T DoDerP=T.
 Spin components of T(2) and E(2):
     alpha-alpha T2 =       0.4014865367D-01 E2=     -0.2512676614D-01
     alpha-beta  T2 =       0.2580696480D+00 E2=     -0.1737025378D+00
     beta-beta   T2 =       0.4014865367D-01 E2=     -0.2512676614D-01
 (S**2,0)=  0.00000D+00           (S**2,1)=  0.00000D+00
 E(PUHF)=      -0.15690728878D+03        E(PMP2)=      -0.15713124485D+03
 E2(B2PLYPD3) =    -0.2239560701D+00 E(B2PLYPD3) =    -0.15713124484619D+03
          IDoAtm=111111111111
          Differentiating once with respect to electric field.
                with respect to dipole field.
          Differentiating once with respect to nuclear coordinates.
 Keep R1 and R2 ints in memory in symmetry-blocked form, NReq=547996945.
          There are     1 degrees of freedom in the 1st order CPHF.  IDoFFX=0 NUNeed=     1.
 LinEq1:  Iter=  0 NonCon=     1 RMS=5.60D-04 Max=1.01D-02 NDo=     1
 AX will form     1 AO Fock derivatives at one time.
 LinEq1:  Iter=  1 NonCon=     1 RMS=2.30D-04 Max=3.98D-03 NDo=     1
 LinEq1:  Iter=  2 NonCon=     1 RMS=7.15D-05 Max=2.73D-03 NDo=     1
 LinEq1:  Iter=  3 NonCon=     1 RMS=3.80D-05 Max=8.40D-04 NDo=     1
 LinEq1:  Iter=  4 NonCon=     1 RMS=8.90D-06 Max=2.13D-04 NDo=     1
 LinEq1:  Iter=  5 NonCon=     1 RMS=3.23D-06 Max=4.18D-05 NDo=     1
 LinEq1:  Iter=  6 NonCon=     1 RMS=1.16D-06 Max=1.84D-05 NDo=     1
 LinEq1:  Iter=  7 NonCon=     1 RMS=2.43D-07 Max=3.22D-06 NDo=     1
 LinEq1:  Iter=  8 NonCon=     1 RMS=5.69D-08 Max=7.29D-07 NDo=     1
 LinEq1:  Iter=  9 NonCon=     1 RMS=8.33D-09 Max=1.64D-07 NDo=     1
 LinEq1:  Iter= 10 NonCon=     1 RMS=8.03D-10 Max=1.55D-08 NDo=     1
 LinEq1:  Iter= 11 NonCon=     1 RMS=9.78D-11 Max=1.42D-09 NDo=     1
 LinEq1:  Iter= 12 NonCon=     0 RMS=1.82D-11 Max=2.03D-10 NDo=     1
 Linear equations converged to 1.000D-10 1.000D-09 after    12 iterations.
 End of Minotr F.D. properties file   721 does not exist.
 End of Minotr F.D. properties file   722 does not exist.
 End of Minotr F.D. properties file   788 does not exist.
 Calling FoFJK, ICntrl=  10002127 FMM=F ISym2X=1 I1Cent= 0 IOpClX= 1 NMat=1 NMatS=1 NMatT=0.
 ***** Axes restored to original set *****
 -------------------------------------------------------------------
 Center     Atomic                   Forces (Hartrees/Bohr)
 Number     Number              X              Y              Z
 -------------------------------------------------------------------
      1        6           0.000000000    0.000342631    0.000000000
      2        6          -0.000000000   -0.000740915   -0.000000000
      3        1          -0.000058326   -0.000061538    0.000000232
      4        1           0.000058326   -0.000061538   -0.000000232
      5        6          -0.000262516    0.000394737   -0.000000236
      6        6           0.000262516    0.000394737    0.000000236
      7        1           0.000066579   -0.000064075   -0.000005118
      8        1           0.000083785   -0.000006379   -0.000000168
      9        1           0.000066624   -0.000063603    0.000005824
     10        1          -0.000066579   -0.000064075    0.000005118
     11        1          -0.000083785   -0.000006379    0.000000168
     12        1          -0.000066624   -0.000063603   -0.000005824
 -------------------------------------------------------------------
 Cartesian Forces:  Max     0.000740915 RMS     0.000180930

 GradGradGradGradGradGradGradGradGradGradGradGradGradGradGradGradGradGrad
 Berny optimization.
 Using GEDIIS/GDIIS optimizer.
 FormGI is forming the generalized inverse of G from B-inverse, IUseBI=4.
 Internal  Forces:  Max     0.000398398 RMS     0.000099988
 Search for a local minimum.
 Step number   2 out of a maximum of  100
 All quantities printed in internal units (Hartrees-Bohrs-Radians)
 Mixed Optimization -- En-DIIS/RFO-DIIS
 Swapping is turned off.
 Update second derivatives using D2CorX and points    1    2
 DE= -5.72D-05 DEPred=-5.54D-05 R= 1.03D+00
 TightC=F SS=  1.41D+00  RLast= 1.90D-02 DXNew= 5.0454D-01 5.7061D-02
 Trust test= 1.03D+00 RLast= 1.90D-02 DXMaxT set to 3.00D-01
 ITU=  1  0
     Eigenvalues ---    0.00715   0.00715   0.01344   0.03003   0.03003
     Eigenvalues ---    0.07090   0.07090   0.07314   0.07317   0.15292
     Eigenvalues ---    0.16000   0.16000   0.16000   0.16000   0.16000
     Eigenvalues ---    0.16000   0.16058   0.24089   0.25000   0.31361
     Eigenvalues ---    0.31976   0.34305   0.34305   0.34305   0.34546
     Eigenvalues ---    0.34789   0.35131   0.35467   0.37464   0.58963
 En-DIIS/RFO-DIIS/Sim-DIIS IScMMF=       -3 using points:     2    1
 RFO step:  Lambda=-1.91957945D-06.
 DidBck=F Rises=F RFO-DIIS coefs:    1.06860   -0.06860
 Iteration  1 RMS(Cart)=  0.00107961 RMS(Int)=  0.00000060
 Iteration  2 RMS(Cart)=  0.00000062 RMS(Int)=  0.00000019
 ClnCor:  largest displacement from symmetrization is 5.30D-12 for atom     4.
 Variable       Old X    -DE/DX   Delta X   Delta X   Delta X     New X
                                 (Linear)    (Quad)   (Total)
    R1        2.51694   0.00022   0.00013   0.00028   0.00041   2.51735
    R2        2.04258   0.00002  -0.00046   0.00040  -0.00006   2.04252
    R3        2.04258   0.00002  -0.00046   0.00040  -0.00006   2.04252
    R4        2.83788  -0.00018  -0.00027  -0.00036  -0.00064   2.83724
    R5        2.83788  -0.00018  -0.00027  -0.00036  -0.00064   2.83724
    R6        2.06318   0.00005  -0.00034   0.00040   0.00005   2.06323
    R7        2.05504   0.00006  -0.00035   0.00046   0.00011   2.05515
    R8        2.06318   0.00005  -0.00034   0.00040   0.00005   2.06323
    R9        2.06318   0.00005  -0.00034   0.00040   0.00005   2.06323
   R10        2.05504   0.00006  -0.00035   0.00046   0.00011   2.05515
   R11        2.06318   0.00005  -0.00034   0.00040   0.00005   2.06323
    A1        2.11916  -0.00006   0.00000  -0.00037  -0.00036   2.11880
    A2        2.11916  -0.00006   0.00000  -0.00037  -0.00036   2.11880
    A3        2.04486   0.00011  -0.00000   0.00073   0.00073   2.04559
    A4        2.13332  -0.00020  -0.00008  -0.00076  -0.00084   2.13248
    A5        2.13332  -0.00020  -0.00008  -0.00076  -0.00084   2.13248
    A6        2.01655   0.00040   0.00017   0.00152   0.00169   2.01823
    A7        1.93135   0.00008   0.00023   0.00036   0.00059   1.93194
    A8        1.94991   0.00004  -0.00003   0.00031   0.00028   1.95019
    A9        1.93137   0.00008   0.00023   0.00036   0.00058   1.93195
   A10        1.89298  -0.00007  -0.00013  -0.00031  -0.00044   1.89254
   A11        1.86248  -0.00009  -0.00018  -0.00046  -0.00064   1.86184
   A12        1.89299  -0.00007  -0.00013  -0.00031  -0.00044   1.89254
   A13        1.93135   0.00008   0.00023   0.00036   0.00059   1.93194
   A14        1.94991   0.00004  -0.00003   0.00031   0.00028   1.95019
   A15        1.93137   0.00008   0.00023   0.00036   0.00058   1.93195
   A16        1.89298  -0.00007  -0.00013  -0.00031  -0.00044   1.89254
   A17        1.86248  -0.00009  -0.00018  -0.00046  -0.00064   1.86184
   A18        1.89299  -0.00007  -0.00013  -0.00031  -0.00044   1.89254
    D1        3.14157   0.00000   0.00000   0.00001   0.00001   3.14158
    D2       -0.00002   0.00000   0.00000   0.00001   0.00001  -0.00002
    D3       -0.00002   0.00000   0.00000   0.00001   0.00001  -0.00002
    D4        3.14157   0.00000   0.00000   0.00001   0.00001   3.14158
    D5       -2.11105  -0.00000   0.00003  -0.00010  -0.00007  -2.11112
    D6        0.00014  -0.00000  -0.00000  -0.00004  -0.00004   0.00010
    D7        2.11135   0.00000  -0.00004   0.00002  -0.00001   2.11134
    D8        1.03055  -0.00000   0.00003  -0.00010  -0.00007   1.03047
    D9       -3.14145  -0.00000  -0.00000  -0.00004  -0.00004  -3.14149
   D10       -1.03024   0.00000  -0.00004   0.00002  -0.00001  -1.03026
   D11       -2.11105  -0.00000   0.00003  -0.00010  -0.00007  -2.11112
   D12        0.00014  -0.00000  -0.00000  -0.00004  -0.00004   0.00010
   D13        2.11135   0.00000  -0.00004   0.00002  -0.00001   2.11134
   D14        1.03055  -0.00000   0.00003  -0.00010  -0.00007   1.03047
   D15       -3.14145  -0.00000  -0.00000  -0.00004  -0.00004  -3.14149
   D16       -1.03024   0.00000  -0.00004   0.00002  -0.00001  -1.03026
         Item               Value     Threshold  Converged?
 Maximum Force            0.000398     0.000450     YES
 RMS     Force            0.000100     0.000300     YES
 Maximum Displacement     0.002847     0.001800     NO 
 RMS     Displacement     0.001080     0.001200     YES
 Predicted change in Energy=-9.597954D-07
 GradGradGradGradGradGradGradGradGradGradGradGradGradGradGradGradGradGrad

                          Input orientation:                          
 ---------------------------------------------------------------------
 Center     Atomic      Atomic             Coordinates (Angstroms)
 Number     Number       Type             X           Y           Z
 ---------------------------------------------------------------------
      1          6           0        0.000000    1.454631    0.000000
      2          6           0        0.000000    0.122507    0.000000
      3          1           0       -0.922584    2.017739   -0.000106
      4          1           0        0.922584    2.017739    0.000106
      5          6           0        1.270729   -0.677154    0.000125
      6          6           0       -1.270729   -0.677154   -0.000124
      7          1           0        1.317492   -1.327321   -0.875751
      8          1           0        2.149668   -0.036681    0.000315
      9          1           0        1.317228   -1.327485    0.875892
     10          1           0       -1.317492   -1.327321    0.875751
     11          1           0       -2.149668   -0.036681   -0.000315
     12          1           0       -1.317228   -1.327485   -0.875892
 ---------------------------------------------------------------------
                    Distance matrix (angstroms):
                    1          2          3          4          5
     1  C    0.000000
     2  C    1.332124   0.000000
     3  H    1.080857   2.107858   0.000000
     4  H    1.080857   2.107858   1.845167   0.000000
     5  C    2.481786   1.501403   3.474632   2.717288   0.000000
     6  C    2.481786   1.501403   2.717288   3.474632   2.541457
     7  H    3.200310   2.145863   4.119966   3.480302   1.091816
     8  H    2.616311   2.155554   3.695859   2.392985   1.087539
     9  H    3.200382   2.145869   4.120031   3.480412   1.091815
    10  H    3.200310   2.145863   3.480302   4.119966   2.808616
    11  H    2.616311   2.155554   2.392985   3.695859   3.479845
    12  H    3.200382   2.145869   3.480412   4.120031   2.808532
                    6          7          8          9         10
     6  C    0.000000
     7  H    2.808616   0.000000
     8  H    3.479845   1.767982   0.000000
     9  H    2.808532   1.751643   1.767984   0.000000
    10  H    1.091816   3.164001   3.801755   2.634720   0.000000
    11  H    1.087539   3.801755   4.299336   3.801747   1.767982
    12  H    1.091815   2.634720   3.801747   3.163717   1.751643
                   11         12
    11  H    0.000000
    12  H    1.767984   0.000000
 Stoichiometry    C4H8
 Framework group  C2[C2(CC),X(C2H8)]
 Deg. of freedom    15
 Full point group                 C2      NOp   2
 Largest Abelian subgroup         C2      NOp   2
 Largest concise Abelian subgroup C2      NOp   2
                         Standard orientation:                         
 ---------------------------------------------------------------------
 Center     Atomic      Atomic             Coordinates (Angstroms)
 Number     Number       Type             X           Y           Z
 ---------------------------------------------------------------------
      1          6           0       -0.000000   -0.000000    1.454960
      2          6           0       -0.000000   -0.000000    0.122836
      3          1           0        0.000015    0.922584    2.018068
      4          1           0       -0.000015   -0.922584    2.018068
      5          6           0       -0.000000   -1.270729   -0.676826
      6          6           0        0.000000    1.270729   -0.676826
      7          1           0        0.875880   -1.317406   -1.326992
      8          1           0       -0.000104   -2.149668   -0.036352
      9          1           0       -0.875763   -1.317314   -1.327156
     10          1           0       -0.875880    1.317406   -1.326992
     11          1           0        0.000104    2.149668   -0.036352
     12          1           0        0.875763    1.317314   -1.327156
 ---------------------------------------------------------------------
 Rotational constants (GHZ):           9.1970818           8.4409253           4.6519597
 Standard basis: CC-pVTZ (5D, 7F)
 There are   133 symmetry adapted cartesian basis functions of A   symmetry.
 There are   127 symmetry adapted cartesian basis functions of B   symmetry.
 There are   118 symmetry adapted basis functions of A   symmetry.
 There are   114 symmetry adapted basis functions of B   symmetry.
   232 basis functions,   344 primitive gaussians,   260 cartesian basis functions
    16 alpha electrons       16 beta electrons
       nuclear repulsion energy       120.0105658695 Hartrees.
 NAtoms=   12 NActive=   12 NUniq=    7 SFac= 2.94D+00 NAtFMM=   60 NAOKFM=F Big=F
 Integral buffers will be    131072 words long.
 Raffenetti 2 integral format.
 Two-electron integral symmetry is turned on.
 Nuclear repulsion after empirical dispersion term =      120.0046762363 Hartrees.
 One-electron integrals computed using PRISM.
 NBasis=   232 RedAO= T EigKep=  3.76D-04  NBF=   118   114
 NBsUse=   232 1.00D-06 EigRej= -1.00D+00 NBFU=   118   114
 Initial guess from the checkpoint file:  "/localscratch/339542/Gau-54000.chk"
 B after Tr=     0.000000    0.000000   -0.000000
         Rot=    1.000000   -0.000000   -0.000000   -0.000002 Ang=  -0.00 deg.
 Initial guess orbital symmetries:
 Alpha Orbitals:
       Occupied  (A) (B) (A) (A) (A) (B) (A) (A) (B) (A) (B) (A)
                 (B) (A) (B) (B)
       Virtual   (B) (A) (B) (A) (B) (B) (A) (A) (A) (B) (A) (B)
                 (A) (B) (A) (B) (A) (B) (B) (A) (B) (A) (B) (A)
                 (A) (B) (A) (B) (B) (A) (B) (A) (A) (B) (A) (A)
                 (A) (B) (B) (A) (B) (B) (A) (B) (A) (B) (A) (B)
                 (B) (A) (A) (A) (B) (B) (B) (A) (B) (A) (B) (B)
                 (A) (A) (B) (A) (A) (B) (B) (A) (A) (B) (A) (B)
                 (A) (B) (A) (B) (A) (A) (A) (B) (B) (A) (A) (A)
                 (B) (B) (B) (B) (A) (A) (B) (A) (A) (B) (B) (B)
                 (B) (B) (A) (A) (B) (B) (A) (B) (A) (B) (B) (A)
                 (B) (A) (A) (B) (A) (A) (A) (B) (A) (B) (A) (A)
                 (B) (B) (A) (B) (A) (B) (B) (A) (A) (B) (A) (A)
                 (B) (B) (A) (B) (A) (A) (B) (B) (A) (A) (A) (B)
                 (B) (B) (A) (B) (A) (B) (A) (B) (A) (B) (A) (B)
                 (A) (B) (B) (A) (A) (A) (B) (B) (A) (B) (B) (A)
                 (A) (B) (A) (B) (A) (B) (A) (B) (B) (A) (A) (B)
                 (B) (A) (A) (A) (B) (B) (B) (A) (A) (B) (B) (A)
                 (A) (B) (A) (A) (B) (B) (B) (A) (A) (A) (A) (B)
                 (B) (B) (A) (B) (A) (A) (B) (B) (A) (A) (B) (A)
 Beta  Orbitals:
       Occupied  (A) (B) (A) (A) (A) (B) (A) (A) (B) (A) (B) (A)
                 (B) (A) (B) (B)
       Virtual   (B) (A) (B) (A) (B) (B) (A) (A) (A) (B) (A) (B)
                 (A) (B) (A) (B) (A) (B) (B) (A) (B) (A) (B) (A)
                 (A) (B) (A) (B) (B) (A) (B) (A) (A) (B) (A) (A)
                 (A) (B) (B) (A) (B) (B) (A) (B) (A) (B) (A) (B)
                 (B) (A) (A) (A) (B) (B) (B) (A) (B) (A) (B) (B)
                 (A) (A) (B) (A) (A) (B) (B) (A) (A) (B) (A) (B)
                 (A) (B) (A) (B) (A) (A) (A) (B) (B) (A) (A) (A)
                 (B) (B) (B) (B) (A) (A) (B) (A) (A) (B) (B) (B)
                 (B) (B) (A) (A) (B) (B) (A) (B) (A) (B) (B) (A)
                 (B) (A) (A) (B) (A) (A) (A) (B) (A) (B) (A) (A)
                 (B) (B) (A) (B) (A) (B) (B) (A) (A) (B) (A) (A)
                 (B) (B) (A) (B) (A) (A) (B) (B) (A) (A) (A) (B)
                 (B) (B) (A) (B) (A) (B) (A) (B) (A) (B) (A) (B)
                 (A) (B) (B) (A) (A) (A) (B) (B) (A) (B) (B) (A)
                 (A) (B) (A) (B) (A) (B) (A) (B) (B) (A) (A) (B)
                 (B) (A) (A) (A) (B) (B) (B) (A) (A) (B) (B) (A)
                 (A) (B) (A) (A) (B) (B) (B) (A) (A) (A) (A) (B)
                 (B) (B) (A) (B) (A) (A) (B) (B) (A) (A) (B) (A)
 Initial guess <Sx>= 0.0000 <Sy>= 0.0000 <Sz>= 0.0000 <S**2>=-0.0000 S=-0.0000
 Keep R1 and R2 ints in memory in symmetry-blocked form, NReq=547994801.
 Requested convergence on RMS density matrix=1.00D-08 within 128 cycles.
 Requested convergence on MAX density matrix=1.00D-06.
 Requested convergence on             energy=1.00D-06.
 No special actions if energy rises.
 SCF Done:  E(UB2PLYPD3) =  -156.907285683     A.U. after    6 cycles
            NFock=  6  Conv=0.55D-08     -V/T= 2.0047
 <Sx>= 0.0000 <Sy>= 0.0000 <Sz>= 0.0000 <S**2>=-0.0000 S=-0.0000
 <L.S>=  0.00000000000    
 Annihilation of the first spin contaminant:
 S**2 before annihilation    -0.0000,   after     0.0000
 DoSCS=T DFT=T ScalE2(SS,OS)=  0.270000  0.270000
 ExpMin= 1.03D-01 ExpMax= 8.24D+03 ExpMxC= 2.81D+02 IAcc=3 IRadAn=         5 AccDes= 0.00D+00
 HarFok:  IExCor=  205 AccDes= 0.00D+00 IRadAn=         5 IDoV=-2 UseB2=F ITyADJ=14
 ICtDFT= 12500011 ScaDFX=  1.000000  1.000000  1.000000  1.000000
 Range of M.O.s used for correlation:     5   232
 NBasis=   232 NAE=    16 NBE=    16 NFC=     4 NFV=     0
 NROrb=    228 NOA=    12 NOB=    12 NVA=   216 NVB=   216

 **** Warning!!: The largest alpha MO coefficient is  0.17013796D+02


 **** Warning!!: The largest beta MO coefficient is  0.17013796D+02

 DoSCS=T DFT=T ScalE2(SS,OS)=  0.270000  0.270000
 Fully direct method using O(ONN) memory.
 JobTyp=2 Pass  1:  I=   5 to  16 NPSUse= 40 ParTrn=T ParDer=T DoDerP=T.
 JobTyp=3 Pass  1:  I=   5 to  16 NPSUse= 40 ParTrn=T ParDer=T DoDerP=T.
 Spin components of T(2) and E(2):
     alpha-alpha T2 =       0.4015063632D-01 E2=     -0.2512788702D-01
     alpha-beta  T2 =       0.2580804258D+00 E2=     -0.1737046059D+00
     beta-beta   T2 =       0.4015063632D-01 E2=     -0.2512788702D-01
 (S**2,0)=  0.00000D+00           (S**2,1)=  0.00000D+00
 E(PUHF)=      -0.15690728568D+03        E(PMP2)=      -0.15713124606D+03
 E2(B2PLYPD3) =    -0.2239603799D+00 E(B2PLYPD3) =    -0.15713124606250D+03
          IDoAtm=111111111111
          Differentiating once with respect to electric field.
                with respect to dipole field.
          Differentiating once with respect to nuclear coordinates.
 Keep R1 and R2 ints in memory in symmetry-blocked form, NReq=547996945.
          There are     1 degrees of freedom in the 1st order CPHF.  IDoFFX=0 NUNeed=     1.
 LinEq1:  Iter=  0 NonCon=     1 RMS=5.60D-04 Max=1.01D-02 NDo=     1
 AX will form     1 AO Fock derivatives at one time.
[...]
   A18        1.89254  -0.00001   0.00000  -0.00011  -0.00011   1.89243
    D1        3.14158   0.00000   0.00000   0.00002   0.00002   3.14159
    D2       -0.00002   0.00000   0.00000   0.00002   0.00002  -0.00000
    D3       -0.00002   0.00000   0.00000   0.00002   0.00002  -0.00000
    D4        3.14158   0.00000   0.00000   0.00002   0.00002   3.14159
    D5       -2.11112   0.00000   0.00000  -0.00010  -0.00010  -2.11122
    D6        0.00010  -0.00000   0.00000  -0.00010  -0.00010  -0.00000
    D7        2.11134  -0.00000   0.00000  -0.00012  -0.00012   2.11122
    D8        1.03047   0.00000   0.00000  -0.00010  -0.00010   1.03037
    D9       -3.14149  -0.00000   0.00000  -0.00010  -0.00010   3.14159
   D10       -1.03026  -0.00000   0.00000  -0.00012  -0.00012  -1.03037
   D11       -2.11112   0.00000   0.00000  -0.00010  -0.00010  -2.11122
   D12        0.00010  -0.00000   0.00000  -0.00010  -0.00010  -0.00000
   D13        2.11134  -0.00000   0.00000  -0.00012  -0.00012   2.11122
   D14        1.03047   0.00000   0.00000  -0.00010  -0.00010   1.03037
   D15       -3.14149  -0.00000   0.00000  -0.00010  -0.00010   3.14159
   D16       -1.03026  -0.00000   0.00000  -0.00012  -0.00012  -1.03037
         Item               Value     Threshold  Converged?
 Maximum Force            0.000098     0.000450     YES
 RMS     Force            0.000033     0.000300     YES
 Maximum Displacement     0.001239     0.001800     YES
 RMS     Displacement     0.000462     0.001200     YES
 Predicted change in Energy=-1.263557D-07
 Optimization completed.
    -- Stationary point found.
                           ----------------------------
                           !   Optimized Parameters   !
                           ! (Angstroms and Degrees)  !
 --------------------------                            --------------------------
 ! Name  Definition              Value          Derivative Info.                !
 --------------------------------------------------------------------------------
 ! R1    R(1,2)                  1.3321         -DE/DX =    0.0001              !
 ! R2    R(1,3)                  1.0809         -DE/DX =    0.0                 !
 ! R3    R(1,4)                  1.0809         -DE/DX =    0.0                 !
 ! R4    R(2,5)                  1.5014         -DE/DX =   -0.0001              !
 ! R5    R(2,6)                  1.5014         -DE/DX =   -0.0001              !
 ! R6    R(5,7)                  1.0918         -DE/DX =    0.0                 !
 ! R7    R(5,8)                  1.0875         -DE/DX =    0.0                 !
 ! R8    R(5,9)                  1.0918         -DE/DX =    0.0                 !
 ! R9    R(6,10)                 1.0918         -DE/DX =    0.0                 !
 ! R10   R(6,11)                 1.0875         -DE/DX =    0.0                 !
 ! R11   R(6,12)                 1.0918         -DE/DX =    0.0                 !
 ! A1    A(2,1,3)              121.3982         -DE/DX =    0.0                 !
 ! A2    A(2,1,4)              121.3982         -DE/DX =    0.0                 !
 ! A3    A(3,1,4)              117.2036         -DE/DX =    0.0                 !
 ! A4    A(1,2,5)              122.182          -DE/DX =    0.0                 !
 ! A5    A(1,2,6)              122.182          -DE/DX =    0.0                 !
 ! A6    A(5,2,6)              115.6361         -DE/DX =    0.0001              !
 ! A7    A(2,5,7)              110.6923         -DE/DX =    0.0                 !
 ! A8    A(2,5,8)              111.7376         -DE/DX =    0.0                 !
 ! A9    A(2,5,9)              110.6928         -DE/DX =    0.0                 !
 ! A10   A(7,5,8)              108.4345         -DE/DX =    0.0                 !
 ! A11   A(7,5,9)              106.6756         -DE/DX =    0.0                 !
 ! A12   A(8,5,9)              108.4348         -DE/DX =    0.0                 !
 ! A13   A(2,6,10)             110.6923         -DE/DX =    0.0                 !
 ! A14   A(2,6,11)             111.7376         -DE/DX =    0.0                 !
 ! A15   A(2,6,12)             110.6928         -DE/DX =    0.0                 !
 ! A16   A(10,6,11)            108.4345         -DE/DX =    0.0                 !
 ! A17   A(10,6,12)            106.6756         -DE/DX =    0.0                 !
 ! A18   A(11,6,12)            108.4348         -DE/DX =    0.0                 !
 ! D1    D(3,1,2,5)            179.999          -DE/DX =    0.0                 !
 ! D2    D(3,1,2,6)             -0.001          -DE/DX =    0.0                 !
 ! D3    D(4,1,2,5)             -0.001          -DE/DX =    0.0                 !
 ! D4    D(4,1,2,6)            179.999          -DE/DX =    0.0                 !
 ! D5    D(1,2,5,7)           -120.9583         -DE/DX =    0.0                 !
 ! D6    D(1,2,5,8)              0.0059         -DE/DX =    0.0                 !
 ! D7    D(1,2,5,9)            120.9707         -DE/DX =    0.0                 !
 ! D8    D(6,2,5,7)             59.0417         -DE/DX =    0.0                 !
 ! D9    D(6,2,5,8)            180.0059         -DE/DX =    0.0                 !
 ! D10   D(6,2,5,9)            -59.0293         -DE/DX =    0.0                 !
 ! D11   D(1,2,6,10)          -120.9583         -DE/DX =    0.0                 !
 ! D12   D(1,2,6,11)             0.0059         -DE/DX =    0.0                 !
 ! D13   D(1,2,6,12)           120.9707         -DE/DX =    0.0                 !
 ! D14   D(5,2,6,10)            59.0417         -DE/DX =    0.0                 !
 ! D15   D(5,2,6,11)           180.0059         -DE/DX =    0.0                 !
 ! D16   D(5,2,6,12)           -59.0293         -DE/DX =    0.0                 !
 --------------------------------------------------------------------------------
 GradGradGradGradGradGradGradGradGradGradGradGradGradGradGradGradGradGrad


 ----------------------------------------------------------------------

 Electric dipole moment (input orientation):
 (Debye = 10**-18 statcoulomb cm , SI units = C m)
                  (au)            (Debye)         (10**-30 SI)
   Tot        0.207057D+00      0.526285D+00      0.175550D+01
   x          0.000000D+00      0.000000D+00      0.000000D+00
   y         -0.207057D+00     -0.526285D+00     -0.175550D+01
   z          0.000000D+00      0.000000D+00      0.000000D+00

 Dipole polarizability, Alpha (input orientation).
 (esu units = cm**3 , SI units = C**2 m**2 J**-1)
 Alpha(0;0):
               (au)            (10**-24 esu)      (10**-40 SI)
   iso        0.487962D+02      0.723086D+01      0.804541D+01
   aniso      0.213299D+02      0.316077D+01      0.351683D+01
   xx         0.497332D+02      0.736970D+01      0.819989D+01
   yx         0.000000D+00      0.000000D+00      0.000000D+00
   yy         0.606159D+02      0.898234D+01      0.999421D+01
   zx         0.136126D-02      0.201717D-03      0.224441D-03
   zy         0.000000D+00      0.000000D+00      0.000000D+00
   zz         0.360397D+02      0.534053D+01      0.594214D+01

 ----------------------------------------------------------------------

 Dipole orientation:
     6         -0.00000000          0.00000035         -2.74885513
     6         -0.00000000          0.00000035         -0.23150511
     1         -1.74343044         -0.00019960         -3.81297456
     1          1.74343044          0.00020031         -3.81297456
     6          2.40132889          0.00023592          1.27963633
     6         -2.40132889         -0.00023521          1.27963633
     1          2.48969968         -1.65492912          2.50827277
     1          4.06228413          0.00059503          0.06931645
     1          2.48920036          1.65519591          2.50858260
     1         -2.48969968          1.65492983          2.50827277
     1         -4.06228413         -0.00059432          0.06931645
     1         -2.48920036         -1.65519520          2.50858260

 Electric dipole moment (dipole orientation):
 (Debye = 10**-18 statcoulomb cm , SI units = C m)
                  (au)            (Debye)         (10**-30 SI)
   Tot        0.207057D+00      0.526285D+00      0.175550D+01
   x          0.000000D+00      0.000000D+00      0.000000D+00
   y          0.000000D+00      0.000000D+00      0.000000D+00
   z          0.207057D+00      0.526285D+00      0.175550D+01

 Dipole polarizability, Alpha (dipole orientation).
 (esu units = cm**3 , SI units = C**2 m**2 J**-1)
 Alpha(0;0):
               (au)            (10**-24 esu)      (10**-40 SI)
   iso        0.487962D+02      0.723086D+01      0.804541D+01
   aniso      0.213299D+02      0.316077D+01      0.351683D+01
   xx         0.497332D+02      0.736970D+01      0.819989D+01
   yx         0.136125D-02      0.201717D-03      0.224440D-03
   yy         0.360397D+02      0.534053D+01      0.594214D+01
   zx         0.000000D+00      0.000000D+00      0.000000D+00
   zy         0.000000D+00      0.000000D+00      0.000000D+00
   zz         0.606159D+02      0.898234D+01      0.999421D+01

 ----------------------------------------------------------------------
 1\1\GINC-N68\Freq\UB2PLYPD3-FC\CC-pVTZ\C4H8\ROOT\01-Jun-2019\0\\#N Geo
 m=AllCheck Guess=TCheck SCRF=Check GenChk UB2PLYPD3(FC)/CC-pVTZ Freq\\
 Title Card Required\\0,1\C,0.0000000002,1.454631493,0.0000001875\C,0.,
 0.1225072269,0.0000001875\H,-0.9225836588,2.0177392439,-0.0001056247\H
 ,0.9225836592,2.0177392437,0.0001059997\C,1.2707285229,-0.6771543858,0
 .0001248451\C,-1.2707285231,-0.6771543855,-0.0001244701\H,1.3174923304
 ,-1.3273207878,-0.8757507774\H,2.1496681846,-0.0366806855,0.0003148776
 \H,1.3172281048,-1.3274847446,0.8758919531\H,-1.3174923307,-1.32732078
 75,0.8757511524\H,-2.1496681846,-0.0366806851,-0.0003145026\H,-1.31722
 81051,-1.3274847444,-0.8758915781\\Version=ES64L-G16RevB.01\State=1-A\
 HF=-156.9072857\MP2=-157.1312461\PUHF=-156.9072857\PMP2-0=-157.1312461
 \S2=0.\S2-1=0.\S2A=0.\RMSD=1.453e-09\RMSF=5.660e-05\ZeroPoint=0.108294
 2\Thermal=0.113599\Dipole=0.,-0.2070565,0.\DipoleDeriv=0.0266075,0.,0.
 0000435,0.,-0.2143849,0.,0.0000405,0.,-0.3257583,0.2605744,0.,0.000033
 2,0.,0.3196992,0.,0.0000321,0.,-0.1772418,-0.0850235,0.0949964,-0.0000
 261,0.0423143,0.0089273,0.0000048,-0.0000267,0.0000099,0.1432564,-0.08
 50235,-0.0949964,-0.0000261,-0.0423143,0.0089273,-0.0000048,-0.0000267
 ,-0.0000099,0.1432564,-0.0288338,0.0139128,-0.0000157,0.0453307,0.0213
 735,-0.0000012,-0.0000053,-0.0000222,0.1609149,-0.0288338,-0.0139128,-
 0.0000157,-0.0453307,0.0213735,0.0000012,-0.0000053,0.0000222,0.160914
 9,0.0328332,0.0361772,-0.029405,0.0330474,-0.0320206,-0.0833694,0.0193
 274,-0.121196,-0.0608625,-0.0954028,-0.0392406,-0.0000276,-0.1168563,-
 0.0188879,-0.000024,-0.000034,-0.0000091,0.0690215,0.0328358,0.0361309
 ,0.029436,0.0330215,-0.0320494,0.0833893,-0.0192978,0.1212208,-0.06083
 03,0.0328332,-0.0361772,-0.029405,-0.0330474,-0.0320206,0.0833694,0.01
 93274,0.121196,-0.0608625,-0.0954028,0.0392406,-0.0000276,0.1168563,-0
 .0188879,0.000024,-0.000034,0.0000091,0.0690215,0.0328358,-0.0361309,0
 .029436,-0.0330215,-0.0320494,-0.0833893,-0.0192978,-0.1212208,-0.0608
 303\Polar=49.7331775,0.,60.6158647,0.0013613,0.,36.039694\PG=C02 [C2(C
 1C1),X(C2H8)]\NImag=0\\0.65563575,0.,0.83652423,0.00006279,0.,0.102653
 90,-0.10924336,0.,-0.00000702,0.52069876,0.,-0.53386217,0.,0.,0.839343
 25,-0.00000658,0.,-0.05208461,0.00003277,0.,0.18984454,-0.26687094,0.1
 2623205,-0.00002685,0.00033505,-0.00251139,-0.00000037,0.27831548,0.12
 030625,-0.12997386,0.00001385,0.02946688,-0.01336477,0.00000318,-0.136
 06820,0.13699905,-0.00002687,0.00001475,-0.03271598,-0.00000041,-0.000
 00068,0.00334528,0.00002924,-0.00001560,0.02303157,-0.26687094,-0.1262
 3205,-0.00002685,0.00033505,0.00251139,-0.00000037,-0.01566914,-0.0137
 5566,-0.00000188,0.27831548,-0.12030625,-0.12997386,-0.00001385,-0.029
 46688,-0.01336477,-0.00000318,0.01375566,0.00978984,0.00000156,0.13606
 820,0.13699905,-0.00002687,-0.00001475,-0.03271598,-0.00000041,0.00000
 068,0.00334528,-0.00000188,-0.00000156,0.00136110,0.00002924,0.0000156
 0,0.02303157,-0.00153445,0.00681186,-0.00000085,-0.18159543,0.05788015
 ,-0.00001030,0.00112083,-0.00203286,-0.00000160,0.00118445,-0.00206019
 ,0.00000133,0.52898214,0.03308216,-0.02281036,0.00000282,0.05303055,-0
 .12002081,0.00000554,-0.00045329,-0.00396906,-0.00000045,0.00129469,0.
 00115586,0.00000031,0.05286995,0.54927739,-0.00000082,0.00000056,0.007
 93797,-0.00001118,0.00000655,-0.07558526,-0.00000155,-0.00000005,0.013
 10579,0.00000103,-0.00000038,-0.00798634,0.00000352,0.00000398,0.53456
 306,-0.00153445,-0.00681186,-0.00000085,-0.18159543,-0.05788015,-0.000
 01030,0.00118445,0.00206019,0.00000133,0.00112083,0.00203286,-0.000001
 60,-0.02994925,-0.01422946,-0.00000389,0.52898214,-0.03308216,-0.02281
 036,-0.00000282,-0.05303055,-0.12002081,-0.00000554,-0.00129469,0.0011
 5586,-0.00000031,0.00045329,-0.00396906,0.00000045,0.01422946,0.011143
 73,0.00000162,-0.05286995,0.54927739,-0.00000082,-0.00000056,0.0079379
 7,-0.00001118,-0.00000655,-0.07558526,0.00000103,0.00000038,-0.0079863
 4,-0.00000155,0.00000005,0.01310579,-0.00000389,-0.00000162,0.00299677
 ,0.00000352,-0.00000398,0.53456306,-0.00319272,0.00061166,-0.00033985,
 -0.00074596,0.01814329,0.02432768,0.00009969,0.00077069,-0.00184563,0.
 00009408,0.00016580,0.00059347,-0.04880551,0.00377233,0.00816554,0.001
 38334,0.00016821,0.00016903,0.05037879,0.00289806,0.00019816,-0.000010
 83,0.00235780,-0.01535531,-0.01430265,0.00028985,-0.00060358,0.0017475
 7,0.00014157,0.00019477,-0.00116625,0.00225889,-0.13403746,-0.12514081
 ,-0.00098259,0.00024370,0.00029182,-0.00810313,0.14776647,0.00021372,0
 .00088540,0.00004026,0.00004730,0.00036189,0.00250526,-0.00004626,0.00
 007390,-0.00031605,0.00000608,0.00007493,0.00015739,0.00686371,-0.1242
 9939,-0.21426668,-0.00004205,0.00008060,0.00017465,-0.00765434,0.13718
 405,0.23327993,0.00159555,-0.00192085,0.00000048,-0.02298340,-0.018913
 25,-0.00000437,0.00055182,-0.00001094,0.00000024,0.00064518,0.00117564
 ,-0.00000016,-0.21988941,-0.12782393,-0.00003792,-0.00347825,0.0049427
 5,-0.00000082,0.00162180,0.00170722,-0.00047310,0.24108924,0.00115980,
 0.00105702,0.00000014,0.01508468,0.01135749,0.00000341,-0.00015595,0.0
 0026005,0.00000006,-0.00019856,-0.00007954,-0.00000015,-0.13126403,-0.
 14547696,-0.00002802,0.00288150,-0.00166462,0.00000024,-0.01418010,-0.
 01110681,0.00162384,0.13983451,0.15617092,0.00000022,-0.00000007,-0.00
 058706,-0.00000110,-0.00000208,-0.00164515,0.00000012,0.00000003,-0.00
 020692,0.,0.00000022,0.00038244,-0.00003841,-0.00002748,-0.04786581,-0
 .00000018,0.00000018,0.00097614,-0.02200121,-0.01534348,0.00092239,0.0
 0004207,0.00003093,0.04600240,-0.00319362,0.00061237,0.00033918,-0.000
 73796,0.01814751,-0.02432574,0.00009928,0.00077096,0.00184568,0.000094
 22,0.00016585,-0.00059341,-0.04880212,0.00373584,-0.00811419,0.0013836
 6,0.00016787,-0.00016877,-0.00063253,-0.00087853,0.00059180,0.00161518
 ,-0.01418361,0.02199874,0.05037496,0.00289841,0.00019801,0.00001186,0.
 00235250,-0.01535714,0.01430064,0.00029032,-0.00060370,-0.00174721,0.0
 0014135,0.00019492,0.00116609,0.00222291,-0.13408559,0.12515675,-0.000
 98280,0.00024418,-0.00029187,-0.00087353,0.01200017,-0.01618103,0.0017
 0267,-0.01110929,0.01534158,-0.00806326,0.14781864,-0.00021437,-0.0008
 8511,0.00004016,-0.00004749,-0.00035945,0.00249990,0.00004646,-0.00007
 382,-0.00031565,-0.00000604,-0.00007483,0.00015737,-0.00681369,0.12431
 623,-0.21422525,0.00004240,-0.00008084,0.00017495,-0.00058530,0.016187
 31,-0.02273444,0.00047364,-0.00163051,0.00093185,0.00759772,-0.1372032
 4,0.23323406,-0.00319272,-0.00061166,-0.00033985,-0.00074596,-0.018143
 29,0.02432768,0.00009408,-0.00016580,0.00059347,0.00009969,-0.00077069
 ,-0.00184563,0.00138334,-0.00016821,0.00016903,-0.04880551,-0.00377233
 ,0.00816554,-0.00008655,-0.00000617,-0.00002842,0.00037211,0.00007114,
 -0.00036438,-0.00048653,0.00041025,-0.00043660,0.05037879,-0.00289806,
 0.00019816,0.00001083,-0.00235780,-0.01535531,0.01430265,-0.00014157,0
 .00019477,0.00116625,-0.00028985,-0.00060358,-0.00174757,0.00098259,0.
 00024370,-0.00029182,-0.00225889,-0.13403746,0.12514081,0.00000617,0.0
 0013888,-0.00007557,0.00009290,-0.00003357,-0.00036958,-0.00040993,0.0
 0059457,-0.00010813,0.00810313,0.14776647,0.00021372,-0.00088540,0.000
 04026,0.00004730,-0.00036189,0.00250526,0.00000608,-0.00007493,0.00015
 739,-0.00004626,-0.00007390,-0.00031605,-0.00004205,-0.00008060,0.0001
 7465,0.00686371,0.12429939,-0.21426668,-0.00002842,0.00007557,-0.00018
 020,0.00008506,-0.00016317,0.00024743,0.00043649,-0.00010820,0.0001700
 5,-0.00765434,-0.13718405,0.23327993,0.00159555,0.00192085,0.00000048,
 -0.02298340,0.01891325,-0.00000437,0.00064518,-0.00117564,-0.00000016,
 0.00055182,0.00001094,0.00000024,-0.00347825,-0.00494275,-0.00000082,-
 0.21988941,0.12782393,-0.00003792,0.00037211,-0.00009290,0.00008506,-0
 .00151200,0.00087956,-0.00000011,0.00037219,-0.00009284,-0.00008501,0.
 00162180,-0.00170722,-0.00047310,0.24108924,-0.00115980,0.00105702,-0.
 00000014,-0.01508468,0.01135749,-0.00000341,0.00019856,-0.00007954,0.0
 0000015,0.00015595,0.00026005,-0.00000006,-0.00288150,-0.00166462,-0.0
 0000024,0.13126403,-0.14547696,0.00002802,-0.00007114,-0.00003357,0.00
 016317,-0.00087956,0.00065885,-0.00000002,-0.00007106,-0.00003357,-0.0
 0016321,0.01418010,-0.01110681,-0.00162384,-0.13983451,0.15617092,0.00
 000022,0.00000007,-0.00058706,-0.00000110,0.00000208,-0.00164515,0.,-0
 .00000022,0.00038244,0.00000012,-0.00000003,-0.00020692,-0.00000018,-0
 .00000018,0.00097614,-0.00003841,0.00002748,-0.04786581,-0.00036438,0.
 00036958,0.00024743,-0.00000011,0.00000002,0.00059487,0.00036422,-0.00
 036976,0.00024740,-0.02200121,0.01534348,0.00092239,0.00004207,-0.0000
 3093,0.04600240,-0.00319362,-0.00061237,0.00033918,-0.00073796,-0.0181
 4751,-0.02432574,0.00009422,-0.00016585,-0.00059341,0.00009928,-0.0007
 7096,0.00184568,0.00138366,-0.00016787,-0.00016877,-0.04880212,-0.0037
 3584,-0.00811419,-0.00048653,0.00040993,0.00043649,0.00037219,0.000071
 06,0.00036422,-0.00008671,-0.00000599,0.00002827,-0.00063253,0.0008785
 3,0.00059180,0.00161518,0.01418361,0.02199874,0.05037496,-0.00289841,0
 .00019801,-0.00001186,-0.00235250,-0.01535714,-0.01430064,-0.00014135,
 0.00019492,-0.00116609,-0.00029032,-0.00060370,0.00174721,0.00098280,0
 .00024418,0.00029187,-0.00222291,-0.13408559,-0.12515675,-0.00041025,0
 .00059457,0.00010820,0.00009284,-0.00003357,0.00036976,0.00000599,0.00
 013880,0.00007562,0.00087353,0.01200017,0.01618103,-0.00170267,-0.0111
 0929,-0.01534158,0.00806326,0.14781864,-0.00021437,0.00088511,0.000040
 16,-0.00004749,0.00035945,0.00249990,-0.00000604,0.00007483,0.00015737
 ,0.00004646,0.00007382,-0.00031565,0.00004240,0.00008084,0.00017495,-0
 .00681369,-0.12431623,-0.21422525,-0.00043660,0.00010813,0.00017005,-0
 .00008501,0.00016321,0.00024740,0.00002827,-0.00007562,-0.00018040,-0.
 00058530,-0.01618731,-0.02273444,0.00047364,0.00163051,0.00093185,0.00
 759772,0.13720324,0.23323406\\0.,-0.00009823,0.,0.,0.00020298,0.,0.000
 03806,0.00000735,-0.00000016,-0.00003806,0.00000735,0.00000016,0.00008
 895,-0.00012758,0.00000002,-0.00008895,-0.00012758,-0.00000002,-0.0000
 2083,0.00004175,0.00002794,-0.00002012,-0.00001529,0.00000013,-0.00002
 093,0.00004140,-0.00002836,0.00002083,0.00004175,-0.00002794,0.0000201
 2,-0.00001529,-0.00000013,0.00002093,0.00004140,0.00002836\\\@


 GOD GAVE US TWO ENDS... ONE TO SIT ON...    
 AND THE OTHER TO THINK WITH...              
 YOUR SUCCESS DEPENDS UPON WHICH END YOU     
 USE THE MOST...                             
                                             
 IT'S A CASE OF HEADS YOU WIN TAILS YOU LOSE.
          SOURCE UNKNOWN(IT'S JUST AS WELL.) 
 Job cpu time:       0 days  8 hours 42 minutes 45.8 seconds.
 Elapsed time:       0 days  0 hours 13 minutes 16.1 seconds.
 File lengths (MBytes):  RWF=  17120 Int=      0 D2E=      0 Chk=     10 Scr=      1
 Normal termination of Gaussian 16 at Sat Jun  1 03:38:58 2019.
