 Entering Gaussian System, Link 0=g16
 Initial command:
 /ichec/packages/gaussian/16b01/l1.exe "/localscratch/339542/Gau-43357.inp" -scrdir="/localscratch/339542/"
 Entering Link 1 = /ichec/packages/gaussian/16b01/l1.exe PID=     43378.
  
 Copyright (c) 1988-2017, Gaussian, Inc.  All Rights Reserved.
  
 This is part of the Gaussian(R) 16 program.  It is based on
 the Gaussian(R) 09 system (copyright 2009, Gaussian, Inc.),
 the Gaussian(R) 03 system (copyright 2003, Gaussian, Inc.),
 the Gaussian(R) 98 system (copyright 1998, Gaussian, Inc.),
 the Gaussian(R) 94 system (copyright 1995, Gaussian, Inc.),
 the Gaussian 92(TM) system (copyright 1992, Gaussian, Inc.),
 the Gaussian 90(TM) system (copyright 1990, Gaussian, Inc.),
 the Gaussian 88(TM) system (copyright 1988, Gaussian, Inc.),
 the Gaussian 86(TM) system (copyright 1986, Carnegie Mellon
 University), and the Gaussian 82(TM) system (copyright 1983,
 Carnegie Mellon University). Gaussian is a federally registered
 trademark of Gaussian, Inc.
  
 This software contains proprietary and confidential information,
 including trade secrets, belonging to Gaussian, Inc.
  
 This software is provided under written license and may be
 used, copied, transmitted, or stored only in accord with that
 written license.
  
 The following legend is applicable only to US Government
 contracts under FAR:
  
                    RESTRICTED RIGHTS LEGEND
  
 Use, reproduction and disclosure by the US Government is
 subject to restrictions as set forth in subparagraphs (a)
 and (c) of the Commercial Computer Software - Restricted
 Rights clause in FAR 52.227-19.
  
 Gaussian, Inc.
 340 Quinnipiac St., Bldg. 40, Wallingford CT 06492
  
  
 ---------------------------------------------------------------
 Warning -- This program may not be used in any manner that
 competes with the business of Gaussian, Inc. or will provide
 assistance to any competitor of Gaussian, Inc.  The licensee
 of this program is prohibited from giving any competitor of
 Gaussian, Inc. access to this program.  By using this program,
 the user acknowledges that Gaussian, Inc. is engaged in the
 business of creating and licensing software in the field of
 computational chemistry and represents and warrants to the
 licensee that it is not a competitor of Gaussian, Inc. and that
 it will not use this program in any manner prohibited above.
 ---------------------------------------------------------------
  

 Cite this work as:
 Gaussian 16, Revision B.01,
 M. J. Frisch, G. W. Trucks, H. B. Schlegel, G. E. Scuseria, 
 M. A. Robb, J. R. Cheeseman, G. Scalmani, V. Barone, 
 G. A. Petersson, H. Nakatsuji, X. Li, M. Caricato, A. V. Marenich, 
 J. Bloino, B. G. Janesko, R. Gomperts, B. Mennucci, H. P. Hratchian, 
 J. V. Ortiz, A. F. Izmaylov, J. L. Sonnenberg, D. Williams-Young, 
 F. Ding, F. Lipparini, F. Egidi, J. Goings, B. Peng, A. Petrone, 
 T. Henderson, D. Ranasinghe, V. G. Zakrzewski, J. Gao, N. Rega, 
 G. Zheng, W. Liang, M. Hada, M. Ehara, K. Toyota, R. Fukuda, 
 J. Hasegawa, M. Ishida, T. Nakajima, Y. Honda, O. Kitao, H. Nakai, 
 T. Vreven, K. Throssell, J. A. Montgomery, Jr., J. E. Peralta, 
 F. Ogliaro, M. J. Bearpark, J. J. Heyd, E. N. Brothers, K. N. Kudin, 
 V. N. Staroverov, T. A. Keith, R. Kobayashi, J. Normand, 
 K. Raghavachari, A. P. Rendell, J. C. Burant, S. S. Iyengar, 
 J. Tomasi, M. Cossi, J. M. Millam, M. Klene, C. Adamo, R. Cammi, 
 J. W. Ochterski, R. L. Martin, K. Morokuma, O. Farkas, 
 J. B. Foresman, and D. J. Fox, Gaussian, Inc., Wallingford CT, 2016.
 
 ******************************************
 Gaussian 16:  ES64L-G16RevB.01 20-Dec-2017
                 1-Jun-2019 
 ******************************************
 %mem=80GB
 %nproc=40
 Will use up to   40 processors via shared memory.
 -----------------------------------------------
 # opt=maxcyc=500 freq=noraman uB2PLYPD3/cc-pvtz
 -----------------------------------------------
 1/6=500,18=20,19=15,38=1/1,3;
 2/9=110,12=2,17=6,18=5,40=1/2;
 3/5=16,6=1,11=2,25=1,30=1,71=1,74=-60,116=2/1,2,3;
 4//1;
 5/5=2,38=5/2;
 8/6=4,10=1/1;
 9/15=2,16=-3/6;
 10/5=1/2;
 6/7=2,8=2,9=2,10=2/1;
 7/12=2/1,2,3,16;
 1/6=500,18=20,19=15/3(2);
 2/9=110/2;
 99//99;
 2/9=110/2;
 3/5=16,6=1,11=2,25=1,30=1,71=1,74=-60,116=2/1,2,3;
 4/5=5,16=3,69=1/1;
 5/5=2,38=5/2;
 8/6=4,10=1/1;
 9/15=2,16=-3/6;
 10/5=1/2;
 7/12=2/1,2,3,16;
 1/6=500,18=20,19=15/3(-8);
 2/9=110/2;
 6/7=2,8=2,9=2,10=2/1;
 99/9=10/99;
 -------------------
 Title Card Required
 -------------------
 Symbolic Z-matrix:
 Charge =  0 Multiplicity = 1
 C                     0.        0.        1.41612 
 H                     0.        0.        2.47809 
 C                     0.        0.        0.21945 
 C                     0.        0.       -1.23799 
 H                     0.        1.01951  -1.62118 
 H                     0.88292  -0.50976  -1.62118 
 H                    -0.88292  -0.50976  -1.62118 
 

 GradGradGradGradGradGradGradGradGradGradGradGradGradGradGradGradGradGrad
 Berny optimization.
 Initialization pass.
                           ----------------------------
                           !    Initial Parameters    !
                           ! (Angstroms and Degrees)  !
 --------------------------                            --------------------------
 ! Name  Definition              Value          Derivative Info.                !
 --------------------------------------------------------------------------------
 ! R1    R(1,2)                  1.062          estimate D2E/DX2                !
 ! R2    R(1,3)                  1.1967         estimate D2E/DX2                !
 ! R3    R(3,4)                  1.4574         estimate D2E/DX2                !
 ! R4    R(4,5)                  1.0891         estimate D2E/DX2                !
 ! R5    R(4,6)                  1.0891         estimate D2E/DX2                !
 ! R6    R(4,7)                  1.0891         estimate D2E/DX2                !
 ! A1    A(3,4,5)              110.5989         estimate D2E/DX2                !
 ! A2    A(3,4,6)              110.5989         estimate D2E/DX2                !
 ! A3    A(3,4,7)              110.5989         estimate D2E/DX2                !
 ! A4    A(5,4,6)              108.3204         estimate D2E/DX2                !
 ! A5    A(5,4,7)              108.3204         estimate D2E/DX2                !
 ! A6    A(6,4,7)              108.3204         estimate D2E/DX2                !
 ! A7    L(2,1,3,5,-1)         180.0            estimate D2E/DX2                !
 ! A8    L(1,3,4,5,-1)         180.0            estimate D2E/DX2                !
 ! A9    L(2,1,3,5,-2)         180.0            estimate D2E/DX2                !
 ! A10   L(1,3,4,5,-2)         180.0            estimate D2E/DX2                !
 ! D1    D(5,4,7,6)            117.2857         estimate D2E/DX2                !
 --------------------------------------------------------------------------------
 Trust Radius=3.00D-01 FncErr=1.00D-07 GrdErr=1.00D-07 EigMax=2.50D+02 EigMin=1.00D-04
 Number of steps in this run=    100 maximum allowed number of steps=    100.
 GradGradGradGradGradGradGradGradGradGradGradGradGradGradGradGradGradGrad

                          Input orientation:                          
 ---------------------------------------------------------------------
 Center     Atomic      Atomic             Coordinates (Angstroms)
 Number     Number       Type             X           Y           Z
 ---------------------------------------------------------------------
      1          6           0        0.000000    0.000000    1.416120
      2          1           0        0.000000    0.000000    2.478085
      3          6           0        0.000000    0.000000    0.219446
      4          6           0        0.000000    0.000000   -1.237991
      5          1           0        0.000000    1.019513   -1.621178
      6          1           0        0.882924   -0.509756   -1.621178
      7          1           0       -0.882924   -0.509756   -1.621178
 ---------------------------------------------------------------------
                    Distance matrix (angstroms):
                    1          2          3          4          5
     1  C    0.000000
     2  H    1.061965   0.000000
     3  C    1.196674   2.258639   0.000000
     4  C    2.654111   3.716076   1.457437   0.000000
     5  H    3.203839   4.224141   2.104116   1.089146   0.000000
     6  H    3.203839   4.224141   2.104116   1.089146   1.765848
     7  H    3.203839   4.224141   2.104116   1.089146   1.765848
                    6          7
     6  H    0.000000
     7  H    1.765848   0.000000
 Stoichiometry    C3H4
 Framework group  C3[C3(CCCH),X(H3)]
 Deg. of freedom     5
 Full point group                 C3      NOp   3
 Largest Abelian subgroup         C1      NOp   1
 Largest concise Abelian subgroup C1      NOp   1
                         Standard orientation:                         
 ---------------------------------------------------------------------
 Center     Atomic      Atomic             Coordinates (Angstroms)
 Number     Number       Type             X           Y           Z
 ---------------------------------------------------------------------
      1          6           0       -0.000000    0.000000    1.416120
      2          1           0       -0.000000    0.000000    2.478085
      3          6           0       -0.000000    0.000000    0.219446
      4          6           0       -0.000000    0.000000   -1.237991
      5          1           0       -1.019513    0.000000   -1.621178
      6          1           0        0.509756    0.882924   -1.621178
      7          1           0        0.509756   -0.882924   -1.621178
 ---------------------------------------------------------------------
 Rotational constants (GHZ):         160.8145370           8.6241008           8.6241008
 Standard basis: CC-pVTZ (5D, 7F)
 There are   165 symmetry adapted cartesian basis functions of A   symmetry.
 There are   146 symmetry adapted basis functions of A   symmetry.
   146 basis functions,   224 primitive gaussians,   165 cartesian basis functions
    11 alpha electrons       11 beta electrons
       nuclear repulsion energy        58.9386221463 Hartrees.
 NAtoms=    7 NActive=    7 NUniq=    5 SFac= 1.96D+00 NAtFMM=   60 NAOKFM=F Big=F
 Integral buffers will be    131072 words long.
 Raffenetti 2 integral format.
 Two-electron integral symmetry is turned on.
 Nuclear repulsion after empirical dispersion term =       58.9360791240 Hartrees.
 One-electron integrals computed using PRISM.
 NBasis=   146 RedAO= T EigKep=  4.71D-05  NBF=   146
 NBsUse=   146 1.00D-06 EigRej= -1.00D+00 NBFU=   146
 ExpMin= 1.03D-01 ExpMax= 8.24D+03 ExpMxC= 2.81D+02 IAcc=3 IRadAn=         5 AccDes= 0.00D+00
 Harris functional with IExCor=  419 and IRadAn=       5 diagonalized for initial guess.
 HarFok:  IExCor=  419 AccDes= 0.00D+00 IRadAn=         5 IDoV= 1 UseB2=F ITyADJ=14
 ICtDFT=  3500011 ScaDFX=  1.000000  1.000000  1.000000  1.000000
 FoFCou: FMM=F IPFlag=           0 FMFlag=      100000 FMFlg1=           0
         NFxFlg=           0 DoJE=T BraDBF=F KetDBF=T FulRan=T
         wScrn=  0.000000 ICntrl=       500 IOpCl=  0 I1Cent=   200000004 NGrid=           0
         NMat0=    1 NMatS0=      1 NMatT0=    0 NMatD0=    1 NMtDS0=    0 NMtDT0=    0
 Petite list used in FoFCou.
 Initial guess orbital symmetries:
 Alpha Orbitals:
       Occupied  (A) (A) (A) (A) (A) (A) (A) (E) (E) (E) (E)
       Virtual   (E) (E) (A) (A) (E) (E) (A) (A) (A) (E) (E) (E)
                 (E) (E) (E) (A) (E) (E) (A) (A) (E) (E) (E) (E)
                 (A) (A) (A) (E) (E) (A) (A) (E) (E) (E) (E) (A)
                 (E) (E) (A) (E) (E) (A) (E) (E) (E) (E) (A) (A)
                 (E) (E) (E) (E) (A) (A) (E) (E) (A) (E) (E) (A)
                 (A) (A) (E) (E) (A) (E) (E) (E) (E) (A) (A) (E)
                 (E) (A) (E) (E) (E) (E) (A) (A) (E) (E) (E) (E)
                 (E) (E) (A) (E) (E) (A) (E) (E) (A) (E) (E) (A)
                 (E) (E) (E) (E) (A) (A) (E) (E) (E) (E) (A) (A)
                 (E) (E) (E) (E) (A) (A) (E) (E) (A) (A) (E) (E)
                 (E) (E) (A) (E) (E) (A) (A) (E) (E) (E) (E) (A)
                 (A) (A) (A)
 Beta  Orbitals:
       Occupied  (A) (A) (A) (A) (A) (A) (A) (E) (E) (E) (E)
       Virtual   (E) (E) (A) (A) (E) (E) (A) (A) (A) (E) (E) (E)
                 (E) (E) (E) (A) (E) (E) (A) (A) (E) (E) (E) (E)
                 (A) (A) (A) (E) (E) (A) (A) (E) (E) (E) (E) (A)
                 (E) (E) (A) (E) (E) (A) (E) (E) (E) (E) (A) (A)
                 (E) (E) (E) (E) (A) (A) (E) (E) (A) (E) (E) (A)
                 (A) (A) (E) (E) (A) (E) (E) (E) (E) (A) (A) (E)
                 (E) (A) (E) (E) (E) (E) (A) (A) (E) (E) (E) (E)
                 (E) (E) (A) (E) (E) (A) (E) (E) (A) (E) (E) (A)
                 (E) (E) (E) (E) (A) (A) (E) (E) (E) (E) (A) (A)
                 (E) (E) (E) (E) (A) (A) (E) (E) (A) (A) (E) (E)
                 (E) (E) (A) (E) (E) (A) (A) (E) (E) (E) (E) (A)
                 (A) (A) (A)
 The electronic state of the initial guess is 1-A.
 Initial guess <Sx>= 0.0000 <Sy>= 0.0000 <Sz>= 0.0000 <S**2>=-0.0000 S=-0.0000
 Keep R1 and R2 ints in memory in canonical form, NReq=154881973.
 Requested convergence on RMS density matrix=1.00D-08 within 128 cycles.
 Requested convergence on MAX density matrix=1.00D-06.
 Requested convergence on             energy=1.00D-06.
 No special actions if energy rises.
 Integral accuracy reduced to 1.0D-05 until final iterations.
 Initial convergence to 1.0D-05 achieved.  Increase integral accuracy.
 SCF Done:  E(UB2PLYPD3) =  -116.432708078     A.U. after   11 cycles
            NFock= 11  Conv=0.39D-08     -V/T= 2.0046
 <Sx>= 0.0000 <Sy>= 0.0000 <Sz>= 0.0000 <S**2>=-0.0000 S=-0.0000
 <L.S>=  0.00000000000    
 Annihilation of the first spin contaminant:
 S**2 before annihilation    -0.0000,   after    -0.0000
 DoSCS=T DFT=T ScalE2(SS,OS)=  0.270000  0.270000
 ExpMin= 1.03D-01 ExpMax= 8.24D+03 ExpMxC= 2.81D+02 IAcc=3 IRadAn=         5 AccDes= 0.00D+00
 HarFok:  IExCor=  205 AccDes= 0.00D+00 IRadAn=         5 IDoV=-2 UseB2=F ITyADJ=14
 ICtDFT= 12500011 ScaDFX=  1.000000  1.000000  1.000000  1.000000
 Range of M.O.s used for correlation:     4   146
 NBasis=   146 NAE=    11 NBE=    11 NFC=     3 NFV=     0
 NROrb=    143 NOA=     8 NOB=     8 NVA=   135 NVB=   135

 **** Warning!!: The largest alpha MO coefficient is  0.55169786D+02


 **** Warning!!: The largest beta MO coefficient is  0.55169786D+02

 DoSCS=T DFT=T ScalE2(SS,OS)=  0.270000  0.270000
 Fully direct method using O(ONN) memory.
 JobTyp=2 Pass  1:  I=   4 to  11 NPSUse= 40 ParTrn=T ParDer=T DoDerP=T.
 JobTyp=3 Pass  1:  I=   4 to  11 NPSUse= 40 ParTrn=T ParDer=T DoDerP=T.
 Spin components of T(2) and E(2):
     alpha-alpha T2 =       0.3326256547D-01 E2=     -0.1860405300D-01
     alpha-beta  T2 =       0.2004948473D+00 E2=     -0.1220136058D+00
     beta-beta   T2 =       0.3326256547D-01 E2=     -0.1860405300D-01
 (S**2,0)=  0.00000D+00           (S**2,1)=  0.00000D+00
 E(PUHF)=      -0.11643270808D+03        E(PMP2)=      -0.11659192979D+03
 E2(B2PLYPD3) =    -0.1592217118D+00 E(B2PLYPD3) =    -0.11659192979003D+03
          IDoAtm=1111111
          Differentiating once with respect to electric field.
                with respect to dipole field.
          Differentiating once with respect to nuclear coordinates.
 Keep R1 and R2 ints in memory in canonical form, NReq=154886869.
          There are     1 degrees of freedom in the 1st order CPHF.  IDoFFX=0 NUNeed=     1.
 LinEq1:  Iter=  0 NonCon=     1 RMS=8.22D-04 Max=1.05D-02 NDo=     1
 AX will form     1 AO Fock derivatives at one time.
 LinEq1:  Iter=  1 NonCon=     1 RMS=3.12D-04 Max=4.09D-03 NDo=     1
 LinEq1:  Iter=  2 NonCon=     1 RMS=1.28D-04 Max=2.34D-03 NDo=     1
 LinEq1:  Iter=  3 NonCon=     1 RMS=7.62D-05 Max=7.90D-04 NDo=     1
 LinEq1:  Iter=  4 NonCon=     1 RMS=1.29D-05 Max=1.74D-04 NDo=     1
 LinEq1:  Iter=  5 NonCon=     1 RMS=2.21D-06 Max=2.22D-05 NDo=     1
 LinEq1:  Iter=  6 NonCon=     1 RMS=8.91D-07 Max=1.78D-05 NDo=     1
 LinEq1:  Iter=  7 NonCon=     1 RMS=2.08D-07 Max=2.67D-06 NDo=     1
 LinEq1:  Iter=  8 NonCon=     1 RMS=3.48D-08 Max=3.38D-07 NDo=     1
 LinEq1:  Iter=  9 NonCon=     1 RMS=2.64D-09 Max=3.10D-08 NDo=     1
 LinEq1:  Iter= 10 NonCon=     1 RMS=3.17D-10 Max=2.63D-09 NDo=     1
 LinEq1:  Iter= 11 NonCon=     0 RMS=2.53D-11 Max=2.25D-10 NDo=     1
 Linear equations converged to 1.000D-10 1.000D-09 after    11 iterations.
 End of Minotr F.D. properties file   721 does not exist.
 End of Minotr F.D. properties file   722 does not exist.
 End of Minotr F.D. properties file   788 does not exist.

 **********************************************************************

            Population analysis using the SCF Density.

 **********************************************************************

 Orbital symmetries:
 Alpha Orbitals:
       Occupied  (A) (A) (A) (A) (A) (A) (A) (E) (E) (E) (E)
       Virtual   (A) (E) (E) (A) (E) (E) (A) (A) (E) (E) (A) (E)
                 (E) (A) (E) (E) (A) (E) (E) (A) (E) (E) (E) (E)
                 (A) (A) (E) (E) (A) (A) (E) (E) (A) (E) (E) (A)
                 (E) (E) (A) (A) (E) (E) (E) (E) (E) (E) (A) (A)
                 (E) (E) (A) (E) (E) (A) (E) (E) (A) (E) (E) (A)
                 (A) (A) (E) (E) (A) (E) (E) (A) (E) (E) (A) (E)
                 (E) (A) (E) (E) (E) (E) (A) (A) (E) (E) (E) (E)
                 (E) (E) (A) (E) (E) (A) (E) (E) (A) (E) (E) (A)
                 (E) (E) (E) (E) (A) (E) (E) (A) (E) (E) (A) (A)
                 (E) (E) (E) (E) (A) (A) (E) (E) (A) (A) (E) (E)
                 (A) (E) (E) (E) (E) (A) (A) (E) (E) (E) (E) (A)
                 (A) (A) (A)
 Beta  Orbitals:
       Occupied  (A) (A) (A) (A) (A) (A) (A) (E) (E) (E) (E)
       Virtual   (A) (E) (E) (A) (E) (E) (A) (A) (E) (E) (A) (E)
                 (E) (A) (E) (E) (A) (E) (E) (A) (E) (E) (E) (E)
                 (A) (A) (E) (E) (A) (A) (E) (E) (A) (E) (E) (A)
                 (E) (E) (A) (A) (E) (E) (E) (E) (E) (E) (A) (A)
                 (E) (E) (A) (E) (E) (A) (E) (E) (A) (E) (E) (A)
                 (A) (A) (E) (E) (A) (E) (E) (A) (E) (E) (A) (E)
                 (E) (A) (E) (E) (E) (E) (A) (A) (E) (E) (E) (E)
                 (E) (E) (A) (E) (E) (A) (E) (E) (A) (E) (E) (A)
                 (E) (E) (E) (E) (A) (E) (E) (A) (E) (E) (A) (A)
                 (E) (E) (E) (E) (A) (A) (E) (E) (A) (A) (E) (E)
                 (A) (E) (E) (E) (E) (A) (A) (E) (E) (E) (E) (A)
                 (A) (A) (A)
 The electronic state is 1-A.
 Alpha  occ. eigenvalues --  -10.63615 -10.61740 -10.60117  -0.89788  -0.81137
 Alpha  occ. eigenvalues --   -0.60816  -0.52618  -0.50223  -0.50223  -0.32064
 Alpha  occ. eigenvalues --   -0.32064
 Alpha virt. eigenvalues --    0.08336   0.10443   0.10443   0.11325   0.16574
 Alpha virt. eigenvalues --    0.16574   0.21407   0.28075   0.30848   0.30848
 Alpha virt. eigenvalues --    0.35231   0.38373   0.38373   0.44297   0.49748
 Alpha virt. eigenvalues --    0.49748   0.52472   0.52855   0.52855   0.57713
 Alpha virt. eigenvalues --    0.66082   0.66082   0.70637   0.70637   0.72158
 Alpha virt. eigenvalues --    0.78377   0.91294   0.91294   0.91899   0.94445
 Alpha virt. eigenvalues --    0.98336   0.98336   0.98947   1.09091   1.09091
 Alpha virt. eigenvalues --    1.14990   1.18229   1.18229   1.30434   1.32483
 Alpha virt. eigenvalues --    1.34671   1.34671   1.39522   1.39522   1.48984
 Alpha virt. eigenvalues --    1.48984   1.56189   1.62316   1.67116   1.67116
 Alpha virt. eigenvalues --    2.13339   2.14904   2.14904   2.29585   2.34660
 Alpha virt. eigenvalues --    2.34660   2.49939   2.56487   2.56487   2.61874
 Alpha virt. eigenvalues --    2.64260   2.65929   2.69813   2.69813   2.70524
 Alpha virt. eigenvalues --    2.83542   2.83542   2.88148   2.90660   2.90660
 Alpha virt. eigenvalues --    2.90787   2.96916   2.96916   3.05334   3.06141
 Alpha virt. eigenvalues --    3.06141   3.08634   3.08634   3.08730   3.13318
 Alpha virt. eigenvalues --    3.18102   3.18102   3.23656   3.23656   3.30392
 Alpha virt. eigenvalues --    3.30392   3.42765   3.47358   3.47358   3.50318
 Alpha virt. eigenvalues --    3.55385   3.55385   3.63965   3.71170   3.71170
 Alpha virt. eigenvalues --    3.74099   3.90329   3.90329   3.96967   3.96967
 Alpha virt. eigenvalues --    4.02896   4.08702   4.08702   4.09629   4.17214
 Alpha virt. eigenvalues --    4.17214   4.20709   4.36385   4.40835   4.40835
 Alpha virt. eigenvalues --    4.50631   4.50631   4.55389   4.71052   4.92320
 Alpha virt. eigenvalues --    4.92320   5.14998   5.23085   5.26185   5.26185
 Alpha virt. eigenvalues --    5.39159   5.39626   5.39626   5.44829   5.44829
 Alpha virt. eigenvalues --    5.76863   5.93180   5.94789   5.94789   6.09382
 Alpha virt. eigenvalues --    6.09382   6.33898   8.26129  13.93579  17.14040
  Beta  occ. eigenvalues --  -10.63615 -10.61740 -10.60117  -0.89788  -0.81137
  Beta  occ. eigenvalues --   -0.60816  -0.52618  -0.50223  -0.50223  -0.32064
  Beta  occ. eigenvalues --   -0.32064
  Beta virt. eigenvalues --    0.08336   0.10443   0.10443   0.11325   0.16574
  Beta virt. eigenvalues --    0.16574   0.21407   0.28075   0.30848   0.30848
  Beta virt. eigenvalues --    0.35231   0.38373   0.38373   0.44297   0.49748
  Beta virt. eigenvalues --    0.49748   0.52472   0.52855   0.52855   0.57713
  Beta virt. eigenvalues --    0.66082   0.66082   0.70637   0.70637   0.72158
  Beta virt. eigenvalues --    0.78377   0.91294   0.91294   0.91899   0.94445
  Beta virt. eigenvalues --    0.98336   0.98336   0.98947   1.09091   1.09091
  Beta virt. eigenvalues --    1.14990   1.18229   1.18229   1.30434   1.32483
  Beta virt. eigenvalues --    1.34671   1.34671   1.39522   1.39522   1.48984
  Beta virt. eigenvalues --    1.48984   1.56189   1.62316   1.67116   1.67116
  Beta virt. eigenvalues --    2.13339   2.14904   2.14904   2.29585   2.34660
  Beta virt. eigenvalues --    2.34660   2.49939   2.56487   2.56487   2.61874
  Beta virt. eigenvalues --    2.64260   2.65929   2.69813   2.69813   2.70524
  Beta virt. eigenvalues --    2.83542   2.83542   2.88148   2.90660   2.90660
  Beta virt. eigenvalues --    2.90787   2.96916   2.96916   3.05334   3.06141
  Beta virt. eigenvalues --    3.06141   3.08634   3.08634   3.08730   3.13318
  Beta virt. eigenvalues --    3.18102   3.18102   3.23656   3.23656   3.30392
  Beta virt. eigenvalues --    3.30392   3.42765   3.47358   3.47358   3.50318
  Beta virt. eigenvalues --    3.55385   3.55385   3.63965   3.71170   3.71170
  Beta virt. eigenvalues --    3.74099   3.90329   3.90329   3.96967   3.96967
  Beta virt. eigenvalues --    4.02896   4.08702   4.08702   4.09629   4.17214
  Beta virt. eigenvalues --    4.17214   4.20709   4.36385   4.40835   4.40835
  Beta virt. eigenvalues --    4.50631   4.50631   4.55389   4.71052   4.92320
  Beta virt. eigenvalues --    4.92320   5.14998   5.23085   5.26185   5.26185
  Beta virt. eigenvalues --    5.39159   5.39626   5.39626   5.44829   5.44829
  Beta virt. eigenvalues --    5.76863   5.93180   5.94789   5.94789   6.09382
  Beta virt. eigenvalues --    6.09382   6.33898   8.26129  13.93579  17.14040
          Condensed to atoms (all electrons):
               1          2          3          4          5          6
     1  C    4.998663   0.409049   0.861643  -0.071462  -0.002922  -0.002923
     2  H    0.409049   0.485769  -0.063340   0.001007  -0.000058  -0.000058
     3  C    0.861643  -0.063340   5.005833   0.368728  -0.042718  -0.042719
     4  C   -0.071462   0.001007   0.368728   4.755765   0.412371   0.412371
     5  H   -0.002922  -0.000058  -0.042718   0.412371   0.571379  -0.028575
     6  H   -0.002923  -0.000058  -0.042719   0.412371  -0.028575   0.571379
     7  H   -0.002923  -0.000058  -0.042719   0.412371  -0.028575  -0.028575
               7
     1  C   -0.002923
     2  H   -0.000058
     3  C   -0.042719
     4  C    0.412371
     5  H   -0.028575
     6  H   -0.028575
     7  H    0.571379
          Atomic-Atomic Spin Densities.
               1          2          3          4          5          6
     1  C    0.000000   0.000000  -0.000000   0.000000   0.000000   0.000000
     2  H    0.000000   0.000000  -0.000000   0.000000   0.000000   0.000000
     3  C   -0.000000  -0.000000   0.000000   0.000000   0.000000   0.000000
     4  C    0.000000   0.000000   0.000000  -0.000000  -0.000000  -0.000000
     5  H    0.000000   0.000000   0.000000  -0.000000   0.000000   0.000000
     6  H    0.000000   0.000000   0.000000  -0.000000   0.000000   0.000000
     7  H   -0.000000  -0.000000  -0.000000   0.000000   0.000000  -0.000000
               7
     1  C   -0.000000
     2  H   -0.000000
     3  C   -0.000000
     4  C    0.000000
     5  H    0.000000
     6  H   -0.000000
     7  H   -0.000000
 Mulliken charges and spin densities:
               1          2
     1  C   -0.189125   0.000000
     2  H    0.167688   0.000000
     3  C   -0.044708  -0.000000
     4  C   -0.291151  -0.000000
     5  H    0.119099   0.000000
     6  H    0.119099   0.000000
     7  H    0.119099   0.000000
 Sum of Mulliken charges =  -0.00000   0.00000
 Mulliken charges and spin densities with hydrogens summed into heavy atoms:
               1          2
     1  C   -0.021437   0.000000
     3  C   -0.044708  -0.000000
     4  C    0.066145  -0.000000
 Electronic spatial extent (au):  <R**2>=            177.7918
 Charge=             -0.0000 electrons
 Dipole moment (field-independent basis, Debye):
    X=             -0.0000    Y=             -0.0000    Z=             -0.7856  Tot=              0.7856
 Quadrupole moment (field-independent basis, Debye-Ang):
   XX=            -19.7275   YY=            -19.7275   ZZ=            -13.9852
   XY=             -0.0000   XZ=             -0.0000   YZ=              0.0000
 Traceless Quadrupole moment (field-independent basis, Debye-Ang):
   XX=             -1.9141   YY=             -1.9141   ZZ=              3.8282
   XY=             -0.0000   XZ=             -0.0000   YZ=              0.0000
 Octapole moment (field-independent basis, Debye-Ang**2):
  XXX=             -0.6957  YYY=             -0.0000  ZZZ=              9.0849  XYY=              0.6957
  XXY=             -0.0000  XXZ=             -3.0396  XZZ=              0.0000  YZZ=             -0.0000
  YYZ=             -3.0396  XYZ=              0.0000
 Hexadecapole moment (field-independent basis, Debye-Ang**3):
 XXXX=            -29.0245 YYYY=            -29.0245 ZZZZ=           -156.7016 XXXY=             -0.0000
 XXXZ=              1.1980 YYYX=             -0.0000 YYYZ=              0.0000 ZZZX=             -0.0000
 ZZZY=             -0.0000 XXYY=             -9.6748 XXZZ=            -37.5342 YYZZ=            -37.5342
 XXYZ=              0.0000 YYXZ=             -1.1980 ZZXY=             -0.0000
 N-N= 5.893607912395D+01 E-N=-3.878387248802D+02  KE= 1.158939483642D+02
                          Isotropic Fermi Contact Couplings
        Atom                 a.u.       MegaHertz       Gauss      10(-4) cm-1
     1  C(13)              0.00000       0.00000       0.00000       0.00000
     2  H(1)               0.00000       0.00000       0.00000       0.00000
     3  C(13)             -0.00000      -0.00000      -0.00000      -0.00000
     4  C(13)              0.00000       0.00000       0.00000       0.00000
     5  H(1)               0.00000       0.00000       0.00000       0.00000
     6  H(1)               0.00000       0.00000       0.00000       0.00000
     7  H(1)               0.00000       0.00000       0.00000       0.00000
 --------------------------------------------------------
       Center         ----  Spin Dipole Couplings  ----
                      3XX-RR        3YY-RR        3ZZ-RR
 --------------------------------------------------------
     1   Atom        0.000000      0.000000      0.000000
     2   Atom        0.000000      0.000000      0.000000
     3   Atom        0.000000      0.000000      0.000000
     4   Atom        0.000000      0.000000      0.000000
     5   Atom        0.000000      0.000000      0.000000
     6   Atom        0.000000      0.000000      0.000000
     7   Atom        0.000000      0.000000      0.000000
 --------------------------------------------------------
                        XY            XZ            YZ
 --------------------------------------------------------
     1   Atom        0.000000      0.000000      0.000000
     2   Atom        0.000000      0.000000      0.000000
     3   Atom        0.000000      0.000000      0.000000
     4   Atom        0.000000      0.000000      0.000000
     5   Atom        0.000000      0.000000      0.000000
     6   Atom        0.000000      0.000000      0.000000
     7   Atom        0.000000      0.000000      0.000000
 --------------------------------------------------------


 ---------------------------------------------------------------------------------
              Anisotropic Spin Dipole Couplings in Principal Axis System
 ---------------------------------------------------------------------------------

       Atom             a.u.   MegaHertz   Gauss  10(-4) cm-1        Axes

              Baa     0.0000     0.000     0.000     0.000  1.0000  0.0000  0.0000
     1 C(13)  Bbb     0.0000     0.000     0.000     0.000 -0.0000  1.0000  0.0000
              Bcc     0.0000     0.000     0.000     0.000  0.0000  0.0000  1.0000
 
              Baa     0.0000     0.000     0.000     0.000  1.0000  0.0000  0.0000
     2 H(1)   Bbb     0.0000     0.000     0.000     0.000 -0.0000  1.0000  0.0000
              Bcc     0.0000     0.000     0.000     0.000  0.0000  0.0000  1.0000
 
              Baa     0.0000     0.000     0.000     0.000  1.0000  0.0000  0.0000
     3 C(13)  Bbb     0.0000     0.000     0.000     0.000 -0.0000  1.0000  0.0000
              Bcc     0.0000     0.000     0.000     0.000  0.0000  0.0000  1.0000
 
              Baa     0.0000     0.000     0.000     0.000  1.0000  0.0000  0.0000
     4 C(13)  Bbb     0.0000     0.000     0.000     0.000 -0.0000  1.0000  0.0000
              Bcc     0.0000     0.000     0.000     0.000  0.0000  0.0000  1.0000
 
              Baa     0.0000     0.000     0.000     0.000  1.0000  0.0000  0.0000
     5 H(1)   Bbb     0.0000     0.000     0.000     0.000 -0.0000  1.0000  0.0000
              Bcc     0.0000     0.000     0.000     0.000  0.0000  0.0000  1.0000
 
              Baa     0.0000     0.000     0.000     0.000  1.0000  0.0000  0.0000
     6 H(1)   Bbb     0.0000     0.000     0.000     0.000 -0.0000  1.0000  0.0000
              Bcc     0.0000     0.000     0.000     0.000  0.0000  0.0000  1.0000
 
              Baa     0.0000     0.000     0.000     0.000  1.0000  0.0000  0.0000
     7 H(1)   Bbb     0.0000     0.000     0.000     0.000 -0.0000  1.0000  0.0000
              Bcc     0.0000     0.000     0.000     0.000  0.0000  0.0000  1.0000
 

 ---------------------------------------------------------------------------------

 Calling FoFJK, ICntrl=  10002127 FMM=F ISym2X=1 I1Cent= 0 IOpClX= 1 NMat=1 NMatS=1 NMatT=0.
 ***** Axes restored to original set *****
 -------------------------------------------------------------------
 Center     Atomic                   Forces (Hartrees/Bohr)
 Number     Number              X              Y              Z
 -------------------------------------------------------------------
      1        6           0.000000000    0.000001491    0.017844523
      2        1           0.000000000    0.000001706   -0.001960439
      3        6          -0.000000000   -0.000006281   -0.015835934
      4        6           0.000000000    0.000001369    0.001114828
      5        1          -0.000000209   -0.000395428   -0.000387771
      6        1          -0.000343281    0.000198753   -0.000387603
      7        1           0.000343491    0.000198391   -0.000387603
 -------------------------------------------------------------------
 Cartesian Forces:  Max     0.017844523 RMS     0.005233645

 GradGradGradGradGradGradGradGradGradGradGradGradGradGradGradGradGradGrad
 Berny optimization.
 FormGI is forming the generalized inverse of G from B-inverse, IUseBI=4.
 Internal  Forces:  Max     0.015884084 RMS     0.003889799
 Search for a local minimum.
 Step number   1 out of a maximum of  100
 All quantities printed in internal units (Hartrees-Bohrs-Radians)
 Mixed Optimization -- RFO/linear search
 Second derivative matrix not updated -- first step.
 The second derivative matrix:
                          R1        R2        R3        R4        R5
           R1           0.38264
           R2           0.00000   1.06512
           R3           0.00000   0.00000   0.37287
           R4           0.00000   0.00000   0.00000   0.34912
           R5           0.00000   0.00000   0.00000   0.00000   0.34912
           R6           0.00000   0.00000   0.00000   0.00000   0.00000
           A1           0.00000   0.00000   0.00000   0.00000   0.00000
           A2           0.00000   0.00000   0.00000   0.00000   0.00000
           A3           0.00000   0.00000   0.00000   0.00000   0.00000
           A4           0.00000   0.00000   0.00000   0.00000   0.00000
           A5           0.00000   0.00000   0.00000   0.00000   0.00000
           A6           0.00000   0.00000   0.00000   0.00000   0.00000
           A7           0.00000   0.00000   0.00000   0.00000   0.00000
           A8           0.00000   0.00000   0.00000   0.00000   0.00000
           A9           0.00000   0.00000   0.00000   0.00000   0.00000
           A10          0.00000   0.00000   0.00000   0.00000   0.00000
           D1           0.00000   0.00000   0.00000   0.00000   0.00000
                          R6        A1        A2        A3        A4
           R6           0.34912
           A1           0.00000   0.16000
           A2           0.00000   0.00000   0.16000
           A3           0.00000   0.00000   0.00000   0.16000
           A4           0.00000   0.00000   0.00000   0.00000   0.16000
           A5           0.00000   0.00000   0.00000   0.00000   0.00000
           A6           0.00000   0.00000   0.00000   0.00000   0.00000
           A7           0.00000   0.00000   0.00000   0.00000   0.00000
           A8           0.00000   0.00000   0.00000   0.00000   0.00000
           A9           0.00000   0.00000   0.00000   0.00000   0.00000
           A10          0.00000   0.00000   0.00000   0.00000   0.00000
           D1           0.00000   0.00000   0.00000   0.00000   0.00000
                          A5        A6        A7        A8        A9
           A5           0.16000
           A6           0.00000   0.16000
           A7           0.00000   0.00000   0.04778
           A8           0.00000   0.00000   0.00000   0.01329
           A9           0.00000   0.00000   0.00000   0.00000   0.04778
           A10          0.00000   0.00000   0.00000   0.00000   0.00000
           D1           0.00000   0.00000   0.00000   0.00000   0.00000
                          A10       D1
           A10          0.01329
           D1           0.00000   0.00246
 ITU=  0
     Eigenvalues ---    0.01329   0.01329   0.04778   0.04778   0.07508
     Eigenvalues ---    0.16000   0.16000   0.16000   0.16000   0.34912
     Eigenvalues ---    0.34912   0.34912   0.37287   0.38264   1.06512
 RFO step:  Lambda=-2.56805851D-04 EMin= 1.32897442D-02
 Linear search not attempted -- first point.
 Iteration  1 RMS(Cart)=  0.00507098 RMS(Int)=  0.00000757
 Iteration  2 RMS(Cart)=  0.00000462 RMS(Int)=  0.00000583
 Iteration  3 RMS(Cart)=  0.00000000 RMS(Int)=  0.00000583
 ClnCor:  largest displacement from symmetrization is 1.05D-03 for atom     7.
 Variable       Old X    -DE/DX   Delta X   Delta X   Delta X     New X
                                 (Linear)    (Quad)   (Total)
    R1        2.00682  -0.00196   0.00000  -0.00512  -0.00512   2.00170
    R2        2.26139   0.01588   0.00000   0.01491   0.01491   2.27630
    R3        2.75416   0.00005   0.00000   0.00013   0.00013   2.75429
    R4        2.05819  -0.00023   0.00000  -0.00067  -0.00076   2.05743
    R5        2.05819  -0.00023   0.00000  -0.00067  -0.00076   2.05743
    R6        2.05819  -0.00023   0.00000  -0.00067  -0.00076   2.05743
    A1        1.93031   0.00029   0.00000   0.00305   0.00272   1.93303
    A2        1.93031   0.00029   0.00000   0.00305   0.00272   1.93303
    A3        1.93031   0.00029   0.00000   0.00305   0.00272   1.93303
    A4        1.89055  -0.00007   0.00000  -0.00312  -0.00284   1.88771
    A5        1.89055  -0.00042   0.00000  -0.00320  -0.00284   1.88771
    A6        1.89055  -0.00042   0.00000  -0.00320  -0.00284   1.88771
    A7        3.14159  -0.00000   0.00000  -0.00007   0.00000   3.14159
    A8        3.14159  -0.00001   0.00000  -0.00075   0.00000   3.14159
    A9        3.14159  -0.00000   0.00000  -0.00000   0.00000   3.14159
   A10        3.14159  -0.00000   0.00000  -0.00000   0.00000   3.14159
    D1        2.04702  -0.00054   0.00000  -0.00718  -0.00641   2.04061
         Item               Value     Threshold  Converged?
 Maximum Force            0.015884     0.000450     NO 
 RMS     Force            0.003890     0.000300     NO 
 Maximum Displacement     0.013870     0.001800     NO 
 RMS     Displacement     0.004887     0.001200     NO 
 Predicted change in Energy=-1.283710D-04
 GradGradGradGradGradGradGradGradGradGradGradGradGradGradGradGradGradGrad

                          Input orientation:                          
 ---------------------------------------------------------------------
 Center     Atomic      Atomic             Coordinates (Angstroms)
 Number     Number       Type             X           Y           Z
 ---------------------------------------------------------------------
      1          6           0        0.000000    0.000000    1.423460
      2          1           0       -0.000000    0.000000    2.482715
      3          6           0        0.000000    0.000000    0.218896
      4          6           0        0.000000    0.000000   -1.238609
      5          1           0       -0.000019    1.018092   -1.624425
      6          1           0        0.881703   -0.509030   -1.624425
      7          1           0       -0.881685   -0.509062   -1.624425
 ---------------------------------------------------------------------
                    Distance matrix (angstroms):
                    1          2          3          4          5
     1  C    0.000000
     2  H    1.059256   0.000000
     3  C    1.204564   2.263819   0.000000
     4  C    2.662069   3.721324   1.457505   0.000000
     5  H    3.213427   4.231444   2.105789   1.088745   0.000000
     6  H    3.213427   4.231444   2.105789   1.088745   1.763388
     7  H    3.213427   4.231444   2.105789   1.088745   1.763388
                    6          7
     6  H    0.000000
     7  H    1.763388   0.000000
 Stoichiometry    C3H4
 Framework group  C3V[C3(CCCH),3SGV(H)]
 Deg. of freedom     5
 Full point group                 C3V     NOp   6
 Omega: Change in point group or standard orientation.

 Old FWG=C03  [C3(C1C1C1H1),X(H3)]
 New FWG=C03V [C3(C1C1C1H1),3SGV(H1)]
 Largest Abelian subgroup         CS      NOp   2
 Largest concise Abelian subgroup CS      NOp   2
                         Standard orientation:                         
 ---------------------------------------------------------------------
 Center     Atomic      Atomic             Coordinates (Angstroms)
 Number     Number       Type             X           Y           Z
 ---------------------------------------------------------------------
      1          6           0        0.000000    0.000000    1.422009
      2          1           0        0.000000    0.000000    2.481264
      3          6           0        0.000000    0.000000    0.217445
      4          6           0        0.000000    0.000000   -1.240060
      5          1           0       -0.000000   -1.018092   -1.625876
      6          1           0       -0.881694    0.509046   -1.625876
      7          1           0        0.881694    0.509046   -1.625876
 ---------------------------------------------------------------------
 Rotational constants (GHZ):         161.2636097           8.5790176           8.5790176
 Standard basis: CC-pVTZ (5D, 7F)
 There are   109 symmetry adapted cartesian basis functions of A'  symmetry.
 There are    56 symmetry adapted cartesian basis functions of A"  symmetry.
 There are    94 symmetry adapted basis functions of A'  symmetry.
 There are    52 symmetry adapted basis functions of A"  symmetry.
   146 basis functions,   224 primitive gaussians,   165 cartesian basis functions
    11 alpha electrons       11 beta electrons
       nuclear repulsion energy        58.8068681027 Hartrees.
 NAtoms=    7 NActive=    7 NUniq=    5 SFac= 1.96D+00 NAtFMM=   60 NAOKFM=F Big=F
 Integral buffers will be    131072 words long.
 Raffenetti 2 integral format.
 Two-electron integral symmetry is turned on.
 Nuclear repulsion after empirical dispersion term =       58.8043286098 Hartrees.
 One-electron integrals computed using PRISM.
 NBasis=   146 RedAO= T EigKep=  4.86D-05  NBF=    94    52
 NBsUse=   146 1.00D-06 EigRej= -1.00D+00 NBFU=    94    52
 Initial guess from the checkpoint file:  "/localscratch/339542/Gau-43378.chk"
 B after Tr=     0.000000    0.000000   -0.000000
         Rot=    0.707107    0.000000    0.000000   -0.707107 Ang= -90.00 deg.
 Initial guess orbital symmetries:
 Alpha Orbitals:
       Occupied  (A1) (A1) (A1) (A1) (A1) (A1) (A1) (E) (E) (E)
                 (E)
       Virtual   (A1) (E) (E) (A1) (E) (E) (A1) (A1) (E) (E) (A1)
                 (E) (E) (A1) (E) (E) (A1) (E) (E) (A1) (E) (E)
                 (E) (E) (A1) (A1) (E) (E) (A1) (A2) (E) (E) (A1)
                 (E) (E) (A1) (E) (E) (A1) (A1) (E) (E) (E) (E)
                 (E) (E) (A1) (A1) (E) (E) (A1) (E) (E) (A1) (E)
                 (E) (A1) (E) (E) (A1) (A2) (A1) (E) (E) (A1) (E)
                 (E) (A1) (E) (E) (A2) (E) (E) (A1) (E) (E) (E)
                 (E) (A2) (A1) (E) (E) (E) (E) (E) (E) (A2) (E)
                 (E) (A1) (E) (E) (A1) (E) (E) (A1) (E) (E) (E)
                 (E) (A1) (E) (E) (A1) (E) (E) (A2) (A1) (E) (E)
                 (E) (E) (A1) (A1) (E) (E) (A1) (A2) (E) (E) (A1)
                 (E) (E) (E) (E) (A1) (A1) (E) (E) (E) (E) (A1)
                 (A1) (A1) (A1)
 Beta  Orbitals:
       Occupied  (A1) (A1) (A1) (A1) (A1) (A1) (A1) (E) (E) (E)
                 (E)
       Virtual   (A1) (E) (E) (A1) (E) (E) (A1) (A1) (E) (E) (A1)
                 (E) (E) (A1) (E) (E) (A1) (E) (E) (A1) (E) (E)
                 (E) (E) (A1) (A1) (E) (E) (A1) (A2) (E) (E) (A1)
                 (E) (E) (A1) (E) (E) (A1) (A1) (E) (E) (E) (E)
                 (E) (E) (A1) (A1) (E) (E) (A1) (E) (E) (A1) (E)
                 (E) (A1) (E) (E) (A1) (A2) (A1) (E) (E) (A1) (E)
                 (E) (A1) (E) (E) (A2) (E) (E) (A1) (E) (E) (E)
                 (E) (A2) (A1) (E) (E) (E) (E) (E) (E) (A2) (E)
                 (E) (A1) (E) (E) (A1) (E) (E) (A1) (E) (E) (E)
                 (E) (A1) (E) (E) (A1) (E) (E) (A2) (A1) (E) (E)
                 (E) (E) (A1) (A1) (E) (E) (A1) (A2) (E) (E) (A1)
                 (E) (E) (E) (E) (A1) (A1) (E) (E) (E) (E) (A1)
                 (A1) (A1) (A1)
 Initial guess <Sx>= 0.0000 <Sy>= 0.0000 <Sz>= 0.0000 <S**2>= 0.0000 S= 0.0000
 Keep R1 and R2 ints in memory in symmetry-blocked form, NReq=97784470.
 Requested convergence on RMS density matrix=1.00D-08 within 128 cycles.
 Requested convergence on MAX density matrix=1.00D-06.
 Requested convergence on             energy=1.00D-06.
 No special actions if energy rises.
 SCF Done:  E(UB2PLYPD3) =  -116.432377088     A.U. after    8 cycles
            NFock=  8  Conv=0.67D-08     -V/T= 2.0049
 <Sx>= 0.0000 <Sy>= 0.0000 <Sz>= 0.0000 <S**2>=-0.0000 S=-0.0000
 <L.S>=  0.00000000000    
 Annihilation of the first spin contaminant:
 S**2 before annihilation    -0.0000,   after     0.0000
 DoSCS=T DFT=T ScalE2(SS,OS)=  0.270000  0.270000
 ExpMin= 1.03D-01 ExpMax= 8.24D+03 ExpMxC= 2.81D+02 IAcc=3 IRadAn=         5 AccDes= 0.00D+00
 HarFok:  IExCor=  205 AccDes= 0.00D+00 IRadAn=         5 IDoV=-2 UseB2=F ITyADJ=14
 ICtDFT= 12500011 ScaDFX=  1.000000  1.000000  1.000000  1.000000
 Range of M.O.s used for correlation:     4   146
 NBasis=   146 NAE=    11 NBE=    11 NFC=     3 NFV=     0
 NROrb=    143 NOA=     8 NOB=     8 NVA=   135 NVB=   135

 **** Warning!!: The largest alpha MO coefficient is  0.52957787D+02


 **** Warning!!: The largest beta MO coefficient is  0.52957787D+02

 DoSCS=T DFT=T ScalE2(SS,OS)=  0.270000  0.270000
 Fully direct method using O(ONN) memory.
 JobTyp=2 Pass  1:  I=   4 to  11 NPSUse= 40 ParTrn=T ParDer=T DoDerP=T.
 JobTyp=3 Pass  1:  I=   4 to  11 NPSUse= 40 ParTrn=T ParDer=T DoDerP=T.
 Spin components of T(2) and E(2):
     alpha-alpha T2 =       0.3360607610D-01 E2=     -0.1867082745D-01
     alpha-beta  T2 =       0.2022988323D+00 E2=     -0.1223360387D+00
     beta-beta   T2 =       0.3360607610D-01 E2=     -0.1867082745D-01
 (S**2,0)=  0.00000D+00           (S**2,1)=  0.00000D+00
 E(PUHF)=      -0.11643237709D+03        E(PMP2)=      -0.11659205478D+03
 E2(B2PLYPD3) =    -0.1596776936D+00 E(B2PLYPD3) =    -0.11659205478195D+03
          IDoAtm=1111111
          Differentiating once with respect to electric field.
                with respect to dipole field.
          Differentiating once with respect to nuclear coordinates.
 Keep R1 and R2 ints in memory in symmetry-blocked form, NReq=97789387.
          There are     1 degrees of freedom in the 1st order CPHF.  IDoFFX=0 NUNeed=     1.
 LinEq1:  Iter=  0 NonCon=     1 RMS=8.34D-04 Max=1.09D-02 NDo=     1
 AX will form     1 AO Fock derivatives at one time.
 LinEq1:  Iter=  1 NonCon=     1 RMS=3.16D-04 Max=4.13D-03 NDo=     1
 LinEq1:  Iter=  2 NonCon=     1 RMS=1.33D-04 Max=2.46D-03 NDo=     1
 LinEq1:  Iter=  3 NonCon=     1 RMS=7.88D-05 Max=8.09D-04 NDo=     1
 LinEq1:  Iter=  4 NonCon=     1 RMS=1.33D-05 Max=1.79D-04 NDo=     1
 LinEq1:  Iter=  5 NonCon=     1 RMS=2.29D-06 Max=2.36D-05 NDo=     1
 LinEq1:  Iter=  6 NonCon=     1 RMS=9.27D-07 Max=1.86D-05 NDo=     1
 LinEq1:  Iter=  7 NonCon=     1 RMS=2.13D-07 Max=2.70D-06 NDo=     1
 LinEq1:  Iter=  8 NonCon=     1 RMS=3.56D-08 Max=3.46D-07 NDo=     1
 LinEq1:  Iter=  9 NonCon=     1 RMS=2.74D-09 Max=3.18D-08 NDo=     1
 LinEq1:  Iter= 10 NonCon=     1 RMS=3.32D-10 Max=2.77D-09 NDo=     1
 LinEq1:  Iter= 11 NonCon=     0 RMS=2.67D-11 Max=2.40D-10 NDo=     1
 Linear equations converged to 1.000D-10 1.000D-09 after    11 iterations.
 End of Minotr F.D. properties file   721 does not exist.
 End of Minotr F.D. properties file   722 does not exist.
 End of Minotr F.D. properties file   788 does not exist.
 Calling FoFJK, ICntrl=  10002127 FMM=F ISym2X=1 I1Cent= 0 IOpClX= 1 NMat=1 NMatS=1 NMatT=0.
 ***** Axes restored to original set *****
 -------------------------------------------------------------------
 Center     Atomic                   Forces (Hartrees/Bohr)
 Number     Number              X              Y              Z
 -------------------------------------------------------------------
      1        6           0.000000000   -0.000000509   -0.000549180
      2        1           0.000000000   -0.000000062    0.000274450
      3        6          -0.000000000    0.000000524   -0.000095025
      4        6          -0.000000000    0.000000036    0.000761021
      5        1          -0.000000001    0.000058500   -0.000130433
      6        1           0.000050640   -0.000029244   -0.000130416
      7        1          -0.000050639   -0.000029246   -0.000130416
 -------------------------------------------------------------------
 Cartesian Forces:  Max     0.000761021 RMS     0.000221079

 GradGradGradGradGradGradGradGradGradGradGradGradGradGradGradGradGradGrad
 Berny optimization.
 Using GEDIIS/GDIIS optimizer.
 FormGI is forming the generalized inverse of G from B-inverse, IUseBI=4.
 Internal  Forces:  Max     0.000369755 RMS     0.000144477
 Search for a local minimum.
 Step number   2 out of a maximum of  100
 All quantities printed in internal units (Hartrees-Bohrs-Radians)
 Mixed Optimization -- En-DIIS/RFO-DIIS
 Update second derivatives using D2CorX and points    1    2
 DE= -1.25D-04 DEPred=-1.28D-04 R= 9.74D-01
 TightC=F SS=  1.41D+00  RLast= 1.84D-02 DXNew= 5.0454D-01 5.5133D-02
 Trust test= 9.74D-01 RLast= 1.84D-02 DXMaxT set to 3.00D-01
 The second derivative matrix:
                          R1        R2        R3        R4        R5
           R1           0.38680
           R2          -0.01690   1.08048
           R3          -0.00322   0.02299   0.37353
           R4           0.00085  -0.00434  -0.00049   0.34927
           R5           0.00086  -0.00442  -0.00049   0.00016   0.34928
           R6           0.00086  -0.00442  -0.00049   0.00016   0.00016
           A1           0.00135  -0.01270   0.00029   0.00015   0.00015
           A2           0.00134  -0.01261   0.00029   0.00015   0.00015
           A3           0.00134  -0.01261   0.00029   0.00015   0.00015
           A4          -0.00300   0.02472  -0.00001  -0.00040  -0.00040
           A5          -0.00061   0.00748  -0.00045  -0.00004  -0.00004
           A6          -0.00062   0.00754  -0.00045  -0.00004  -0.00004
           A7           0.00003  -0.00019  -0.00001   0.00000   0.00000
           A8           0.00009  -0.00067  -0.00002   0.00001   0.00001
           A9           0.00000  -0.00000  -0.00000   0.00000   0.00000
           A10         -0.00000   0.00000  -0.00000  -0.00000  -0.00000
           D1           0.00360  -0.02592  -0.00069   0.00054   0.00054
                          R6        A1        A2        A3        A4
           R6           0.34928
           A1           0.00015   0.15946
           A2           0.00015  -0.00053   0.15947
           A3           0.00015  -0.00053  -0.00053   0.15947
           A4          -0.00040   0.00072   0.00072   0.00072   0.15920
           A5          -0.00004   0.00048   0.00047   0.00047  -0.00074
           A6          -0.00004   0.00048   0.00048   0.00048  -0.00074
           A7           0.00000  -0.00000  -0.00000  -0.00000   0.00000
           A8           0.00001  -0.00001  -0.00001  -0.00001   0.00000
           A9           0.00000  -0.00000  -0.00000  -0.00000   0.00000
           A10         -0.00000   0.00000   0.00000   0.00000  -0.00000
           D1           0.00054  -0.00036  -0.00036  -0.00036   0.00007
                          A5        A6        A7        A8        A9
           A5           0.15962
           A6          -0.00038   0.15962
           A7           0.00000   0.00000   0.04778
           A8           0.00001   0.00001   0.00000   0.01329
           A9           0.00000   0.00000   0.00000   0.00000   0.04778
           A10         -0.00000  -0.00000   0.00000   0.00000   0.00000
           D1           0.00053   0.00053   0.00001   0.00002   0.00000
                          A10       D1
           A10          0.01329
           D1           0.00000   0.00318
 ITU=  1  0
 Use linear search instead of GDIIS.
     Eigenvalues ---    0.01329   0.01329   0.04778   0.04778   0.07502
     Eigenvalues ---    0.15976   0.16000   0.16000   0.16000   0.34912
     Eigenvalues ---    0.34912   0.34946   0.37229   0.38695   1.08176
 RFO step:  Lambda=-1.00619252D-06 EMin= 1.32897359D-02
 Quartic linear search produced a step of -0.01601.
 Iteration  1 RMS(Cart)=  0.00030467 RMS(Int)=  0.00000027
 Iteration  2 RMS(Cart)=  0.00000020 RMS(Int)=  0.00000016
 ClnCor:  largest displacement from symmetrization is 5.97D-05 for atom     6.
 Variable       Old X    -DE/DX   Delta X   Delta X   Delta X     New X
                                 (Linear)    (Quad)   (Total)
    R1        2.00170   0.00027   0.00008   0.00061   0.00069   2.00240
    R2        2.27630  -0.00027  -0.00024   0.00003  -0.00021   2.27608
    R3        2.75429  -0.00037  -0.00000  -0.00097  -0.00098   2.75331
    R4        2.05743   0.00010   0.00001   0.00027   0.00029   2.05772
    R5        2.05743   0.00010   0.00001   0.00027   0.00029   2.05772
    R6        2.05743   0.00010   0.00001   0.00027   0.00029   2.05772
    A1        1.93303   0.00006  -0.00004   0.00065   0.00063   1.93366
    A2        1.93303   0.00006  -0.00004   0.00065   0.00063   1.93366
    A3        1.93303   0.00006  -0.00004   0.00065   0.00063   1.93366
    A4        1.88771  -0.00001   0.00005  -0.00067  -0.00066   1.88705
    A5        1.88771  -0.00008   0.00005  -0.00069  -0.00066   1.88705
    A6        1.88771  -0.00009   0.00005  -0.00069  -0.00066   1.88705
    A7        3.14159  -0.00000   0.00000  -0.00000   0.00000   3.14159
    A8        3.14159   0.00000   0.00000   0.00004   0.00000   3.14159
    A9        3.14159  -0.00000  -0.00000  -0.00000  -0.00000   3.14159
   A10        3.14159   0.00000   0.00000   0.00000   0.00000   3.14159
    D1        2.04061  -0.00011   0.00010  -0.00153  -0.00147   2.03914
         Item               Value     Threshold  Converged?
 Maximum Force            0.000370     0.000450     YES
 RMS     Force            0.000144     0.000300     YES
 Maximum Displacement     0.000925     0.001800     YES
 RMS     Displacement     0.000312     0.001200     YES
 Predicted change in Energy=-5.391914D-07
 Optimization completed.
    -- Stationary point found.
                           ----------------------------
                           !   Optimized Parameters   !
                           ! (Angstroms and Degrees)  !
 --------------------------                            --------------------------
 ! Name  Definition              Value          Derivative Info.                !
 --------------------------------------------------------------------------------
 ! R1    R(1,2)                  1.0593         -DE/DX =    0.0003              !
 ! R2    R(1,3)                  1.2046         -DE/DX =   -0.0003              !
 ! R3    R(3,4)                  1.4575         -DE/DX =   -0.0004              !
 ! R4    R(4,5)                  1.0887         -DE/DX =    0.0001              !
 ! R5    R(4,6)                  1.0887         -DE/DX =    0.0001              !
 ! R6    R(4,7)                  1.0887         -DE/DX =    0.0001              !
 ! A1    A(3,4,5)              110.7547         -DE/DX =    0.0001              !
 ! A2    A(3,4,6)              110.7547         -DE/DX =    0.0001              !
 ! A3    A(3,4,7)              110.7547         -DE/DX =    0.0001              !
 ! A4    A(5,4,6)              108.1578         -DE/DX =    0.0                 !
 ! A5    A(5,4,7)              108.1578         -DE/DX =   -0.0001              !
 ! A6    A(6,4,7)              108.1578         -DE/DX =   -0.0001              !
 ! A7    L(2,1,3,5,-1)         180.0            -DE/DX =    0.0                 !
 ! A8    L(1,3,4,5,-1)         180.0            -DE/DX =    0.0                 !
 ! A9    L(2,1,3,5,-2)         180.0            -DE/DX =    0.0                 !
 ! A10   L(1,3,4,5,-2)         180.0            -DE/DX =    0.0                 !
 ! D1    D(5,4,7,6)            116.9182         -DE/DX =   -0.0001              !
 --------------------------------------------------------------------------------
 GradGradGradGradGradGradGradGradGradGradGradGradGradGradGradGradGradGrad

                          Input orientation:                          
 ---------------------------------------------------------------------
 Center     Atomic      Atomic             Coordinates (Angstroms)
 Number     Number       Type             X           Y           Z
 ---------------------------------------------------------------------
      1          6           0       -0.000000    0.000000    1.423460
      2          1           0       -0.000000    0.000000    2.482715
      3          6           0       -0.000000    0.000000    0.218896
      4          6           0       -0.000000    0.000000   -1.238609
      5          1           0       -0.000019    1.018092   -1.624425
      6          1           0        0.881703   -0.509030   -1.624425
      7          1           0       -0.881685   -0.509062   -1.624425
 ---------------------------------------------------------------------
                    Distance matrix (angstroms):
                    1          2          3          4          5
     1  C    0.000000
     2  H    1.059256   0.000000
     3  C    1.204564   2.263819   0.000000
     4  C    2.662069   3.721324   1.457505   0.000000
     5  H    3.213427   4.231444   2.105789   1.088745   0.000000
     6  H    3.213427   4.231444   2.105789   1.088745   1.763388
     7  H    3.213427   4.231444   2.105789   1.088745   1.763388
                    6          7
     6  H    0.000000
     7  H    1.763388   0.000000
 Stoichiometry    C3H4
 Framework group  C3V[C3(CCCH),3SGV(H)]
 Deg. of freedom     5
 Full point group                 C3V     NOp   6
 Largest Abelian subgroup         CS      NOp   2
 Largest concise Abelian subgroup CS      NOp   2
                         Standard orientation:                         
 ---------------------------------------------------------------------
 Center     Atomic      Atomic             Coordinates (Angstroms)
 Number     Number       Type             X           Y           Z
 ---------------------------------------------------------------------
      1          6           0        0.000000    0.000000    1.422009
      2          1           0        0.000000    0.000000    2.481264
      3          6           0        0.000000    0.000000    0.217445
      4          6           0        0.000000    0.000000   -1.240060
      5          1           0       -0.000000   -1.018092   -1.625876
      6          1           0       -0.881694    0.509046   -1.625876
      7          1           0        0.881694    0.509046   -1.625876
 ---------------------------------------------------------------------
 Rotational constants (GHZ):         161.2636097           8.5790176           8.5790176

 **********************************************************************

            Population analysis using the SCF Density.

 **********************************************************************

 Orbital symmetries:
 Alpha Orbitals:
       Occupied  (A1) (A1) (A1) (A1) (A1) (A1) (A1) (E) (E) (E)
                 (E)
       Virtual   (A1) (E) (E) (A1) (E) (E) (A1) (A1) (E) (E) (A1)
                 (E) (E) (A1) (E) (E) (A1) (E) (E) (A1) (E) (E)
                 (E) (E) (A1) (A1) (E) (E) (A1) (A2) (E) (E) (A1)
                 (E) (E) (A1) (E) (E) (A1) (A1) (E) (E) (E) (E)
                 (E) (E) (A1) (A1) (E) (E) (A1) (E) (E) (A1) (E)
                 (E) (A1) (E) (E) (A1) (A2) (A1) (E) (E) (A1) (E)
                 (E) (A1) (E) (E) (A2) (E) (E) (A1) (E) (E) (A2)
                 (E) (E) (A1) (E) (E) (E) (E) (E) (E) (A2) (E)
                 (E) (A1) (E) (E) (A1) (E) (E) (A1) (E) (E) (E)
                 (E) (A1) (E) (E) (A1) (E) (E) (A2) (A1) (E) (E)
                 (E) (E) (A1) (A1) (E) (E) (A1) (A2) (E) (E) (A1)
                 (E) (E) (E) (E) (A1) (A1) (E) (E) (E) (E) (A1)
                 (A1) (A1) (A1)
 Beta  Orbitals:
       Occupied  (A1) (A1) (A1) (A1) (A1) (A1) (A1) (E) (E) (E)
                 (E)
       Virtual   (A1) (E) (E) (A1) (E) (E) (A1) (A1) (E) (E) (A1)
                 (E) (E) (A1) (E) (E) (A1) (E) (E) (A1) (E) (E)
                 (E) (E) (A1) (A1) (E) (E) (A1) (A2) (E) (E) (A1)
                 (E) (E) (A1) (E) (E) (A1) (A1) (E) (E) (E) (E)
                 (E) (E) (A1) (A1) (E) (E) (A1) (E) (E) (A1) (E)
                 (E) (A1) (E) (E) (A1) (A2) (A1) (E) (E) (A1) (E)
                 (E) (A1) (E) (E) (A2) (E) (E) (A1) (E) (E) (A2)
                 (E) (E) (A1) (E) (E) (E) (E) (E) (E) (A2) (E)
                 (E) (A1) (E) (E) (A1) (E) (E) (A1) (E) (E) (E)
                 (E) (A1) (E) (E) (A1) (E) (E) (A2) (A1) (E) (E)
                 (E) (E) (A1) (A1) (E) (E) (A1) (A2) (E) (E) (A1)
                 (E) (E) (E) (E) (A1) (A1) (E) (E) (E) (E) (A1)
                 (A1) (A1) (A1)
 The electronic state is 1-A1.
 Alpha  occ. eigenvalues --  -10.63650 -10.61989 -10.60330  -0.89736  -0.81063
 Alpha  occ. eigenvalues --   -0.60968  -0.52693  -0.50225  -0.50225  -0.31935
 Alpha  occ. eigenvalues --   -0.31935
 Alpha virt. eigenvalues --    0.08317   0.10256   0.10256   0.11322   0.16519
 Alpha virt. eigenvalues --    0.16519   0.21389   0.28098   0.30882   0.30882
 Alpha virt. eigenvalues --    0.34958   0.38428   0.38428   0.44435   0.49705
 Alpha virt. eigenvalues --    0.49705   0.52489   0.52755   0.52755   0.57661
 Alpha virt. eigenvalues --    0.66001   0.66001   0.70559   0.70559   0.72093
 Alpha virt. eigenvalues --    0.78418   0.91172   0.91172   0.91474   0.94516
 Alpha virt. eigenvalues --    0.98175   0.98175   0.98577   1.09156   1.09156
 Alpha virt. eigenvalues --    1.14988   1.17992   1.17992   1.30356   1.32621
 Alpha virt. eigenvalues --    1.34445   1.34445   1.39552   1.39552   1.48877
 Alpha virt. eigenvalues --    1.48877   1.56223   1.62008   1.67488   1.67488
 Alpha virt. eigenvalues --    2.12261   2.15086   2.15086   2.29511   2.34476
 Alpha virt. eigenvalues --    2.34476   2.49622   2.55793   2.55793   2.61886
 Alpha virt. eigenvalues --    2.64414   2.66032   2.69537   2.69537   2.70201
 Alpha virt. eigenvalues --    2.83523   2.83523   2.88145   2.90440   2.90440
 Alpha virt. eigenvalues --    2.90737   2.96838   2.96838   3.04921   3.06203
 Alpha virt. eigenvalues --    3.06203   3.08342   3.08659   3.08659   3.12862
 Alpha virt. eigenvalues --    3.17786   3.17786   3.23552   3.23552   3.30207
 Alpha virt. eigenvalues --    3.30207   3.42931   3.46829   3.46829   3.50024
 Alpha virt. eigenvalues --    3.55357   3.55357   3.63706   3.71126   3.71126
 Alpha virt. eigenvalues --    3.74250   3.89979   3.89979   3.96761   3.96761
 Alpha virt. eigenvalues --    4.02817   4.08474   4.08474   4.09448   4.17087
 Alpha virt. eigenvalues --    4.17087   4.21082   4.36469   4.40342   4.40342
 Alpha virt. eigenvalues --    4.50294   4.50294   4.55447   4.70414   4.92149
 Alpha virt. eigenvalues --    4.92149   5.15138   5.22226   5.25790   5.25790
 Alpha virt. eigenvalues --    5.38851   5.39119   5.39119   5.45430   5.45430
 Alpha virt. eigenvalues --    5.76261   5.92652   5.94919   5.94919   6.09122
 Alpha virt. eigenvalues --    6.09122   6.31356   8.28175  13.93097  16.92559
  Beta  occ. eigenvalues --  -10.63650 -10.61989 -10.60330  -0.89736  -0.81063
  Beta  occ. eigenvalues --   -0.60968  -0.52693  -0.50225  -0.50225  -0.31935
  Beta  occ. eigenvalues --   -0.31935
  Beta virt. eigenvalues --    0.08317   0.10256   0.10256   0.11322   0.16519
  Beta virt. eigenvalues --    0.16519   0.21389   0.28098   0.30882   0.30882
  Beta virt. eigenvalues --    0.34958   0.38428   0.38428   0.44435   0.49705
  Beta virt. eigenvalues --    0.49705   0.52489   0.52755   0.52755   0.57661
  Beta virt. eigenvalues --    0.66001   0.66001   0.70559   0.70559   0.72093
  Beta virt. eigenvalues --    0.78418   0.91172   0.91172   0.91474   0.94516
  Beta virt. eigenvalues --    0.98175   0.98175   0.98577   1.09156   1.09156
  Beta virt. eigenvalues --    1.14988   1.17992   1.17992   1.30356   1.32621
  Beta virt. eigenvalues --    1.34445   1.34445   1.39552   1.39552   1.48877
  Beta virt. eigenvalues --    1.48877   1.56223   1.62008   1.67488   1.67488
  Beta virt. eigenvalues --    2.12261   2.15086   2.15086   2.29511   2.34476
  Beta virt. eigenvalues --    2.34476   2.49622   2.55793   2.55793   2.61886
  Beta virt. eigenvalues --    2.64414   2.66032   2.69537   2.69537   2.70201
  Beta virt. eigenvalues --    2.83523   2.83523   2.88145   2.90440   2.90440
  Beta virt. eigenvalues --    2.90737   2.96838   2.96838   3.04921   3.06203
  Beta virt. eigenvalues --    3.06203   3.08342   3.08659   3.08659   3.12862
  Beta virt. eigenvalues --    3.17786   3.17786   3.23552   3.23552   3.30207
  Beta virt. eigenvalues --    3.30207   3.42931   3.46829   3.46829   3.50024
  Beta virt. eigenvalues --    3.55357   3.55357   3.63706   3.71126   3.71126
  Beta virt. eigenvalues --    3.74250   3.89979   3.89979   3.96761   3.96761
  Beta virt. eigenvalues --    4.02817   4.08474   4.08474   4.09448   4.17087
  Beta virt. eigenvalues --    4.17087   4.21082   4.36469   4.40342   4.40342
  Beta virt. eigenvalues --    4.50294   4.50294   4.55447   4.70414   4.92149
  Beta virt. eigenvalues --    4.92149   5.15138   5.22226   5.25790   5.25790
  Beta virt. eigenvalues --    5.38851   5.39119   5.39119   5.45430   5.45430
  Beta virt. eigenvalues --    5.76261   5.92652   5.94919   5.94919   6.09122
  Beta virt. eigenvalues --    6.09122   6.31356   8.28175  13.93097  16.92559
          Condensed to atoms (all electrons):
               1          2          3          4          5          6
     1  C    4.996958   0.409357   0.862846  -0.069945  -0.002921  -0.002921
     2  H    0.409357   0.483144  -0.062355   0.000983  -0.000057  -0.000057
     3  C    0.862846  -0.062355   5.004567   0.368514  -0.042612  -0.042612
     4  C   -0.069945   0.000983   0.368514   4.755100   0.412209   0.412209
     5  H   -0.002921  -0.000057  -0.042612   0.412209   0.571389  -0.028741
     6  H   -0.002921  -0.000057  -0.042612   0.412209  -0.028741   0.571389
     7  H   -0.002921  -0.000057  -0.042612   0.412209  -0.028741  -0.028741
               7
     1  C   -0.002921
     2  H   -0.000057
     3  C   -0.042612
     4  C    0.412209
     5  H   -0.028741
     6  H   -0.028741
     7  H    0.571389
          Atomic-Atomic Spin Densities.
               1          2          3          4          5          6
     1  C   -0.000000  -0.000000  -0.000000  -0.000000   0.000000   0.000000
     2  H   -0.000000   0.000000  -0.000000  -0.000000   0.000000   0.000000
     3  C   -0.000000  -0.000000   0.000000   0.000000   0.000000   0.000000
     4  C   -0.000000  -0.000000   0.000000   0.000000  -0.000000  -0.000000
     5  H    0.000000   0.000000   0.000000  -0.000000   0.000000  -0.000000
     6  H    0.000000   0.000000   0.000000  -0.000000  -0.000000   0.000000
     7  H    0.000000   0.000000   0.000000  -0.000000  -0.000000  -0.000000
               7
     1  C    0.000000
     2  H    0.000000
     3  C    0.000000
     4  C   -0.000000
     5  H   -0.000000
     6  H   -0.000000
     7  H    0.000000
 Mulliken charges and spin densities:
               1          2
     1  C   -0.190452  -0.000000
     2  H    0.169042  -0.000000
     3  C   -0.045735   0.000000
     4  C   -0.291280   0.000000
     5  H    0.119475   0.000000
     6  H    0.119475   0.000000
     7  H    0.119475   0.000000
 Sum of Mulliken charges =  -0.00000   0.00000
 Mulliken charges and spin densities with hydrogens summed into heavy atoms:
               1          2
     1  C   -0.021410  -0.000000
     3  C   -0.045735   0.000000
     4  C    0.067144   0.000000
 Electronic spatial extent (au):  <R**2>=            178.4523
 Charge=             -0.0000 electrons
 Dipole moment (field-independent basis, Debye):
    X=             -0.0000    Y=              0.0000    Z=             -0.8011  Tot=              0.8011
 Quadrupole moment (field-independent basis, Debye-Ang):
   XX=            -19.7628   YY=            -19.7628   ZZ=            -13.9449
   XY=             -0.0000   XZ=              0.0000   YZ=             -0.0000
 Traceless Quadrupole moment (field-independent basis, Debye-Ang):
   XX=             -1.9393   YY=             -1.9393   ZZ=              3.8786
   XY=             -0.0000   XZ=              0.0000   YZ=             -0.0000
 Octapole moment (field-independent basis, Debye-Ang**2):
  XXX=              0.0000  YYY=             -0.6921  ZZZ=              9.0208  XYY=             -0.0000
  XXY=              0.6921  XXZ=             -3.0759  XZZ=             -0.0000  YZZ=              0.0000
  YYZ=             -3.0759  XYZ=              0.0000
 Hexadecapole moment (field-independent basis, Debye-Ang**3):
 XXXX=            -29.0938 YYYY=            -29.0938 ZZZZ=           -157.1660 XXXY=              0.0000
 XXXZ=             -0.0000 YYYX=              0.0000 YYYZ=              1.1963 ZZZX=              0.0000
 ZZZY=             -0.0000 XXYY=             -9.6979 XXZZ=            -37.7051 YYZZ=            -37.7051
 XXYZ=             -1.1963 YYXZ=              0.0000 ZZXY=             -0.0000
 N-N= 5.880432860981D+01 E-N=-3.875365919164D+02  KE= 1.158606366932D+02
 Symmetry A'   KE= 1.116703329980D+02
 Symmetry A"   KE= 4.190303695184D+00
 Symmetry A'   SP= 3.031890431729D-14
 Symmetry A"   SP= 2.313464918040D-15
                          Isotropic Fermi Contact Couplings
        Atom                 a.u.       MegaHertz       Gauss      10(-4) cm-1
     1  C(13)              0.00000       0.00000       0.00000       0.00000
     2  H(1)              -0.00000      -0.00000      -0.00000      -0.00000
     3  C(13)              0.00000       0.00000       0.00000       0.00000
     4  C(13)              0.00000       0.00000       0.00000       0.00000
     5  H(1)               0.00000       0.00000       0.00000       0.00000
     6  H(1)               0.00000       0.00000       0.00000       0.00000
     7  H(1)               0.00000       0.00000       0.00000       0.00000
 --------------------------------------------------------
       Center         ----  Spin Dipole Couplings  ----
                      3XX-RR        3YY-RR        3ZZ-RR
 --------------------------------------------------------
     1   Atom        0.000000      0.000000     -0.000000
     2   Atom        0.000000      0.000000     -0.000000
     3   Atom       -0.000000      0.000000     -0.000000
     4   Atom        0.000000      0.000000     -0.000000
     5   Atom       -0.000000      0.000000     -0.000000
     6   Atom        0.000000      0.000000     -0.000000
     7   Atom        0.000000      0.000000     -0.000000
 --------------------------------------------------------
                        XY            XZ            YZ
 --------------------------------------------------------
     1   Atom        0.000000     -0.000000      0.000000
     2   Atom        0.000000     -0.000000      0.000000
     3   Atom        0.000000     -0.000000      0.000000
     4   Atom        0.000000     -0.000000     -0.000000
     5   Atom        0.000000      0.000000     -0.000000
     6   Atom       -0.000000     -0.000000      0.000000
     7   Atom        0.000000      0.000000      0.000000
 --------------------------------------------------------


 ---------------------------------------------------------------------------------
              Anisotropic Spin Dipole Couplings in Principal Axis System
 ---------------------------------------------------------------------------------

       Atom             a.u.   MegaHertz   Gauss  10(-4) cm-1        Axes

              Baa    -0.0000    -0.000    -0.000    -0.000  0.0000 -0.1385  0.9904
     1 C(13)  Bbb     0.0000     0.000     0.000     0.000  0.0000  0.9904  0.1385
              Bcc     0.0000     0.000     0.000     0.000  1.0000 -0.0000 -0.0000
 
              Baa    -0.0000    -0.000    -0.000    -0.000  0.0000 -0.0076  1.0000
     2 H(1)   Bbb     0.0000     0.000     0.000     0.000  1.0000 -0.0001 -0.0000
              Bcc     0.0000     0.000     0.000     0.000  0.0001  1.0000  0.0076
 
              Baa    -0.0000    -0.000    -0.000    -0.000  0.0020 -0.6420  0.7667
     3 C(13)  Bbb    -0.0000    -0.000    -0.000    -0.000  1.0000  0.0021 -0.0008
              Bcc     0.0000     0.000     0.000     0.000 -0.0011  0.7667  0.6420
 
              Baa    -0.0000    -0.000    -0.000    -0.000  0.0002  0.0691  0.9976
     4 C(13)  Bbb     0.0000     0.000     0.000     0.000  1.0000 -0.0022 -0.0000
              Bcc     0.0000     0.000     0.000     0.000  0.0022  0.9976 -0.0691
 
              Baa    -0.0000    -0.000    -0.000    -0.000 -0.0001  0.1340  0.9910
     5 H(1)   Bbb    -0.0000    -0.000    -0.000    -0.000  1.0000 -0.0001  0.0001
              Bcc     0.0000     0.000     0.000     0.000  0.0002  0.9910 -0.1340
 
              Baa    -0.0000    -0.000    -0.000    -0.000  0.1268 -0.0262  0.9916
     6 H(1)   Bbb    -0.0000    -0.000    -0.000    -0.000  0.5252  0.8498 -0.0447
              Bcc     0.0000     0.000     0.000     0.000  0.8415 -0.5264 -0.1215
 
              Baa    -0.0000    -0.000    -0.000    -0.000 -0.1268 -0.0261  0.9916
     7 H(1)   Bbb    -0.0000    -0.000    -0.000    -0.000 -0.5253  0.8497 -0.0448
              Bcc     0.0000     0.000     0.000     0.000  0.8414  0.5266  0.1215
 

 ---------------------------------------------------------------------------------

 1\1\GINC-N68\FOpt\UB2PLYPD3-FC\CC-pVTZ\C3H4\ROOT\01-Jun-2019\0\\# opt=
 maxcyc=500 freq=noraman uB2PLYPD3/cc-pvtz\\Title Card Required\\0,1\C,
 0.,0.0000000455,1.4234599239\H,0.,0.0000000455,2.4827154347\C,0.,0.000
 0000455,0.2188963452\C,0.,0.0000000455,-1.2386088558\H,-0.0000188093,1
 .0180924853,-1.6244251929\H,0.881703321,-0.5090298851,-1.6244251929\H,
 -0.8816845117,-0.5090624638,-1.6244251929\\Version=ES64L-G16RevB.01\St
 ate=1-A1\HF=-116.4323771\MP2=-116.5920548\PUHF=-116.4323771\PMP2-0=-11
 6.5920548\S2=0.\S2-1=0.\S2A=0.\RMSD=6.670e-09\RMSF=2.211e-04\Dipole=0.
 ,0.,-0.304256\PG=C03V [C3(C1C1C1H1),3SGV(H1)]\\@


 SCIENCE AND PEACE WILL TRIUMPH OVER IGNORANCE AND WAR

                          -- PASTEUR
 Job cpu time:       0 days  0 hours 18 minutes 24.7 seconds.
 Elapsed time:       0 days  0 hours  0 minutes 34.0 seconds.
 File lengths (MBytes):  RWF=     20 Int=      0 D2E=      0 Chk=      4 Scr=      1
 Normal termination of Gaussian 16 at Sat Jun  1 04:20:57 2019.
 Link1:  Proceeding to internal job step number  2.
 ----------------------------------------------------------------------
 #N Geom=AllCheck Guess=TCheck SCRF=Check GenChk UB2PLYPD3(FC)/CC-pVTZ 
 Freq
 ----------------------------------------------------------------------
 1/6=500,10=4,29=7,30=1,38=1,40=1/1,3;
 2/12=2,40=1/2;
 3/5=16,6=1,11=2,14=-4,25=1,30=1,70=2,71=2,74=-60,116=2,140=1/1,2,3;
 4/5=101/1;
 5/5=2,38=6,98=1/2;
 8/6=3,8=1,10=1,19=11,30=-1/1;
 9/15=3,16=-3/6;
 11/6=1,8=1,15=11,17=12,24=-1,27=1,28=-2,29=300,32=6,42=3/1,2,10;
 10/6=2,21=1/2;
 8/6=4,8=1,10=1,19=11,30=-1/11,4;
 10/5=1,20=4/2;
 11/12=2,14=11,16=1,17=2,28=-2,42=3,76=2/2,10,12;
 6/7=2,8=2,9=2,10=2/1;
 7/8=1,10=1,12=2,25=1,44=2/1,2,3,16;
 1/6=500,10=4,30=1/3;
 99//99;
 Structure from the checkpoint file:  "/localscratch/339542/Gau-43378.chk"
 -------------------
 Title Card Required
 -------------------
 Charge =  0 Multiplicity = 1
 Redundant internal coordinates found in file.  (old form).
 C,0,0.,0.0000000455,1.4234599239
 H,0,0.,0.0000000455,2.4827154347
 C,0,0.,0.0000000455,0.2188963452
 C,0,0.,0.0000000455,-1.2386088558
 H,0,-0.0000188093,1.0180924853,-1.6244251929
 H,0,0.881703321,-0.5090298851,-1.6244251929
 H,0,-0.8816845117,-0.5090624638,-1.6244251929
 Recover connectivity data from disk.

 GradGradGradGradGradGradGradGradGradGradGradGradGradGradGradGradGradGrad
 Berny optimization.
 Initialization pass.
                           ----------------------------
                           !    Initial Parameters    !
                           ! (Angstroms and Degrees)  !
 --------------------------                            --------------------------
 ! Name  Definition              Value          Derivative Info.                !
 --------------------------------------------------------------------------------
 ! R1    R(1,2)                  1.0593         calculate D2E/DX2 analytically  !
 ! R2    R(1,3)                  1.2046         calculate D2E/DX2 analytically  !
 ! R3    R(3,4)                  1.4575         calculate D2E/DX2 analytically  !
 ! R4    R(4,5)                  1.0887         calculate D2E/DX2 analytically  !
 ! R5    R(4,6)                  1.0887         calculate D2E/DX2 analytically  !
 ! R6    R(4,7)                  1.0887         calculate D2E/DX2 analytically  !
 ! A1    A(3,4,5)              110.7547         calculate D2E/DX2 analytically  !
 ! A2    A(3,4,6)              110.7547         calculate D2E/DX2 analytically  !
 ! A3    A(3,4,7)              110.7547         calculate D2E/DX2 analytically  !
 ! A4    A(5,4,6)              108.1578         calculate D2E/DX2 analytically  !
 ! A5    A(5,4,7)              108.1578         calculate D2E/DX2 analytically  !
 ! A6    A(6,4,7)              108.1578         calculate D2E/DX2 analytically  !
 ! A7    L(2,1,3,5,-1)         180.0            calculate D2E/DX2 analytically  !
 ! A8    L(1,3,4,5,-1)         180.0            calculate D2E/DX2 analytically  !
 ! A9    L(2,1,3,5,-2)         180.0            calculate D2E/DX2 analytically  !
 ! A10   L(1,3,4,5,-2)         180.0            calculate D2E/DX2 analytically  !
 ! D1    D(5,4,7,6)            116.9182         calculate D2E/DX2 analytically  !
 --------------------------------------------------------------------------------
 Trust Radius=3.00D-01 FncErr=1.00D-07 GrdErr=1.00D-07 EigMax=2.50D+02 EigMin=1.00D-04
 Number of steps in this run=      2 maximum allowed number of steps=      2.
 GradGradGradGradGradGradGradGradGradGradGradGradGradGradGradGradGradGrad

                          Input orientation:                          
 ---------------------------------------------------------------------
 Center     Atomic      Atomic             Coordinates (Angstroms)
 Number     Number       Type             X           Y           Z
 ---------------------------------------------------------------------
      1          6           0       -0.000000    0.000000    1.423460
      2          1           0       -0.000000    0.000000    2.482715
      3          6           0       -0.000000    0.000000    0.218896
      4          6           0       -0.000000    0.000000   -1.238609
      5          1           0       -0.000019    1.018092   -1.624425
      6          1           0        0.881703   -0.509030   -1.624425
      7          1           0       -0.881685   -0.509062   -1.624425
 ---------------------------------------------------------------------
                    Distance matrix (angstroms):
                    1          2          3          4          5
     1  C    0.000000
     2  H    1.059256   0.000000
     3  C    1.204564   2.263819   0.000000
     4  C    2.662069   3.721324   1.457505   0.000000
     5  H    3.213427   4.231444   2.105789   1.088745   0.000000
     6  H    3.213427   4.231444   2.105789   1.088745   1.763388
     7  H    3.213427   4.231444   2.105789   1.088745   1.763388
                    6          7
     6  H    0.000000
     7  H    1.763388   0.000000
 Stoichiometry    C3H4
 Framework group  C3V[C3(CCCH),3SGV(H)]
 Deg. of freedom     5
 Full point group                 C3V     NOp   6
 Largest Abelian subgroup         CS      NOp   2
 Largest concise Abelian subgroup CS      NOp   2
                         Standard orientation:                         
 ---------------------------------------------------------------------
 Center     Atomic      Atomic             Coordinates (Angstroms)
 Number     Number       Type             X           Y           Z
 ---------------------------------------------------------------------
      1          6           0        0.000000    0.000000    1.422009
      2          1           0        0.000000    0.000000    2.481264
      3          6           0        0.000000    0.000000    0.217445
      4          6           0        0.000000    0.000000   -1.240060
      5          1           0       -0.000000   -1.018092   -1.625876
[...]
                     13                     14                     15
                      E                      E                     A1
 Frequencies --   3126.8824              3126.8827              3496.0275
 Red. masses --      1.1013                 1.1013                 1.1554
 Frc consts  --      6.3440                 6.3440                 8.3205
 IR Inten    --      7.0996                 7.0997                58.5196
  Atom  AN      X      Y      Z        X      Y      Z        X      Y      Z
     1   6    -0.00  -0.00  -0.00    -0.00   0.00  -0.00     0.00  -0.00  -0.11
     2   1    -0.00  -0.00  -0.00    -0.00   0.00  -0.00    -0.00   0.00   0.99
     3   6    -0.00  -0.00   0.00    -0.00   0.00   0.00    -0.00   0.00   0.03
     4   6    -0.00  -0.09  -0.00    -0.09   0.00  -0.00    -0.00  -0.00  -0.00
     5   1    -0.00   0.76   0.29    -0.02  -0.00  -0.00    -0.00  -0.00  -0.00
     6   1    -0.34   0.17  -0.14     0.56  -0.34   0.25    -0.00   0.00  -0.00
     7   1     0.34   0.17  -0.14     0.56   0.34  -0.25     0.00   0.00  -0.00

 -------------------
 - Thermochemistry -
 -------------------
 Temperature   298.150 Kelvin.  Pressure   1.00000 Atm.
 Atom     1 has atomic number  6 and mass  12.00000
 Atom     2 has atomic number  1 and mass   1.00783
 Atom     3 has atomic number  6 and mass  12.00000
 Atom     4 has atomic number  6 and mass  12.00000
 Atom     5 has atomic number  1 and mass   1.00783
 Atom     6 has atomic number  1 and mass   1.00783
 Atom     7 has atomic number  1 and mass   1.00783
 Molecular mass:    40.03130 amu.
 Principal axes and moments of inertia in atomic units:
                           1         2         3
     Eigenvalues --    11.19125 210.36688 210.36688
           X            0.00000   0.45416   0.89092
           Y            0.00000   0.89092  -0.45416
           Z            1.00000  -0.00000  -0.00000
 This molecule is a prolate symmetric top.
 Rotational symmetry number  3.
 Rotational temperatures (Kelvin)      7.73943     0.41173     0.41173
 Rotational constants (GHZ):         161.26361     8.57902     8.57902
 Zero-point vibrational energy     146327.5 (Joules/Mol)
                                   34.97312 (Kcal/Mol)
 Warning -- explicit consideration of   2 degrees of freedom as
           vibrations may cause significant error
 Vibrational temperatures:    484.96   484.96   933.72   933.72  1357.28
          (Kelvin)           1533.06  1533.06  2050.20  2150.19  2150.19
                             3157.41  4401.82  4498.89  4498.89  5030.00
 
 Zero-point correction=                           0.055733 (Hartree/Particle)
 Thermal correction to Energy=                    0.059707
 Thermal correction to Enthalpy=                  0.060651
 Thermal correction to Gibbs Free Energy=         0.032554
 Sum of electronic and zero-point Energies=           -116.536322
 Sum of electronic and thermal Energies=              -116.532348
 Sum of electronic and thermal Enthalpies=            -116.531403
 Sum of electronic and thermal Free Energies=         -116.559501
 
                     E (Thermal)             CV                S
                      KCal/Mol        Cal/Mol-Kelvin    Cal/Mol-Kelvin
 Total                   37.467             12.346             59.137
 Electronic               0.000              0.000              0.000
 Translational            0.889              2.981             36.989
 Rotational               0.889              2.981             18.649
 Vibrational             35.689              6.384              3.499
 Vibration     1          0.718              1.601              1.226
 Vibration     2          0.718              1.601              1.226
                       Q            Log10(Q)             Ln(Q)
 Total Bot       0.106272D-14        -14.973580        -34.477941
 Total V=0       0.459086D+11         10.661894         24.549919
 Vib (Bot)       0.402000D-25        -25.395774        -58.475931
 Vib (Bot)    1  0.551912D+00         -0.258130         -0.594367
 Vib (Bot)    2  0.551912D+00         -0.258130         -0.594367
 Vib (V=0)       0.173660D+01          0.239700          0.551930
 Vib (V=0)    1  0.124472D+01          0.095071          0.218910
 Vib (V=0)    2  0.124472D+01          0.095071          0.218910
 Electronic      0.100000D+01          0.000000          0.000000
 Translational   0.995528D+07          6.998053         16.113613
 Rotational      0.265547D+04          3.424141          7.884376
 ***** Axes restored to original set *****
 -------------------------------------------------------------------
 Center     Atomic                   Forces (Hartrees/Bohr)
 Number     Number              X              Y              Z
 -------------------------------------------------------------------
      1        6           0.000000000   -0.000000020   -0.000549212
      2        1          -0.000000000    0.000000003    0.000274458
      3        6          -0.000000000    0.000000114   -0.000095080
      4        6          -0.000000000    0.000000075    0.000761024
      5        1          -0.000000001    0.000058450   -0.000130229
      6        1           0.000050593   -0.000029310   -0.000130481
      7        1          -0.000050591   -0.000029312   -0.000130481
 -------------------------------------------------------------------
 Cartesian Forces:  Max     0.000761024 RMS     0.000221082
 FormGI is forming the generalized inverse of G from B-inverse, IUseBI=4.

 GradGradGradGradGradGradGradGradGradGradGradGradGradGradGradGradGradGrad
 Berny optimization.
 Internal  Forces:  Max     0.000369833 RMS     0.000144487
 Search for a local minimum.
 Step number   1 out of a maximum of    2
 All quantities printed in internal units (Hartrees-Bohrs-Radians)
 Second derivative matrix not updated -- analytic derivatives used.
 The second derivative matrix:
                          R1        R2        R3        R4        R5
           R1           0.41802
           R2          -0.00744   1.05499
           R3          -0.00069   0.00519   0.35137
           R4          -0.00000  -0.00160   0.00861   0.34192
           R5          -0.00000  -0.00160   0.00861   0.00294   0.34192
           R6          -0.00000  -0.00160   0.00861   0.00294   0.00294
           A1          -0.00002   0.00072   0.01081   0.00972  -0.00641
           A2          -0.00002   0.00072   0.01081  -0.00641   0.00972
           A3          -0.00002   0.00072   0.01081  -0.00641  -0.00641
           A4           0.00001  -0.00018  -0.00274   0.00519   0.00519
           A5           0.00003  -0.00104  -0.01560   0.00848  -0.01043
           A6           0.00003  -0.00104  -0.01560  -0.01043   0.00848
           A7           0.00000  -0.00000   0.00000  -0.00067   0.00033
           A8           0.00000   0.00000  -0.00000  -0.00198   0.00099
           A9          -0.00000  -0.00000  -0.00000  -0.00000  -0.00018
           A10          0.00000   0.00000   0.00000   0.00000  -0.00083
           D1           0.00004  -0.00133  -0.01991   0.00509   0.00509
                          R6        A1        A2        A3        A4
           R6           0.34192
           A1          -0.00853   0.11230
           A2          -0.00853  -0.04325   0.11230
           A3           0.00760  -0.04322  -0.04322   0.11237
           A4          -0.00906   0.00539   0.00539   0.00560   0.05011
           A5           0.00948  -0.01634  -0.01606  -0.01636  -0.03362
           A6           0.00948  -0.01606  -0.01634  -0.01636  -0.03362
           A7           0.00033  -0.00501   0.00254   0.00254   0.00016
           A8           0.00099  -0.01528   0.00788   0.00788   0.00108
           A9           0.00018   0.00001  -0.00137   0.00139   0.00009
           A10          0.00083   0.00013  -0.00633   0.00660   0.00090
           D1          -0.00056  -0.01096  -0.01096  -0.01088   0.02321
                          A5        A6        A7        A8        A9
           A5           0.10782
           A6          -0.02319   0.10782
           A7           0.00020  -0.00044   0.05381
           A8           0.00136  -0.00294   0.02534   0.08338
           A9          -0.00012  -0.00001   0.00000   0.00000   0.00540
           A10         -0.00126  -0.00006  -0.00000   0.00000   0.00388
           D1           0.00555   0.00555   0.00006   0.00043   0.00004
                          A10       D1
           A10          0.01949
           D1           0.00036   0.03333
 ITU=  0
     Eigenvalues ---    0.00440   0.01982   0.03909   0.05912   0.09178
     Eigenvalues ---    0.12801   0.12927   0.15491   0.16045   0.33796
     Eigenvalues ---    0.34202   0.34212   0.36625   0.41794   1.05513
 Angle between quadratic step and forces=  47.91 degrees.
 Linear search not attempted -- first point.
 Iteration  1 RMS(Cart)=  0.00045297 RMS(Int)=  0.00000076
 Iteration  2 RMS(Cart)=  0.00000048 RMS(Int)=  0.00000056
 ClnCor:  largest displacement from symmetrization is 5.32D-06 for atom     7.
 Variable       Old X    -DE/DX   Delta X   Delta X   Delta X     New X
                                 (Linear)    (Quad)   (Total)
    R1        2.00170   0.00027   0.00000   0.00065   0.00065   2.00235
    R2        2.27630  -0.00027   0.00000  -0.00025  -0.00025   2.27604
    R3        2.75429  -0.00037   0.00000  -0.00139  -0.00139   2.75290
    R4        2.05743   0.00010   0.00000   0.00037   0.00037   2.05780
    R5        2.05743   0.00010   0.00000   0.00037   0.00037   2.05780
    R6        2.05743   0.00010   0.00000   0.00037   0.00037   2.05780
    A1        1.93303   0.00006   0.00000   0.00095   0.00095   1.93398
    A2        1.93303   0.00006   0.00000   0.00095   0.00095   1.93398
    A3        1.93303   0.00006   0.00000   0.00095   0.00095   1.93398
    A4        1.88771  -0.00001   0.00000  -0.00099  -0.00099   1.88672
    A5        1.88771  -0.00008   0.00000  -0.00099  -0.00099   1.88672
    A6        1.88771  -0.00009   0.00000  -0.00100  -0.00099   1.88672
    A7        3.14159  -0.00000   0.00000  -0.00000   0.00000   3.14159
    A8        3.14159  -0.00000   0.00000  -0.00000   0.00000   3.14159
    A9        3.14159   0.00000   0.00000   0.00000  -0.00000   3.14159
   A10        3.14159   0.00000   0.00000  -0.00000   0.00000   3.14159
    D1        2.04061  -0.00011   0.00000  -0.00224  -0.00223   2.03838
         Item               Value     Threshold  Converged?
 Maximum Force            0.000370     0.000450     YES
 RMS     Force            0.000144     0.000300     YES
 Maximum Displacement     0.001415     0.001800     YES
 RMS     Displacement     0.000452     0.001200     YES
 Predicted change in Energy=-7.340694D-07
 Optimization completed.
    -- Stationary point found.
                           ----------------------------
                           !   Optimized Parameters   !
                           ! (Angstroms and Degrees)  !
 --------------------------                            --------------------------
 ! Name  Definition              Value          Derivative Info.                !
 --------------------------------------------------------------------------------
 ! R1    R(1,2)                  1.0593         -DE/DX =    0.0003              !
 ! R2    R(1,3)                  1.2046         -DE/DX =   -0.0003              !
 ! R3    R(3,4)                  1.4575         -DE/DX =   -0.0004              !
 ! R4    R(4,5)                  1.0887         -DE/DX =    0.0001              !
 ! R5    R(4,6)                  1.0887         -DE/DX =    0.0001              !
 ! R6    R(4,7)                  1.0887         -DE/DX =    0.0001              !
 ! A1    A(3,4,5)              110.7547         -DE/DX =    0.0001              !
 ! A2    A(3,4,6)              110.7547         -DE/DX =    0.0001              !
 ! A3    A(3,4,7)              110.7547         -DE/DX =    0.0001              !
 ! A4    A(5,4,6)              108.1578         -DE/DX =    0.0                 !
 ! A5    A(5,4,7)              108.1578         -DE/DX =   -0.0001              !
 ! A6    A(6,4,7)              108.1578         -DE/DX =   -0.0001              !
 ! A7    L(2,1,3,5,-1)         180.0            -DE/DX =    0.0                 !
 ! A8    L(1,3,4,5,-1)         180.0            -DE/DX =    0.0                 !
 ! A9    L(2,1,3,5,-2)         180.0            -DE/DX =    0.0                 !
 ! A10   L(1,3,4,5,-2)         180.0            -DE/DX =    0.0                 !
 ! D1    D(5,4,7,6)            116.9182         -DE/DX =   -0.0001              !
 --------------------------------------------------------------------------------
 GradGradGradGradGradGradGradGradGradGradGradGradGradGradGradGradGradGrad


 ----------------------------------------------------------------------

 Electric dipole moment (input orientation):
 (Debye = 10**-18 statcoulomb cm , SI units = C m)
                  (au)            (Debye)         (10**-30 SI)
   Tot        0.304256D+00      0.773342D+00      0.257959D+01
   x          0.000000D+00      0.000000D+00      0.000000D+00
   y          0.000000D+00      0.000000D+00      0.000000D+00
   z         -0.304256D+00     -0.773342D+00     -0.257959D+01

 Dipole polarizability, Alpha (input orientation).
 (esu units = cm**3 , SI units = C**2 m**2 J**-1)
 Alpha(0;0):
               (au)            (10**-24 esu)      (10**-40 SI)
   iso        0.320430D+02      0.474828D+01      0.528317D+01
   aniso      0.243432D+02      0.360728D+01      0.401364D+01
   xx         0.239285D+02      0.354584D+01      0.394528D+01
   yx         0.000000D+00      0.000000D+00      0.000000D+00
   yy         0.239286D+02      0.354585D+01      0.394529D+01
   zx         0.000000D+00      0.000000D+00      0.000000D+00
   zy         0.494922D-04      0.733399D-05      0.816016D-05
   zz         0.482717D+02      0.715313D+01      0.795893D+01

 ----------------------------------------------------------------------

 Dipole orientation:
     6          0.00000000         -0.00000003         -2.68994941
     1          0.00000000          0.00000000         -4.69165222
     6          0.00000000         -0.00000008         -0.41365414
     6         -0.00000000         -0.00000013          2.34063151
     1         -0.00003554         -1.92391603          3.06971869
     1          1.66617780          0.96192701          3.06971874
     1         -1.66614226          0.96198858          3.06971874

 Electric dipole moment (dipole orientation):
 (Debye = 10**-18 statcoulomb cm , SI units = C m)
                  (au)            (Debye)         (10**-30 SI)
   Tot        0.304256D+00      0.773342D+00      0.257959D+01
   x          0.000000D+00      0.000000D+00      0.000000D+00
   y          0.000000D+00      0.000000D+00      0.000000D+00
   z          0.304256D+00      0.773342D+00      0.257959D+01

 Dipole polarizability, Alpha (dipole orientation).
 (esu units = cm**3 , SI units = C**2 m**2 J**-1)
 Alpha(0;0):
               (au)            (10**-24 esu)      (10**-40 SI)
   iso        0.320430D+02      0.474828D+01      0.528317D+01
   aniso      0.243432D+02      0.360728D+01      0.401364D+01
   xx         0.239285D+02      0.354584D+01      0.394528D+01
   yx         0.000000D+00      0.000000D+00      0.000000D+00
   yy         0.239286D+02      0.354585D+01      0.394529D+01
   zx         0.000000D+00      0.000000D+00      0.000000D+00
   zy         0.490299D-04      0.726548D-05      0.808394D-05
   zz         0.482717D+02      0.715313D+01      0.795893D+01

 ----------------------------------------------------------------------
 1\1\GINC-N68\Freq\UB2PLYPD3-FC\CC-pVTZ\C3H4\ROOT\01-Jun-2019\0\\#N Geo
 m=AllCheck Guess=TCheck SCRF=Check GenChk UB2PLYPD3(FC)/CC-pVTZ Freq\\
 Title Card Required\\0,1\C,0.,0.0000000455,1.4234599239\H,0.,0.0000000
 455,2.4827154347\C,0.,0.0000000455,0.2188963452\C,0.,0.0000000455,-1.2
 386088558\H,-0.0000188093,1.0180924853,-1.6244251929\H,0.881703321,-0.
 5090298851,-1.6244251929\H,-0.8816845117,-0.5090624638,-1.6244251929\\
 Version=ES64L-G16RevB.01\State=1-A1\HF=-116.4323771\MP2=-116.5920548\P
 UHF=-116.4323771\PMP2-0=-116.5920548\S2=0.\S2-1=0.\S2A=0.\RMSD=5.285e-
 10\RMSF=2.211e-04\ZeroPoint=0.0557332\Thermal=0.0597072\Dipole=0.,0.,-
 0.3042561\DipoleDeriv=-0.2522113,0.,0.,0.,-0.2522117,0.0000009,0.,-0.0
 000075,-0.4852819,0.2131572,0.,0.,0.,0.2131573,-0.0000003,0.,0.,0.2024
 445,-0.1469544,0.,0.,0.,-0.146955,-0.0000016,0.,0.0000056,0.2490972,0.
 1296985,0.,0.,0.,0.129697,0.0000054,0.,0.0000039,0.1095158,0.0912895,0
 .0000027,-0.0000012,0.0000027,-0.0537488,0.0670644,-0.0000006,0.030721
 1,-0.0252574,-0.017492,0.0628034,0.0580826,0.0628023,0.0550329,-0.0335
 333,0.0266069,-0.015361,-0.025259,-0.0174874,-0.0628061,-0.0580813,-0.
 0628049,0.0550283,-0.0335355,-0.0266063,-0.015362,-0.025259\Polar=23.9
 285475,0.,23.9286076,0.,0.0000495,48.2717373\PG=C03V [C3(C1C1C1H1),3SG
 V(H1)]\NImag=0\\0.04260528,0.,0.04260537,0.,-0.00000079,1.48789843,-0.
 01954094,0.,0.,0.01329231,0.,-0.01954095,0.00000013,0.,0.01329231,0.,0
 .00000003,-0.42546731,0.,-0.00000004,0.41802250,-0.02884519,0.,0.,0.00
 028274,0.,0.,0.08830229,0.,-0.02884524,0.00000059,0.,0.00028275,0.0000
 0002,0.,0.08830225,0.,0.00000082,-1.05655690,0.,-0.00000007,0.00675948
 ,0.,-0.00000061,1.39597883,0.00516709,0.,0.,0.00594563,0.,0.,-0.064863
 54,0.,0.,0.54700138,0.,0.00516687,-0.00000003,0.,0.00594565,0.,0.,-0.0
 6486334,0.,0.,0.54700191,0.,0.00000020,-0.00397242,0.,-0.00000004,0.00
 057404,0.,-0.00000024,-0.28664273,0.,0.00000011,0.51705538,0.00061448,
 0.00000002,0.00000004,0.00015305,0.,0.,-0.00157518,-0.00000012,-0.0000
 0006,-0.04533855,0.00000440,-0.00000157,0.04488558,0.00000002,-0.00020
 519,-0.00194579,0.,-0.00013955,0.00001195,-0.00000012,0.00499093,0.003
 39926,0.00000440,-0.28349529,0.08497549,-0.00000483,0.30617510,0.00000
 002,-0.00122378,-0.00063403,0.00000002,-0.00131208,0.00003710,-0.00000
 062,0.03335458,-0.01984613,-0.00000160,0.08646713,-0.07567139,0.000001
 76,-0.09524145,0.08815234,-0.00000038,0.00035506,-0.00168509,-0.000066
 40,0.00012668,0.00001035,0.00334954,-0.00284327,0.00294393,-0.22395981
 ,0.10312260,0.07359159,0.00062985,-0.00081101,-0.00128244,0.24085685,0
 .00035496,0.00040959,0.00097292,0.00012669,0.00007990,-0.00000598,-0.0
 0284317,0.00006622,-0.00169965,0.10312266,-0.10487408,-0.04248640,0.02
 556843,-0.01366255,-0.01102223,-0.11313929,0.11020386,-0.00105973,0.00
 061174,-0.00063389,-0.00113631,0.00065603,0.00003710,0.02888615,-0.016
 67664,-0.01984627,0.07488347,-0.04323222,-0.07567144,-0.01018688,0.004
 40008,0.00398106,-0.08248240,0.04761925,0.08815236,-0.00000035,-0.0003
 5507,0.00168505,-0.00006639,-0.00012669,-0.00001035,0.00334933,0.00284
 339,-0.00294387,-0.22395219,-0.10312700,-0.07359002,0.00063076,0.00081
 153,0.00128285,-0.02080965,-0.01319028,-0.00890430,0.24084849,-0.00035
 497,0.00040956,0.00097298,-0.00012670,0.00007989,-0.00000598,0.0028432
 9,0.00006643,-0.00169975,-0.10312706,-0.10488170,-0.04248912,-0.025567
 90,-0.01366346,-0.01102218,0.01318922,0.00777706,0.00662176,0.11314412
 ,0.11021222,0.00105971,0.00061178,-0.00063389,0.00113629,0.00065607,0.
 00003710,-0.02888553,-0.01667771,-0.01984627,-0.07488187,-0.04323499,-
 0.07567144,0.01018672,0.00440046,0.00398106,0.00890405,0.00662208,0.00
 398108,0.08248064,0.04762229,0.08815236\\0.,0.00000002,0.00054921,0.,0
 .,-0.00027446,0.,-0.00000011,0.00009508,0.,-0.00000008,-0.00076102,0.,
 -0.00005845,0.00013023,-0.00005059,0.00002931,0.00013048,0.00005059,0.
 00002931,0.00013048\\\@


 HAPPINESS IS NOT HAVING WHAT YOU WANT --
 HAPPINESS IS WANTING WHAT YOU HAVE!

              -- FROM MRS. SEVERN'S DESK
 Job cpu time:       0 days  1 hours 30 minutes 40.4 seconds.
 Elapsed time:       0 days  0 hours  2 minutes 19.3 seconds.
 File lengths (MBytes):  RWF=   3318 Int=      0 D2E=      0 Chk=      4 Scr=      1
 Normal termination of Gaussian 16 at Sat Jun  1 04:23:18 2019.
