 Entering Gaussian System, Link 0=g16
 Initial command:
 /ichec/packages/gaussian/16b01/l1.exe "/localscratch/339542/Gau-32271.inp" -scrdir="/localscratch/339542/"
 Entering Link 1 = /ichec/packages/gaussian/16b01/l1.exe PID=     32298.
  
 Copyright (c) 1988-2017, Gaussian, Inc.  All Rights Reserved.
  
 This is part of the Gaussian(R) 16 program.  It is based on
 the Gaussian(R) 09 system (copyright 2009, Gaussian, Inc.),
 the Gaussian(R) 03 system (copyright 2003, Gaussian, Inc.),
 the Gaussian(R) 98 system (copyright 1998, Gaussian, Inc.),
 the Gaussian(R) 94 system (copyright 1995, Gaussian, Inc.),
 the Gaussian 92(TM) system (copyright 1992, Gaussian, Inc.),
 the Gaussian 90(TM) system (copyright 1990, Gaussian, Inc.),
 the Gaussian 88(TM) system (copyright 1988, Gaussian, Inc.),
 the Gaussian 86(TM) system (copyright 1986, Carnegie Mellon
 University), and the Gaussian 82(TM) system (copyright 1983,
 Carnegie Mellon University). Gaussian is a federally registered
 trademark of Gaussian, Inc.
  
 This software contains proprietary and confidential information,
 including trade secrets, belonging to Gaussian, Inc.
  
 This software is provided under written license and may be
 used, copied, transmitted, or stored only in accord with that
 written license.
  
 The following legend is applicable only to US Government
 contracts under FAR:
  
                    RESTRICTED RIGHTS LEGEND
  
 Use, reproduction and disclosure by the US Government is
 subject to restrictions as set forth in subparagraphs (a)
 and (c) of the Commercial Computer Software - Restricted
 Rights clause in FAR 52.227-19.
  
 Gaussian, Inc.
 340 Quinnipiac St., Bldg. 40, Wallingford CT 06492
  
  
 ---------------------------------------------------------------
 Warning -- This program may not be used in any manner that
 competes with the business of Gaussian, Inc. or will provide
 assistance to any competitor of Gaussian, Inc.  The licensee
 of this program is prohibited from giving any competitor of
 Gaussian, Inc. access to this program.  By using this program,
 the user acknowledges that Gaussian, Inc. is engaged in the
 business of creating and licensing software in the field of
 computational chemistry and represents and warrants to the
 licensee that it is not a competitor of Gaussian, Inc. and that
 it will not use this program in any manner prohibited above.
 ---------------------------------------------------------------
  

 Cite this work as:
 Gaussian 16, Revision B.01,
 M. J. Frisch, G. W. Trucks, H. B. Schlegel, G. E. Scuseria, 
 M. A. Robb, J. R. Cheeseman, G. Scalmani, V. Barone, 
 G. A. Petersson, H. Nakatsuji, X. Li, M. Caricato, A. V. Marenich, 
 J. Bloino, B. G. Janesko, R. Gomperts, B. Mennucci, H. P. Hratchian, 
 J. V. Ortiz, A. F. Izmaylov, J. L. Sonnenberg, D. Williams-Young, 
 F. Ding, F. Lipparini, F. Egidi, J. Goings, B. Peng, A. Petrone, 
 T. Henderson, D. Ranasinghe, V. G. Zakrzewski, J. Gao, N. Rega, 
 G. Zheng, W. Liang, M. Hada, M. Ehara, K. Toyota, R. Fukuda, 
 J. Hasegawa, M. Ishida, T. Nakajima, Y. Honda, O. Kitao, H. Nakai, 
 T. Vreven, K. Throssell, J. A. Montgomery, Jr., J. E. Peralta, 
 F. Ogliaro, M. J. Bearpark, J. J. Heyd, E. N. Brothers, K. N. Kudin, 
 V. N. Staroverov, T. A. Keith, R. Kobayashi, J. Normand, 
 K. Raghavachari, A. P. Rendell, J. C. Burant, S. S. Iyengar, 
 J. Tomasi, M. Cossi, J. M. Millam, M. Klene, C. Adamo, R. Cammi, 
 J. W. Ochterski, R. L. Martin, K. Morokuma, O. Farkas, 
 J. B. Foresman, and D. J. Fox, Gaussian, Inc., Wallingford CT, 2016.
 
 ******************************************
 Gaussian 16:  ES64L-G16RevB.01 20-Dec-2017
                 1-Jun-2019 
 ******************************************
 %mem=80GB
 %nproc=40
 Will use up to   40 processors via shared memory.
 -----------------------------------------------
 # opt=maxcyc=500 freq=noraman uB2PLYPD3/cc-pvtz
 -----------------------------------------------
 1/6=500,18=20,19=15,38=1/1,3;
 2/9=110,12=2,17=6,18=5,40=1/2;
 3/5=16,6=1,11=2,25=1,30=1,71=1,74=-60,116=2/1,2,3;
 4//1;
 5/5=2,38=5/2;
 8/6=4,10=1/1;
 9/15=2,16=-3/6;
 10/5=1/2;
 6/7=2,8=2,9=2,10=2/1;
 7/12=2/1,2,3,16;
 1/6=500,18=20,19=15/3(2);
 2/9=110/2;
 99//99;
 2/9=110/2;
 3/5=16,6=1,11=2,25=1,30=1,71=1,74=-60,116=2/1,2,3;
 4/5=5,16=3,69=1/1;
 5/5=2,38=5/2;
 8/6=4,10=1/1;
 9/15=2,16=-3/6;
 10/5=1/2;
 7/12=2/1,2,3,16;
 1/6=500,18=20,19=15/3(-8);
 2/9=110/2;
 6/7=2,8=2,9=2,10=2/1;
 99/9=10/99;
 -------------------
 Title Card Required
 -------------------
 Symbolic Z-matrix:
 Charge =  0 Multiplicity = 2
 C                     0.        0.        1.5371 
 C                     0.        0.        0.3372 
 C                     0.        0.       -1.12322 
 H                     0.        1.02063  -1.50217 
 H                     0.8839   -0.51032  -1.50217 
 H                    -0.8839   -0.51032  -1.50217 
 

 GradGradGradGradGradGradGradGradGradGradGradGradGradGradGradGradGradGrad
 Berny optimization.
 Initialization pass.
                           ----------------------------
                           !    Initial Parameters    !
                           ! (Angstroms and Degrees)  !
 --------------------------                            --------------------------
 ! Name  Definition              Value          Derivative Info.                !
 --------------------------------------------------------------------------------
 ! R1    R(1,2)                  1.1999         estimate D2E/DX2                !
 ! R2    R(2,3)                  1.4604         estimate D2E/DX2                !
 ! R3    R(3,4)                  1.0887         estimate D2E/DX2                !
 ! R4    R(3,5)                  1.0887         estimate D2E/DX2                !
 ! R5    R(3,6)                  1.0887         estimate D2E/DX2                !
 ! A1    A(2,3,4)              110.3697         estimate D2E/DX2                !
 ! A2    A(2,3,5)              110.3697         estimate D2E/DX2                !
 ! A3    A(2,3,6)              110.3697         estimate D2E/DX2                !
 ! A4    A(4,3,5)              108.558          estimate D2E/DX2                !
 ! A5    A(4,3,6)              108.558          estimate D2E/DX2                !
 ! A6    A(5,3,6)              108.558          estimate D2E/DX2                !
 ! A7    L(1,2,3,4,-1)         180.0            estimate D2E/DX2                !
 ! A8    L(1,2,3,4,-2)         180.0            estimate D2E/DX2                !
 ! D1    D(4,3,6,5)            117.8296         estimate D2E/DX2                !
 --------------------------------------------------------------------------------
 Trust Radius=3.00D-01 FncErr=1.00D-07 GrdErr=1.00D-07 EigMax=2.50D+02 EigMin=1.00D-04
 Number of steps in this run=    100 maximum allowed number of steps=    100.
 GradGradGradGradGradGradGradGradGradGradGradGradGradGradGradGradGradGrad

                          Input orientation:                          
 ---------------------------------------------------------------------
 Center     Atomic      Atomic             Coordinates (Angstroms)
 Number     Number       Type             X           Y           Z
 ---------------------------------------------------------------------
      1          6           0        0.000000    0.000000    1.537102
      2          6           0        0.000000    0.000000    0.337202
      3          6           0        0.000000    0.000000   -1.123217
      4          1           0        0.000000    1.020633   -1.502173
      5          1           0        0.883895   -0.510317   -1.502173
      6          1           0       -0.883895   -0.510317   -1.502173
 ---------------------------------------------------------------------
                    Distance matrix (angstroms):
                    1          2          3          4          5
     1  C    0.000000
     2  C    1.199900   0.000000
     3  C    2.660319   1.460419   0.000000
     4  H    3.206070   2.103567   1.088715   0.000000
     5  H    3.206070   2.103567   1.088716   1.767789   0.000000
     6  H    3.206070   2.103567   1.088716   1.767789   1.767790
                    6
     6  H    0.000000
 Stoichiometry    C3H3(2)
 Framework group  C3[C3(CCC),X(H3)]
 Deg. of freedom     4
 Full point group                 C3      NOp   3
 Largest Abelian subgroup         C1      NOp   1
 Largest concise Abelian subgroup C1      NOp   1
                         Standard orientation:                         
 ---------------------------------------------------------------------
 Center     Atomic      Atomic             Coordinates (Angstroms)
 Number     Number       Type             X           Y           Z
 ---------------------------------------------------------------------
      1          6           0        0.000000   -0.000000    1.537102
      2          6           0        0.000000   -0.000000    0.337202
      3          6           0        0.000000   -0.000000   -1.123217
      4          1           0       -1.020633    0.000000   -1.502173
      5          1           0        0.510317    0.883894   -1.502173
      6          1           0        0.510317   -0.883894   -1.502173
 ---------------------------------------------------------------------
 Rotational constants (GHZ):         160.4617591           9.5822712           9.5822712
 Standard basis: CC-pVTZ (5D, 7F)
 There are   150 symmetry adapted cartesian basis functions of A   symmetry.
 There are   132 symmetry adapted basis functions of A   symmetry.
   132 basis functions,   207 primitive gaussians,   150 cartesian basis functions
    11 alpha electrons       10 beta electrons
       nuclear repulsion energy        53.2281960531 Hartrees.
 NAtoms=    6 NActive=    6 NUniq=    4 SFac= 2.25D+00 NAtFMM=   60 NAOKFM=F Big=F
 Integral buffers will be    131072 words long.
 Raffenetti 2 integral format.
 Two-electron integral symmetry is turned on.
 Nuclear repulsion after empirical dispersion term =       53.2258194402 Hartrees.
 One-electron integrals computed using PRISM.
 NBasis=   132 RedAO= T EigKep=  2.42D-04  NBF=   132
 NBsUse=   132 1.00D-06 EigRej= -1.00D+00 NBFU=   132
 ExpMin= 1.03D-01 ExpMax= 8.24D+03 ExpMxC= 2.81D+02 IAcc=3 IRadAn=         5 AccDes= 0.00D+00
 Harris functional with IExCor=  419 and IRadAn=       5 diagonalized for initial guess.
 HarFok:  IExCor=  419 AccDes= 0.00D+00 IRadAn=         5 IDoV= 1 UseB2=F ITyADJ=14
 ICtDFT=  3500011 ScaDFX=  1.000000  1.000000  1.000000  1.000000
 FoFCou: FMM=F IPFlag=           0 FMFlag=      100000 FMFlg1=           0
         NFxFlg=           0 DoJE=T BraDBF=F KetDBF=T FulRan=T
         wScrn=  0.000000 ICntrl=       500 IOpCl=  0 I1Cent=   200000004 NGrid=           0
         NMat0=    1 NMatS0=      1 NMatT0=    0 NMatD0=    1 NMtDS0=    0 NMtDT0=    0
 Petite list used in FoFCou.
 Initial guess orbital symmetries:
 Alpha Orbitals:
       Occupied  (A) (A) (A) (A) (A) (A) (E) (E) (E) (E) (A)
       Virtual   (E) (E) (A) (E) (E) (A) (A) (A) (E) (E) (E) (E)
                 (A) (E) (E) (E) (E) (A) (A) (E) (E) (E) (E) (A)
                 (A) (A) (E) (E) (A) (E) (E) (E) (E) (A) (E) (E)
                 (A) (E) (E) (A) (E) (E) (A) (E) (E) (A) (E) (E)
                 (A) (E) (E) (E) (E) (A) (A) (A) (A) (E) (E) (A)
                 (E) (E) (E) (E) (A) (A) (E) (E) (E) (E) (A) (A)
                 (E) (E) (E) (E) (E) (E) (A) (E) (E) (A) (A) (E)
                 (E) (A) (E) (E) (A) (E) (E) (E) (E) (A) (E) (E)
                 (A) (E) (E) (A) (A) (E) (E) (A) (E) (E) (A) (A)
                 (E) (E) (A) (E) (E) (E) (E) (A) (E) (E) (A) (A)
                 (A)
 Beta  Orbitals:
       Occupied  (A) (A) (A) (A) (A) (A) (E) (E) (E) (E)
       Virtual   (A) (E) (E) (A) (E) (E) (A) (A) (A) (E) (E) (E)
                 (E) (A) (E) (E) (E) (E) (A) (A) (E) (E) (E) (E)
                 (A) (A) (A) (E) (E) (A) (E) (E) (E) (E) (A) (E)
                 (E) (A) (E) (E) (A) (E) (E) (A) (E) (E) (A) (E)
                 (E) (A) (E) (E) (E) (E) (A) (A) (A) (A) (E) (E)
                 (A) (E) (E) (E) (E) (A) (A) (E) (E) (E) (E) (A)
                 (A) (E) (E) (E) (E) (E) (E) (A) (E) (E) (A) (A)
                 (E) (E) (A) (E) (E) (A) (E) (E) (E) (E) (A) (E)
                 (E) (A) (E) (E) (A) (A) (E) (E) (A) (E) (E) (A)
                 (A) (E) (E) (A) (E) (E) (E) (E) (A) (E) (E) (A)
                 (A) (A)
 The electronic state of the initial guess is 2-A.
 Initial guess <Sx>= 0.0000 <Sy>= 0.0000 <Sz>= 0.5000 <S**2>= 0.7500 S= 0.5000
 Keep R1 and R2 ints in memory in canonical form, NReq=116116892.
 Requested convergence on RMS density matrix=1.00D-08 within 128 cycles.
 Requested convergence on MAX density matrix=1.00D-06.
 Requested convergence on             energy=1.00D-06.
 No special actions if energy rises.
 Integral accuracy reduced to 1.0D-05 until final iterations.
 Initial convergence to 1.0D-05 achieved.  Increase integral accuracy.
 SCF Done:  E(UB2PLYPD3) =  -115.723693708     A.U. after   18 cycles
            NFock= 18  Conv=0.26D-08     -V/T= 2.0044
 <Sx>= 0.0000 <Sy>= 0.0000 <Sz>= 0.5000 <S**2>= 0.8053 S= 0.5273
 <L.S>=  0.00000000000    
 Annihilation of the first spin contaminant:
 S**2 before annihilation     0.8053,   after     0.7518
 DoSCS=T DFT=T ScalE2(SS,OS)=  0.270000  0.270000
 ExpMin= 1.03D-01 ExpMax= 8.24D+03 ExpMxC= 2.81D+02 IAcc=3 IRadAn=         5 AccDes= 0.00D+00
 HarFok:  IExCor=  205 AccDes= 0.00D+00 IRadAn=         5 IDoV=-2 UseB2=F ITyADJ=14
 ICtDFT= 12500011 ScaDFX=  1.000000  1.000000  1.000000  1.000000
 Range of M.O.s used for correlation:     4   132
 NBasis=   132 NAE=    11 NBE=    10 NFC=     3 NFV=     0
 NROrb=    129 NOA=     8 NOB=     7 NVA=   121 NVB=   122

 **** Warning!!: The largest alpha MO coefficient is  0.27623870D+02


 **** Warning!!: The largest beta MO coefficient is  0.27769707D+02

 DoSCS=T DFT=T ScalE2(SS,OS)=  0.270000  0.270000
 Fully direct method using O(ONN) memory.
 JobTyp=2 Pass  1:  I=   4 to  11 NPSUse= 40 ParTrn=T ParDer=T DoDerP=T.
 JobTyp=3 Pass  1:  I=   4 to  10 NPSUse= 40 ParTrn=T ParDer=T DoDerP=T.
 Spin components of T(2) and E(2):
     alpha-alpha T2 =       0.3407316053D-01 E2=     -0.1928215935D-01
     alpha-beta  T2 =       0.1856311261D+00 E2=     -0.1106056302D+00
     beta-beta   T2 =       0.2944352481D-01 E2=     -0.1609077677D-01
 (S**2,0)=  0.80525D+00           (S**2,1)=  0.77167D+00
 Scaling Projection term by:   0.270000
 E(PUHF)=      -0.11572946521D+03        E(PMP2)=      -0.11587076611D+03
 E2(B2PLYPD3) =    -0.1459785664D+00 E(B2PLYPD3) =    -0.11586967227447D+03
          IDoAtm=111111
          Differentiating once with respect to electric field.
                with respect to dipole field.
          Differentiating once with respect to nuclear coordinates.
 Keep R1 and R2 ints in memory in canonical form, NReq=116121076.
          There are     1 degrees of freedom in the 1st order CPHF.  IDoFFX=0 NUNeed=     1.
 LinEq1:  Iter=  0 NonCon=     1 RMS=1.30D-03 Max=2.23D-02 NDo=     1
 AX will form     1 AO Fock derivatives at one time.
 LinEq1:  Iter=  1 NonCon=     1 RMS=5.88D-04 Max=8.92D-03 NDo=     1
 LinEq1:  Iter=  2 NonCon=     1 RMS=4.32D-04 Max=8.75D-03 NDo=     1
 LinEq1:  Iter=  3 NonCon=     1 RMS=2.91D-04 Max=5.46D-03 NDo=     1
 LinEq1:  Iter=  4 NonCon=     1 RMS=7.64D-05 Max=1.31D-03 NDo=     1
 LinEq1:  Iter=  5 NonCon=     1 RMS=1.68D-05 Max=3.42D-04 NDo=     1
 LinEq1:  Iter=  6 NonCon=     1 RMS=6.70D-06 Max=9.95D-05 NDo=     1
 LinEq1:  Iter=  7 NonCon=     1 RMS=2.21D-06 Max=4.01D-05 NDo=     1
 LinEq1:  Iter=  8 NonCon=     1 RMS=4.56D-07 Max=6.36D-06 NDo=     1
 LinEq1:  Iter=  9 NonCon=     1 RMS=1.30D-07 Max=1.30D-06 NDo=     1
 LinEq1:  Iter= 10 NonCon=     1 RMS=2.81D-08 Max=4.38D-07 NDo=     1
 LinEq1:  Iter= 11 NonCon=     1 RMS=3.78D-09 Max=5.18D-08 NDo=     1
 LinEq1:  Iter= 12 NonCon=     1 RMS=4.74D-10 Max=9.09D-09 NDo=     1
 LinEq1:  Iter= 13 NonCon=     0 RMS=6.64D-11 Max=7.92D-10 NDo=     1
 Linear equations converged to 1.000D-10 1.000D-09 after    13 iterations.
 End of Minotr F.D. properties file   721 does not exist.
 End of Minotr F.D. properties file   722 does not exist.
 End of Minotr F.D. properties file   788 does not exist.

 **********************************************************************

            Population analysis using the SCF Density.

 **********************************************************************

 Orbital symmetries:
 Alpha Orbitals:
       Occupied  (A) (A) (A) (A) (A) (A) (E) (E) (A) (E) (E)
       Virtual   (A) (E) (E) (E) (E) (A) (A) (E) (E) (A) (E) (E)
                 (A) (E) (E) (E) (E) (A) (A) (E) (E) (E) (E) (A)
                 (A) (A) (E) (E) (A) (E) (E) (E) (E) (A) (E) (E)
                 (A) (E) (E) (A) (E) (E) (A) (E) (E) (A) (E) (E)
                 (A) (E) (E) (E) (E) (A) (A) (A) (A) (A) (E) (E)
                 (E) (E) (E) (E) (A) (A) (E) (E) (A) (E) (E) (A)
                 (E) (E) (E) (E) (E) (E) (A) (E) (E) (A) (A) (E)
                 (E) (E) (E) (A) (E) (E) (A) (E) (E) (A) (E) (E)
                 (A) (E) (E) (A) (A) (E) (E) (A) (E) (E) (A) (A)
                 (E) (E) (A) (E) (E) (E) (E) (A) (E) (E) (A) (A)
                 (A)
 Beta  Orbitals:
       Occupied  (A) (A) (A) (A) (A) (A) (E) (E) (E) (E)
       Virtual   (A) (A) (E) (E) (E) (E) (A) (A) (E) (E) (A) (E)
                 (E) (E) (E) (A) (E) (E) (A) (A) (E) (E) (E) (E)
                 (A) (A) (A) (E) (E) (A) (E) (E) (E) (E) (A) (E)
                 (E) (A) (E) (E) (A) (E) (E) (A) (E) (E) (A) (E)
                 (E) (A) (E) (E) (E) (E) (A) (A) (A) (A) (E) (E)
                 (A) (E) (E) (E) (E) (A) (A) (E) (E) (A) (E) (E)
                 (A) (E) (E) (E) (E) (E) (E) (A) (E) (E) (A) (A)
                 (E) (E) (E) (E) (A) (E) (E) (A) (E) (E) (A) (E)
                 (E) (A) (E) (E) (A) (A) (E) (E) (A) (E) (E) (A)
                 (A) (E) (E) (A) (E) (E) (E) (E) (A) (E) (E) (A)
                 (A) (A)
 The electronic state is 2-A.
 Alpha  occ. eigenvalues --  -10.66194 -10.64444 -10.63162  -0.91006  -0.82871
 Alpha  occ. eigenvalues --   -0.55825  -0.50767  -0.50767  -0.46629  -0.34360
 Alpha  occ. eigenvalues --   -0.34360
 Alpha virt. eigenvalues --    0.08080   0.09555   0.09555   0.16087   0.16087
 Alpha virt. eigenvalues --    0.21189   0.22995   0.30437   0.30437   0.33415
 Alpha virt. eigenvalues --    0.37189   0.37189   0.47613   0.49896   0.49896
 Alpha virt. eigenvalues --    0.52114   0.52114   0.52782   0.59686   0.66240
 Alpha virt. eigenvalues --    0.66240   0.71666   0.71666   0.74568   0.79575
 Alpha virt. eigenvalues --    0.92035   0.92954   0.92954   0.93900   1.05288
 Alpha virt. eigenvalues --    1.05288   1.10205   1.10205   1.18985   1.24560
 Alpha virt. eigenvalues --    1.24560   1.28895   1.37160   1.37160   1.37233
 Alpha virt. eigenvalues --    1.41284   1.41284   1.59289   1.61403   1.61403
 Alpha virt. eigenvalues --    1.92057   2.12965   2.12965   2.26173   2.34110
 Alpha virt. eigenvalues --    2.34110   2.43701   2.43701   2.50132   2.60152
 Alpha virt. eigenvalues --    2.62958   2.64332   2.71269   2.71336   2.71336
 Alpha virt. eigenvalues --    2.75389   2.75389   2.88045   2.88045   2.89938
 Alpha virt. eigenvalues --    2.93685   2.98226   2.98226   3.05253   3.06057
 Alpha virt. eigenvalues --    3.06057   3.07112   3.12781   3.12781   3.23398
 Alpha virt. eigenvalues --    3.23398   3.24752   3.24752   3.28254   3.34796
 Alpha virt. eigenvalues --    3.34796   3.42037   3.44750   3.55611   3.55611
 Alpha virt. eigenvalues --    3.63897   3.63897   3.66935   3.81476   3.81476
 Alpha virt. eigenvalues --    3.81648   4.00524   4.00524   4.01164   4.03524
 Alpha virt. eigenvalues --    4.03524   4.19834   4.33394   4.33394   4.35772
 Alpha virt. eigenvalues --    4.50564   4.51994   4.51994   4.84812   4.94798
 Alpha virt. eigenvalues --    4.94798   5.14643   5.23882   5.27891   5.27891
 Alpha virt. eigenvalues --    5.32282   5.41887   5.41887   5.48814   5.48814
 Alpha virt. eigenvalues --    5.66351   5.97315   5.97315   6.80117  13.87428
 Alpha virt. eigenvalues --   15.25253
  Beta  occ. eigenvalues --  -10.64353 -10.63414 -10.63108  -0.90341  -0.80094
  Beta  occ. eigenvalues --   -0.54702  -0.51103  -0.51103  -0.32428  -0.32428
  Beta virt. eigenvalues --   -0.09436   0.08074   0.11394   0.11394   0.16886
  Beta virt. eigenvalues --    0.16886   0.21473   0.25882   0.30444   0.30444
  Beta virt. eigenvalues --    0.33673   0.38216   0.38216   0.49839   0.49839
  Beta virt. eigenvalues --    0.50370   0.52653   0.52653   0.54152   0.59381
  Beta virt. eigenvalues --    0.66449   0.66449   0.72655   0.72655   0.74944
  Beta virt. eigenvalues --    0.82353   0.93813   0.94127   0.94127   0.96031
  Beta virt. eigenvalues --    1.06255   1.06255   1.11409   1.11409   1.20048
  Beta virt. eigenvalues --    1.25378   1.25378   1.29709   1.37319   1.37319
  Beta virt. eigenvalues --    1.39344   1.41474   1.41474   1.59698   1.62105
  Beta virt. eigenvalues --    1.62105   1.93121   2.13535   2.13535   2.26723
  Beta virt. eigenvalues --    2.34199   2.34199   2.44128   2.44128   2.51030
  Beta virt. eigenvalues --    2.63369   2.63738   2.65150   2.71951   2.71951
  Beta virt. eigenvalues --    2.72124   2.76452   2.76452   2.89058   2.89058
  Beta virt. eigenvalues --    2.90312   2.97793   2.98967   2.98967   3.06456
  Beta virt. eigenvalues --    3.07461   3.07461   3.07787   3.15038   3.15038
  Beta virt. eigenvalues --    3.25196   3.25196   3.26644   3.26644   3.32119
  Beta virt. eigenvalues --    3.37726   3.37726   3.41903   3.45533   3.55679
  Beta virt. eigenvalues --    3.55679   3.65323   3.65323   3.69016   3.81920
  Beta virt. eigenvalues --    3.81920   3.84205   4.00488   4.00488   4.01194
  Beta virt. eigenvalues --    4.04406   4.04406   4.19690   4.33396   4.33396
  Beta virt. eigenvalues --    4.35921   4.50535   4.52515   4.52515   4.86446
  Beta virt. eigenvalues --    4.94907   4.94907   5.15566   5.23851   5.27940
  Beta virt. eigenvalues --    5.27940   5.32430   5.42043   5.42043   5.49954
  Beta virt. eigenvalues --    5.49954   5.67449   5.97292   5.97292   6.80633
  Beta virt. eigenvalues --   13.87466  15.27390
          Condensed to atoms (all electrons):
               1          2          3          4          5          6
     1  C    5.055301   0.987169  -0.038633  -0.002893  -0.002893  -0.002893
     2  C    0.987169   4.899159   0.343760  -0.042426  -0.042426  -0.042426
     3  C   -0.038633   0.343760   4.725333   0.413762   0.413762   0.413762
     4  H   -0.002893  -0.042426   0.413762   0.563511  -0.027596  -0.027596
     5  H   -0.002893  -0.042426   0.413762  -0.027596   0.563511  -0.027596
     6  H   -0.002893  -0.042426   0.413762  -0.027596  -0.027596   0.563511
          Atomic-Atomic Spin Densities.
               1          2          3          4          5          6
     1  C    1.282369  -0.007151  -0.006906   0.000443   0.000443   0.000443
     2  C   -0.007151  -0.317833   0.022525   0.006380   0.006380   0.006380
     3  C   -0.006906   0.022525   0.039282  -0.004745  -0.004745  -0.004745
     4  H    0.000443   0.006380  -0.004745  -0.014790   0.001857   0.001857
     5  H    0.000443   0.006380  -0.004745   0.001857  -0.014790   0.001857
     6  H    0.000443   0.006380  -0.004745   0.001857   0.001857  -0.014790
 Mulliken charges and spin densities:
               1          2
     1  C    0.004842   1.269642
     2  C   -0.102810  -0.283318
     3  C   -0.271747   0.040665
     4  H    0.123238  -0.008997
     5  H    0.123238  -0.008997
     6  H    0.123238  -0.008997
 Sum of Mulliken charges =  -0.00000   1.00000
 Mulliken charges and spin densities with hydrogens summed into heavy atoms:
               1          2
     1  C    0.004842   1.269642
     2  C   -0.102810  -0.283318
     3  C    0.097968   0.013676
 Electronic spatial extent (au):  <R**2>=            155.6675
 Charge=             -0.0000 electrons
 Dipole moment (field-independent basis, Debye):
    X=             -0.0000    Y=              0.0000    Z=             -1.5595  Tot=              1.5595
 Quadrupole moment (field-independent basis, Debye-Ang):
   XX=            -18.8465   YY=            -18.8465   ZZ=            -16.4327
   XY=              0.0000   XZ=             -0.0000   YZ=              0.0000
 Traceless Quadrupole moment (field-independent basis, Debye-Ang):
   XX=             -0.8046   YY=             -0.8046   ZZ=              1.6092
   XY=              0.0000   XZ=             -0.0000   YZ=              0.0000
 Octapole moment (field-independent basis, Debye-Ang**2):
  XXX=             -0.7158  YYY=             -0.0000  ZZZ=             -2.2403  XYY=              0.7158
  XXY=              0.0000  XXZ=             -3.4388  XZZ=             -0.0000  YZZ=              0.0000
  YYZ=             -3.4388  XYZ=             -0.0000
 Hexadecapole moment (field-independent basis, Debye-Ang**3):
 XXXX=            -28.0266 YYYY=            -28.0266 ZZZZ=           -163.4896 XXXY=             -0.0000
 XXXZ=              1.1495 YYYX=              0.0000 YYYZ=              0.0000 ZZZX=             -0.0000
 ZZZY=             -0.0000 XXYY=             -9.3422 XXZZ=            -33.2378 YYZZ=            -33.2378
 XXYZ=              0.0000 YYXZ=             -1.1496 ZZXY=              0.0000
 N-N= 5.322581944021D+01 E-N=-3.749208651090D+02  KE= 1.152172970968D+02
                          Isotropic Fermi Contact Couplings
        Atom                 a.u.       MegaHertz       Gauss      10(-4) cm-1
     1  C(13)              0.87392     982.45121     350.56302     327.71045
     2  C(13)              0.21899     246.18142      87.84365      82.11728
     3  C(13)              0.01097      12.33335       4.40085       4.11396
     4  H(1)              -0.00222      -9.90239      -3.53342      -3.30308
     5  H(1)              -0.00222      -9.90240      -3.53342      -3.30308
     6  H(1)              -0.00222      -9.90240      -3.53342      -3.30308
 --------------------------------------------------------
       Center         ----  Spin Dipole Couplings  ----
                      3XX-RR        3YY-RR        3ZZ-RR
 --------------------------------------------------------
     1   Atom       -0.397207     -0.397207      0.794414
     2   Atom       -0.160102     -0.160102      0.320204
     3   Atom       -0.018512     -0.018512      0.037024
     4   Atom       -0.001341     -0.003944      0.005285
     5   Atom       -0.003293     -0.001992      0.005285
     6   Atom       -0.003293     -0.001992      0.005285
 --------------------------------------------------------
                        XY            XZ            YZ
 --------------------------------------------------------
     1   Atom       -0.000000     -0.000000     -0.000000
     2   Atom       -0.000000      0.000000      0.000000
     3   Atom       -0.000000      0.000000      0.000000
     4   Atom       -0.000000      0.002726      0.000000
     5   Atom        0.001127     -0.001363     -0.002361
     6   Atom       -0.001127     -0.001363      0.002361
 --------------------------------------------------------


 ---------------------------------------------------------------------------------
              Anisotropic Spin Dipole Couplings in Principal Axis System
 ---------------------------------------------------------------------------------

       Atom             a.u.   MegaHertz   Gauss  10(-4) cm-1        Axes

              Baa    -0.3972   -53.301   -19.019   -17.779  1.0000  0.0000  0.0000
     1 C(13)  Bbb    -0.3972   -53.301   -19.019   -17.779 -0.0000  1.0000  0.0000
              Bcc     0.7944   106.603    38.039    35.559 -0.0000 -0.0000  1.0000
 
              Baa    -0.1601   -21.484    -7.666    -7.166  0.0000  1.0000 -0.0000
     2 C(13)  Bbb    -0.1601   -21.484    -7.666    -7.166  1.0000 -0.0000 -0.0000
              Bcc     0.3202    42.968    15.332    14.333  0.0000  0.0000  1.0000
 
              Baa    -0.0185    -2.484    -0.886    -0.829  1.0000  0.0000 -0.0000
     3 C(13)  Bbb    -0.0185    -2.484    -0.886    -0.829 -0.0000  1.0000 -0.0000
              Bcc     0.0370     4.968     1.773     1.657  0.0000  0.0000  1.0000
 
              Baa    -0.0039    -2.105    -0.751    -0.702  0.0000  1.0000 -0.0000
     4 H(1)   Bbb    -0.0023    -1.237    -0.441    -0.413  0.9413 -0.0000 -0.3375
              Bcc     0.0063     3.341     1.192     1.115  0.3375 -0.0000  0.9413
 
              Baa    -0.0039    -2.105    -0.751    -0.702  0.8660 -0.5000 -0.0000
     5 H(1)   Bbb    -0.0023    -1.237    -0.441    -0.413  0.4707  0.8152  0.3375
              Bcc     0.0063     3.341     1.192     1.115 -0.1688 -0.2923  0.9413
 
              Baa    -0.0039    -2.105    -0.751    -0.702  0.8660  0.5000 -0.0000
     6 H(1)   Bbb    -0.0023    -1.237    -0.441    -0.413 -0.4707  0.8152 -0.3375
              Bcc     0.0063     3.341     1.192     1.115 -0.1688  0.2923  0.9413
 

 ---------------------------------------------------------------------------------

 Calling FoFJK, ICntrl=  10002127 FMM=F ISym2X=1 I1Cent= 0 IOpClX= 1 NMat=1 NMatS=1 NMatT=0.
 ***** Axes restored to original set *****
 -------------------------------------------------------------------
 Center     Atomic                   Forces (Hartrees/Bohr)
 Number     Number              X              Y              Z
 -------------------------------------------------------------------
      1        6           0.000000000   -0.000002073    0.012074920
      2        6          -0.000000000   -0.000003084   -0.012065463
      3        6           0.000000000    0.000004497    0.000822393
      4        1           0.000000029   -0.000458665   -0.000277436
      5        1          -0.000397801    0.000229637   -0.000277207
      6        1           0.000397773    0.000229687   -0.000277207
 -------------------------------------------------------------------
 Cartesian Forces:  Max     0.012074920 RMS     0.004034011

 GradGradGradGradGradGradGradGradGradGradGradGradGradGradGradGradGradGrad
 Berny optimization.
 FormGI is forming the generalized inverse of G from B-inverse, IUseBI=4.
 Internal  Forces:  Max     0.012074920 RMS     0.003237810
 Search for a local minimum.
 Step number   1 out of a maximum of  100
 All quantities printed in internal units (Hartrees-Bohrs-Radians)
 Mixed Optimization -- RFO/linear search
 Second derivative matrix not updated -- first step.
 The second derivative matrix:
                          R1        R2        R3        R4        R5
           R1           1.04873
           R2           0.00000   0.36912
           R3           0.00000   0.00000   0.34962
           R4           0.00000   0.00000   0.00000   0.34962
           R5           0.00000   0.00000   0.00000   0.00000   0.34962
           A1           0.00000   0.00000   0.00000   0.00000   0.00000
           A2           0.00000   0.00000   0.00000   0.00000   0.00000
           A3           0.00000   0.00000   0.00000   0.00000   0.00000
           A4           0.00000   0.00000   0.00000   0.00000   0.00000
           A5           0.00000   0.00000   0.00000   0.00000   0.00000
           A6           0.00000   0.00000   0.00000   0.00000   0.00000
           A7           0.00000   0.00000   0.00000   0.00000   0.00000
           A8           0.00000   0.00000   0.00000   0.00000   0.00000
           D1           0.00000   0.00000   0.00000   0.00000   0.00000
                          A1        A2        A3        A4        A5
           A1           0.16000
           A2           0.00000   0.16000
           A3           0.00000   0.00000   0.16000
           A4           0.00000   0.00000   0.00000   0.16000
           A5           0.00000   0.00000   0.00000   0.00000   0.16000
           A6           0.00000   0.00000   0.00000   0.00000   0.00000
           A7           0.00000   0.00000   0.00000   0.00000   0.00000
           A8           0.00000   0.00000   0.00000   0.00000   0.00000
           D1           0.00000   0.00000   0.00000   0.00000   0.00000
                          A6        A7        A8        D1
           A6           0.16000
           A7           0.00000   0.01290
           A8           0.00000   0.00000   0.01290
           D1           0.00000   0.00000   0.00000   0.00252
 ITU=  0
     Eigenvalues ---    0.01290   0.01290   0.07460   0.16000   0.16000
     Eigenvalues ---    0.16000   0.16000   0.34962   0.34962   0.34962
     Eigenvalues ---    0.36912   1.04873
 RFO step:  Lambda=-1.46625556D-04 EMin= 1.28952827D-02
 Linear search not attempted -- first point.
 Iteration  1 RMS(Cart)=  0.00395408 RMS(Int)=  0.00000577
 Iteration  2 RMS(Cart)=  0.00000337 RMS(Int)=  0.00000459
 Iteration  3 RMS(Cart)=  0.00000000 RMS(Int)=  0.00000459
 ClnCor:  largest displacement from symmetrization is 6.58D-05 for atom     5.
 Variable       Old X    -DE/DX   Delta X   Delta X   Delta X     New X
                                 (Linear)    (Quad)   (Total)
    R1        2.26748   0.01207   0.00000   0.01151   0.01151   2.27899
    R2        2.75979   0.00001   0.00000   0.00003   0.00003   2.75982
    R3        2.05737  -0.00033   0.00000  -0.00095  -0.00094   2.05644
    R4        2.05737  -0.00033   0.00000  -0.00095  -0.00094   2.05644
    R5        2.05737  -0.00033   0.00000  -0.00095  -0.00094   2.05644
    A1        1.92631   0.00025   0.00000   0.00259   0.00257   1.92889
    A2        1.92631   0.00024   0.00000   0.00256   0.00257   1.92889
    A3        1.92631   0.00024   0.00000   0.00256   0.00257   1.92889
    A4        1.89469  -0.00006   0.00000  -0.00261  -0.00266   1.89203
    A5        1.89469  -0.00035   0.00000  -0.00267  -0.00266   1.89203
    A6        1.89469  -0.00035   0.00000  -0.00268  -0.00266   1.89203
    A7        3.14159  -0.00000   0.00000  -0.00003   0.00000   3.14159
    A8        3.14159  -0.00000   0.00000  -0.00000   0.00000   3.14159
    D1        2.05651  -0.00046   0.00000  -0.00609  -0.00611   2.05040
         Item               Value     Threshold  Converged?
 Maximum Force            0.012075     0.000450     NO 
 RMS     Force            0.003238     0.000300     NO 
 Maximum Displacement     0.011922     0.001800     NO 
 RMS     Displacement     0.003954     0.001200     NO 
 Predicted change in Energy=-7.331812D-05
 GradGradGradGradGradGradGradGradGradGradGradGradGradGradGradGradGradGrad

                          Input orientation:                          
 ---------------------------------------------------------------------
 Center     Atomic      Atomic             Coordinates (Angstroms)
 Number     Number       Type             X           Y           Z
 ---------------------------------------------------------------------
      1          6           0       -0.000000   -0.000000    1.543411
      2          6           0        0.000000   -0.000000    0.337419
      3          6           0       -0.000000   -0.000000   -1.123014
      4          1           0       -0.000016    1.019191   -1.504421
      5          1           0        0.882653   -0.509582   -1.504421
      6          1           0       -0.882638   -0.509609   -1.504421
 ---------------------------------------------------------------------
                    Distance matrix (angstroms):
                    1          2          3          4          5
     1  C    0.000000
     2  C    1.205992   0.000000
     3  C    2.666425   1.460433   0.000000
     4  H    3.213725   2.105024   1.088220   0.000000
     5  H    3.213725   2.105024   1.088220   1.765291   0.000000
     6  H    3.213725   2.105024   1.088220   1.765291   1.765291
                    6
     6  H    0.000000
 Stoichiometry    C3H3(2)
 Framework group  C3V[C3(CCC),3SGV(H)]
 Deg. of freedom     4
 Full point group                 C3V     NOp   6
 Omega: Change in point group or standard orientation.

 Old FWG=C03  [C3(C1C1C1),X(H3)]
 New FWG=C03V [C3(C1C1C1),3SGV(H1)]
 Largest Abelian subgroup         CS      NOp   2
 Largest concise Abelian subgroup CS      NOp   2
                         Standard orientation:                         
 ---------------------------------------------------------------------
 Center     Atomic      Atomic             Coordinates (Angstroms)
 Number     Number       Type             X           Y           Z
 ---------------------------------------------------------------------
      1          6           0        0.000000    0.000000    1.541809
      2          6           0        0.000000    0.000000    0.335817
      3          6           0        0.000000    0.000000   -1.124615
      4          1           0       -0.000000   -1.019191   -1.506022
      5          1           0       -0.882646    0.509596   -1.506022
      6          1           0        0.882646    0.509596   -1.506022
 ---------------------------------------------------------------------
 Rotational constants (GHZ):         160.9160582           9.5409548           9.5409548
 Standard basis: CC-pVTZ (5D, 7F)
 There are    98 symmetry adapted cartesian basis functions of A'  symmetry.
 There are    52 symmetry adapted cartesian basis functions of A"  symmetry.
 There are    84 symmetry adapted basis functions of A'  symmetry.
 There are    48 symmetry adapted basis functions of A"  symmetry.
   132 basis functions,   207 primitive gaussians,   150 cartesian basis functions
    11 alpha electrons       10 beta electrons
       nuclear repulsion energy        53.1265150498 Hartrees.
 NAtoms=    6 NActive=    6 NUniq=    4 SFac= 2.25D+00 NAtFMM=   60 NAOKFM=F Big=F
 Integral buffers will be    131072 words long.
 Raffenetti 2 integral format.
 Two-electron integral symmetry is turned on.
 Nuclear repulsion after empirical dispersion term =       53.1241412052 Hartrees.
 One-electron integrals computed using PRISM.
 NBasis=   132 RedAO= T EigKep=  2.47D-04  NBF=    84    48
 NBsUse=   132 1.00D-06 EigRej= -1.00D+00 NBFU=    84    48
 Initial guess from the checkpoint file:  "/localscratch/339542/Gau-32298.chk"
 B after Tr=     0.000000   -0.000000   -0.000000
         Rot=    0.707107    0.000000   -0.000000   -0.707107 Ang= -90.00 deg.
 Initial guess orbital symmetries:
 Alpha Orbitals:
       Occupied  (A1) (A1) (A1) (A1) (A1) (A1) (E) (E) (A1) (E)
                 (E)
       Virtual   (A1) (E) (E) (E) (E) (A1) (A1) (E) (E) (A1) (E)
                 (E) (A1) (E) (E) (E) (E) (A1) (A1) (E) (E) (E)
                 (E) (A1) (A1) (A1) (E) (E) (A2) (E) (E) (E) (E)
                 (A1) (E) (E) (A1) (E) (E) (A1) (E) (E) (A1) (E)
                 (E) (A1) (E) (E) (A1) (E) (E) (E) (E) (A1) (A1)
                 (A2) (A1) (A1) (E) (E) (E) (E) (E) (E) (A2) (A1)
                 (E) (E) (A1) (E) (E) (A2) (E) (E) (E) (E) (E)
                 (E) (A1) (E) (E) (A2) (A1) (E) (E) (E) (E) (A1)
                 (E) (E) (A1) (E) (E) (A1) (E) (E) (A2) (E) (E)
                 (A1) (A1) (E) (E) (A1) (E) (E) (A1) (A2) (E) (E)
                 (A1) (E) (E) (E) (E) (A1) (E) (E) (A1) (A1) (A1)
 Beta  Orbitals:
       Occupied  (A1) (A1) (A1) (A1) (A1) (A1) (E) (E) (E) (E)
       Virtual   (A1) (A1) (E) (E) (E) (E) (A1) (A1) (E) (E) (A1)
                 (E) (E) (E) (E) (A1) (E) (E) (A1) (A1) (E) (E)
                 (E) (E) (A1) (A1) (A2) (E) (E) (A1) (E) (E) (E)
                 (E) (A1) (E) (E) (A1) (E) (E) (A1) (E) (E) (A1)
                 (E) (E) (A1) (E) (E) (A1) (E) (E) (E) (E) (A1)
                 (A2) (A1) (A1) (E) (E) (A1) (E) (E) (E) (E) (A2)
                 (A1) (E) (E) (A1) (E) (E) (A2) (E) (E) (E) (E)
                 (E) (E) (A1) (E) (E) (A2) (A1) (E) (E) (E) (E)
                 (A1) (E) (E) (A1) (E) (E) (A1) (E) (E) (A2) (E)
                 (E) (A1) (A1) (E) (E) (A1) (E) (E) (A1) (A2) (E)
                 (E) (A1) (E) (E) (E) (E) (A1) (E) (E) (A1) (A1)
                 (A1)
 Initial guess <Sx>= 0.0000 <Sy>= 0.0000 <Sz>= 0.5000 <S**2>= 0.8056 S= 0.5274
 Keep R1 and R2 ints in memory in symmetry-blocked form, NReq=77864678.
 Requested convergence on RMS density matrix=1.00D-08 within 128 cycles.
 Requested convergence on MAX density matrix=1.00D-06.
 Requested convergence on             energy=1.00D-06.
 No special actions if energy rises.
 SCF Done:  E(UB2PLYPD3) =  -115.723484883     A.U. after   11 cycles
            NFock= 11  Conv=0.32D-08     -V/T= 2.0046
 <Sx>= 0.0000 <Sy>= 0.0000 <Sz>= 0.5000 <S**2>= 0.8081 S= 0.5287
 <L.S>=  0.00000000000    
 Annihilation of the first spin contaminant:
 S**2 before annihilation     0.8081,   after     0.7520
 DoSCS=T DFT=T ScalE2(SS,OS)=  0.270000  0.270000
 ExpMin= 1.03D-01 ExpMax= 8.24D+03 ExpMxC= 2.81D+02 IAcc=3 IRadAn=         5 AccDes= 0.00D+00
 HarFok:  IExCor=  205 AccDes= 0.00D+00 IRadAn=         5 IDoV=-2 UseB2=F ITyADJ=14
 ICtDFT= 12500011 ScaDFX=  1.000000  1.000000  1.000000  1.000000
 Range of M.O.s used for correlation:     4   132
 NBasis=   132 NAE=    11 NBE=    10 NFC=     3 NFV=     0
 NROrb=    129 NOA=     8 NOB=     7 NVA=   121 NVB=   122

 **** Warning!!: The largest alpha MO coefficient is  0.27124730D+02


 **** Warning!!: The largest beta MO coefficient is  0.27330685D+02

 DoSCS=T DFT=T ScalE2(SS,OS)=  0.270000  0.270000
 Fully direct method using O(ONN) memory.
 JobTyp=2 Pass  1:  I=   4 to  11 NPSUse= 40 ParTrn=T ParDer=T DoDerP=T.
 JobTyp=3 Pass  1:  I=   4 to  10 NPSUse= 40 ParTrn=T ParDer=T DoDerP=T.
 Spin components of T(2) and E(2):
     alpha-alpha T2 =       0.3431951255D-01 E2=     -0.1932959727D-01
     alpha-beta  T2 =       0.1868075188D+00 E2=     -0.1107876624D+00
     beta-beta   T2 =       0.2969021279D-01 E2=     -0.1614131824D-01
 (S**2,0)=  0.80815D+00           (S**2,1)=  0.77330D+00
 Scaling Projection term by:   0.270000
 E(PUHF)=      -0.11572944718D+03        E(PMP2)=      -0.11587088064D+03
 E2(B2PLYPD3) =    -0.1462585779D+00 E(B2PLYPD3) =    -0.11586974346059D+03
          IDoAtm=111111
          Differentiating once with respect to electric field.
                with respect to dipole field.
          Differentiating once with respect to nuclear coordinates.
 Keep R1 and R2 ints in memory in symmetry-blocked form, NReq=77868880.
          There are     1 degrees of freedom in the 1st order CPHF.  IDoFFX=0 NUNeed=     1.
 LinEq1:  Iter=  0 NonCon=     1 RMS=1.33D-03 Max=2.32D-02 NDo=     1
 AX will form     1 AO Fock derivatives at one time.
 LinEq1:  Iter=  1 NonCon=     1 RMS=6.02D-04 Max=9.29D-03 NDo=     1
 LinEq1:  Iter=  2 NonCon=     1 RMS=4.44D-04 Max=8.99D-03 NDo=     1
 LinEq1:  Iter=  3 NonCon=     1 RMS=3.00D-04 Max=5.64D-03 NDo=     1
 LinEq1:  Iter=  4 NonCon=     1 RMS=7.83D-05 Max=1.34D-03 NDo=     1
 LinEq1:  Iter=  5 NonCon=     1 RMS=1.72D-05 Max=3.56D-04 NDo=     1
 LinEq1:  Iter=  6 NonCon=     1 RMS=6.71D-06 Max=9.82D-05 NDo=     1
 LinEq1:  Iter=  7 NonCon=     1 RMS=2.26D-06 Max=4.14D-05 NDo=     1
 LinEq1:  Iter=  8 NonCon=     1 RMS=4.64D-07 Max=6.43D-06 NDo=     1
 LinEq1:  Iter=  9 NonCon=     1 RMS=1.32D-07 Max=1.32D-06 NDo=     1
 LinEq1:  Iter= 10 NonCon=     1 RMS=2.88D-08 Max=4.47D-07 NDo=     1
 LinEq1:  Iter= 11 NonCon=     1 RMS=3.88D-09 Max=5.36D-08 NDo=     1
 LinEq1:  Iter= 12 NonCon=     1 RMS=4.88D-10 Max=9.43D-09 NDo=     1
 LinEq1:  Iter= 13 NonCon=     0 RMS=6.75D-11 Max=8.09D-10 NDo=     1
 Linear equations converged to 1.000D-10 1.000D-09 after    13 iterations.
 End of Minotr F.D. properties file   721 does not exist.
 End of Minotr F.D. properties file   722 does not exist.
 End of Minotr F.D. properties file   788 does not exist.
 Calling FoFJK, ICntrl=  10002127 FMM=F ISym2X=1 I1Cent= 0 IOpClX= 1 NMat=1 NMatS=1 NMatT=0.
 ***** Axes restored to original set *****
 -------------------------------------------------------------------
 Center     Atomic                   Forces (Hartrees/Bohr)
 Number     Number              X              Y              Z
 -------------------------------------------------------------------
      1        6           0.000000000   -0.000000077   -0.000338755
      2        6          -0.000000000    0.000000040    0.000048671
      3        6          -0.000000000    0.000000000    0.000443453
      4        1          -0.000000001    0.000037831   -0.000051144
      5        1           0.000032681   -0.000018896   -0.000051112
      6        1          -0.000032681   -0.000018897   -0.000051112
 -------------------------------------------------------------------
 Cartesian Forces:  Max     0.000443453 RMS     0.000134556

 GradGradGradGradGradGradGradGradGradGradGradGradGradGradGradGradGradGrad
 Berny optimization.
 Using GEDIIS/GDIIS optimizer.
 FormGI is forming the generalized inverse of G from B-inverse, IUseBI=4.
 Internal  Forces:  Max     0.000338755 RMS     0.000122974
 Search for a local minimum.
 Step number   2 out of a maximum of  100
 All quantities printed in internal units (Hartrees-Bohrs-Radians)
 Mixed Optimization -- En-DIIS/RFO-DIIS
 Update second derivatives using D2CorX and points    1    2
 DE= -7.12D-05 DEPred=-7.33D-05 R= 9.71D-01
 TightC=F SS=  1.41D+00  RLast= 1.46D-02 DXNew= 5.0454D-01 4.3852D-02
 Trust test= 9.71D-01 RLast= 1.46D-02 DXMaxT set to 3.00D-01
 The second derivative matrix:
                          R1        R2        R3        R4        R5
           R1           1.08086
           R2           0.02399   0.36972
           R3          -0.00510  -0.00075   0.34989
           R4          -0.00509  -0.00075   0.00027   0.34989
           R5          -0.00509  -0.00075   0.00027   0.00027   0.34989
           A1          -0.01521   0.00042   0.00033   0.00033   0.00033
           A2          -0.01561   0.00041   0.00035   0.00035   0.00035
           A3          -0.01561   0.00041   0.00035   0.00035   0.00035
           A4           0.03078  -0.00008  -0.00082  -0.00082  -0.00082
           A5           0.00880  -0.00061  -0.00013  -0.00013  -0.00013
           A6           0.00865  -0.00061  -0.00013  -0.00013  -0.00013
           A7          -0.00004  -0.00000   0.00000   0.00000   0.00000
           A8          -0.00000  -0.00000   0.00000   0.00000   0.00000
           D1          -0.03330  -0.00083   0.00104   0.00104   0.00104
                          A1        A2        A3        A4        A5
           A1           0.15918
           A2          -0.00082   0.15917
           A3          -0.00082  -0.00083   0.15917
           A4           0.00112   0.00112   0.00112   0.15878
           A5           0.00072   0.00073   0.00073  -0.00113   0.15943
           A6           0.00072   0.00073   0.00073  -0.00113  -0.00056
           A7          -0.00000  -0.00000  -0.00000   0.00000   0.00000
           A8          -0.00000  -0.00000  -0.00000   0.00000   0.00000
           D1          -0.00059  -0.00057  -0.00057   0.00010   0.00084
                          A6        A7        A8        D1
           A6           0.15944
           A7           0.00000   0.01290
           A8           0.00000   0.00000   0.01290
           D1           0.00085   0.00000   0.00000   0.00368
 ITU=  1  0
 Use linear search instead of GDIIS.
     Eigenvalues ---    0.01290   0.01290   0.07441   0.15972   0.16000
     Eigenvalues ---    0.16000   0.16000   0.34962   0.34962   0.35026
     Eigenvalues ---    0.36897   1.08180
 RFO step:  Lambda=-3.04272024D-07 EMin= 1.28952827D-02
 Quartic linear search produced a step of -0.02370.
 Iteration  1 RMS(Cart)=  0.00021396 RMS(Int)=  0.00000008
 Iteration  2 RMS(Cart)=  0.00000003 RMS(Int)=  0.00000008
 ClnCor:  largest displacement from symmetrization is 1.03D-05 for atom     5.
 Variable       Old X    -DE/DX   Delta X   Delta X   Delta X     New X
                                 (Linear)    (Quad)   (Total)
    R1        2.27899  -0.00034  -0.00027  -0.00002  -0.00029   2.27870
    R2        2.75982  -0.00029  -0.00000  -0.00077  -0.00077   2.75905
    R3        2.05644   0.00005   0.00002   0.00012   0.00015   2.05659
    R4        2.05644   0.00005   0.00002   0.00012   0.00015   2.05659
    R5        2.05644   0.00005   0.00002   0.00012   0.00015   2.05659
    A1        1.92889   0.00002  -0.00006   0.00027   0.00021   1.92909
    A2        1.92889   0.00002  -0.00006   0.00026   0.00021   1.92909
    A3        1.92889   0.00002  -0.00006   0.00026   0.00021   1.92909
    A4        1.89203  -0.00000   0.00006  -0.00027  -0.00021   1.89182
    A5        1.89203  -0.00003   0.00006  -0.00028  -0.00021   1.89182
    A6        1.89203  -0.00003   0.00006  -0.00028  -0.00021   1.89182
    A7        3.14159   0.00000   0.00000   0.00001   0.00000   3.14159
    A8        3.14159  -0.00000   0.00000  -0.00000  -0.00000   3.14159
    D1        2.05040  -0.00004   0.00014  -0.00062  -0.00049   2.04991
         Item               Value     Threshold  Converged?
 Maximum Force            0.000339     0.000450     YES
 RMS     Force            0.000123     0.000300     YES
 Maximum Displacement     0.000533     0.001800     YES
 RMS     Displacement     0.000214     0.001200     YES
 Predicted change in Energy=-1.948728D-07
 Optimization completed.
    -- Stationary point found.
                           ----------------------------
                           !   Optimized Parameters   !
                           ! (Angstroms and Degrees)  !
 --------------------------                            --------------------------
 ! Name  Definition              Value          Derivative Info.                !
 --------------------------------------------------------------------------------
 ! R1    R(1,2)                  1.206          -DE/DX =   -0.0003              !
 ! R2    R(2,3)                  1.4604         -DE/DX =   -0.0003              !
 ! R3    R(3,4)                  1.0882         -DE/DX =    0.0001              !
 ! R4    R(3,5)                  1.0882         -DE/DX =    0.0001              !
 ! R5    R(3,6)                  1.0882         -DE/DX =    0.0001              !
 ! A1    A(2,3,4)              110.5171         -DE/DX =    0.0                 !
 ! A2    A(2,3,5)              110.5171         -DE/DX =    0.0                 !
 ! A3    A(2,3,6)              110.5171         -DE/DX =    0.0                 !
 ! A4    A(4,3,5)              108.4054         -DE/DX =    0.0                 !
 ! A5    A(4,3,6)              108.4054         -DE/DX =    0.0                 !
 ! A6    A(5,3,6)              108.4054         -DE/DX =    0.0                 !
 ! A7    L(1,2,3,4,-1)         180.0            -DE/DX =    0.0                 !
 ! A8    L(1,2,3,4,-2)         180.0            -DE/DX =    0.0                 !
 ! D1    D(4,3,6,5)            117.4793         -DE/DX =    0.0                 !
 --------------------------------------------------------------------------------
 GradGradGradGradGradGradGradGradGradGradGradGradGradGradGradGradGradGrad

                          Input orientation:                          
 ---------------------------------------------------------------------
 Center     Atomic      Atomic             Coordinates (Angstroms)
 Number     Number       Type             X           Y           Z
 ---------------------------------------------------------------------
      1          6           0       -0.000000   -0.000000    1.543411
      2          6           0       -0.000000   -0.000000    0.337419
      3          6           0       -0.000000   -0.000000   -1.123014
      4          1           0       -0.000016    1.019191   -1.504421
      5          1           0        0.882653   -0.509582   -1.504421
      6          1           0       -0.882638   -0.509609   -1.504421
 ---------------------------------------------------------------------
                    Distance matrix (angstroms):
                    1          2          3          4          5
     1  C    0.000000
     2  C    1.205992   0.000000
     3  C    2.666425   1.460433   0.000000
     4  H    3.213725   2.105024   1.088220   0.000000
     5  H    3.213725   2.105024   1.088220   1.765291   0.000000
     6  H    3.213725   2.105024   1.088220   1.765291   1.765291
                    6
     6  H    0.000000
 Stoichiometry    C3H3(2)
 Framework group  C3V[C3(CCC),3SGV(H)]
 Deg. of freedom     4
 Full point group                 C3V     NOp   6
 Largest Abelian subgroup         CS      NOp   2
 Largest concise Abelian subgroup CS      NOp   2
                         Standard orientation:                         
 ---------------------------------------------------------------------
 Center     Atomic      Atomic             Coordinates (Angstroms)
 Number     Number       Type             X           Y           Z
 ---------------------------------------------------------------------
      1          6           0        0.000000    0.000000    1.541809
      2          6           0        0.000000    0.000000    0.335817
      3          6           0        0.000000    0.000000   -1.124615
      4          1           0       -0.000000   -1.019191   -1.506022
      5          1           0       -0.882646    0.509596   -1.506022
      6          1           0        0.882646    0.509596   -1.506022
 ---------------------------------------------------------------------
 Rotational constants (GHZ):         160.9160582           9.5409548           9.5409548

 **********************************************************************

            Population analysis using the SCF Density.

 **********************************************************************

 Orbital symmetries:
 Alpha Orbitals:
       Occupied  (A1) (A1) (A1) (A1) (A1) (A1) (E) (E) (A1) (E)
                 (E)
       Virtual   (A1) (E) (E) (E) (E) (A1) (A1) (E) (E) (A1) (E)
                 (E) (A1) (E) (E) (E) (E) (A1) (A1) (E) (E) (E)
                 (E) (A1) (A1) (A1) (E) (E) (A2) (E) (E) (E) (E)
                 (A1) (E) (E) (A1) (A1) (E) (E) (E) (E) (A1) (E)
                 (E) (A1) (E) (E) (A1) (E) (E) (E) (E) (A1) (A1)
                 (A2) (A1) (A1) (E) (E) (E) (E) (E) (E) (A2) (A1)
                 (E) (E) (A1) (E) (E) (A2) (E) (E) (E) (E) (E)
                 (E) (A1) (E) (E) (A2) (A1) (E) (E) (E) (E) (A1)
                 (A1) (E) (E) (E) (E) (A1) (E) (E) (A2) (E) (E)
                 (A1) (A1) (E) (E) (A1) (E) (E) (A1) (A2) (E) (E)
                 (A1) (E) (E) (E) (E) (A1) (E) (E) (A1) (A1) (A1)
 Beta  Orbitals:
       Occupied  (A1) (A1) (A1) (A1) (A1) (A1) (E) (E) (E) (E)
       Virtual   (A1) (A1) (E) (E) (E) (E) (A1) (A1) (E) (E) (A1)
                 (E) (E) (E) (E) (A1) (E) (E) (A1) (A1) (E) (E)
                 (E) (E) (A1) (A1) (A2) (E) (E) (A1) (E) (E) (E)
                 (E) (A1) (E) (E) (A1) (E) (E) (A1) (E) (E) (A1)
                 (E) (E) (A1) (E) (E) (A1) (E) (E) (E) (E) (A1)
                 (A2) (A1) (A1) (E) (E) (A1) (E) (E) (E) (E) (A2)
                 (A1) (E) (E) (A1) (E) (E) (A2) (E) (E) (E) (E)
                 (E) (E) (A1) (E) (E) (A2) (A1) (E) (E) (E) (E)
                 (A1) (E) (E) (A1) (E) (E) (A1) (E) (E) (A2) (E)
                 (E) (A1) (A1) (E) (E) (A1) (E) (E) (A1) (A2) (E)
                 (E) (A1) (E) (E) (E) (E) (A1) (E) (E) (A1) (A1)
                 (A1)
 The electronic state is 2-A1.
 Alpha  occ. eigenvalues --  -10.66377 -10.64466 -10.63338  -0.90933  -0.82829
 Alpha  occ. eigenvalues --   -0.55941  -0.50760  -0.50760  -0.46662  -0.34272
 Alpha  occ. eigenvalues --   -0.34272
 Alpha virt. eigenvalues --    0.08070   0.09403   0.09403   0.16050   0.16050
 Alpha virt. eigenvalues --    0.21193   0.22989   0.30470   0.30470   0.33392
 Alpha virt. eigenvalues --    0.37224   0.37224   0.47486   0.49870   0.49870
 Alpha virt. eigenvalues --    0.52047   0.52047   0.52785   0.59629   0.66205
 Alpha virt. eigenvalues --    0.66205   0.71556   0.71556   0.74583   0.79506
 Alpha virt. eigenvalues --    0.91625   0.92839   0.92839   0.93979   1.05216
 Alpha virt. eigenvalues --    1.05216   1.10120   1.10120   1.18914   1.24435
 Alpha virt. eigenvalues --    1.24435   1.28733   1.37096   1.37165   1.37165
 Alpha virt. eigenvalues --    1.41186   1.41186   1.59273   1.61521   1.61521
 Alpha virt. eigenvalues --    1.91435   2.13119   2.13119   2.26189   2.33913
 Alpha virt. eigenvalues --    2.33913   2.43270   2.43270   2.50082   2.59965
 Alpha virt. eigenvalues --    2.63080   2.64443   2.71074   2.71180   2.71180
 Alpha virt. eigenvalues --    2.75268   2.75268   2.88077   2.88077   2.89898
 Alpha virt. eigenvalues --    2.93642   2.98158   2.98158   3.04935   3.06017
 Alpha virt. eigenvalues --    3.06017   3.06830   3.12688   3.12688   3.23210
 Alpha virt. eigenvalues --    3.23210   3.24776   3.24776   3.28102   3.34640
 Alpha virt. eigenvalues --    3.34640   3.42210   3.44373   3.55619   3.55619
 Alpha virt. eigenvalues --    3.63396   3.63396   3.66771   3.81229   3.81230
 Alpha virt. eigenvalues --    3.81230   4.00233   4.00233   4.00982   4.03208
 Alpha virt. eigenvalues --    4.03208   4.20214   4.33102   4.33102   4.35939
 Alpha virt. eigenvalues --    4.50600   4.51476   4.51476   4.84019   4.94608
 Alpha virt. eigenvalues --    4.94608   5.13731   5.23102   5.27741   5.27741
 Alpha virt. eigenvalues --    5.32098   5.42410   5.42410   5.48096   5.48096
 Alpha virt. eigenvalues --    5.64171   5.97488   5.97488   6.80125  13.87127
 Alpha virt. eigenvalues --   15.10643
  Beta  occ. eigenvalues --  -10.64372 -10.63592 -10.63287  -0.90317  -0.79997
  Beta  occ. eigenvalues --   -0.54799  -0.51107  -0.51107  -0.32330  -0.32330
  Beta virt. eigenvalues --   -0.09499   0.08063   0.11277   0.11277   0.16816
  Beta virt. eigenvalues --    0.16816   0.21469   0.25851   0.30472   0.30472
  Beta virt. eigenvalues --    0.33653   0.38271   0.38271   0.49810   0.49810
  Beta virt. eigenvalues --    0.50344   0.52567   0.52567   0.54104   0.59317
  Beta virt. eigenvalues --    0.66409   0.66409   0.72547   0.72547   0.74969
  Beta virt. eigenvalues --    0.82248   0.93889   0.94017   0.94017   0.95616
  Beta virt. eigenvalues --    1.06246   1.06246   1.11260   1.11260   1.19964
  Beta virt. eigenvalues --    1.25251   1.25251   1.29567   1.37331   1.37331
  Beta virt. eigenvalues --    1.39241   1.41368   1.41368   1.59673   1.62225
  Beta virt. eigenvalues --    1.62225   1.92448   2.13679   2.13679   2.26737
  Beta virt. eigenvalues --    2.34002   2.34002   2.43695   2.43695   2.50976
  Beta virt. eigenvalues --    2.63487   2.63595   2.65213   2.71817   2.71817
  Beta virt. eigenvalues --    2.71934   2.76336   2.76336   2.89066   2.89066
  Beta virt. eigenvalues --    2.90288   2.97764   2.98882   2.98882   3.06152
  Beta virt. eigenvalues --    3.07396   3.07396   3.07493   3.14976   3.14976
  Beta virt. eigenvalues --    3.25018   3.25018   3.26599   3.26599   3.31922
  Beta virt. eigenvalues --    3.37632   3.37632   3.42072   3.45179   3.55681
  Beta virt. eigenvalues --    3.55681   3.64844   3.64844   3.68896   3.81668
  Beta virt. eigenvalues --    3.81668   3.83761   4.00197   4.00197   4.00992
  Beta virt. eigenvalues --    4.04094   4.04094   4.20067   4.33093   4.33093
  Beta virt. eigenvalues --    4.36097   4.50567   4.51991   4.51991   4.85642
  Beta virt. eigenvalues --    4.94715   4.94715   5.14671   5.23070   5.27800
  Beta virt. eigenvalues --    5.27800   5.32245   5.42600   5.42600   5.49158
  Beta virt. eigenvalues --    5.49158   5.65228   5.97462   5.97462   6.80637
  Beta virt. eigenvalues --   13.87166  15.12759
          Condensed to atoms (all electrons):
               1          2          3          4          5          6
     1  C    5.061755   0.983092  -0.038103  -0.002860  -0.002860  -0.002860
     2  C    0.983092   4.900333   0.344197  -0.042320  -0.042320  -0.042320
     3  C   -0.038103   0.344197   4.724833   0.413625   0.413625   0.413625
     4  H   -0.002860  -0.042320   0.413625   0.563515  -0.027751  -0.027751
     5  H   -0.002860  -0.042320   0.413625  -0.027751   0.563515  -0.027751
     6  H   -0.002860  -0.042320   0.413625  -0.027751  -0.027751   0.563515
          Atomic-Atomic Spin Densities.
               1          2          3          4          5          6
     1  C    1.292441  -0.008326  -0.006798   0.000439   0.000439   0.000439
     2  C   -0.008326  -0.326712   0.022798   0.006522   0.006522   0.006522
     3  C   -0.006798   0.022798   0.040329  -0.004830  -0.004830  -0.004830
     4  H    0.000439   0.006522  -0.004830  -0.015245   0.001924   0.001924
     5  H    0.000439   0.006522  -0.004830   0.001924  -0.015245   0.001924
     6  H    0.000439   0.006522  -0.004830   0.001924   0.001924  -0.015245
 Mulliken charges and spin densities:
               1          2
     1  C    0.001836   1.278634
     2  C   -0.100660  -0.292675
     3  C   -0.271801   0.041839
     4  H    0.123542  -0.009266
     5  H    0.123542  -0.009266
     6  H    0.123542  -0.009266
 Sum of Mulliken charges =  -0.00000   1.00000
 Mulliken charges and spin densities with hydrogens summed into heavy atoms:
               1          2
     1  C    0.001836   1.278634
     2  C   -0.100660  -0.292675
     3  C    0.098824   0.014041
 Electronic spatial extent (au):  <R**2>=            156.1408
 Charge=              0.0000 electrons
 Dipole moment (field-independent basis, Debye):
    X=              0.0000    Y=             -0.0000    Z=             -1.5716  Tot=              1.5716
 Quadrupole moment (field-independent basis, Debye-Ang):
   XX=            -18.8751   YY=            -18.8751   ZZ=            -16.4062
   XY=             -0.0000   XZ=             -0.0000   YZ=              0.0000
 Traceless Quadrupole moment (field-independent basis, Debye-Ang):
   XX=             -0.8230   YY=             -0.8230   ZZ=              1.6459
   XY=             -0.0000   XZ=             -0.0000   YZ=              0.0000
 Octapole moment (field-independent basis, Debye-Ang**2):
  XXX=              0.0000  YYY=             -0.7118  ZZZ=             -2.3227  XYY=             -0.0000
  XXY=              0.7118  XXZ=             -3.4726  XZZ=              0.0000  YZZ=             -0.0000
  YYZ=             -3.4726  XYZ=             -0.0000
 Hexadecapole moment (field-independent basis, Debye-Ang**3):
 XXXX=            -28.0747 YYYY=            -28.0747 ZZZZ=           -163.9696 XXXY=              0.0000
 XXXZ=              0.0000 YYYX=             -0.0000 YYYZ=              1.1470 ZZZX=             -0.0000
 ZZZY=              0.0000 XXYY=             -9.3582 XXZZ=            -33.3794 YYZZ=            -33.3794
 XXYZ=             -1.1470 YYXZ=              0.0000 ZZXY=              0.0000
 N-N= 5.312414120515D+01 E-N=-3.746884182086D+02  KE= 1.151906918561D+02
 Symmetry A'   KE= 1.109342341865D+02
 Symmetry A"   KE= 4.256457669597D+00
 Symmetry A'   SP= 1.000000000000D+00
 Symmetry A"   SP=-1.645907122803D-15
                          Isotropic Fermi Contact Couplings
        Atom                 a.u.       MegaHertz       Gauss      10(-4) cm-1
     1  C(13)              0.87665     985.51768     351.65721     328.73331
     2  C(13)              0.21887     246.04612      87.79537      82.07215
     3  C(13)              0.01112      12.50497       4.46208       4.17121
     4  H(1)              -0.00219      -9.78587      -3.49184      -3.26421
     5  H(1)              -0.00219      -9.78587      -3.49184      -3.26421
     6  H(1)              -0.00219      -9.78587      -3.49184      -3.26421
 --------------------------------------------------------
       Center         ----  Spin Dipole Couplings  ----
                      3XX-RR        3YY-RR        3ZZ-RR
 --------------------------------------------------------
     1   Atom       -0.396228     -0.396228      0.792457
     2   Atom       -0.159251     -0.159251      0.318502
     3   Atom       -0.018796     -0.018796      0.037592
     4   Atom       -0.003969     -0.001319      0.005288
     5   Atom       -0.001982     -0.003306      0.005288
     6   Atom       -0.001982     -0.003306      0.005288
 --------------------------------------------------------
                        XY            XZ            YZ
 --------------------------------------------------------
     1   Atom       -0.000000     -0.000000      0.000000
     2   Atom       -0.000000      0.000000     -0.000000
     3   Atom        0.000000     -0.000000      0.000000
     4   Atom       -0.000000     -0.000000      0.002738
     5   Atom       -0.001147      0.002371     -0.001369
     6   Atom        0.001147     -0.002371     -0.001369
 --------------------------------------------------------


 ---------------------------------------------------------------------------------
              Anisotropic Spin Dipole Couplings in Principal Axis System
 ---------------------------------------------------------------------------------

       Atom             a.u.   MegaHertz   Gauss  10(-4) cm-1        Axes

              Baa    -0.3962   -53.170   -18.972   -17.736  1.0000  0.0000  0.0000
     1 C(13)  Bbb    -0.3962   -53.170   -18.972   -17.736 -0.0000  1.0000 -0.0000
              Bcc     0.7925   106.340    37.945    35.471 -0.0000  0.0000  1.0000
 
              Baa    -0.1593   -21.370    -7.625    -7.128  1.0000  0.0000 -0.0000
     2 C(13)  Bbb    -0.1593   -21.370    -7.625    -7.128 -0.0000  1.0000  0.0000
              Bcc     0.3185    42.740    15.251    14.257  0.0000 -0.0000  1.0000
 
              Baa    -0.0188    -2.522    -0.900    -0.841  1.0000 -0.0000  0.0000
     3 C(13)  Bbb    -0.0188    -2.522    -0.900    -0.841  0.0000  1.0000 -0.0000
              Bcc     0.0376     5.044     1.800     1.683 -0.0000  0.0000  1.0000
 
              Baa    -0.0040    -2.118    -0.756    -0.706  1.0000  0.0000 -0.0000
     4 H(1)   Bbb    -0.0023    -1.230    -0.439    -0.410 -0.0000  0.9407 -0.3391
              Bcc     0.0063     3.348     1.195     1.117 -0.0000  0.3391  0.9407
 
              Baa    -0.0040    -2.118    -0.756    -0.706  0.5000  0.8660 -0.0000
     5 H(1)   Bbb    -0.0023    -1.230    -0.439    -0.410  0.8147 -0.4704 -0.3391
              Bcc     0.0063     3.348     1.195     1.117  0.2937 -0.1696  0.9407
 
              Baa    -0.0040    -2.118    -0.756    -0.706 -0.5000  0.8660 -0.0000
     6 H(1)   Bbb    -0.0023    -1.230    -0.439    -0.410  0.8147  0.4704  0.3391
              Bcc     0.0063     3.348     1.195     1.117 -0.2937 -0.1696  0.9407
 

 ---------------------------------------------------------------------------------

 1\1\GINC-N68\FOpt\UB2PLYPD3-FC\CC-pVTZ\C3H3(2)\ROOT\01-Jun-2019\0\\# o
 pt=maxcyc=500 freq=noraman uB2PLYPD3/cc-pvtz\\Title Card Required\\0,2
 \C,0.,-0.0000000476,1.5434107107\C,0.,-0.0000000476,0.3374187144\C,0.,
 -0.0000000476,-1.1230138384\H,-0.0000155146,1.019191253,-1.5044210234\
 H,0.8826533149,-0.5095822619,-1.5044210234\H,-0.8826378004,-0.50960913
 39,-1.5044210234\\Version=ES64L-G16RevB.01\State=2-A1\HF=-115.7234849\
 MP2=-115.8697435\PUHF=-115.7294472\PMP2-0=-115.8708806\S2=0.80815\S2-1
 =0.773302\S2A=0.751996\RMSD=3.227e-09\RMSF=1.346e-04\Dipole=0.,0.,-0.6
 204283\PG=C03V [C3(C1C1C1),3SGV(H1)]\\@


 Sacred cows make the best hamburger.
                               -- Mark Twain
 Job cpu time:       0 days  0 hours 16 minutes  1.5 seconds.
 Elapsed time:       0 days  0 hours  0 minutes 30.8 seconds.
 File lengths (MBytes):  RWF=     20 Int=      0 D2E=      0 Chk=      4 Scr=      1
 Normal termination of Gaussian 16 at Sat Jun  1 04:23:49 2019.
 Link1:  Proceeding to internal job step number  2.
 ----------------------------------------------------------------------
 #N Geom=AllCheck Guess=TCheck SCRF=Check GenChk UB2PLYPD3(FC)/CC-pVTZ 
 Freq
 ----------------------------------------------------------------------
 1/6=500,10=4,29=7,30=1,38=1,40=1/1,3;
 2/12=2,40=1/2;
 3/5=16,6=1,11=2,14=-4,25=1,30=1,70=2,71=2,74=-60,116=2,140=1/1,2,3;
 4/5=101/1;
 5/5=2,38=6,98=1/2;
 8/6=3,8=1,10=1,19=11,30=-1/1;
 9/15=3,16=-3/6;
 11/6=1,8=1,15=11,17=12,24=-1,27=1,28=-2,29=300,32=6,42=3/1,2,10;
 10/6=2,21=1/2;
 8/6=4,8=1,10=1,19=11,30=-1/11,4;
 10/5=1,20=4/2;
 11/12=2,14=11,16=1,17=2,28=-2,42=3,76=2/2,10,12;
 6/7=2,8=2,9=2,10=2/1;
 7/8=1,10=1,12=2,25=1,44=2/1,2,3,16;
 1/6=500,10=4,30=1/3;
 99//99;
 Structure from the checkpoint file:  "/localscratch/339542/Gau-32298.chk"
 -------------------
 Title Card Required
 -------------------
 Charge =  0 Multiplicity = 2
 Redundant internal coordinates found in file.  (old form).
 C,0,0.,-0.0000000476,1.5434107107
 C,0,0.,-0.0000000476,0.3374187144
 C,0,0.,-0.0000000476,-1.1230138384
 H,0,-0.0000155146,1.019191253,-1.5044210234
 H,0,0.8826533149,-0.5095822619,-1.5044210234
 H,0,-0.8826378004,-0.5096091339,-1.5044210234
 Recover connectivity data from disk.

 GradGradGradGradGradGradGradGradGradGradGradGradGradGradGradGradGradGrad
 Berny optimization.
 Initialization pass.
                           ----------------------------
                           !    Initial Parameters    !
                           ! (Angstroms and Degrees)  !
 --------------------------                            --------------------------
 ! Name  Definition              Value          Derivative Info.                !
 --------------------------------------------------------------------------------
 ! R1    R(1,2)                  1.206          calculate D2E/DX2 analytically  !
 ! R2    R(2,3)                  1.4604         calculate D2E/DX2 analytically  !
 ! R3    R(3,4)                  1.0882         calculate D2E/DX2 analytically  !
 ! R4    R(3,5)                  1.0882         calculate D2E/DX2 analytically  !
 ! R5    R(3,6)                  1.0882         calculate D2E/DX2 analytically  !
 ! A1    A(2,3,4)              110.5171         calculate D2E/DX2 analytically  !
 ! A2    A(2,3,5)              110.5171         calculate D2E/DX2 analytically  !
 ! A3    A(2,3,6)              110.5171         calculate D2E/DX2 analytically  !
 ! A4    A(4,3,5)              108.4054         calculate D2E/DX2 analytically  !
 ! A5    A(4,3,6)              108.4054         calculate D2E/DX2 analytically  !
 ! A6    A(5,3,6)              108.4054         calculate D2E/DX2 analytically  !
 ! A7    L(1,2,3,4,-1)         180.0            calculate D2E/DX2 analytically  !
 ! A8    L(1,2,3,4,-2)         180.0            calculate D2E/DX2 analytically  !
 ! D1    D(4,3,6,5)            117.4793         calculate D2E/DX2 analytically  !
 --------------------------------------------------------------------------------
 Trust Radius=3.00D-01 FncErr=1.00D-07 GrdErr=1.00D-07 EigMax=2.50D+02 EigMin=1.00D-04
 Number of steps in this run=      2 maximum allowed number of steps=      2.
 GradGradGradGradGradGradGradGradGradGradGradGradGradGradGradGradGradGrad

                          Input orientation:                          
 ---------------------------------------------------------------------
 Center     Atomic      Atomic             Coordinates (Angstroms)
 Number     Number       Type             X           Y           Z
 ---------------------------------------------------------------------
      1          6           0       -0.000000   -0.000000    1.543411
      2          6           0       -0.000000   -0.000000    0.337419
      3          6           0       -0.000000   -0.000000   -1.123014
      4          1           0       -0.000016    1.019191   -1.504421
      5          1           0        0.882653   -0.509582   -1.504421
      6          1           0       -0.882638   -0.509609   -1.504421
 ---------------------------------------------------------------------
                    Distance matrix (angstroms):
                    1          2          3          4          5
     1  C    0.000000
     2  C    1.205992   0.000000
     3  C    2.666425   1.460433   0.000000
     4  H    3.213725   2.105024   1.088220   0.000000
     5  H    3.213725   2.105024   1.088220   1.765291   0.000000
     6  H    3.213725   2.105024   1.088220   1.765291   1.765291
                    6
     6  H    0.000000
 Stoichiometry    C3H3(2)
 Framework group  C3V[C3(CCC),3SGV(H)]
 Deg. of freedom     4
 Full point group                 C3V     NOp   6
 Largest Abelian subgroup         CS      NOp   2
 Largest concise Abelian subgroup CS      NOp   2
                         Standard orientation:                         
 ---------------------------------------------------------------------
 Center     Atomic      Atomic             Coordinates (Angstroms)
 Number     Number       Type             X           Y           Z
 ---------------------------------------------------------------------
      1          6           0        0.000000    0.000000    1.541809
      2          6           0        0.000000    0.000000    0.335817
      3          6           0        0.000000    0.000000   -1.124615
      4          1           0       -0.000000   -1.019191   -1.506022
      5          1           0       -0.882646    0.509596   -1.506022
      6          1           0        0.882646    0.509596   -1.506022
 ---------------------------------------------------------------------
 Rotational constants (GHZ):         160.9160582           9.5409548           9.5409548
 Standard basis: CC-pVTZ (5D, 7F)
 There are    98 symmetry adapted cartesian basis functions of A'  symmetry.
 There are    52 symmetry adapted cartesian basis functions of A"  symmetry.
 There are    84 symmetry adapted basis functions of A'  symmetry.
 There are    48 symmetry adapted basis functions of A"  symmetry.
   132 basis functions,   207 primitive gaussians,   150 cartesian basis functions
    11 alpha electrons       10 beta electrons
       nuclear repulsion energy        53.1265150498 Hartrees.
 NAtoms=    6 NActive=    6 NUniq=    4 SFac= 2.25D+00 NAtFMM=   60 NAOKFM=F Big=F
 Integral buffers will be    131072 words long.
 Raffenetti 2 integral format.
 Two-electron integral symmetry is turned on.
 Nuclear repulsion after empirical dispersion term =       53.1241412052 Hartrees.
 One-electron integrals computed using PRISM.
 NBasis=   132 RedAO= T EigKep=  2.47D-04  NBF=    84    48
 NBsUse=   132 1.00D-06 EigRej= -1.00D+00 NBFU=    84    48
 Initial guess from the checkpoint file:  "/localscratch/339542/Gau-32298.chk"
 B after Tr=    -0.000000   -0.000000   -0.000000
         Rot=    1.000000   -0.000000    0.000000    0.000000 Ang=   0.00 deg.
 Initial guess orbital symmetries:
 Alpha Orbitals:
       Occupied  (A1) (A1) (A1) (A1) (A1) (A1) (E) (E) (A1) (E)
                 (E)
       Virtual   (A1) (E) (E) (E) (E) (A1) (A1) (E) (E) (A1) (E)
                 (E) (A1) (E) (E) (E) (E) (A1) (A1) (E) (E) (E)
                 (E) (A1) (A1) (A1) (E) (E) (A2) (E) (E) (E) (E)
                 (A1) (E) (E) (A1) (A1) (E) (E) (E) (E) (A1) (E)
                 (E) (A1) (E) (E) (A1) (E) (E) (E) (E) (A1) (A1)
                 (A2) (A1) (A1) (E) (E) (E) (E) (E) (E) (A2) (A1)
                 (E) (E) (A1) (E) (E) (A2) (E) (E) (E) (E) (E)
                 (E) (A1) (E) (E) (A2) (A1) (E) (E) (E) (E) (A1)
                 (A1) (E) (E) (E) (E) (A1) (E) (E) (A2) (E) (E)
                 (A1) (A1) (E) (E) (A1) (E) (E) (A1) (A2) (E) (E)
                 (A1) (E) (E) (E) (E) (A1) (E) (E) (A1) (A1) (A1)
 Beta  Orbitals:
       Occupied  (A1) (A1) (A1) (A1) (A1) (A1) (E) (E) (E) (E)
       Virtual   (A1) (A1) (E) (E) (E) (E) (A1) (A1) (E) (E) (A1)
                 (E) (E) (E) (E) (A1) (E) (E) (A1) (A1) (E) (E)
                 (E) (E) (A1) (A1) (A2) (E) (E) (A1) (E) (E) (E)
                 (E) (A1) (E) (E) (A1) (E) (E) (A1) (E) (E) (A1)
                 (E) (E) (A1) (E) (E) (A1) (E) (E) (E) (E) (A1)
                 (A2) (A1) (A1) (E) (E) (A1) (E) (E) (E) (E) (A2)
                 (A1) (E) (E) (A1) (E) (E) (A2) (E) (E) (E) (E)
                 (E) (E) (A1) (E) (E) (A2) (A1) (E) (E) (E) (E)
                 (A1) (E) (E) (A1) (E) (E) (A1) (E) (E) (A2) (E)
                 (E) (A1) (A1) (E) (E) (A1) (E) (E) (A1) (A2) (E)
                 (E) (A1) (E) (E) (E) (E) (A1) (E) (E) (A1) (A1)
                 (A1)
 Initial guess <Sx>= 0.0000 <Sy>= 0.0000 <Sz>= 0.5000 <S**2>= 0.8081 S= 0.5287
 Keep R1 and R2 ints in memory in symmetry-blocked form, NReq=77864678.
 Requested convergence on RMS density matrix=1.00D-08 within 128 cycles.
 Requested convergence on MAX density matrix=1.00D-06.
 Requested convergence on             energy=1.00D-06.
 No special actions if energy rises.
 SCF Done:  E(UB2PLYPD3) =  -115.723484883     A.U. after    1 cycles
            NFock=  1  Conv=0.37D-09     -V/T= 2.0046
 <Sx>= 0.0000 <Sy>= 0.0000 <Sz>= 0.5000 <S**2>= 0.8081 S= 0.5287
 <L.S>=  0.00000000000    
 Annihilation of the first spin contaminant:
 S**2 before annihilation     0.8081,   after     0.7520
 DoSCS=T DFT=T ScalE2(SS,OS)=  0.270000  0.270000
 ExpMin= 1.03D-01 ExpMax= 8.24D+03 ExpMxC= 2.81D+02 IAcc=3 IRadAn=         5 AccDes= 0.00D+00
 HarFok:  IExCor=  205 AccDes= 0.00D+00 IRadAn=         5 IDoV=-2 UseB2=F ITyADJ=14
 ICtDFT= 12500011 ScaDFX=  1.000000  1.000000  1.000000  1.000000
 Range of M.O.s used for correlation:     4   132
 NBasis=   132 NAE=    11 NBE=    10 NFC=     3 NFV=     0
 NROrb=    129 NOA=     8 NOB=     7 NVA=   121 NVB=   122

 **** Warning!!: The largest alpha MO coefficient is  0.27124730D+02


 **** Warning!!: The largest beta MO coefficient is  0.27330685D+02

 DoSCS=T DFT=T ScalE2(SS,OS)=  0.270000  0.270000
 Disk-based method using ON**2 memory for  8 occupieds at a time.
 Permanent disk used for amplitudes=     2355265 words.
 Estimated scratch disk usage=    40666632 words.
 Actual    scratch disk usage=    39880712 words.
 JobTyp=2 Pass  1:  I=   4 to  11 NPSUse= 40 ParTrn=T ParDer=T DoDerP=T.
 (rs|ai) integrals will be sorted in core.
 Actual    scratch disk usage=    39880712 words.
 JobTyp=3 Pass  1:  I=   4 to  10 NPSUse= 40 ParTrn=T ParDer=T DoDerP=T.
 (rs|ai) integrals will be sorted in core.
 Spin components of T(2) and E(2):
     alpha-alpha T2 =       0.3431951229D-01 E2=     -0.1932959713D-01
     alpha-beta  T2 =       0.1868075168D+00 E2=     -0.1107876619D+00
     beta-beta   T2 =       0.2969021258D-01 E2=     -0.1614131832D-01
 (S**2,0)=  0.80815D+00           (S**2,1)=  0.77330D+00
 Scaling Projection term by:   0.270000
 E(PUHF)=      -0.11572944718D+03        E(PMP2)=      -0.11587088064D+03
 E2(B2PLYPD3) =    -0.1462585773D+00 E(B2PLYPD3) =    -0.11586974345998D+03
 G2DrvN: will do     7 centers at a time, making    1 passes.
 Calling FoFCou, ICntrl=  3107 FMM=F I1Cent=   0 AccDes= 0.00D+00.
 End of G2Drv F.D. properties file   721 does not exist.
 End of G2Drv F.D. properties file   722 does not exist.
 End of G2Drv F.D. properties file   788 does not exist.
          IDoAtm=111111
          Differentiating once with respect to electric field.
                with respect to dipole field.
          Differentiating once with respect to nuclear coordinates.
 Keep R1 and R2 ints in memory in symmetry-blocked form, NReq=77730208.
          There are    21 degrees of freedom in the 1st order CPHF.  IDoFFX=6 NUNeed=    21.
     18 vectors produced by pass  0 Test12= 1.21D-14 4.76D-09 XBig12= 5.22D+01 3.14D+00.
 AX will form    18 AO Fock derivatives at one time.
     18 vectors produced by pass  1 Test12= 1.21D-14 4.76D-09 XBig12= 1.27D+01 1.19D+00.
     18 vectors produced by pass  2 Test12= 1.21D-14 4.76D-09 XBig12= 2.89D-01 1.40D-01.
     18 vectors produced by pass  3 Test12= 1.21D-14 4.76D-09 XBig12= 3.84D-03 1.35D-02.
     18 vectors produced by pass  4 Test12= 1.21D-14 4.76D-09 XBig12= 2.76D-05 1.37D-03.
     18 vectors produced by pass  5 Test12= 1.21D-14 4.76D-09 XBig12= 2.95D-07 1.01D-04.
     18 vectors produced by pass  6 Test12= 1.21D-14 4.76D-09 XBig12= 2.24D-09 1.08D-05.
     10 vectors produced by pass  7 Test12= 1.21D-14 4.76D-09 XBig12= 2.06D-11 1.19D-06.
      4 vectors produced by pass  8 Test12= 1.21D-14 4.76D-09 XBig12= 1.50D-13 6.66D-08.
      1 vectors produced by pass  9 Test12= 1.21D-14 4.76D-09 XBig12= 8.48D-16 5.94D-09.
 InvSVY:  IOpt=1 It=  1 EMax= 2.66D-15
[...]
 Red. masses --      1.2849                 1.2849                 1.2186
 Frc consts  --      0.7791                 0.7791                 1.4501
 IR Inten    --     39.6186                39.6184                 0.3791
  Atom  AN      X      Y      Z        X      Y      Z        X      Y      Z
     1   6    -0.00  -0.00   0.00    -0.00   0.00  -0.00    -0.00   0.00   0.01
     2   6    -0.00  -0.08   0.00    -0.08   0.00  -0.00     0.00  -0.00  -0.00
     3   6     0.00   0.14  -0.00     0.14  -0.00   0.00     0.00   0.00  -0.14
     4   1    -0.00  -0.15   0.72    -0.33   0.00  -0.00    -0.00  -0.23   0.52
     5   1    -0.08  -0.28  -0.36    -0.19  -0.08   0.62    -0.20   0.12   0.52
     6   1     0.08  -0.28  -0.36    -0.19   0.08  -0.62     0.20   0.12   0.52
                      7                      8                      9
                      E                      E                     A1
 Frequencies --   1490.3915              1490.3919              2264.1770
 Red. masses --      1.0425                 1.0425                11.8815
 Frc consts  --      1.3644                 1.3644                35.8875
 IR Inten    --      1.3374                 1.3376                19.5284
  Atom  AN      X      Y      Z        X      Y      Z        X      Y      Z
     1   6     0.00  -0.00   0.00     0.00   0.00  -0.00    -0.00  -0.00  -0.63
     2   6    -0.01   0.00  -0.00    -0.00  -0.01  -0.00     0.00   0.00   0.76
     3   6    -0.05   0.00  -0.00    -0.00  -0.05   0.00    -0.00   0.00  -0.11
     4   1     0.71   0.00  -0.00     0.00  -0.17   0.36     0.00  -0.01  -0.06
     5   1     0.05   0.38   0.31     0.38   0.49  -0.18    -0.01   0.00  -0.06
     6   1     0.05  -0.38  -0.31    -0.38   0.49  -0.18     0.01   0.00  -0.06
                     10                     11                     12
                     A1                      E                      E
 Frequencies --   3064.3516              3134.8198              3134.8201
 Red. masses --      1.0335                 1.1013                 1.1013
 Frc consts  --      5.7179                 6.3762                 6.3762
 IR Inten    --     13.1216                 2.7639                 2.7639
  Atom  AN      X      Y      Z        X      Y      Z        X      Y      Z
     1   6     0.00   0.00   0.00    -0.00   0.00  -0.00     0.00   0.00  -0.00
     2   6    -0.00  -0.00  -0.00     0.00  -0.00   0.00    -0.00  -0.00   0.00
     3   6    -0.00   0.00  -0.05     0.00  -0.09  -0.00    -0.09  -0.00  -0.00
     4   1    -0.00   0.54   0.19     0.00   0.76   0.29    -0.02   0.00   0.00
     5   1     0.47  -0.27   0.19    -0.34   0.17  -0.14     0.57  -0.34   0.25
     6   1    -0.47  -0.27   0.19     0.34   0.17  -0.14     0.57   0.34  -0.25

 -------------------
 - Thermochemistry -
 -------------------
 Temperature   298.150 Kelvin.  Pressure   1.00000 Atm.
 Atom     1 has atomic number  6 and mass  12.00000
 Atom     2 has atomic number  6 and mass  12.00000
 Atom     3 has atomic number  6 and mass  12.00000
 Atom     4 has atomic number  1 and mass   1.00783
 Atom     5 has atomic number  1 and mass   1.00783
 Atom     6 has atomic number  1 and mass   1.00783
 Molecular mass:    39.02348 amu.
 Principal axes and moments of inertia in atomic units:
                           1         2         3
     Eigenvalues --    11.21542 189.15730 189.15730
           X            0.00000  -0.45479   0.89060
           Y            0.00000   0.89060   0.45479
           Z            1.00000  -0.00000  -0.00000
 This molecule is a prolate symmetric top.
 Rotational symmetry number  3.
 Rotational temperatures (Kelvin)      7.72275     0.45789     0.45789
 Rotational constants (GHZ):         160.91606     9.54095     9.54095
 Zero-point vibrational energy     115004.9 (Joules/Mol)
                                   27.48683 (Kcal/Mol)
 Warning -- explicit consideration of   2 degrees of freedom as
           vibrations may cause significant error
 Vibrational temperatures:    181.04   181.04  1361.99  1459.59  1459.59
          (Kelvin)           2044.73  2144.34  2144.34  3257.65  4408.92
                             4510.31  4510.31
 
 Zero-point correction=                           0.043803 (Hartree/Particle)
 Thermal correction to Energy=                    0.048140
 Thermal correction to Enthalpy=                  0.049085
 Thermal correction to Gibbs Free Energy=         0.019113
 Sum of electronic and zero-point Energies=           -115.825940
 Sum of electronic and thermal Energies=              -115.821603
 Sum of electronic and thermal Enthalpies=            -115.820659
 Sum of electronic and thermal Free Energies=         -115.850631
 
                     E (Thermal)             CV                S
                      KCal/Mol        Cal/Mol-Kelvin    Cal/Mol-Kelvin
 Total                   30.209             11.237             63.082
 Electronic               0.000              0.000              1.377
 Translational            0.889              2.981             36.913
 Rotational               0.889              2.981             18.440
 Vibrational             28.431              5.275              6.351
 Vibration     1          0.611              1.927              3.009
 Vibration     2          0.611              1.927              3.009
                       Q            Log10(Q)             Ln(Q)
 Total Bot       0.161750D-08         -8.791156        -20.242385
 Total V=0       0.227420D+12         11.356829         26.150066
 Vib (Bot)       0.353115D-19        -19.452084        -44.790079
 Vib (Bot)    1  0.162185D+01          0.210012          0.483570
 Vib (Bot)    2  0.162185D+01          0.210012          0.483570
 Vib (V=0)       0.496479D+01          0.695901          1.602372
 Vib (V=0)    1  0.219718D+01          0.341865          0.787174
 Vib (V=0)    2  0.219718D+01          0.341865          0.787173
 Electronic      0.200000D+01          0.301030          0.693147
 Translational   0.958170D+07          6.981443         16.075366
 Rotational      0.239032D+04          3.378455          7.779181
 ***** Axes restored to original set *****
 -------------------------------------------------------------------
 Center     Atomic                   Forces (Hartrees/Bohr)
 Number     Number              X              Y              Z
 -------------------------------------------------------------------
      1        6           0.000000000   -0.000000003   -0.000338756
      2        6          -0.000000000    0.000000071    0.000048626
      3        6          -0.000000000    0.000000062    0.000443377
      4        1          -0.000000001    0.000037706   -0.000050892
      5        1           0.000032625   -0.000018917   -0.000051178
      6        1          -0.000032624   -0.000018918   -0.000051178
 -------------------------------------------------------------------
 Cartesian Forces:  Max     0.000443377 RMS     0.000134536
 FormGI is forming the generalized inverse of G from B-inverse, IUseBI=4.

 GradGradGradGradGradGradGradGradGradGradGradGradGradGradGradGradGradGrad
 Berny optimization.
 Internal  Forces:  Max     0.000338756 RMS     0.000122974
 Search for a local minimum.
 Step number   1 out of a maximum of    2
 All quantities printed in internal units (Hartrees-Bohrs-Radians)
 Second derivative matrix not updated -- analytic derivatives used.
 The second derivative matrix:
                          R1        R2        R3        R4        R5
           R1           1.05784
           R2           0.00079   0.34500
           R3          -0.00137   0.00834   0.34340
           R4          -0.00137   0.00834   0.00284   0.34340
           R5          -0.00137   0.00834   0.00284   0.00284   0.34340
           A1           0.00122   0.01113   0.00934  -0.00615  -0.00824
           A2           0.00122   0.01113  -0.00615   0.00934  -0.00824
           A3           0.00122   0.01113  -0.00615  -0.00615   0.00724
           A4          -0.00030  -0.00271   0.00514   0.00514  -0.00906
           A5          -0.00175  -0.01597   0.00832  -0.01040   0.00932
           A6          -0.00175  -0.01597  -0.01040   0.00832   0.00932
           A7           0.00000   0.00000  -0.00089   0.00044   0.00044
           A8           0.00000  -0.00000  -0.00000  -0.00037   0.00037
           D1          -0.00227  -0.02072   0.00497   0.00497  -0.00054
                          A1        A2        A3        A4        A5
           A1           0.10890
           A2          -0.04162   0.10890
           A3          -0.04162  -0.04162   0.10889
           A4           0.00555   0.00555   0.00552   0.05031
           A5          -0.01607  -0.01611  -0.01607  -0.03378   0.10697
           A6          -0.01611  -0.01607  -0.01607  -0.03378  -0.02311
           A7           0.00247  -0.00114  -0.00114   0.00044   0.00056
           A8           0.00006   0.00106  -0.00095   0.00037  -0.00052
           D1          -0.01105  -0.01105  -0.01106   0.02273   0.00584
                          A6        A7        A8        D1
           A6           0.10697
           A7          -0.00120   0.00833
           A8          -0.00003   0.00000   0.00195
           D1           0.00584   0.00017   0.00014   0.03341
 ITU=  0
     Eigenvalues ---    0.00193   0.00824   0.05867   0.12742   0.12836
     Eigenvalues ---    0.14936   0.14942   0.33677   0.34335   0.34345
     Eigenvalues ---    0.36285   1.05786
 Angle between quadratic step and forces=  51.03 degrees.
 Linear search not attempted -- first point.
 Iteration  1 RMS(Cart)=  0.00026627 RMS(Int)=  0.00000016
 Iteration  2 RMS(Cart)=  0.00000010 RMS(Int)=  0.00000012
 ClnCor:  largest displacement from symmetrization is 9.84D-06 for atom     6.
 Variable       Old X    -DE/DX   Delta X   Delta X   Delta X     New X
                                 (Linear)    (Quad)   (Total)
    R1        2.27899  -0.00034   0.00000  -0.00032  -0.00032   2.27867
    R2        2.75982  -0.00029   0.00000  -0.00099  -0.00099   2.75882
    R3        2.05644   0.00005   0.00000   0.00020   0.00019   2.05663
    R4        2.05644   0.00005   0.00000   0.00020   0.00019   2.05663
    R5        2.05644   0.00005   0.00000   0.00020   0.00019   2.05663
    A1        1.92889   0.00002   0.00000   0.00041   0.00041   1.92929
    A2        1.92889   0.00002   0.00000   0.00041   0.00041   1.92929
    A3        1.92889   0.00002   0.00000   0.00041   0.00041   1.92929
    A4        1.89203  -0.00000   0.00000  -0.00042  -0.00042   1.89161
    A5        1.89203  -0.00003   0.00000  -0.00042  -0.00042   1.89161
    A6        1.89203  -0.00003   0.00000  -0.00043  -0.00042   1.89161
    A7        3.14159  -0.00000   0.00000  -0.00001  -0.00000   3.14159
    A8        3.14159   0.00000   0.00000  -0.00000   0.00000   3.14159
    D1        2.05040  -0.00004   0.00000  -0.00097  -0.00096   2.04944
         Item               Value     Threshold  Converged?
 Maximum Force            0.000339     0.000450     YES
 RMS     Force            0.000123     0.000300     YES
 Maximum Displacement     0.000814     0.001800     YES
 RMS     Displacement     0.000266     0.001200     YES
 Predicted change in Energy=-2.584690D-07
 Optimization completed.
    -- Stationary point found.
                           ----------------------------
                           !   Optimized Parameters   !
                           ! (Angstroms and Degrees)  !
 --------------------------                            --------------------------
 ! Name  Definition              Value          Derivative Info.                !
 --------------------------------------------------------------------------------
 ! R1    R(1,2)                  1.206          -DE/DX =   -0.0003              !
 ! R2    R(2,3)                  1.4604         -DE/DX =   -0.0003              !
 ! R3    R(3,4)                  1.0882         -DE/DX =    0.0001              !
 ! R4    R(3,5)                  1.0882         -DE/DX =    0.0001              !
 ! R5    R(3,6)                  1.0882         -DE/DX =    0.0001              !
 ! A1    A(2,3,4)              110.5171         -DE/DX =    0.0                 !
 ! A2    A(2,3,5)              110.5171         -DE/DX =    0.0                 !
 ! A3    A(2,3,6)              110.5171         -DE/DX =    0.0                 !
 ! A4    A(4,3,5)              108.4054         -DE/DX =    0.0                 !
 ! A5    A(4,3,6)              108.4054         -DE/DX =    0.0                 !
 ! A6    A(5,3,6)              108.4054         -DE/DX =    0.0                 !
 ! A7    L(1,2,3,4,-1)         180.0            -DE/DX =    0.0                 !
 ! A8    L(1,2,3,4,-2)         180.0            -DE/DX =    0.0                 !
 ! D1    D(4,3,6,5)            117.4793         -DE/DX =    0.0                 !
 --------------------------------------------------------------------------------
 GradGradGradGradGradGradGradGradGradGradGradGradGradGradGradGradGradGrad


 ----------------------------------------------------------------------

 Electric dipole moment (input orientation):
 (Debye = 10**-18 statcoulomb cm , SI units = C m)
                  (au)            (Debye)         (10**-30 SI)
   Tot        0.620428D+00      0.157697D+01      0.526021D+01
   x          0.000000D+00      0.000000D+00      0.000000D+00
   y          0.000000D+00      0.000000D+00      0.000000D+00
   z         -0.620428D+00     -0.157697D+01     -0.526021D+01

 Dipole polarizability, Alpha (input orientation).
 (esu units = cm**3 , SI units = C**2 m**2 J**-1)
 Alpha(0;0):
               (au)            (10**-24 esu)      (10**-40 SI)
   iso        0.348901D+02      0.517018D+01      0.575260D+01
   aniso      0.134146D+02      0.198784D+01      0.221177D+01
   xx         0.304186D+02      0.450756D+01      0.501534D+01
   yx         0.000000D+00      0.000000D+00      0.000000D+00
   yy         0.304186D+02      0.450757D+01      0.501534D+01
   zx         0.000000D+00      0.000000D+00      0.000000D+00
   zy         0.479664D-04      0.710789D-05      0.790859D-05
   zz         0.438332D+02      0.649541D+01      0.722712D+01

 ----------------------------------------------------------------------

 Dipole orientation:
     6          0.00000000          0.00000012         -2.91662354
     6          0.00000000          0.00000010         -0.63762896
     6         -0.00000000          0.00000007          2.12218859
     1         -0.00002932         -1.92599237          2.84294369
     1          1.66797303          0.96297088          2.84294372
     1         -1.66794371          0.96302166          2.84294372

 Electric dipole moment (dipole orientation):
 (Debye = 10**-18 statcoulomb cm , SI units = C m)
                  (au)            (Debye)         (10**-30 SI)
   Tot        0.620428D+00      0.157697D+01      0.526021D+01
   x          0.000000D+00      0.000000D+00      0.000000D+00
   y          0.000000D+00      0.000000D+00      0.000000D+00
   z          0.620428D+00      0.157697D+01      0.526021D+01

 Dipole polarizability, Alpha (dipole orientation).
 (esu units = cm**3 , SI units = C**2 m**2 J**-1)
 Alpha(0;0):
               (au)            (10**-24 esu)      (10**-40 SI)
   iso        0.348901D+02      0.517018D+01      0.575260D+01
   aniso      0.134146D+02      0.198784D+01      0.221177D+01
   xx         0.304186D+02      0.450756D+01      0.501534D+01
   yx         0.000000D+00      0.000000D+00      0.000000D+00
   yy         0.304186D+02      0.450757D+01      0.501534D+01
   zx         0.000000D+00      0.000000D+00      0.000000D+00
   zy         0.478237D-04      0.708675D-05      0.788507D-05
   zz         0.438332D+02      0.649541D+01      0.722712D+01

 ----------------------------------------------------------------------
 1\1\GINC-N68\Freq\UB2PLYPD3-FC\CC-pVTZ\C3H3(2)\ROOT\01-Jun-2019\0\\#N 
 Geom=AllCheck Guess=TCheck SCRF=Check GenChk UB2PLYPD3(FC)/CC-pVTZ Fre
 q\\Title Card Required\\0,2\C,0.,-0.0000000476,1.5434107107\C,0.,-0.00
 00000476,0.3374187144\C,0.,-0.0000000476,-1.1230138384\H,-0.0000155146
 ,1.019191253,-1.5044210234\H,0.8826533149,-0.5095822619,-1.5044210234\
 H,-0.8826378004,-0.5096091339,-1.5044210234\\Version=ES64L-G16RevB.01\
 State=2-A1\HF=-115.7234849\MP2=-115.8697435\PUHF=-115.7294472\PMP2-0=-
 115.8708806\S2=0.80815\S2-1=0.773302\S2A=0.751996\RMSD=3.688e-10\RMSF=
 1.345e-04\ZeroPoint=0.043803\Thermal=0.0481405\Dipole=0.,0.,-0.6204283
 \DipoleDeriv=-0.2924456,0.,0.,0.,-0.2924454,0.,0.,-0.0000182,-0.425414
 9,0.453178,0.,0.,0.,0.4531777,-0.0000004,0.,0.0000151,0.3084434,-0.248
 5505,0.,0.,0.,-0.248553,0.0000044,0.,0.0000071,0.1806342,0.0817372,0.0
 000016,-0.0000009,0.0000016,-0.0231911,0.0589236,-0.0000017,0.1146222,
 -0.02122,0.003039,0.0454365,0.0510323,0.0454348,0.0555072,-0.029463,0.
 0992683,-0.0573116,-0.0212214,0.0030418,-0.0454381,-0.0510314,-0.04543
 64,0.0555045,-0.0294646,-0.0992666,-0.0573146,-0.0212214\Polar=30.4185
 508,0.,30.4185661,0.,0.000048,43.8331793\PG=C03V [C3(C1C1C1),3SGV(H1)]
 \NImag=0\\0.00177044,0.,0.00177045,0.,-0.00000046,1.05783845,-0.002523
 93,0.,0.,0.03312761,0.,-0.00252396,0.00000043,0.,0.03312758,0.,0.00000
 041,-1.05705004,0.,-0.00000032,1.40126646,-0.00053692,0.,0.,-0.0343331
 4,0.,0.,0.53165282,0.,-0.00053693,-0.00000022,0.,-0.03433314,0.0000001
 7,0.,0.53165333,0.,0.00000016,0.00368396,0.,-0.00000026,-0.28596898,0.
 ,0.00000008,0.50661482,0.00036709,0.,0.00000003,-0.00065308,-0.0000000
 6,-0.00000005,-0.04619706,0.00000364,-0.00000129,0.04491790,0.,0.00049
 320,-0.00202045,-0.00000006,0.00313942,0.00309845,0.00000364,-0.284991
 60,0.08505762,-0.00000401,0.30821157,0.,0.00021358,-0.00149087,-0.0000
 0040,0.02640508,-0.01941573,-0.00000137,0.09030527,-0.07477662,0.00000
 145,-0.09506145,0.08666152,0.00046166,-0.00005457,-0.00174988,0.002191
 31,-0.00164219,0.00268355,-0.22529600,0.10339913,0.07366257,0.00078220
 ,-0.00088177,-0.00115763,0.24239152,-0.00005460,0.00039862,0.00101032,
 -0.00164216,0.00029500,-0.00154932,0.10339920,-0.10589268,-0.04252768,
 0.02549283,-0.01342592,-0.01093126,-0.11400750,0.11073791,0.00018501,-
 0.00010684,-0.00149075,0.02286765,-0.01320212,-0.01941585,0.07820729,-
 0.04515146,-0.07477659,-0.01004567,0.00446276,0.00451085,-0.08232634,0
 .04752950,0.08666151,0.00046166,0.00005457,0.00174985,0.00219121,0.001
 64225,-0.00268350,-0.22528970,-0.10340276,-0.07366127,0.00078295,0.000
 88221,0.00115796,-0.02053069,-0.01318778,-0.00888793,0.24238458,0.0000
 5460,0.00039862,0.00101037,0.00164222,0.00029510,-0.00154940,-0.103402
 84,-0.10589898,-0.04252992,-0.02549240,-0.01342667,-0.01093122,0.01318
 691,0.00788708,0.00646817,0.11401151,0.11074485,-0.00018501,-0.0001068
 5,-0.00149075,-0.02286725,-0.01320282,-0.01941585,-0.07820591,-0.04515
 384,-0.07477659,0.01004554,0.00446307,0.00451085,0.00888774,0.00646844
 ,0.00451083,0.08232489,0.04753200,0.08666151\\0.,0.,0.00033876,0.,-0.0
 0000007,-0.00004863,0.,-0.00000006,-0.00044338,0.,-0.00003771,0.000050
 89,-0.00003262,0.00001892,0.00005118,0.00003262,0.00001892,0.00005118\
 \\@


 IF I AM NOT FOR MYSELF, WHO WILL BE?
 BUT IF I AM ONLY FOR MYSELF, WHAT AM I?
 THOUGH A SEEKER SINCE MY BIRTH,
 HERE IS ALL I'VE LEARNED ON EARTH,
 THIS IS THE GIST OF WHAT I KNOW:
 GIVE ADVICE AND BUY A FOE.

 PRESSED FOR RULES AND VERITIES,
 ALL I RECOLLECT ARE THESE:
 FEED A COLD TO STARVE A FEVER,
 ARGUE WITH NO TRUE-BELIEVER.
 THINK-TOO-LONG IS NEVER-ACT,
 SCRATCH A MYTH AND FIND A FACT.

 STITCH IN TIME SAVES TWENTY STITCHES,
 GIVE THE RICH TO PLEASE THEM, RICHES.
 GIVE TO LOVE YOU HEARTH AND HALL,
 BUT DO NOT GIVE ADVICE AT ALL.

                                  -- HILLEL
 Job cpu time:       0 days  1 hours 13 minutes 14.5 seconds.
 Elapsed time:       0 days  0 hours  1 minutes 53.2 seconds.
 File lengths (MBytes):  RWF=   2456 Int=      0 D2E=      0 Chk=      4 Scr=      1
 Normal termination of Gaussian 16 at Sat Jun  1 04:25:43 2019.
