 Entering Gaussian System, Link 0=g16
 Initial command:
 /ichec/packages/gaussian/16b01/l1.exe "/localscratch/353442/Gau-94597.inp" -scrdir="/localscratch/353442/"
 Entering Link 1 = /ichec/packages/gaussian/16b01/l1.exe PID=     94840.
  
 Copyright (c) 1988-2017, Gaussian, Inc.  All Rights Reserved.
  
 This is part of the Gaussian(R) 16 program.  It is based on
 the Gaussian(R) 09 system (copyright 2009, Gaussian, Inc.),
 the Gaussian(R) 03 system (copyright 2003, Gaussian, Inc.),
 the Gaussian(R) 98 system (copyright 1998, Gaussian, Inc.),
 the Gaussian(R) 94 system (copyright 1995, Gaussian, Inc.),
 the Gaussian 92(TM) system (copyright 1992, Gaussian, Inc.),
 the Gaussian 90(TM) system (copyright 1990, Gaussian, Inc.),
 the Gaussian 88(TM) system (copyright 1988, Gaussian, Inc.),
 the Gaussian 86(TM) system (copyright 1986, Carnegie Mellon
 University), and the Gaussian 82(TM) system (copyright 1983,
 Carnegie Mellon University). Gaussian is a federally registered
 trademark of Gaussian, Inc.
  
 This software contains proprietary and confidential information,
 including trade secrets, belonging to Gaussian, Inc.
  
 This software is provided under written license and may be
 used, copied, transmitted, or stored only in accord with that
 written license.
  
 The following legend is applicable only to US Government
 contracts under FAR:
  
                    RESTRICTED RIGHTS LEGEND
  
 Use, reproduction and disclosure by the US Government is
 subject to restrictions as set forth in subparagraphs (a)
 and (c) of the Commercial Computer Software - Restricted
 Rights clause in FAR 52.227-19.
  
 Gaussian, Inc.
 340 Quinnipiac St., Bldg. 40, Wallingford CT 06492
  
  
 ---------------------------------------------------------------
 Warning -- This program may not be used in any manner that
 competes with the business of Gaussian, Inc. or will provide
 assistance to any competitor of Gaussian, Inc.  The licensee
 of this program is prohibited from giving any competitor of
 Gaussian, Inc. access to this program.  By using this program,
 the user acknowledges that Gaussian, Inc. is engaged in the
 business of creating and licensing software in the field of
 computational chemistry and represents and warrants to the
 licensee that it is not a competitor of Gaussian, Inc. and that
 it will not use this program in any manner prohibited above.
 ---------------------------------------------------------------
  

 Cite this work as:
 Gaussian 16, Revision B.01,
 M. J. Frisch, G. W. Trucks, H. B. Schlegel, G. E. Scuseria, 
 M. A. Robb, J. R. Cheeseman, G. Scalmani, V. Barone, 
 G. A. Petersson, H. Nakatsuji, X. Li, M. Caricato, A. V. Marenich, 
 J. Bloino, B. G. Janesko, R. Gomperts, B. Mennucci, H. P. Hratchian, 
 J. V. Ortiz, A. F. Izmaylov, J. L. Sonnenberg, D. Williams-Young, 
 F. Ding, F. Lipparini, F. Egidi, J. Goings, B. Peng, A. Petrone, 
 T. Henderson, D. Ranasinghe, V. G. Zakrzewski, J. Gao, N. Rega, 
 G. Zheng, W. Liang, M. Hada, M. Ehara, K. Toyota, R. Fukuda, 
 J. Hasegawa, M. Ishida, T. Nakajima, Y. Honda, O. Kitao, H. Nakai, 
 T. Vreven, K. Throssell, J. A. Montgomery, Jr., J. E. Peralta, 
 F. Ogliaro, M. J. Bearpark, J. J. Heyd, E. N. Brothers, K. N. Kudin, 
 V. N. Staroverov, T. A. Keith, R. Kobayashi, J. Normand, 
 K. Raghavachari, A. P. Rendell, J. C. Burant, S. S. Iyengar, 
 J. Tomasi, M. Cossi, J. M. Millam, M. Klene, C. Adamo, R. Cammi, 
 J. W. Ochterski, R. L. Martin, K. Morokuma, O. Farkas, 
 J. B. Foresman, and D. J. Fox, Gaussian, Inc., Wallingford CT, 2016.
 
 ******************************************
 Gaussian 16:  ES64L-G16RevB.01 20-Dec-2017
                24-Jun-2019 
 ******************************************
 %mem=80GB
 %nproc=40
 Will use up to   40 processors via shared memory.
 ----------------------------------------------------------------------
 # opt=(calcfc,ts,noeigentest,maxcyc=500) freq=noraman uB2PLYPD3/cc-pvt
 z
 ----------------------------------------------------------------------
 1/5=1,6=500,10=4,11=1,18=20,38=1/1,3;
 2/9=110,12=2,17=6,18=5,40=1/2;
 3/5=16,6=1,11=2,25=1,30=1,71=2,74=-60,116=2,140=1/1,2,3;
 4//1;
 5/5=2,38=5/2;
 8/6=3,8=1,10=1,19=11,30=-1/1;
 9/15=3,16=-3/6;
 11/6=1,8=1,15=11,17=12,24=-1,27=1,28=-2,29=300,32=6,42=3/1,2,10;
 10/6=2,21=1/2;
 8/6=4,8=1,10=1,19=11,30=-1/11,4;
 10/5=1,20=4/2;
 11/12=2,14=11,16=1,17=2,28=-2,42=3,76=2/2,10,12;
 6/7=2,8=2,9=2,10=2/1;
 7/10=1,12=2,25=1,44=2/1,2,3,16;
 1/5=1,6=500,10=4,11=1,18=20/3(2);
 2/9=110/2;
 99//99;
 2/9=110/2;
 3/5=16,6=1,11=2,25=1,30=1,71=1,74=-60,116=2/1,2,3;
 4/5=5,16=3,69=1/1;
 5/5=2,38=5/2;
 8/6=4,10=1/1;
 9/15=2,16=-3/6;
 10/5=1/2;
 7/12=2/1,2,3,16;
 1/5=1,6=500,11=1,18=20/3(-8);
 2/9=110/2;
 6/7=2,8=2,9=2,10=2/1;
 99/9=10/99;
 -------------------
 Title Card Required
 -------------------
 Symbolic Z-matrix:
 Charge =  0 Multiplicity = 2
 C                    -1.30291   0.87791  -0.1599 
 H                    -2.17989   1.53504  -0.18539 
 H                    -0.93287   0.83478  -1.18726 
 C                    -0.25347   1.49115   0.73301 
 H                    -0.0352    2.53365   0.5274 
 H                    -0.32406   1.25358   1.78808 
 C                     1.47958  -1.67939  -0.69644 
 H                     0.75805  -1.80651   0.10884 
 H                     1.1834   -2.27595  -1.55676 
 H                     2.47647  -1.9643   -0.3649 
 O                     1.48001  -0.33435  -1.1645 
 O                     1.90979   0.48786  -0.10372 
 H                     0.93845   0.91287   0.34153 
 C                    -1.73187  -0.45082   0.26117 
 C                    -2.08968  -1.54106   0.62921 
 H                    -2.40909  -2.5005    0.94692 
 
 Add virtual bond connecting atoms H13        and O12        Dist= 2.17D+00.
 Add virtual bond connecting atoms H13        and C4         Dist= 2.61D+00.

 GradGradGradGradGradGradGradGradGradGradGradGradGradGradGradGradGradGrad
 Berny optimization.
 Initialization pass.
                           ----------------------------
                           !    Initial Parameters    !
                           ! (Angstroms and Degrees)  !
 --------------------------                            --------------------------
 ! Name  Definition              Value          Derivative Info.                !
 --------------------------------------------------------------------------------
 ! R1    R(1,2)                  1.0962         calculate D2E/DX2 analytically  !
 ! R2    R(1,3)                  1.0928         calculate D2E/DX2 analytically  !
 ! R3    R(1,4)                  1.5082         calculate D2E/DX2 analytically  !
 ! R4    R(1,14)                 1.4584         calculate D2E/DX2 analytically  !
 ! R5    R(4,5)                  1.0848         calculate D2E/DX2 analytically  !
 ! R6    R(4,6)                  1.0838         calculate D2E/DX2 analytically  !
 ! R7    R(4,13)                 1.3814         calculate D2E/DX2 analytically  !
 ! R8    R(7,8)                  1.0887         calculate D2E/DX2 analytically  !
 ! R9    R(7,9)                  1.088          calculate D2E/DX2 analytically  !
 ! R10   R(7,10)                 1.0885         calculate D2E/DX2 analytically  !
 ! R11   R(7,11)                 1.4242         calculate D2E/DX2 analytically  !
 ! R12   R(11,12)                1.4093         calculate D2E/DX2 analytically  !
 ! R13   R(12,13)                1.15           calculate D2E/DX2 analytically  !
 ! R14   R(14,15)                1.205          calculate D2E/DX2 analytically  !
 ! R15   R(15,16)                1.0599         calculate D2E/DX2 analytically  !
 ! A1    A(2,1,3)              105.8253         calculate D2E/DX2 analytically  !
 ! A2    A(2,1,4)              109.0689         calculate D2E/DX2 analytically  !
 ! A3    A(2,1,14)             108.517          calculate D2E/DX2 analytically  !
 ! A4    A(3,1,4)              109.6945         calculate D2E/DX2 analytically  !
 ! A5    A(3,1,14)             109.5768         calculate D2E/DX2 analytically  !
 ! A6    A(4,1,14)             113.8405         calculate D2E/DX2 analytically  !
 ! A7    A(1,4,5)              114.7428         calculate D2E/DX2 analytically  !
 ! A8    A(1,4,6)              116.2248         calculate D2E/DX2 analytically  !
 ! A9    A(1,4,13)             105.2113         calculate D2E/DX2 analytically  !
 ! A10   A(5,4,6)              114.0979         calculate D2E/DX2 analytically  !
 ! A11   A(5,4,13)             100.0775         calculate D2E/DX2 analytically  !
 ! A12   A(6,4,13)             103.9054         calculate D2E/DX2 analytically  !
 ! A13   A(8,7,9)              109.9046         calculate D2E/DX2 analytically  !
 ! A14   A(8,7,10)             110.5555         calculate D2E/DX2 analytically  !
 ! A15   A(8,7,11)             110.7069         calculate D2E/DX2 analytically  !
 ! A16   A(9,7,10)             110.2808         calculate D2E/DX2 analytically  !
 ! A17   A(9,7,11)             104.9536         calculate D2E/DX2 analytically  !
 ! A18   A(10,7,11)            110.3055         calculate D2E/DX2 analytically  !
 ! A19   A(7,11,12)            107.6814         calculate D2E/DX2 analytically  !
 ! A20   A(11,12,13)           104.4468         calculate D2E/DX2 analytically  !
 ! A21   L(4,13,12,16,-1)      182.1563         calculate D2E/DX2 analytically  !
 ! A22   L(1,14,15,7,-1)       180.5266         calculate D2E/DX2 analytically  !
 ! A23   L(14,15,16,7,-1)      180.1311         calculate D2E/DX2 analytically  !
 ! A24   L(4,13,12,16,-2)      173.2526         calculate D2E/DX2 analytically  !
 ! A25   L(1,14,15,7,-2)       179.1066         calculate D2E/DX2 analytically  !
 ! A26   L(14,15,16,7,-2)      180.4184         calculate D2E/DX2 analytically  !
 ! D1    D(2,1,4,5)            -49.602          calculate D2E/DX2 analytically  !
 ! D2    D(2,1,4,6)             87.1312         calculate D2E/DX2 analytically  !
 ! D3    D(2,1,4,13)          -158.5658         calculate D2E/DX2 analytically  !
 ! D4    D(3,1,4,5)             65.8781         calculate D2E/DX2 analytically  !
 ! D5    D(3,1,4,6)           -157.3887         calculate D2E/DX2 analytically  !
 ! D6    D(3,1,4,13)           -43.0858         calculate D2E/DX2 analytically  !
 ! D7    D(14,1,4,5)          -170.9425         calculate D2E/DX2 analytically  !
 ! D8    D(14,1,4,6)           -34.2094         calculate D2E/DX2 analytically  !
 ! D9    D(14,1,4,13)           80.0936         calculate D2E/DX2 analytically  !
 ! D10   D(1,4,12,11)            0.557          calculate D2E/DX2 analytically  !
 ! D11   D(5,4,12,11)         -117.606          calculate D2E/DX2 analytically  !
 ! D12   D(6,4,12,11)          123.9369         calculate D2E/DX2 analytically  !
 ! D13   D(8,7,11,12)           63.7679         calculate D2E/DX2 analytically  !
 ! D14   D(9,7,11,12)         -177.6978         calculate D2E/DX2 analytically  !
 ! D15   D(10,7,11,12)         -58.9229         calculate D2E/DX2 analytically  !
 ! D16   D(7,11,12,13)         -99.0906         calculate D2E/DX2 analytically  !
 --------------------------------------------------------------------------------
 Trust Radius=3.00D-01 FncErr=1.00D-07 GrdErr=1.00D-07 EigMax=2.50D+02 EigMin=1.00D-04
 Number of steps in this run=    100 maximum allowed number of steps=    100.
 Search for a saddle point of order  1.
 GradGradGradGradGradGradGradGradGradGradGradGradGradGradGradGradGradGrad

                          Input orientation:                          
 ---------------------------------------------------------------------
 Center     Atomic      Atomic             Coordinates (Angstroms)
 Number     Number       Type             X           Y           Z
 ---------------------------------------------------------------------
      1          6           0       -1.302909    0.877912   -0.159900
      2          1           0       -2.179888    1.535043   -0.185389
      3          1           0       -0.932866    0.834784   -1.187259
      4          6           0       -0.253465    1.491152    0.733014
      5          1           0       -0.035201    2.533645    0.527401
      6          1           0       -0.324060    1.253578    1.788080
      7          6           0        1.479578   -1.679390   -0.696435
      8          1           0        0.758049   -1.806514    0.108844
      9          1           0        1.183404   -2.275946   -1.556764
     10          1           0        2.476469   -1.964304   -0.364904
     11          8           0        1.480011   -0.334349   -1.164503
     12          8           0        1.909789    0.487858   -0.103722
     13          1           0        0.938447    0.912869    0.341532
     14          6           0       -1.731872   -0.450824    0.261165
     15          6           0       -2.089682   -1.541058    0.629210
     16          1           0       -2.409089   -2.500499    0.946923
 ---------------------------------------------------------------------
                    Distance matrix (angstroms):
                    1          2          3          4          5
     1  C    0.000000
     2  H    1.096158   0.000000
     3  H    1.092821   1.746187   0.000000
     4  C    1.508208   2.134595   2.140059   0.000000
     5  H    2.195659   2.470821   2.575265   1.084762   0.000000
     6  H    2.212215   2.723582   3.065726   1.083785   1.819704
     7  C    3.817053   4.897493   3.518787   3.885756   4.641335
     8  H    3.394984   4.459154   3.393454   3.505332   4.431864
     9  H    4.252035   5.264603   3.780446   4.636669   5.381534
    10  H    4.733278   5.827462   4.487174   4.538517   5.228407
    11  O    3.197413   4.224707   2.681299   3.152454   3.658387
    12  O    3.236777   4.222407   3.061878   2.527132   2.892498
    13  H    2.297027   3.223160   2.417667   1.381421   1.899856
    14  C    1.458370   2.084178   2.095025   2.485880   3.443346
    15  C    2.663292   3.183411   3.206619   3.546374   4.564478
    16  H    3.723218   4.197650   4.225882   4.541558   5.581572
                    6          7          8          9         10
     6  H    0.000000
     7  C    4.245966   0.000000
     8  H    3.654443   1.088687   0.000000
     9  H    5.090969   1.088009   1.782005   0.000000
    10  H    4.778396   1.088522   1.789498   1.785964   0.000000
    11  O    3.807090   1.424157   2.076033   2.002909   2.071000
    12  O    3.025776   2.287653   2.576011   3.205866   2.530304
    13  H    1.950002   2.844293   2.735275   3.719149   3.338067
    14  C    2.686706   3.569283   2.839155   3.890343   4.515830
    15  C    3.502912   3.809998   2.907029   4.003952   4.692242
    16  H    4.375841   4.300765   3.348844   4.384618   5.086951
                   11         12         13         14         15
    11  O    0.000000
    12  O    1.409252   0.000000
    13  H    2.029036   1.149953   0.000000
    14  C    3.516005   3.778354   2.999453   0.000000
    15  C    4.173279   4.544167   3.908207   1.205029   0.000000
    16  H    4.927010   5.356010   4.819085   2.264962   1.059948
                   16
    16  H    0.000000
 Stoichiometry    C5H9O2(2)
 Framework group  C1[X(C5H9O2)]
 Deg. of freedom    42
 Full point group                 C1      NOp   1
 Largest Abelian subgroup         C1      NOp   1
 Largest concise Abelian subgroup C1      NOp   1
                         Standard orientation:                         
 ---------------------------------------------------------------------
 Center     Atomic      Atomic             Coordinates (Angstroms)
 Number     Number       Type             X           Y           Z
 ---------------------------------------------------------------------
      1          6           0       -1.374702   -0.803505    0.609407
      2          1           0       -2.265285   -1.320573    0.984993
      3          1           0       -0.715435   -0.680480    1.472245
      4          6           0       -0.701425   -1.670079   -0.425214
      5          1           0       -0.535924   -2.697439   -0.118869
      6          1           0       -1.056666   -1.563742   -1.443588
      7          6           0        1.679761    1.380659   -0.075853
      8          1           0        0.768806    1.503406   -0.659234
      9          1           0        1.711070    2.119700    0.722020
     10          1           0        2.557286    1.475744   -0.712869
     11          8           0        1.685963    0.121355    0.589233
     12          8           0        1.700216   -0.884088   -0.398122
     13          1           0        0.603808   -1.221020   -0.480324
     14          6           0       -1.775873    0.506727    0.110210
     15          6           0       -2.117251    1.579682   -0.319119
     16          1           0       -2.420148    2.525361   -0.689841
 ---------------------------------------------------------------------
 Rotational constants (GHZ):           3.1216628           1.7226270           1.2383501
 Standard basis: CC-pVTZ (5D, 7F)
 There are   380 symmetry adapted cartesian basis functions of A   symmetry.
 There are   336 symmetry adapted basis functions of A   symmetry.
   336 basis functions,   517 primitive gaussians,   380 cartesian basis functions
    28 alpha electrons       27 beta electrons
       nuclear repulsion energy       289.9987844197 Hartrees.
 NAtoms=   16 NActive=   16 NUniq=   16 SFac= 1.00D+00 NAtFMM=   60 NAOKFM=F Big=F
 Integral buffers will be    131072 words long.
 Raffenetti 2 integral format.
 Two-electron integral symmetry is turned on.
 Nuclear repulsion after empirical dispersion term =      289.9899750653 Hartrees.
 One-electron integrals computed using PRISM.
 NBasis=   336 RedAO= T EigKep=  4.35D-05  NBF=   336
 NBsUse=   336 1.00D-06 EigRej= -1.00D+00 NBFU=   336
 ExpMin= 1.03D-01 ExpMax= 1.53D+04 ExpMxC= 5.22D+02 IAcc=3 IRadAn=         5 AccDes= 0.00D+00
 Harris functional with IExCor=  419 and IRadAn=       5 diagonalized for initial guess.
 HarFok:  IExCor=  419 AccDes= 0.00D+00 IRadAn=         5 IDoV= 1 UseB2=F ITyADJ=14
 ICtDFT=  3500011 ScaDFX=  1.000000  1.000000  1.000000  1.000000
 FoFCou: FMM=F IPFlag=           0 FMFlag=      100000 FMFlg1=           0
         NFxFlg=           0 DoJE=T BraDBF=F KetDBF=T FulRan=T
         wScrn=  0.000000 ICntrl=       500 IOpCl=  0 I1Cent=   200000004 NGrid=           0
         NMat0=    1 NMatS0=      1 NMatT0=    0 NMatD0=    1 NMtDS0=    0 NMtDT0=    0
 Petite list used in FoFCou.
 Initial guess <Sx>= 0.0000 <Sy>= 0.0000 <Sz>= 0.5000 <S**2>= 0.7500 S= 0.5000
 Requested convergence on RMS density matrix=1.00D-08 within 128 cycles.
 Requested convergence on MAX density matrix=1.00D-06.
 Requested convergence on             energy=1.00D-06.
 No special actions if energy rises.
 Integral accuracy reduced to 1.0D-05 until final iterations.
 Initial convergence to 1.0D-05 achieved.  Increase integral accuracy.
 SCF Done:  E(UB2PLYPD3) =  -345.567458456     A.U. after   21 cycles
            NFock= 21  Conv=0.76D-08     -V/T= 2.0044
 <Sx>= 0.0000 <Sy>= 0.0000 <Sz>= 0.5000 <S**2>= 0.7684 S= 0.5092
 <L.S>=  0.00000000000    
 Annihilation of the first spin contaminant:
 S**2 before annihilation     0.7684,   after     0.7502
 DoSCS=T DFT=T ScalE2(SS,OS)=  0.270000  0.270000
 ExpMin= 1.03D-01 ExpMax= 1.53D+04 ExpMxC= 5.22D+02 IAcc=3 IRadAn=         5 AccDes= 0.00D+00
 HarFok:  IExCor=  205 AccDes= 0.00D+00 IRadAn=         5 IDoV=-2 UseB2=F ITyADJ=14
 ICtDFT= 12500011 ScaDFX=  1.000000  1.000000  1.000000  1.000000
 Range of M.O.s used for correlation:     8   336
 NBasis=   336 NAE=    28 NBE=    27 NFC=     7 NFV=     0
 NROrb=    329 NOA=    21 NOB=    20 NVA=   308 NVB=   309

 **** Warning!!: The largest alpha MO coefficient is  0.32377982D+02


 **** Warning!!: The largest beta MO coefficient is  0.30218099D+02

 DoSCS=T DFT=T ScalE2(SS,OS)=  0.270000  0.270000
 Disk-based method using ON**2 memory for 21 occupieds at a time.
 Permanent disk used for amplitudes=   106523802 words.
 Estimated scratch disk usage=  2028995832 words.
 Actual    scratch disk usage=  1961816312 words.
 JobTyp=2 Pass  1:  I=   8 to  28 NPSUse= 40 ParTrn=T ParDer=T DoDerP=T.
 (rs|ai) integrals will be sorted in core.
 Actual    scratch disk usage=  1961816312 words.
 JobTyp=3 Pass  1:  I=   8 to  27 NPSUse= 40 ParTrn=T ParDer=T DoDerP=T.
 (rs|ai) integrals will be sorted in core.
 Spin components of T(2) and E(2):
     alpha-alpha T2 =       0.7953442360D-01 E2=     -0.5377225163D-01
     alpha-beta  T2 =       0.4684777133D+00 E2=     -0.3267760735D+00
     beta-beta   T2 =       0.8388406023D-01 E2=     -0.5222313209D-01
 (S**2,0)=  0.76841D+00           (S**2,1)=  0.74290D+00
 Scaling Projection term by:   0.270000
 E(PUHF)=      -0.34557356683D+03        E(PMP2)=      -0.34600074251D+03
 E2(B2PLYPD3) =    -0.4327714572D+00 E(B2PLYPD3) =    -0.34600022991274D+03
 G2DrvN: will do    17 centers at a time, making    1 passes.
 Calling FoFCou, ICntrl=  3107 FMM=F I1Cent=   0 AccDes= 0.00D+00.
 End of G2Drv F.D. properties file   721 does not exist.
 End of G2Drv F.D. properties file   722 does not exist.
 End of G2Drv F.D. properties file   788 does not exist.
          IDoAtm=1111111111111111
          Differentiating once with respect to electric field.
                with respect to dipole field.
          Differentiating once with respect to nuclear coordinates.
 Keep R1 and R2 ints in memory in canonical form, NReq=3251642439.
          There are    51 degrees of freedom in the 1st order CPHF.  IDoFFX=6 NUNeed=    51.
     48 vectors produced by pass  0 Test12= 3.33D-14 1.96D-09 XBig12= 8.52D+01 4.10D+00.
 AX will form    48 AO Fock derivatives at one time.
     48 vectors produced by pass  1 Test12= 3.33D-14 1.96D-09 XBig12= 1.07D+01 4.23D-01.
     48 vectors produced by pass  2 Test12= 3.33D-14 1.96D-09 XBig12= 4.66D-01 1.26D-01.
     48 vectors produced by pass  3 Test12= 3.33D-14 1.96D-09 XBig12= 7.77D-03 7.45D-03.
     48 vectors produced by pass  4 Test12= 3.33D-14 1.96D-09 XBig12= 9.67D-05 1.21D-03.
     48 vectors produced by pass  5 Test12= 3.33D-14 1.96D-09 XBig12= 1.22D-06 9.87D-05.
     48 vectors produced by pass  6 Test12= 3.33D-14 1.96D-09 XBig12= 9.50D-09 7.16D-06.
     22 vectors produced by pass  7 Test12= 3.33D-14 1.96D-09 XBig12= 8.13D-11 7.78D-07.
      3 vectors produced by pass  8 Test12= 3.33D-14 1.96D-09 XBig12= 6.12D-13 6.25D-08.
      3 vectors produced by pass  9 Test12= 3.33D-14 1.96D-09 XBig12= 4.84D-15 6.51D-09.
 InvSVY:  IOpt=1 It=  1 EMax= 5.04D-15
 Solved reduced A of dimension   364 with    51 vectors.
 End of Minotr F.D. properties file   721 does not exist.
 End of Minotr F.D. properties file   722 does not exist.
 End of Minotr F.D. properties file   788 does not exist.
 MDV= 10737418240.
 DoSCS=T DFT=T ScalE2(SS,OS)=  0.270000  0.270000
 Form MO integral derivatives with frozen-active canonical formalism.
 Discarding MO integrals.
 Reordered first order wavefunction length =    428928697
 In DefCFB: NBatch=  1 ICI= 28 ICA=309 LFMax= 78
            Large arrays: LIAPS=  8665386240 LIARS=  1611002400 words.
 In DefCFB: NBatch=  1 ICI= 28 ICA=309 LFMax= 78
            Large arrays: LIAPS=  8665386240 LIARS=  1611002400 words.
 Semi-Direct transformation.
 ModeAB=           4 MOrb=            28 LenV=   10734082289
 LASXX=    503301435 LTotXX=   503301435 LenRXX=  1014543915
 LTotAB=   511242480 MaxLAS=   633318336 LenRXY=           0
 NonZer=  1517845350 LenScr=  2285697024 LnRSAI=   633318336
 LnScr1=   953703424 LExtra=           0 Total=   4887262699
 MaxDsk=          -1 SrtSym=           T ITran=            4
 JobTyp=1 Pass  1:  I=   1 to  28.
 (rs|ai) integrals will be sorted in core.
 ModeAB=           4 MOrb=            27 LenV=   10734082289
 LASXX=    486308502 LTotXX=   486308502 LenRXX=   901306008
 LTotAB=   414997506 MaxLAS=   610699824 LenRXY=           0
 NonZer=  1387614510 LenScr=  2089584640 LnRSAI=   610699824
 LnScr1=   919642112 LExtra=           0 Total=   4521232584
 MaxDsk=          -1 SrtSym=           T ITran=            4
 JobTyp=2 Pass  1:  I=   1 to  27.
 (rs|ai) integrals will be sorted in core.
 SymMOI:  orbitals are not symmetric.
 DoSCS=T DFT=T ScalE2(SS,OS)=  0.270000  0.270000
 Spin components of T(2) and E(2):
     alpha-alpha T2 =       0.7953442360D-01 E2=     -0.5377225163D-01
     alpha-beta  T2 =       0.4684777133D+00 E2=     -0.3267760735D+00
     beta-beta   T2 =       0.8388406023D-01 E2=     -0.5222313209D-01
 E2(B2PLYPD3) =    -0.4327714572D+00 E(B2PLYPD3) =    -0.34600022991274D+03
 (S**2,0)=  0.76841D+00           (S**2,1)=  0.74290D+00
 Scaling Projection term by:   0.270000
 E(PUHF)=      -0.34557356683D+03        E(PMP2)=      -0.34600074251D+03
          IDoAtm=1111111111111111
          Differentiating once with respect to electric field.
                with respect to dipole field.
          Differentiating once with respect to nuclear coordinates.
 Keep R1 and R2 ints in memory in canonical form, NReq=3251778068.
          There are     1 degrees of freedom in the 1st order CPHF.  IDoFFX=0 NUNeed=     1.
 LinEq1:  Iter=  0 NonCon=     1 RMS=9.10D-04 Max=6.91D-02 NDo=     1
 AX will form     1 AO Fock derivatives at one time.
 LinEq1:  Iter=  1 NonCon=     1 RMS=3.01D-04 Max=9.84D-03 NDo=     1
 LinEq1:  Iter=  2 NonCon=     1 RMS=1.84D-04 Max=1.00D-02 NDo=     1
 LinEq1:  Iter=  3 NonCon=     1 RMS=1.13D-04 Max=3.27D-03 NDo=     1
 LinEq1:  Iter=  4 NonCon=     1 RMS=5.22D-05 Max=1.51D-03 NDo=     1
 LinEq1:  Iter=  5 NonCon=     1 RMS=4.27D-05 Max=1.31D-03 NDo=     1
 LinEq1:  Iter=  6 NonCon=     1 RMS=2.00D-05 Max=8.01D-04 NDo=     1
 LinEq1:  Iter=  7 NonCon=     1 RMS=9.44D-06 Max=2.53D-04 NDo=     1
 LinEq1:  Iter=  8 NonCon=     1 RMS=6.72D-06 Max=1.35D-04 NDo=     1
 LinEq1:  Iter=  9 NonCon=     1 RMS=3.10D-06 Max=7.53D-05 NDo=     1
 LinEq1:  Iter= 10 NonCon=     1 RMS=1.38D-06 Max=3.23D-05 NDo=     1
 LinEq1:  Iter= 11 NonCon=     1 RMS=6.44D-07 Max=1.30D-05 NDo=     1
 LinEq1:  Iter= 12 NonCon=     1 RMS=2.68D-07 Max=6.67D-06 NDo=     1
 LinEq1:  Iter= 13 NonCon=     1 RMS=1.10D-07 Max=2.91D-06 NDo=     1
 LinEq1:  Iter= 14 NonCon=     1 RMS=4.54D-08 Max=9.90D-07 NDo=     1
 LinEq1:  Iter= 15 NonCon=     1 RMS=1.97D-08 Max=4.79D-07 NDo=     1
 LinEq1:  Iter= 16 NonCon=     1 RMS=6.95D-09 Max=1.43D-07 NDo=     1
 LinEq1:  Iter= 17 NonCon=     1 RMS=2.49D-09 Max=6.53D-08 NDo=     1
 LinEq1:  Iter= 18 NonCon=     1 RMS=8.06D-10 Max=2.72D-08 NDo=     1
 LinEq1:  Iter= 19 NonCon=     1 RMS=2.96D-10 Max=1.40D-08 NDo=     1
 LinEq1:  Iter= 20 NonCon=     1 RMS=1.03D-10 Max=4.58D-09 NDo=     1
 LinEq1:  Iter= 21 NonCon=     1 RMS=3.45D-11 Max=1.28D-09 NDo=     1
 LinEq1:  Iter= 22 NonCon=     0 RMS=1.20D-11 Max=2.44D-10 NDo=     1
 Linear equations converged to 1.000D-10 1.000D-09 after    22 iterations.
 End of Minotr F.D. properties file   721 does not exist.
 End of Minotr F.D. properties file   722 does not exist.
 End of Minotr F.D. properties file   788 does not exist.
 Symmetrizing basis deriv contribution to polar:
 IMax=3 JMax=2 DiffMx= 0.00D+00
 G2DrvN: will do    17 centers at a time, making    1 passes.
 Calling FoFCou, ICntrl=  3107 FMM=F I1Cent=   0 AccDes= 0.00D+00.
 End of G2Drv F.D. properties file   721 does not exist.
 End of G2Drv F.D. properties file   722 does not exist.
 End of G2Drv F.D. properties file   788 does not exist.
 DoSCS=T DFT=T ScalE2(SS,OS)=  0.270000  0.270000
 R2 and R3 integrals will be kept in memory, NReq=  5268037470.
 DD1Dir will call FoFMem   1 times, MxPair=      2242
 NAB=   756 NAA=   378 NBB=   351.
 Discarding MO integrals.

 **********************************************************************

            Population analysis using the SCF Density.

 **********************************************************************

 Orbital symmetries:
 Alpha Orbitals:
       Occupied  (A) (A) (A) (A) (A) (A) (A) (A) (A) (A) (A) (A)
                 (A) (A) (A) (A) (A) (A) (A) (A) (A) (A) (A) (A)
                 (A) (A) (A) (A)
       Virtual   (A) (A) (A) (A) (A) (A) (A) (A) (A) (A) (A) (A)
                 (A) (A) (A) (A) (A) (A) (A) (A) (A) (A) (A) (A)
                 (A) (A) (A) (A) (A) (A) (A) (A) (A) (A) (A) (A)
                 (A) (A) (A) (A) (A) (A) (A) (A) (A) (A) (A) (A)
                 (A) (A) (A) (A) (A) (A) (A) (A) (A) (A) (A) (A)
                 (A) (A) (A) (A) (A) (A) (A) (A) (A) (A) (A) (A)
                 (A) (A) (A) (A) (A) (A) (A) (A) (A) (A) (A) (A)
                 (A) (A) (A) (A) (A) (A) (A) (A) (A) (A) (A) (A)
                 (A) (A) (A) (A) (A) (A) (A) (A) (A) (A) (A) (A)
                 (A) (A) (A) (A) (A) (A) (A) (A) (A) (A) (A) (A)
                 (A) (A) (A) (A) (A) (A) (A) (A) (A) (A) (A) (A)
                 (A) (A) (A) (A) (A) (A) (A) (A) (A) (A) (A) (A)
                 (A) (A) (A) (A) (A) (A) (A) (A) (A) (A) (A) (A)
                 (A) (A) (A) (A) (A) (A) (A) (A) (A) (A) (A) (A)
                 (A) (A) (A) (A) (A) (A) (A) (A) (A) (A) (A) (A)
                 (A) (A) (A) (A) (A) (A) (A) (A) (A) (A) (A) (A)
                 (A) (A) (A) (A) (A) (A) (A) (A) (A) (A) (A) (A)
                 (A) (A) (A) (A) (A) (A) (A) (A) (A) (A) (A) (A)
                 (A) (A) (A) (A) (A) (A) (A) (A) (A) (A) (A) (A)
                 (A) (A) (A) (A) (A) (A) (A) (A) (A) (A) (A) (A)
                 (A) (A) (A) (A) (A) (A) (A) (A) (A) (A) (A) (A)
                 (A) (A) (A) (A) (A) (A) (A) (A) (A) (A) (A) (A)
                 (A) (A) (A) (A) (A) (A) (A) (A) (A) (A) (A) (A)
                 (A) (A) (A) (A) (A) (A) (A) (A) (A) (A) (A) (A)
                 (A) (A) (A) (A) (A) (A) (A) (A) (A) (A) (A) (A)
                 (A) (A) (A) (A) (A) (A) (A) (A)
 Beta  Orbitals:
       Occupied  (A) (A) (A) (A) (A) (A) (A) (A) (A) (A) (A) (A)
                 (A) (A) (A) (A) (A) (A) (A) (A) (A) (A) (A) (A)
                 (A) (A) (A)
       Virtual   (A) (A) (A) (A) (A) (A) (A) (A) (A) (A) (A) (A)
                 (A) (A) (A) (A) (A) (A) (A) (A) (A) (A) (A) (A)
                 (A) (A) (A) (A) (A) (A) (A) (A) (A) (A) (A) (A)
                 (A) (A) (A) (A) (A) (A) (A) (A) (A) (A) (A) (A)
                 (A) (A) (A) (A) (A) (A) (A) (A) (A) (A) (A) (A)
                 (A) (A) (A) (A) (A) (A) (A) (A) (A) (A) (A) (A)
                 (A) (A) (A) (A) (A) (A) (A) (A) (A) (A) (A) (A)
                 (A) (A) (A) (A) (A) (A) (A) (A) (A) (A) (A) (A)
                 (A) (A) (A) (A) (A) (A) (A) (A) (A) (A) (A) (A)
                 (A) (A) (A) (A) (A) (A) (A) (A) (A) (A) (A) (A)
                 (A) (A) (A) (A) (A) (A) (A) (A) (A) (A) (A) (A)
                 (A) (A) (A) (A) (A) (A) (A) (A) (A) (A) (A) (A)
                 (A) (A) (A) (A) (A) (A) (A) (A) (A) (A) (A) (A)
                 (A) (A) (A) (A) (A) (A) (A) (A) (A) (A) (A) (A)
                 (A) (A) (A) (A) (A) (A) (A) (A) (A) (A) (A) (A)
                 (A) (A) (A) (A) (A) (A) (A) (A) (A) (A) (A) (A)
                 (A) (A) (A) (A) (A) (A) (A) (A) (A) (A) (A) (A)
                 (A) (A) (A) (A) (A) (A) (A) (A) (A) (A) (A) (A)
                 (A) (A) (A) (A) (A) (A) (A) (A) (A) (A) (A) (A)
                 (A) (A) (A) (A) (A) (A) (A) (A) (A) (A) (A) (A)
                 (A) (A) (A) (A) (A) (A) (A) (A) (A) (A) (A) (A)
                 (A) (A) (A) (A) (A) (A) (A) (A) (A) (A) (A) (A)
                 (A) (A) (A) (A) (A) (A) (A) (A) (A) (A) (A) (A)
                 (A) (A) (A) (A) (A) (A) (A) (A) (A) (A) (A) (A)
                 (A) (A) (A) (A) (A) (A) (A) (A) (A) (A) (A) (A)
                 (A) (A) (A) (A) (A) (A) (A) (A) (A)
 The electronic state is 2-A.
 Alpha  occ. eigenvalues --  -19.78584 -19.78469 -10.65492 -10.65383 -10.64950
 Alpha  occ. eigenvalues --  -10.62886 -10.61497  -1.27319  -1.02090  -0.93825
 Alpha  occ. eigenvalues --   -0.85437  -0.77596  -0.75399  -0.62242  -0.61336
 Alpha  occ. eigenvalues --   -0.56484  -0.55635  -0.54181  -0.52616  -0.49764
 Alpha  occ. eigenvalues --   -0.49098  -0.46680  -0.43748  -0.37662  -0.36310
 Alpha  occ. eigenvalues --   -0.33561  -0.33167  -0.29981
 Alpha virt. eigenvalues --    0.07170   0.08780   0.09413   0.10704   0.11305
 Alpha virt. eigenvalues --    0.11630   0.13584   0.14671   0.15091   0.16924
 Alpha virt. eigenvalues --    0.18337   0.20247   0.22065   0.24474   0.27538
 Alpha virt. eigenvalues --    0.28533   0.30634   0.31533   0.33027   0.34014
 Alpha virt. eigenvalues --    0.35332   0.36776   0.41513   0.43650   0.45123
 Alpha virt. eigenvalues --    0.45276   0.46110   0.47781   0.48696   0.49672
 Alpha virt. eigenvalues --    0.50138   0.51873   0.52318   0.52775   0.53113
 Alpha virt. eigenvalues --    0.54036   0.55133   0.56831   0.58570   0.60854
 Alpha virt. eigenvalues --    0.62371   0.63226   0.65304   0.66666   0.69577
 Alpha virt. eigenvalues --    0.70742   0.72160   0.73625   0.76390   0.77912
 Alpha virt. eigenvalues --    0.80954   0.83181   0.86193   0.88931   0.89231
 Alpha virt. eigenvalues --    0.91534   0.93042   0.93499   0.94355   0.96479
 Alpha virt. eigenvalues --    0.98014   0.98479   1.01810   1.01984   1.03789
 Alpha virt. eigenvalues --    1.06662   1.08862   1.10278   1.11105   1.11443
 Alpha virt. eigenvalues --    1.13084   1.14439   1.16672   1.17927   1.18503
 Alpha virt. eigenvalues --    1.20633   1.21862   1.23849   1.25947   1.27835
 Alpha virt. eigenvalues --    1.29168   1.33663   1.34471   1.34830   1.36503
 Alpha virt. eigenvalues --    1.38830   1.39761   1.40307   1.41354   1.42406
 Alpha virt. eigenvalues --    1.44002   1.47388   1.49925   1.52576   1.53783
 Alpha virt. eigenvalues --    1.56385   1.59659   1.61527   1.62950   1.64236
 Alpha virt. eigenvalues --    1.65955   1.70755   1.76648   1.78885   1.80254
 Alpha virt. eigenvalues --    1.89277   1.95597   2.00328   2.04004   2.12005
 Alpha virt. eigenvalues --    2.16877   2.17811   2.20486   2.22559   2.25698
 Alpha virt. eigenvalues --    2.29538   2.34092   2.40799   2.40990   2.42783
 Alpha virt. eigenvalues --    2.43153   2.46224   2.50558   2.52054   2.54310
 Alpha virt. eigenvalues --    2.56263   2.58105   2.59558   2.61308   2.63746
 Alpha virt. eigenvalues --    2.64434   2.65778   2.68733   2.71205   2.74793
 Alpha virt. eigenvalues --    2.75016   2.77206   2.79763   2.82433   2.84814
 Alpha virt. eigenvalues --    2.85746   2.89045   2.90608   2.91891   2.92819
 Alpha virt. eigenvalues --    2.94594   2.95517   2.97817   3.00913   3.01822
 Alpha virt. eigenvalues --    3.02743   3.04137   3.04833   3.05837   3.07861
 Alpha virt. eigenvalues --    3.08739   3.10176   3.11779   3.13103   3.13462
 Alpha virt. eigenvalues --    3.14065   3.15205   3.15757   3.17081   3.18785
 Alpha virt. eigenvalues --    3.20012   3.21965   3.22379   3.24275   3.25038
 Alpha virt. eigenvalues --    3.25718   3.27530   3.28626   3.34606   3.40639
 Alpha virt. eigenvalues --    3.42192   3.42618   3.43077   3.44642   3.46148
 Alpha virt. eigenvalues --    3.46779   3.49818   3.50779   3.51753   3.54518
 Alpha virt. eigenvalues --    3.55302   3.57054   3.59791   3.60741   3.64598
 Alpha virt. eigenvalues --    3.64784   3.66107   3.71587   3.75071   3.76377
 Alpha virt. eigenvalues --    3.77317   3.82545   3.84591   3.84746   3.87112
 Alpha virt. eigenvalues --    3.88554   3.90922   3.93578   3.93910   3.95925
 Alpha virt. eigenvalues --    3.96504   3.97596   3.99608   4.02197   4.03834
 Alpha virt. eigenvalues --    4.06770   4.08778   4.10132   4.12080   4.12817
 Alpha virt. eigenvalues --    4.15370   4.16895   4.18650   4.19603   4.20482
 Alpha virt. eigenvalues --    4.21462   4.24161   4.25810   4.27625   4.30856
 Alpha virt. eigenvalues --    4.32623   4.35315   4.36463   4.38527   4.39711
 Alpha virt. eigenvalues --    4.42036   4.46138   4.49197   4.50185   4.54564
 Alpha virt. eigenvalues --    4.57244   4.62350   4.64346   4.67946   4.73173
 Alpha virt. eigenvalues --    4.79097   4.83693   4.85178   4.90789   4.92931
 Alpha virt. eigenvalues --    4.94590   4.97888   5.00497   5.02679   5.04895
 Alpha virt. eigenvalues --    5.06946   5.09848   5.13253   5.16000   5.21018
 Alpha virt. eigenvalues --    5.24440   5.28115   5.30735   5.33120   5.34605
 Alpha virt. eigenvalues --    5.35406   5.36175   5.37404   5.40729   5.42362
 Alpha virt. eigenvalues --    5.42859   5.47577   5.49901   5.56823   5.57827
 Alpha virt. eigenvalues --    5.63553   5.67489   5.76886   5.79771   5.83538
 Alpha virt. eigenvalues --    5.94071   5.95678   5.99223   6.00158   6.03801
 Alpha virt. eigenvalues --    6.05029   6.09165   6.10595   6.15700   6.26795
 Alpha virt. eigenvalues --    6.33070   6.36720   6.39696   6.42108   6.64442
 Alpha virt. eigenvalues --    6.74946   6.76108   6.83144   6.96792   7.05914
 Alpha virt. eigenvalues --    7.08438   7.20589   7.42005   7.44048   7.59058
 Alpha virt. eigenvalues --    7.77258   8.48184   9.95357  10.68993  12.51124
 Alpha virt. eigenvalues --   13.45095  13.50370  17.04048
  Beta  occ. eigenvalues --  -19.78429 -19.76920 -10.65551 -10.65389 -10.63647
  Beta  occ. eigenvalues --  -10.62869 -10.61512  -1.25467  -0.99295  -0.92849
  Beta  occ. eigenvalues --   -0.84553  -0.77050  -0.73148  -0.61966  -0.57977
  Beta  occ. eigenvalues --   -0.56133  -0.54598  -0.53837  -0.51217  -0.49008
  Beta  occ. eigenvalues --   -0.46080  -0.45825  -0.43006  -0.35673  -0.33438
  Beta  occ. eigenvalues --   -0.33115  -0.32865
  Beta virt. eigenvalues --   -0.04952   0.07389   0.08857   0.09596   0.10833
  Beta virt. eigenvalues --    0.11520   0.11798   0.14138   0.14798   0.15414
  Beta virt. eigenvalues --    0.17092   0.18409   0.20737   0.22327   0.24672
  Beta virt. eigenvalues --    0.28094   0.29189   0.31051   0.31699   0.33634
  Beta virt. eigenvalues --    0.34655   0.35764   0.37196   0.41824   0.44209
  Beta virt. eigenvalues --    0.45449   0.45538   0.46441   0.48542   0.48956
  Beta virt. eigenvalues --    0.49917   0.50584   0.52263   0.52919   0.53289
  Beta virt. eigenvalues --    0.53988   0.54611   0.56841   0.57568   0.58999
  Beta virt. eigenvalues --    0.61049   0.62569   0.63634   0.65540   0.67005
  Beta virt. eigenvalues --    0.69821   0.71164   0.72317   0.73895   0.76678
  Beta virt. eigenvalues --    0.77986   0.81207   0.84162   0.86499   0.89069
  Beta virt. eigenvalues --    0.89403   0.91815   0.93166   0.93673   0.94540
  Beta virt. eigenvalues --    0.96786   0.98154   0.98790   1.01975   1.02123
  Beta virt. eigenvalues --    1.04034   1.06900   1.09113   1.10586   1.11793
  Beta virt. eigenvalues --    1.12063   1.13262   1.14814   1.17464   1.18166
  Beta virt. eigenvalues --    1.18757   1.20847   1.22079   1.24413   1.26332
  Beta virt. eigenvalues --    1.28249   1.29640   1.34027   1.34714   1.35035
  Beta virt. eigenvalues --    1.36656   1.39231   1.39973   1.40524   1.41535
  Beta virt. eigenvalues --    1.42601   1.44460   1.47786   1.50399   1.53121
  Beta virt. eigenvalues --    1.54035   1.56933   1.59821   1.61737   1.63582
  Beta virt. eigenvalues --    1.64892   1.66324   1.71329   1.77366   1.79095
  Beta virt. eigenvalues --    1.80607   1.91681   1.96306   2.00845   2.04930
  Beta virt. eigenvalues --    2.12402   2.17171   2.19103   2.20569   2.22978
  Beta virt. eigenvalues --    2.26461   2.30296   2.34397   2.41083   2.41246
  Beta virt. eigenvalues --    2.43177   2.43616   2.46818   2.50773   2.52654
  Beta virt. eigenvalues --    2.54593   2.56465   2.58573   2.60026   2.61575
  Beta virt. eigenvalues --    2.64041   2.64689   2.66148   2.68979   2.71405
  Beta virt. eigenvalues --    2.75215   2.75547   2.78003   2.79949   2.83057
  Beta virt. eigenvalues --    2.85014   2.86250   2.89698   2.90730   2.92109
  Beta virt. eigenvalues --    2.93484   2.94767   2.95876   2.98230   3.01470
  Beta virt. eigenvalues --    3.02086   3.03138   3.04374   3.04896   3.06111
  Beta virt. eigenvalues --    3.08517   3.09051   3.10526   3.11943   3.13346
  Beta virt. eigenvalues --    3.13639   3.14499   3.15673   3.16027   3.17538
  Beta virt. eigenvalues --    3.19319   3.20256   3.22120   3.22749   3.24468
  Beta virt. eigenvalues --    3.25519   3.26718   3.28028   3.29130   3.34709
  Beta virt. eigenvalues --    3.41835   3.42546   3.42892   3.43405   3.44728
  Beta virt. eigenvalues --    3.47074   3.47267   3.50241   3.51169   3.52360
  Beta virt. eigenvalues --    3.54802   3.55351   3.57444   3.60258   3.61054
  Beta virt. eigenvalues --    3.64811   3.64972   3.66350   3.71910   3.75529
  Beta virt. eigenvalues --    3.76499   3.77522   3.82962   3.84921   3.84975
  Beta virt. eigenvalues --    3.87389   3.88808   3.90934   3.93620   3.93960
  Beta virt. eigenvalues --    3.96088   3.96336   3.97806   3.99873   4.02309
  Beta virt. eigenvalues --    4.03975   4.06794   4.08877   4.10344   4.12416
  Beta virt. eigenvalues --    4.13023   4.15332   4.17028   4.18783   4.19753
  Beta virt. eigenvalues --    4.20651   4.21734   4.24488   4.26072   4.27722
  Beta virt. eigenvalues --    4.31269   4.32982   4.35523   4.36565   4.38806
  Beta virt. eigenvalues --    4.40059   4.42802   4.46481   4.49328   4.50612
  Beta virt. eigenvalues --    4.55005   4.58052   4.62864   4.65039   4.68774
  Beta virt. eigenvalues --    4.73660   4.79511   4.83844   4.85410   4.91497
  Beta virt. eigenvalues --    4.93556   4.94744   4.98248   5.00641   5.03014
  Beta virt. eigenvalues --    5.05173   5.07277   5.10320   5.14097   5.16668
  Beta virt. eigenvalues --    5.21604   5.25187   5.28653   5.31170   5.33400
  Beta virt. eigenvalues --    5.34774   5.35975   5.36451   5.37620   5.41021
  Beta virt. eigenvalues --    5.42561   5.43322   5.47865   5.50181   5.57189
  Beta virt. eigenvalues --    5.58796   5.63971   5.68155   5.77819   5.79986
  Beta virt. eigenvalues --    5.84499   5.94198   5.95952   5.99595   6.00618
  Beta virt. eigenvalues --    6.04767   6.05118   6.09707   6.10720   6.15933
  Beta virt. eigenvalues --    6.27209   6.33376   6.38425   6.40396   6.43452
  Beta virt. eigenvalues --    6.65382   6.77319   6.78025   6.84356   6.98433
  Beta virt. eigenvalues --    7.07337   7.09446   7.22748   7.42843   7.45537
  Beta virt. eigenvalues --    7.60899   7.77767   8.48205   9.96223  10.70002
  Beta virt. eigenvalues --   12.52038  13.45265  13.50405  17.04046
          Condensed to atoms (all electrons):
               1          2          3          4          5          6
     1  C    4.809491   0.414318   0.409213   0.321097  -0.034161  -0.032600
     2  H    0.414318   0.570561  -0.032524  -0.036185  -0.004731  -0.001327
     3  H    0.409213  -0.032524   0.552355  -0.036179  -0.001414   0.006145
     4  C    0.321097  -0.036185  -0.036179   5.153478   0.402909   0.393012
     5  H   -0.034161  -0.004731  -0.001414   0.402909   0.540608  -0.029774
     6  H   -0.032600  -0.001327   0.006145   0.393012  -0.029774   0.543667
     7  C    0.001013  -0.000089  -0.000625  -0.001960  -0.000030   0.000237
     8  H   -0.002370   0.000065  -0.000927   0.001270   0.000028  -0.000494
     9  H   -0.000425   0.000003  -0.000459   0.000258   0.000009  -0.000034
    10  H    0.000326   0.000010   0.000250  -0.000480   0.000003   0.000011
    11  O    0.000609   0.000374   0.010738  -0.000141   0.000218   0.000269
    12  O   -0.005844  -0.000258   0.000124  -0.071925  -0.000790  -0.000341
    13  H   -0.005702   0.002131  -0.003523   0.200082  -0.005930  -0.006004
    14  C    0.367620  -0.040204  -0.037510  -0.054058   0.007434  -0.001014
    15  C   -0.077635  -0.004350  -0.000952   0.002483  -0.000042   0.003393
    16  H    0.000890  -0.000088  -0.000044  -0.000016   0.000003   0.000004
               7          8          9         10         11         12
     1  C    0.001013  -0.002370  -0.000425   0.000326   0.000609  -0.005844
     2  H   -0.000089   0.000065   0.000003   0.000010   0.000374  -0.000258
     3  H   -0.000625  -0.000927  -0.000459   0.000250   0.010738   0.000124
     4  C   -0.001960   0.001270   0.000258  -0.000480  -0.000141  -0.071925
     5  H   -0.000030   0.000028   0.000009   0.000003   0.000218  -0.000790
     6  H    0.000237  -0.000494  -0.000034   0.000011   0.000269  -0.000341
     7  C    4.622321   0.389368   0.394401   0.411788   0.296801  -0.049911
     8  H    0.389368   0.666345  -0.032793  -0.056065  -0.050826   0.002378
     9  H    0.394401  -0.032793   0.595217  -0.028864  -0.026655   0.006646
    10  H    0.411788  -0.056065  -0.028864   0.610670  -0.036961   0.003825
    11  O    0.296801  -0.050826  -0.026655  -0.036961   7.959362   0.070426
    12  O   -0.049911   0.002378   0.006646   0.003825   0.070426   8.057267
    13  H    0.001156   0.004451  -0.000510   0.000509  -0.025700   0.212004
    14  C   -0.006592  -0.002643   0.000657   0.000292   0.001281   0.002813
    15  C   -0.003949   0.004068   0.000658   0.000034  -0.000928   0.000417
    16  H    0.000033   0.000335   0.000023  -0.000013  -0.000024   0.000007
              13         14         15         16
     1  C   -0.005702   0.367620  -0.077635   0.000890
     2  H    0.002131  -0.040204  -0.004350  -0.000088
     3  H   -0.003523  -0.037510  -0.000952  -0.000044
     4  C    0.200082  -0.054058   0.002483  -0.000016
     5  H   -0.005930   0.007434  -0.000042   0.000003
     6  H   -0.006004  -0.001014   0.003393   0.000004
     7  C    0.001156  -0.006592  -0.003949   0.000033
     8  H    0.004451  -0.002643   0.004068   0.000335
     9  H   -0.000510   0.000657   0.000658   0.000023
    10  H    0.000509   0.000292   0.000034  -0.000013
    11  O   -0.025700   0.001281  -0.000928  -0.000024
    12  O    0.212004   0.002813   0.000417   0.000007
    13  H    0.412099  -0.001623  -0.000036   0.000007
    14  C   -0.001623   5.036962   0.845657  -0.060323
    15  C   -0.000036   0.845657   5.010969   0.411874
    16  H    0.000007  -0.060323   0.411874   0.476866
          Atomic-Atomic Spin Densities.
               1          2          3          4          5          6
     1  C   -0.039603   0.011386   0.003443  -0.023866   0.000471  -0.000079
     2  H    0.011386   0.054834  -0.007032  -0.014924  -0.001822  -0.001671
     3  H    0.003443  -0.007032   0.020422  -0.007203   0.000853   0.000301
     4  C   -0.023866  -0.014924  -0.007203   0.727525   0.003841   0.003547
     5  H    0.000471  -0.001822   0.000853   0.003841  -0.025138   0.003691
     6  H   -0.000079  -0.001671   0.000301   0.003547   0.003691  -0.024609
     7  C   -0.000511   0.000046  -0.000247   0.000735  -0.000026  -0.000076
     8  H    0.000889  -0.000127   0.000573  -0.003609   0.000080   0.000361
     9  H   -0.000056   0.000008  -0.000055   0.000169  -0.000004  -0.000005
    10  H   -0.000114   0.000010  -0.000091   0.000847  -0.000018  -0.000046
    11  O   -0.001666   0.000303  -0.002875   0.012510  -0.000374  -0.000376
    12  O    0.005585  -0.000696   0.002325  -0.086616   0.002671   0.002730
    13  H    0.001897   0.000479   0.000035   0.052831   0.001875   0.001825
    14  C    0.004187  -0.002635   0.002979  -0.001593   0.000120   0.001082
    15  C    0.000743  -0.000968   0.000921   0.000650  -0.000009   0.000552
    16  H    0.000025  -0.000025   0.000020  -0.000004  -0.000000   0.000017
               7          8          9         10         11         12
     1  C   -0.000511   0.000889  -0.000056  -0.000114  -0.001666   0.005585
     2  H    0.000046  -0.000127   0.000008   0.000010   0.000303  -0.000696
     3  H   -0.000247   0.000573  -0.000055  -0.000091  -0.002875   0.002325
     4  C    0.000735  -0.003609   0.000169   0.000847   0.012510  -0.086616
     5  H   -0.000026   0.000080  -0.000004  -0.000018  -0.000374   0.002671
     6  H   -0.000076   0.000361  -0.000005  -0.000046  -0.000376   0.002730
     7  C   -0.005763   0.004806   0.000334  -0.002861   0.001195  -0.002152
     8  H    0.004806   0.001079  -0.001130  -0.001110  -0.001050   0.003010
     9  H    0.000334  -0.001130  -0.001129   0.001195   0.000137  -0.000200
    10  H   -0.002861  -0.001110   0.001195   0.003725  -0.000637   0.000275
    11  O    0.001195  -0.001050   0.000137  -0.000637   0.051983  -0.040563
    12  O   -0.002152   0.003010  -0.000200   0.000275  -0.040563   0.552049
    13  H    0.001257  -0.003067   0.000104   0.001043   0.008901  -0.040709
    14  C   -0.000095   0.000191   0.000033   0.000016  -0.000631   0.000303
    15  C    0.000279  -0.000575   0.000008   0.000039   0.000043  -0.000063
    16  H    0.000015  -0.000027  -0.000003  -0.000000  -0.000000   0.000001
              13         14         15         16
     1  C    0.001897   0.004187   0.000743   0.000025
     2  H    0.000479  -0.002635  -0.000968  -0.000025
     3  H    0.000035   0.002979   0.000921   0.000020
     4  C    0.052831  -0.001593   0.000650  -0.000004
     5  H    0.001875   0.000120  -0.000009  -0.000000
     6  H    0.001825   0.001082   0.000552   0.000017
     7  C    0.001257  -0.000095   0.000279   0.000015
     8  H   -0.003067   0.000191  -0.000575  -0.000027
     9  H    0.000104   0.000033   0.000008  -0.000003
    10  H    0.001043   0.000016   0.000039  -0.000000
    11  O    0.008901  -0.000631   0.000043  -0.000000
    12  O   -0.040709   0.000303  -0.000063   0.000001
    13  H   -0.105193  -0.000906  -0.000303  -0.000007
    14  C   -0.000906   0.010193  -0.001446   0.000252
    15  C   -0.000303  -0.001446  -0.008459  -0.000160
    16  H   -0.000007   0.000252  -0.000160   0.000215
 Mulliken charges and spin densities:
               1          2
     1  C   -0.165842  -0.037269
     2  H    0.132295   0.037165
     3  H    0.135333   0.014370
     4  C   -0.273645   0.664840
     5  H    0.125661  -0.013788
     6  H    0.124849  -0.012757
     7  C   -0.053961  -0.003064
     8  H    0.077810   0.000293
     9  H    0.091868  -0.000593
    10  H    0.094665   0.002270
    11  O   -0.198842   0.026899
    12  O   -0.226838   0.397950
    13  H    0.216590  -0.079937
    14  C   -0.058751   0.012049
    15  C   -0.191660  -0.008747
    16  H    0.170467   0.000317
 Sum of Mulliken charges =  -0.00000   1.00000
 Mulliken charges and spin densities with hydrogens summed into heavy atoms:
               1          2
     1  C    0.101786   0.014266
     4  C   -0.023134   0.638295
     7  C    0.210383  -0.001094
    11  O   -0.198842   0.026899
    12  O   -0.010248   0.318013
    14  C   -0.058751   0.012049
    15  C   -0.021193  -0.008429
 APT charges:
               1
     1  C    0.033909
     2  H    0.003970
     3  H    0.029720
     4  C    0.396923
     5  H   -0.051756
     6  H   -0.037189
     7  C    0.407747
     8  H   -0.017861
     9  H   -0.004734
    10  H   -0.036332
    11  O   -0.396443
    12  O    0.130460
    13  H   -0.326606
    14  C   -0.034627
    15  C   -0.306738
    16  H    0.209559
 Sum of APT charges =  -0.00000
 APT charges with hydrogens summed into heavy atoms:
               1
     1  C    0.067599
     4  C    0.307978
     7  C    0.348819
    11  O   -0.396443
    12  O   -0.196147
    14  C   -0.034627
    15  C   -0.097179
 Electronic spatial extent (au):  <R**2>=            970.6243
 Charge=             -0.0000 electrons
 Dipole moment (field-independent basis, Debye):
    X=             -1.8682    Y=              0.5024    Z=             -0.3397  Tot=              1.9641
 Quadrupole moment (field-independent basis, Debye-Ang):
   XX=            -47.1329   YY=            -36.1908   ZZ=            -43.6201
   XY=              4.2625   XZ=             -0.3190   YZ=             -1.7678
 Traceless Quadrupole moment (field-independent basis, Debye-Ang):
   XX=             -4.8183   YY=              6.1238   ZZ=             -1.3055
   XY=              4.2625   XZ=             -0.3190   YZ=             -1.7678
 Octapole moment (field-independent basis, Debye-Ang**2):
  XXX=             16.0127  YYY=              4.1245  ZZZ=              1.7589  XYY=             -3.3013
  XXY=              8.7701  XXZ=             -2.0246  XZZ=              3.8557  YZZ=             -2.3840
  YYZ=             -3.3021  XYZ=              4.4870
 Hexadecapole moment (field-independent basis, Debye-Ang**3):
 XXXX=           -761.7427 YYYY=           -393.5274 ZZZZ=           -112.1507 XXXY=             11.6723
 XXXZ=             -2.2339 YYYX=            -20.9141 YYYZ=            -10.8900 ZZZX=              1.4367
 ZZZY=              2.4047 XXYY=           -168.8760 XXZZ=           -144.7918 YYZZ=            -89.0046
 XXYZ=            -14.3231 YYXZ=             12.8489 ZZXY=              3.4726
 N-N= 2.899899750653D+02 E-N=-1.388560635416D+03  KE= 3.440461792085D+02
  Exact polarizability:  87.553   7.680  87.104   2.201  -1.475  55.921
 Approx polarizability:  81.542  -0.214  95.548   3.384  -4.202  69.573
                          Isotropic Fermi Contact Couplings
        Atom                 a.u.       MegaHertz       Gauss      10(-4) cm-1
     1  C(13)             -0.01262     -14.18680      -5.06220      -4.73221
     2  H(1)               0.02012      89.95537      32.09831      30.00588
     3  H(1)               0.00923      41.27201      14.72688      13.76686
     4  C(13)              0.10214     114.82159      40.97120      38.30036
     5  H(1)              -0.00475     -21.22637      -7.57410      -7.08036
     6  H(1)              -0.00374     -16.73856      -5.97273      -5.58338
     7  C(13)             -0.00254      -2.85640      -1.01923      -0.95279
     8  H(1)               0.00223       9.95100       3.55076       3.31930
     9  H(1)              -0.00006      -0.25142      -0.08971      -0.08386
    10  H(1)               0.00062       2.75067       0.98151       0.91752
    11  O(17)              0.01610      -9.75919      -3.48232      -3.25531
    12  O(17)              0.03623     -21.96492      -7.83763      -7.32671
    13  H(1)              -0.02530    -113.07324     -40.34735     -37.71717
    14  C(13)              0.00061       0.68574       0.24469       0.22874
    15  C(13)              0.00032       0.36148       0.12898       0.12058
    16  H(1)              -0.00003      -0.13874      -0.04950      -0.04628
 --------------------------------------------------------
       Center         ----  Spin Dipole Couplings  ----
                      3XX-RR        3YY-RR        3ZZ-RR
 --------------------------------------------------------
     1   Atom        0.026231     -0.014975     -0.011256
     2   Atom        0.003287     -0.002247     -0.001040
     3   Atom       -0.005291     -0.005738      0.011029
     4   Atom        0.590615     -0.218613     -0.372003
     5   Atom       -0.001305      0.039798     -0.038492
     6   Atom       -0.001552     -0.037975      0.039527
     7   Atom       -0.005130      0.009900     -0.004770
     8   Atom       -0.002927      0.007803     -0.004876
     9   Atom       -0.002587      0.005699     -0.003111
    10   Atom       -0.002591      0.006294     -0.003703
    11   Atom        0.404468     -0.182604     -0.221864
    12   Atom        1.690269     -0.832457     -0.857812
    13   Atom        0.202181     -0.082226     -0.119955
    14   Atom       -0.000812      0.005392     -0.004580
    15   Atom        0.002838      0.002302     -0.005140
    16   Atom       -0.000005      0.001389     -0.001384
 --------------------------------------------------------
                        XY            XZ            YZ
 --------------------------------------------------------
     1   Atom       -0.004161     -0.014807      0.007391
     2   Atom        0.001396     -0.008884      0.000804
     3   Atom       -0.000190     -0.002249      0.007336
     4   Atom        0.384720     -0.042812     -0.017591
     5   Atom       -0.003851      0.005267     -0.025614
     6   Atom        0.013367      0.019730     -0.013883
     7   Atom        0.002248      0.001917     -0.000038
     8   Atom       -0.001474      0.000906     -0.002611
     9   Atom        0.001185      0.000170      0.002048
    10   Atom        0.004591     -0.001008     -0.002220
    11   Atom        0.118810      0.101759     -0.012625
    12   Atom        0.307778     -0.155040     -0.015970
    13   Atom        0.112468      0.013649      0.006412
    14   Atom       -0.006528     -0.001352      0.001688
    15   Atom       -0.002466     -0.000183     -0.000820
    16   Atom       -0.001488      0.000168     -0.000339
 --------------------------------------------------------


 ---------------------------------------------------------------------------------
              Anisotropic Spin Dipole Couplings in Principal Axis System
 ---------------------------------------------------------------------------------

       Atom             a.u.   MegaHertz   Gauss  10(-4) cm-1        Axes

              Baa    -0.0217    -2.911    -1.039    -0.971  0.1606 -0.6836  0.7119
     1 C(13)  Bbb    -0.0105    -1.415    -0.505    -0.472  0.3286  0.7172  0.6146
              Bcc     0.0322     4.326     1.544     1.443  0.9307 -0.1352 -0.3398
 
              Baa    -0.0084    -4.474    -1.596    -1.492  0.6062 -0.2372  0.7591
     2 H(1)   Bbb    -0.0019    -1.020    -0.364    -0.340  0.1090  0.9703  0.2162
              Bcc     0.0103     5.494     1.960     1.833  0.7878  0.0483 -0.6140
 
              Baa    -0.0086    -4.597    -1.640    -1.533 -0.1933  0.9117 -0.3626
     3 H(1)   Bbb    -0.0054    -2.889    -1.031    -0.964  0.9747  0.2206  0.0349
              Bcc     0.0140     7.486     2.671     2.497 -0.1118  0.3467  0.9313
 
              Baa    -0.3740   -50.192   -17.910   -16.742 -0.0572  0.2509  0.9663
     4 C(13)  Bbb    -0.3722   -49.946   -17.822   -16.660 -0.3686  0.8942 -0.2540
              Bcc     0.7462   100.138    35.732    33.402  0.9278  0.3707 -0.0414
 
              Baa    -0.0465   -24.797    -8.848    -8.271 -0.0876  0.2799  0.9560
     5 H(1)   Bbb    -0.0015    -0.804    -0.287    -0.268  0.9906  0.1258  0.0539
              Bcc     0.0480    25.601     9.135     8.540 -0.1052  0.9517 -0.2883
 
              Baa    -0.0469   -25.023    -8.929    -8.347 -0.3654  0.9024  0.2284
     6 H(1)   Bbb    -0.0013    -0.714    -0.255    -0.238  0.8650  0.4198 -0.2750
              Bcc     0.0482    25.737     9.184     8.585  0.3440 -0.0971  0.9339
 
              Baa    -0.0070    -0.946    -0.338    -0.316  0.7604 -0.1023 -0.6413
     7 C(13)  Bbb    -0.0032    -0.427    -0.152    -0.143  0.6327 -0.1065  0.7671
              Bcc     0.0102     1.373     0.490     0.458  0.1468  0.9890  0.0162
 
              Baa    -0.0055    -2.957    -1.055    -0.986 -0.2409  0.1607  0.9571
     8 H(1)   Bbb    -0.0030    -1.605    -0.573    -0.535  0.9604  0.1820  0.2112
              Bcc     0.0085     4.562     1.628     1.522 -0.1402  0.9701 -0.1981
 
              Baa    -0.0036    -1.907    -0.680    -0.636  0.1062 -0.2273  0.9680
     9 H(1)   Bbb    -0.0027    -1.461    -0.521    -0.487  0.9854 -0.1062 -0.1330
              Bcc     0.0063     3.368     1.202     1.123  0.1330  0.9680  0.2128
 
              Baa    -0.0045    -2.426    -0.866    -0.809  0.9204 -0.3571  0.1594
    10 H(1)   Bbb    -0.0042    -2.226    -0.794    -0.742 -0.0752  0.2384  0.9682
              Bcc     0.0087     4.652     1.660     1.552  0.3838  0.9031 -0.1926
 
              Baa    -0.2560    18.520     6.609     6.178 -0.2190  0.4990  0.8385
    11 O(17)  Bbb    -0.1860    13.458     4.802     4.489 -0.0800  0.8473 -0.5251
              Bcc     0.4419   -31.979   -11.411   -10.667  0.9724  0.1820  0.1456
 
              Baa    -0.8712    63.040    22.494    21.028 -0.1324  0.8259 -0.5481
    12 O(17)  Bbb    -0.8654    62.622    22.345    20.888 -0.0158  0.5511  0.8343
              Bcc     1.7366  -125.662   -44.839   -41.916  0.9911  0.1191 -0.0600
 
              Baa    -0.1226   -65.397   -23.335   -21.814 -0.2336  0.7496 -0.6194
    13 H(1)   Bbb    -0.1193   -63.671   -22.719   -21.238 -0.2344  0.5748  0.7840
              Bcc     0.2419   129.068    46.055    43.052  0.9437  0.3283  0.0414
 
              Baa    -0.0052    -0.692    -0.247    -0.231  0.6730  0.3090  0.6720
    14 C(13)  Bbb    -0.0047    -0.628    -0.224    -0.209 -0.5154 -0.4557  0.7257
              Bcc     0.0098     1.320     0.471     0.440 -0.5304  0.8348  0.1474
 
              Baa    -0.0053    -0.705    -0.252    -0.235  0.0612  0.1273  0.9900
    15 C(13)  Bbb     0.0002     0.025     0.009     0.008  0.6702  0.7298 -0.1353
              Bcc     0.0051     0.680     0.243     0.227  0.7397 -0.6718  0.0407
 
              Baa    -0.0014    -0.761    -0.271    -0.254  0.0178  0.1289  0.9915
    16 H(1)   Bbb    -0.0009    -0.506    -0.180    -0.169  0.8460  0.5265 -0.0836
              Bcc     0.0024     1.266     0.452     0.422 -0.5328  0.8403 -0.0997
 

 ---------------------------------------------------------------------------------

 Calling FoFJK, ICntrl=  10100127 FMM=F ISym2X=0 I1Cent= 0 IOpClX= 1 NMat=1 NMatS=1 NMatT=0.
 ***** Axes restored to original set *****
 -------------------------------------------------------------------
 Center     Atomic                   Forces (Hartrees/Bohr)
 Number     Number              X              Y              Z
 -------------------------------------------------------------------
      1        6          -0.000217496    0.000598550   -0.000154554
      2        1           0.000000196   -0.000000419    0.000000847
      3        1           0.000180852   -0.000430006    0.000081738
      4        6           0.000016449   -0.000316530    0.000197966
      5        1          -0.000000089   -0.000000210    0.000000378
      6        1          -0.000000285   -0.000000135    0.000000770
      7        6           0.000001678    0.000000222   -0.000000755
      8        1           0.000000161    0.000003686    0.000000763
      9        1          -0.000002121    0.000002210    0.000000608
     10        1          -0.000000323    0.000000701   -0.000000562
     11        8           0.000001317   -0.000003275   -0.000000474
     12        8           0.000020011    0.000151116   -0.000129179
     13        1           0.000001868   -0.000003241    0.000001749
     14        6          -0.000003256   -0.000003244   -0.000000140
     15        6           0.000000691    0.000001405    0.000000391
     16        1           0.000000347   -0.000000829    0.000000454
 -------------------------------------------------------------------
 Cartesian Forces:  Max     0.000598550 RMS     0.000131767
 FormGI is forming the generalized inverse of G from B-inverse, IUseBI=4.

 GradGradGradGradGradGradGradGradGradGradGradGradGradGradGradGradGradGrad
 Berny optimization.
 Internal  Forces:  Max     0.000351274 RMS     0.000092588
 Search for a saddle point.
 Step number   1 out of a maximum of  100
 All quantities printed in internal units (Hartrees-Bohrs-Radians)
 Swapping is turned off.
 Second derivative matrix not updated -- analytic derivatives used.
 ITU=  0
     Eigenvalues ---   -0.07540   0.00062   0.00197   0.00604   0.01573
     Eigenvalues ---    0.02449   0.03152   0.03496   0.03579   0.03946
     Eigenvalues ---    0.04802   0.04955   0.06204   0.08023   0.08451
     Eigenvalues ---    0.08496   0.08902   0.09413   0.09701   0.11971
     Eigenvalues ---    0.13056   0.13557   0.15136   0.16696   0.18290
     Eigenvalues ---    0.18482   0.18979   0.24501   0.30315   0.32025
     Eigenvalues ---    0.32096   0.32904   0.33265   0.34486   0.34931
     Eigenvalues ---    0.35244   0.35516   0.36125   0.36877   0.41016
     Eigenvalues ---    0.41610   1.05116
 Eigenvectors required to have negative eigenvalues:
                          R7        R13       R12       A20       D4
   1                   -0.70856   0.64030  -0.15508   0.08668   0.07817
                          D8        D16       D2        D1        A11
   1                   -0.07578   0.07513  -0.07233   0.06753   0.06698
 RFO step:  Lambda0=2.654057529D-13 Lambda=-5.12964935D-05.
 Linear search not attempted -- option 19 set.
 Iteration  1 RMS(Cart)=  0.03032733 RMS(Int)=  0.00029191
 Iteration  2 RMS(Cart)=  0.00063604 RMS(Int)=  0.00000758
 Iteration  3 RMS(Cart)=  0.00000021 RMS(Int)=  0.00000758
 Variable       Old X    -DE/DX   Delta X   Delta X   Delta X     New X
                                 (Linear)    (Quad)   (Total)
    R1        2.07144  -0.00000   0.00000  -0.00084  -0.00084   2.07060
    R2        2.06513   0.00000   0.00000   0.00069   0.00069   2.06582
    R3        2.85010   0.00000   0.00000   0.00070   0.00070   2.85080
    R4        2.75592   0.00000   0.00000   0.00033   0.00033   2.75625
    R5        2.04990  -0.00000   0.00000   0.00001   0.00001   2.04991
    R6        2.04806   0.00000   0.00000  -0.00027  -0.00027   2.04779
    R7        2.61051  -0.00001   0.00000   0.00032   0.00032   2.61083
    R8        2.05732   0.00000   0.00000   0.00037   0.00037   2.05769
    R9        2.05604  -0.00000   0.00000  -0.00004  -0.00004   2.05600
   R10        2.05701  -0.00000   0.00000  -0.00013  -0.00013   2.05688
   R11        2.69127  -0.00001   0.00000   0.00029   0.00029   2.69155
   R12        2.66310  -0.00000   0.00000  -0.00066  -0.00066   2.66244
   R13        2.17310   0.00001   0.00000   0.00068   0.00068   2.17377
   R14        2.27718  -0.00000   0.00000   0.00006   0.00006   2.27724
   R15        2.00301   0.00000   0.00000  -0.00000  -0.00000   2.00301
    A1        1.84700   0.00014   0.00000   0.00251   0.00251   1.84951
    A2        1.90361   0.00006   0.00000   0.00351   0.00351   1.90712
    A3        1.89398  -0.00000   0.00000   0.00258   0.00258   1.89656
    A4        1.91453  -0.00001   0.00000  -0.00160  -0.00161   1.91292
    A5        1.91248  -0.00013   0.00000  -0.00442  -0.00444   1.90804
    A6        1.98689  -0.00005   0.00000  -0.00212  -0.00213   1.98476
    A7        2.00264  -0.00002   0.00000   0.00040   0.00038   2.00302
    A8        2.02851   0.00001   0.00000   0.00182   0.00183   2.03033
    A9        1.83628   0.00000   0.00000  -0.00431  -0.00431   1.83197
   A10        1.99138   0.00001   0.00000   0.00021   0.00021   1.99159
   A11        1.74668  -0.00014   0.00000  -0.00325  -0.00326   1.74343
   A12        1.81349   0.00014   0.00000   0.00415   0.00415   1.81764
   A13        1.91820   0.00000   0.00000  -0.00020  -0.00020   1.91800
   A14        1.92956   0.00000   0.00000  -0.00026  -0.00026   1.92929
   A15        1.93220  -0.00001   0.00000  -0.00009  -0.00009   1.93211
   A16        1.92476   0.00000   0.00000   0.00040   0.00040   1.92517
   A17        1.83179  -0.00000   0.00000   0.00030   0.00030   1.83209
   A18        1.92519   0.00000   0.00000  -0.00012  -0.00012   1.92507
   A19        1.87939  -0.00001   0.00000   0.00071   0.00071   1.88011
   A20        1.82294  -0.00001   0.00000   0.00014   0.00014   1.82308
   A21        3.17923   0.00030   0.00000  -0.00074  -0.00073   3.17849
   A22        3.15078  -0.00001   0.00000  -0.00344  -0.00344   3.14734
   A23        3.14388  -0.00000   0.00000   0.00105   0.00105   3.14493
   A24        3.02383  -0.00027   0.00000  -0.01286  -0.01286   3.01097
   A25        3.12600   0.00001   0.00000   0.00013   0.00013   3.12612
   A26        3.14889   0.00000   0.00000   0.00002   0.00002   3.14892
    D1       -0.86572  -0.00002   0.00000   0.04226   0.04226  -0.82346
    D2        1.52073  -0.00002   0.00000   0.04526   0.04526   1.56598
    D3       -2.76750   0.00015   0.00000   0.04845   0.04845  -2.71904
    D4        1.14979   0.00018   0.00000   0.04635   0.04635   1.19614
    D5       -2.74695   0.00018   0.00000   0.04935   0.04934  -2.69761
    D6       -0.75199   0.00035   0.00000   0.05254   0.05254  -0.69945
    D7       -2.98351  -0.00003   0.00000   0.03783   0.03783  -2.94568
    D8       -0.59707  -0.00003   0.00000   0.04083   0.04083  -0.55624
    D9        1.39790   0.00014   0.00000   0.04402   0.04402   1.44192
   D10        0.00972  -0.00009   0.00000  -0.02078  -0.02075  -0.01103
   D11       -2.05261   0.00003   0.00000  -0.01724  -0.01727  -2.06988
   D12        2.16311   0.00006   0.00000  -0.01877  -0.01878   2.14433
   D13        1.11296  -0.00000   0.00000   0.00457   0.00457   1.11753
   D14       -3.10141  -0.00000   0.00000   0.00447   0.00447  -3.09694
   D15       -1.02840  -0.00000   0.00000   0.00505   0.00505  -1.02334
   D16       -1.72946   0.00001   0.00000   0.02486   0.02486  -1.70460
         Item               Value     Threshold  Converged?
 Maximum Force            0.000351     0.000450     YES
 RMS     Force            0.000093     0.000300     YES
 Maximum Displacement     0.083955     0.001800     NO 
 RMS     Displacement     0.030319     0.001200     NO 
 Predicted change in Energy=-2.617666D-05
 GradGradGradGradGradGradGradGradGradGradGradGradGradGradGradGradGradGrad

                          Input orientation:                          
 ---------------------------------------------------------------------
 Center     Atomic      Atomic             Coordinates (Angstroms)
 Number     Number       Type             X           Y           Z
 ---------------------------------------------------------------------
      1          6           0       -1.291062    0.861845   -0.164438
      2          1           0       -2.158061    1.529169   -0.224330
      3          1           0       -0.895314    0.790937   -1.181005
      4          6           0       -0.252317    1.475244    0.741410
      5          1           0       -0.042552    2.521966    0.548821
      6          1           0       -0.323288    1.224241    1.793192
      7          6           0        1.480926   -1.662155   -0.702640
      8          1           0        0.758426   -1.785220    0.102664
      9          1           0        1.185518   -2.263171   -1.560094
     10          1           0        2.477349   -1.945173   -0.368310
     11          8           0        1.481887   -0.319288   -1.177363
     12          8           0        1.916242    0.508046   -0.122914
     13          1           0        0.945625    0.915529    0.340853
     14          6           0       -1.744453   -0.454652    0.269876
     15          6           0       -2.118695   -1.536078    0.647543
     16          1           0       -2.453516   -2.487283    0.974029
 ---------------------------------------------------------------------
                    Distance matrix (angstroms):
                    1          2          3          4          5
     1  C    0.000000
     2  H    1.095716   0.000000
     3  H    1.093186   1.747782   0.000000
     4  C    1.508579   2.137153   2.139487   0.000000
     5  H    2.196251   2.461460   2.591517   1.084767   0.000000
     6  H    2.213647   2.744042   3.059545   1.083644   1.819715
     7  C    3.787367   4.863697   3.448624   3.864283   4.625365
     8  H    3.358377   4.426961   3.319525   3.472783   4.403688
     9  H    4.224575   5.229304   3.714990   4.619528   5.371519
    10  H    4.703386   5.794722   4.418329   4.514622   5.210217
    11  O    3.179676   4.192169   2.623680   3.147935   3.657369
    12  O    3.227026   4.201537   3.017355   2.526890   2.888594
    13  H    2.293681   3.213853   2.391784   1.381591   1.897469
    14  C    1.458546   2.085871   2.092268   2.484616   3.440136
    15  C    2.663517   3.187076   3.202382   3.544043   4.559369
    16  H    3.723447   4.201814   4.221243   4.538834   5.575493
                    6          7          8          9         10
     6  H    0.000000
     7  C    4.220858   0.000000
     8  H    3.617298   1.088883   0.000000
     9  H    5.067846   1.087986   1.782024   0.000000
    10  H    4.749826   1.088456   1.789441   1.786141   0.000000
    11  O    3.803332   1.424308   2.076252   2.003247   2.070993
    12  O    3.033132   2.288089   2.578854   3.206101   2.528506
    13  H    1.953134   2.831938   2.717686   3.711506   3.321551
    14  C    2.675609   3.578675   2.839502   3.899264   4.522449
    15  C    3.486454   3.846577   2.938842   4.039821   4.724716
    16  H    4.357099   4.355673   3.401285   4.440110   5.138988
                   11         12         13         14         15
    11  O    0.000000
    12  O    1.408903   0.000000
    13  H    2.029120   1.150312   0.000000
    14  C    3.538657   3.805490   3.019760   0.000000
    15  C    4.216047   4.588329   3.936305   1.205061   0.000000
    16  H    4.981575   5.410181   4.851206   2.264992   1.059947
                   16
    16  H    0.000000
 Stoichiometry    C5H9O2(2)
 Framework group  C1[X(C5H9O2)]
 Deg. of freedom    42
 Full point group                 C1      NOp   1
 Largest Abelian subgroup         C1      NOp   1
 Largest concise Abelian subgroup C1      NOp   1
                         Standard orientation:                         
 ---------------------------------------------------------------------
 Center     Atomic      Atomic             Coordinates (Angstroms)
 Number     Number       Type             X           Y           Z
 ---------------------------------------------------------------------
      1          6           0       -1.335223   -0.817878    0.616670
      2          1           0       -2.191034   -1.362264    1.031189
      3          1           0       -0.649285   -0.654739    1.452092
      4          6           0       -0.663103   -1.670185   -0.431012
      5          1           0       -0.482646   -2.697675   -0.133659
      6          1           0       -1.027006   -1.560445   -1.445811
      7          6           0        1.648009    1.407438   -0.085073
      8          1           0        0.728668    1.503212   -0.660665
      9          1           0        1.667666    2.152203    0.707804
     10          1           0        2.516637    1.520579   -0.731154
     11          8           0        1.692551    0.152726    0.587509
     12          8           0        1.729530   -0.858376   -0.392956
     13          1           0        0.637467   -1.207376   -0.486850
     14          6           0       -1.800019    0.470469    0.115190
     15          6           0       -2.189799    1.526095   -0.315968
     16          1           0       -2.536304    2.456069   -0.688219
 ---------------------------------------------------------------------
 Rotational constants (GHZ):           3.1538870           1.7034960           1.2341864
 Standard basis: CC-pVTZ (5D, 7F)
 There are   380 symmetry adapted cartesian basis functions of A   symmetry.
 There are   336 symmetry adapted basis functions of A   symmetry.
   336 basis functions,   517 primitive gaussians,   380 cartesian basis functions
    28 alpha electrons       27 beta electrons
       nuclear repulsion energy       289.9691876003 Hartrees.
 NAtoms=   16 NActive=   16 NUniq=   16 SFac= 1.00D+00 NAtFMM=   60 NAOKFM=F Big=F
 Integral buffers will be    131072 words long.
 Raffenetti 2 integral format.
 Two-electron integral symmetry is turned on.
 Nuclear repulsion after empirical dispersion term =      289.9603715945 Hartrees.
 One-electron integrals computed using PRISM.
 NBasis=   336 RedAO= T EigKep=  4.37D-05  NBF=   336
 NBsUse=   336 1.00D-06 EigRej= -1.00D+00 NBFU=   336
 Initial guess from the checkpoint file:  "/localscratch/353442/Gau-94840.chk"
 B after Tr=    -0.000000   -0.000000   -0.000000
         Rot=    0.999930    0.001027   -0.002049   -0.011574 Ang=   1.35 deg.
 Initial guess <Sx>= 0.0000 <Sy>= 0.0000 <Sz>= 0.5000 <S**2>= 0.7684 S= 0.5092
 ExpMin= 1.03D-01 ExpMax= 1.53D+04 ExpMxC= 5.22D+02 IAcc=3 IRadAn=         5 AccDes= 0.00D+00
 Harris functional with IExCor=  419 and IRadAn=       5 diagonalized for initial guess.
 HarFok:  IExCor=  419 AccDes= 0.00D+00 IRadAn=         5 IDoV= 1 UseB2=F ITyADJ=14
 ICtDFT=  3500011 ScaDFX=  1.000000  1.000000  1.000000  1.000000
 FoFCou: FMM=F IPFlag=           0 FMFlag=      100000 FMFlg1=           0
         NFxFlg=           0 DoJE=T BraDBF=F KetDBF=T FulRan=T
         wScrn=  0.000000 ICntrl=       500 IOpCl=  0 I1Cent=   200000004 NGrid=           0
         NMat0=    1 NMatS0=      1 NMatT0=    0 NMatD0=    1 NMtDS0=    0 NMtDT0=    0
 Petite list used in FoFCou.
 Requested convergence on RMS density matrix=1.00D-08 within 128 cycles.
 Requested convergence on MAX density matrix=1.00D-06.
 Requested convergence on             energy=1.00D-06.
 No special actions if energy rises.
 Integral accuracy reduced to 1.0D-05 until final iterations.
 Initial convergence to 1.0D-05 achieved.  Increase integral accuracy.
 SCF Done:  E(UB2PLYPD3) =  -345.567426712     A.U. after   13 cycles
            NFock= 13  Conv=0.42D-08     -V/T= 2.0044
 <Sx>= 0.0000 <Sy>= 0.0000 <Sz>= 0.5000 <S**2>= 0.7684 S= 0.5092
 <L.S>=  0.00000000000    
 Annihilation of the first spin contaminant:
 S**2 before annihilation     0.7684,   after     0.7502
 DoSCS=T DFT=T ScalE2(SS,OS)=  0.270000  0.270000
 ExpMin= 1.03D-01 ExpMax= 1.53D+04 ExpMxC= 5.22D+02 IAcc=3 IRadAn=         5 AccDes= 0.00D+00
 HarFok:  IExCor=  205 AccDes= 0.00D+00 IRadAn=         5 IDoV=-2 UseB2=F ITyADJ=14
 ICtDFT= 12500011 ScaDFX=  1.000000  1.000000  1.000000  1.000000
 Range of M.O.s used for correlation:     8   336
 NBasis=   336 NAE=    28 NBE=    27 NFC=     7 NFV=     0
 NROrb=    329 NOA=    21 NOB=    20 NVA=   308 NVB=   309

 **** Warning!!: The largest alpha MO coefficient is  0.32624129D+02


 **** Warning!!: The largest beta MO coefficient is  0.30262227D+02

 DoSCS=T DFT=T ScalE2(SS,OS)=  0.270000  0.270000
 Disk-based method using ON**2 memory for 21 occupieds at a time.
 Estimated scratch disk usage=  2062547424 words.
 Actual    scratch disk usage=  1890972128 words.
 JobTyp=2 Pass  1:  I=   8 to  28 NPSUse= 40 ParTrn=T ParDer=T DoDerP=T.
 (rs|ai) integrals will be sorted in core.
 Actual    scratch disk usage=  1890972128 words.
 JobTyp=3 Pass  1:  I=   8 to  27 NPSUse= 40 ParTrn=T ParDer=T DoDerP=T.
 (rs|ai) integrals will be sorted in core.
 Spin components of T(2) and E(2):
     alpha-alpha T2 =       0.7953996383D-01 E2=     -0.5377770889D-01
     alpha-beta  T2 =       0.4685193809D+00 E2=     -0.3268019522D+00
     beta-beta   T2 =       0.8395196991D-01 E2=     -0.5225013611D-01
 (S**2,0)=  0.76840D+00           (S**2,1)=  0.74290D+00
 Scaling Projection term by:   0.270000
 E(PUHF)=      -0.34557352868D+03        E(PMP2)=      -0.34600076838D+03
 E2(B2PLYPD3) =    -0.4328297972D+00 E(B2PLYPD3) =    -0.34600025650949D+03
          IDoAtm=1111111111111111
          Differentiating once with respect to electric field.
                with respect to dipole field.
          Differentiating once with respect to nuclear coordinates.
 Keep R1 and R2 ints in memory in canonical form, NReq=3251778068.
          There are     1 degrees of freedom in the 1st order CPHF.  IDoFFX=0 NUNeed=     1.
 LinEq1:  Iter=  0 NonCon=     1 RMS=9.11D-04 Max=6.94D-02 NDo=     1
 AX will form     1 AO Fock derivatives at one time.
 LinEq1:  Iter=  1 NonCon=     1 RMS=3.02D-04 Max=9.98D-03 NDo=     1
 LinEq1:  Iter=  2 NonCon=     1 RMS=1.85D-04 Max=9.93D-03 NDo=     1
 LinEq1:  Iter=  3 NonCon=     1 RMS=1.13D-04 Max=3.32D-03 NDo=     1
 LinEq1:  Iter=  4 NonCon=     1 RMS=5.15D-05 Max=1.24D-03 NDo=     1
 LinEq1:  Iter=  5 NonCon=     1 RMS=4.21D-05 Max=1.24D-03 NDo=     1
 LinEq1:  Iter=  6 NonCon=     1 RMS=1.96D-05 Max=6.95D-04 NDo=     1
 LinEq1:  Iter=  7 NonCon=     1 RMS=9.43D-06 Max=2.60D-04 NDo=     1
 LinEq1:  Iter=  8 NonCon=     1 RMS=6.73D-06 Max=1.35D-04 NDo=     1
 LinEq1:  Iter=  9 NonCon=     1 RMS=3.09D-06 Max=7.59D-05 NDo=     1
 LinEq1:  Iter= 10 NonCon=     1 RMS=1.37D-06 Max=3.06D-05 NDo=     1
 LinEq1:  Iter= 11 NonCon=     1 RMS=6.42D-07 Max=1.20D-05 NDo=     1
 LinEq1:  Iter= 12 NonCon=     1 RMS=2.66D-07 Max=6.28D-06 NDo=     1
 LinEq1:  Iter= 13 NonCon=     1 RMS=1.10D-07 Max=2.73D-06 NDo=     1
 LinEq1:  Iter= 14 NonCon=     1 RMS=4.56D-08 Max=1.01D-06 NDo=     1
 LinEq1:  Iter= 15 NonCon=     1 RMS=1.98D-08 Max=4.93D-07 NDo=     1
[...]

 ----------------------------------------------------------------------

 Dipole orientation:
     6         -1.68320677          1.90811808          1.49059892
     1         -2.76633545          3.37608167          2.46993512
     1         -3.00346033          1.00444356          0.18363581
     6          0.43555096          3.12439596          0.02118706
     1         -0.11764092          4.75153762         -1.09617101
     1          2.21240242          3.35554322          1.01254205
     6          0.72440328         -3.90968513         -1.90922148
     1          1.50058217         -3.34598885         -0.08877476
     1         -0.69954242         -5.36833386         -1.64121381
     1          2.21695313         -4.58879054         -3.15093497
     8         -0.58731831         -1.86042182         -3.06000627
     8          1.18832996          0.05883493         -3.56190643
     1          0.98784360          1.43420826         -1.89039109
     6         -0.82666218          0.05811610          3.34552160
     6         -0.08998385         -1.44821013          4.88633360
     1          0.54385157         -2.77431150          6.24712274

 Electric dipole moment (dipole orientation):
 (Debye = 10**-18 statcoulomb cm , SI units = C m)
                  (au)            (Debye)         (10**-30 SI)
   Tot        0.685636D+00      0.174271D+01      0.581306D+01
   x          0.000000D+00      0.000000D+00      0.000000D+00
   y          0.000000D+00      0.000000D+00      0.000000D+00
   z          0.685636D+00      0.174271D+01      0.581306D+01

 Dipole polarizability, Alpha (dipole orientation).
 (esu units = cm**3 , SI units = C**2 m**2 J**-1)
 Alpha(0;0):
               (au)            (10**-24 esu)      (10**-40 SI)
   iso        0.767901D+02      0.113791D+02      0.126610D+02
   aniso      0.338687D+02      0.501883D+01      0.558420D+01
   xx         0.562798D+02      0.833981D+01      0.927929D+01
   yx        -0.452794D+01     -0.670971D+00     -0.746556D+00
   yy         0.913552D+02      0.135374D+02      0.150624D+02
   zx        -0.175435D+01     -0.259968D+00     -0.289254D+00
   zy         0.497043D+01      0.736541D+00      0.819513D+00
   zz         0.827353D+02      0.122601D+02      0.136412D+02

 ----------------------------------------------------------------------
 1\1\GINC-N142\Freq\UB2PLYPD3-FC\CC-pVTZ\C5H9O2(2)\ROOT\24-Jun-2019\0\\
 #N Geom=AllCheck Guess=TCheck SCRF=Check GenChk UB2PLYPD3(FC)/CC-pVTZ 
 Freq\\Title Card Required\\0,2\C,-1.2908925379,0.8611969743,-0.1644991
 674\H,-2.1572949403,1.5291684988,-0.225283864\H,-0.894706968,0.7893668
 183,-1.1808637967\C,-0.2520377827,1.4742597279,0.7415389904\H,-0.04326
 97873,2.5214514636,0.5504543915\H,-0.3220321304,1.221593976,1.79298398
 27\C,1.4813246152,-1.6613720679,-0.7025823898\H,0.7584703671,-1.783836
 1475,0.1025203437\H,1.1863110128,-2.2630702137,-1.559691736\H,2.477584
 8684,-1.9441151676,-0.3675448411\O,1.4824977612,-0.3188689894,-1.17831
 60505\O,1.9168663715,0.5092170845,-0.1244920178\H,0.946175171,0.916116
 856,0.3397846003\C,-1.7454852609,-0.454754686,0.2702068172\C,-2.120578
 2878,-1.5357890096,0.6481568146\H,-2.4562174721,-2.4866081177,0.974920
 9227\\Version=ES64L-G16RevB.01\State=2-A\HF=-345.5674253\MP2=-346.0002
 566\PUHF=-345.5735281\PMP2-0=-346.0007685\S2=0.768405\S2-1=0.742903\S2
 A=0.750155\RMSD=1.366e-09\RMSF=4.228e-07\ZeroPoint=0.1228961\Thermal=0
 .1323067\Dipole=-0.598976,-0.2223243,0.2487885\DipoleDeriv=-0.0401716,
 0.0459356,0.0282982,0.1930548,0.1028292,-0.0346823,-0.0473605,-0.04303
 75,0.0442165,-0.0837624,0.0614645,-0.0052542,-0.0626167,-0.0176093,0.0
 519045,-0.0412025,0.0275649,0.1121801,0.0803625,-0.0586675,0.045339,-0
 .0878891,0.0224789,-0.0041734,0.0194956,0.0224879,-0.0058736,0.8025279
 ,-0.4132461,-0.3832216,-0.2792879,0.2411906,0.1579768,-0.0479165,0.104
 4141,0.1273296,-0.0620306,0.0470818,0.0532979,-0.030279,-0.123104,-0.0
 09269,0.0186443,-0.0164604,0.0290603,-0.0485348,0.0551714,0.0941013,0.
 0508366,0.0063162,-0.0085383,-0.0136828,-0.0071851,-0.0625786,0.308121
 1,-0.0240829,-0.0077744,-0.2729405,0.6572941,0.0939356,0.0563408,-0.11
 3248,0.2527834,0.0119982,-0.0248552,0.0777206,0.0432742,-0.0398914,-0.
 0485394,0.0530559,0.0662345,-0.027345,0.0710769,-0.0303367,-0.0479484,
 0.0127327,-0.0451147,-0.0588275,-0.0345958,-0.0661214,-0.0383904,-0.14
 0086,0.1065729,-0.0298688,0.0314069,-0.0252072,-0.0172527,-0.0596292,0
 .0671379,0.0597698,-0.0144516,-0.2157681,-0.1563082,0.5077912,-0.65195
 56,-0.1914226,0.4742141,-0.2432023,-0.5233884,0.0116781,-0.1089655,-0.
 0811817,-0.5228884,0.0911442,0.3703501,-0.7566088,0.5256142,0.2773057,
 -0.7055925,0.5490374,0.4374962,0.404303,-0.1461889,-0.2393816,0.410986
 4,-0.2921305,-0.1101899,-0.120418,0.0579337,-0.0472012,0.1109915,0.107
 6314,-0.1216952,-0.0722112,-0.0887212,-0.090686,-0.2884785,-0.0532614,
 0.0252245,-0.112892,-0.3840538,0.0623365,0.0461204,0.0618913,-0.251584
 4,0.2177614,0.0059861,-0.0027191,0.0144028,0.2042404,-0.0027213,-0.005
 6501,-0.0052385,0.2073908\Polar=81.9677655,-5.0085981,87.4593157,-11.2
 982047,5.8091011,60.9432029\PG=C01 [X(C5H9O2)]\NImag=1\\0.48630617,-0.
 01203355,0.51389100,-0.03373272,-0.02026993,0.50865019,-0.19914539,0.1
 2315026,-0.00547131,0.22064068,0.11921932,-0.13535852,0.00647636,-0.13
 056266,0.15537907,-0.00933758,0.01030662,-0.03963343,0.01098639,-0.008
 87260,0.04573954,-0.07643299,0.00439541,0.08908429,-0.01057210,0.00268
 503,0.02413483,0.08749703,0.00513446,-0.04789701,-0.01779902,0.0081791
 6,-0.00177230,-0.01885242,-0.00250034,0.05432622,0.08984395,-0.0169880
 5,-0.26322293,0.00027416,-0.00038272,0.00090537,-0.09462866,0.01750491
 ,0.29283953,-0.11799203,-0.04317388,-0.05175637,-0.02061147,-0.0076483
 9,-0.01888626,0.00758790,0.00491513,0.00130322,0.21927500,-0.05086601,
 -0.09021907,-0.02432795,0.00833111,0.00730840,0.00870221,-0.00006035,0
 .00086773,-0.00196453,0.13904047,0.49556036,-0.06519627,-0.02346938,-0
 .12277545,-0.00540263,-0.00143600,-0.00496814,-0.02397312,-0.01106781,
 -0.02094948,0.05988270,-0.08459081,0.53991399,-0.00422727,-0.02218888,
 0.00470873,0.00159749,0.00004226,0.00108457,0.00037481,0.00009054,-0.0
 0070169,-0.03569287,-0.04866378,-0.00094193,0.04396197,0.00154910,-0.0
 0698382,0.00384962,-0.00048220,0.00078781,0.00004047,0.00004634,-0.000
 10043,-0.00008651,-0.06394094,-0.31163931,0.05460428,0.06280846,0.3285
 5469,-0.00306447,-0.01822346,0.00558406,0.00003383,0.00036813,0.000814
 62,0.00104902,0.00035410,0.00046279,0.00095989,0.05102854,-0.06158263,
 -0.00208909,-0.05555057,0.05728428,0.00493053,0.00244400,-0.02435503,-
 0.00037313,0.00052024,0.00037858,-0.00364555,-0.00139867,-0.00185844,-
 0.03223275,-0.01971047,0.02558333,0.00195721,-0.00004052,0.00369324,0.
 03455199,-0.00032069,0.00369955,-0.01153784,-0.00037678,-0.00040555,-0
 .00059116,-0.00150144,-0.00064207,-0.00261931,-0.01650250,-0.06160363,
 0.06576835,-0.00283437,-0.00263153,0.02847049,0.01662005,0.06069996,0.
 00414587,0.00383110,-0.01288899,-0.00012983,-0.00019413,-0.00052600,-0
 .00291561,-0.00093075,-0.00101952,0.01168245,0.07058681,-0.31749474,0.
 00044635,-0.00168974,-0.00077350,-0.01538217,-0.07253271,0.33569410,-0
 .00022014,0.00042816,0.00011876,-0.00000763,-0.00013886,-0.00013714,0.
 00039774,0.00010120,-0.00021731,0.00143244,0.00029690,-0.00104087,-0.0
 0044330,0.00001231,0.00016502,0.00013421,-0.00002058,0.00011801,0.5936
 5085,-0.00119844,0.00250779,0.00005133,-0.00067247,-0.00084998,-0.0002
 6022,0.00096083,-0.00089259,0.00016239,0.01012664,-0.00439438,-0.00161
 298,-0.00150406,0.00037227,0.00049245,-0.00161559,0.00107521,0.0003056
 0,-0.00110826,0.44769218,0.00087333,-0.00145117,0.00045356,0.00024351,
 0.00044612,0.00007819,-0.00004068,0.00036042,-0.00011999,-0.00256305,0
 .00052549,0.00107573,0.00055881,0.00014013,-0.00022032,0.00014375,-0.0
 0015797,-0.00012625,0.01202886,0.04927119,0.60862050,0.00020986,-0.000
 04085,0.00007378,-0.00009020,-0.00015526,0.00000902,-0.00011641,-0.000
 01706,-0.00005402,0.00023577,-0.00005402,0.00018693,-0.00013841,0.0000
 1989,-0.00000426,-0.00002371,0.00002972,-0.00005500,-0.17364294,-0.012
 73003,0.13147802,0.17931466,0.00046033,-0.00056184,0.00005157,0.000059
 96,0.00017063,0.00010197,-0.00009830,0.00005274,0.00008028,-0.00151356
 ,0.00087708,-0.00003250,0.00013216,-0.00000906,-0.00005485,0.00040699,
 -0.00029748,-0.00009037,-0.00950551,-0.04914271,0.00628838,0.01581407,
 0.06152632,-0.00036197,0.00078072,-0.00009072,-0.00008149,-0.00018139,
 -0.00008034,0.00003173,0.00000835,0.00001312,0.00140819,-0.00055296,-0
 .00011271,-0.00019433,-0.00002110,0.00000452,-0.00014813,0.00006578,0.
 00000137,0.12860775,0.01403876,-0.19347648,-0.14366473,-0.02364135,0.2
 0842587,0.00006063,-0.00000168,0.00006564,-0.00000523,-0.00000920,-0.0
 0001158,-0.00001156,0.00005943,-0.00000493,0.00006672,0.00004090,0.000
 04467,-0.00001858,0.00001088,-0.00001626,0.00000303,-0.00001655,-0.000
 02814,-0.07091819,-0.03938515,-0.05866455,0.00727825,0.01269849,0.0168
 2995,0.06826609,0.00029246,-0.00036284,-0.00003220,0.00009527,0.000155
 58,0.00006246,-0.00003196,-0.00001747,-0.00004973,-0.00081828,0.000275
 98,0.00017003,0.00017923,0.00002541,-0.00006143,0.00016603,-0.00008851
 ,-0.00000304,-0.03612027,-0.12302201,-0.10664046,0.00152959,0.00352098
 ,0.00210141,0.04429236,0.14573561,-0.00006792,-0.00003002,-0.00007685,
 0.00000613,0.00002609,0.00001547,-0.00002292,-0.00002578,0.00000850,-0
 .00019230,0.00003667,-0.00004744,0.00005369,-0.00002848,0.00001187,-0.
 00001071,0.00002417,0.00003066,-0.05975469,-0.11844546,-0.22567886,-0.
 00823743,-0.01204943,-0.01587664,0.06446419,0.12571526,0.23537574,-0.0
 0002362,-0.00011429,0.00006732,-0.00002834,-0.00000469,-0.00001167,0.0
 0003104,-0.00006697,-0.00000324,0.00078773,-0.00035010,-0.00024648,-0.
 00012118,0.00007841,0.00006782,-0.00013789,0.00007940,0.00001665,-0.28
 229843,0.05562424,-0.07236403,-0.01780813,0.00377780,-0.00774725,-0.00
 548615,0.00121690,-0.00047726,0.29746642,0.00001218,-0.00030079,-0.000
 08772,0.00008810,0.00007163,0.00001981,-0.00026391,0.00009537,-0.00000
 959,-0.00111623,0.00049546,0.00013275,0.00020072,-0.00006109,-0.000055
 72,0.00020490,-0.00013009,-0.00005108,0.04891211,-0.05825492,0.0115638
 3,-0.00114344,0.00300246,-0.00160791,-0.01652475,0.00648255,-0.0041574
 5,-0.06318291,0.07386820,-0.00018750,0.00044909,-0.00010549,-0.0000893
 8,-0.00012930,-0.00001752,0.00009910,-0.00010750,0.00002175,0.00103405
 ,-0.00032592,-0.00027445,-0.00019272,0.00001477,0.00004954,-0.00007851
 ,0.00007318,0.00002441,-0.07007849,0.01688803,-0.07540868,0.02222829,-
 0.00598032,0.00886013,-0.02289610,0.00644569,-0.00587004,0.08084476,-0
 .02599272,0.07664156,0.00233043,-0.00163504,-0.00068642,0.00043067,0.0
 0163507,0.00146308,-0.00014361,-0.00013882,0.00166256,-0.01861154,0.00
 711229,0.00421355,0.00231862,-0.00082533,-0.00060627,0.00202817,-0.001
 05392,-0.00025894,-0.06286171,0.00677089,-0.00618088,0.00648023,-0.024
 94513,0.00664371,-0.00056031,-0.01022291,0.00269218,0.00761977,0.03064
 257,-0.01275991,0.09078723,0.00301019,-0.00357449,-0.00156260,0.001097
 74,0.00143252,0.00112873,-0.00021708,0.00064734,0.00055823,-0.02297078
 ,0.01075735,0.00430750,0.00331490,-0.00110991,-0.00130111,0.00328717,-
 0.00218100,-0.00049045,0.01647469,-0.17561054,0.08904824,-0.00407428,-
 0.02418519,0.00975254,-0.00077340,-0.02364999,0.00499486,0.00340749,-0
 .03092673,0.00998985,0.01537728,0.37115411,0.00249381,-0.00259802,-0.0
 0109221,0.00104778,0.00128970,0.00121166,0.00067382,0.00024890,0.00070
 325,-0.02541471,0.01223251,0.00326569,0.00319313,-0.00153782,-0.001272
 99,0.00397953,-0.00269855,-0.00040390,-0.00910681,0.05142391,-0.113902
 35,-0.00128264,0.03209730,-0.01013232,-0.00012545,-0.02860339,0.008035
 47,-0.00148336,0.01681917,-0.00473679,0.05173272,-0.00246160,0.2877952
 8,0.00438855,0.00007182,0.00150616,0.00043053,0.00025645,-0.00028359,0
 .00002461,-0.00020164,-0.00085943,-0.08999513,0.04207387,0.03204827,0.
 00483344,-0.00170797,-0.00228311,0.00322240,-0.00278293,-0.00026111,-0
 .00228491,-0.00443840,-0.00331294,0.00018707,0.00012407,-0.00182465,0.
 00143179,-0.00019929,0.00096256,0.00184115,0.00072775,0.00251146,-0.06
 776839,-0.04490090,-0.05909972,0.16788248,-0.00554202,0.00359895,0.001
 27487,-0.00095574,-0.00202317,-0.00134518,-0.00063630,-0.00051737,-0.0
 0080618,0.06707720,-0.02693292,-0.01797217,-0.00559039,0.00321868,0.00
 197210,-0.00504095,0.00342670,0.00019979,-0.02275576,-0.04464461,-0.04
 638551,0.00064613,0.00651749,-0.00120858,0.00013789,-0.00859668,0.0036
 0738,-0.00112926,0.00645317,-0.00180544,-0.01990216,-0.09631516,-0.047
 13837,0.04103629,0.14318136,-0.00739199,0.00578007,0.00120403,-0.00132
 869,-0.00291545,-0.00175594,-0.00024509,-0.00058096,-0.00090967,0.0825
 0513,-0.03640437,-0.01786859,-0.00747584,0.00262651,0.00270360,-0.0074
 4545,0.00447288,0.00160996,-0.00203727,-0.01899842,-0.00064157,-0.0009
 3274,0.00441710,0.00173529,0.00037681,0.00082972,0.00397550,0.00071814
 ,0.00434941,0.00049860,-0.04784848,-0.08412556,-0.13435196,0.05827096,
 0.08922337,0.12487710,-0.02583443,0.01006660,-0.00105264,-0.00221718,-
 0.00456228,-0.00199360,-0.00018448,-0.00032166,0.00058752,0.09606285,-
 0.05108526,-0.03269505,-0.01218776,0.00431815,0.00490361,-0.01153296,0
 .00752381,0.00196044,-0.00162699,-0.01252932,-0.00083171,-0.00023929,0
 .00268773,-0.00088203,-0.00015704,-0.00035442,0.00046106,-0.00133745,0
 .00159185,-0.00104329,0.03744076,0.02735415,0.03356805,-0.02401667,-0.
 04759408,-0.06756328,-0.05536973,0.00213329,-0.00212769,0.00102701,-0.
 00015941,0.00201053,0.00000953,-0.00003048,0.00060773,-0.00034869,-0.0
 5261470,0.00155324,0.01267071,0.01670676,-0.01005766,-0.00562885,0.002
 72660,-0.00253316,0.00070677,0.00323386,0.00570270,-0.00381868,-0.0005
 5947,-0.00127728,0.00119012,-0.00038814,-0.00051358,0.00026594,0.00041
 953,-0.00089535,0.00069433,-0.00314251,-0.02688365,-0.02903605,-0.0296
 2980,0.01253107,0.03148172,0.06209118,0.02190586,-0.00078054,-0.002073
 23,0.00037639,-0.00086801,0.00154152,-0.00014820,-0.00145026,0.0000998
 9,-0.00063769,-0.05582504,0.02266248,-0.00487442,0.00497734,-0.0008516
 0,-0.00177593,0.01530975,-0.00794307,-0.00554375,0.00065262,0.00694297
 ,-0.00070231,0.00019119,-0.00116749,0.00107525,0.00016617,-0.00000788,
 -0.00005919,0.00050482,-0.00103184,0.00039032,0.00008278,-0.02994925,-
 0.03569886,-0.02756151,0.02079471,0.01932537,0.06505710,-0.00938420,0.
 02833748,-0.08414403,-0.05844456,0.02007845,0.01142259,0.02092586,-0.0
 0833145,-0.00567378,-0.01399839,0.00503375,-0.01189222,-0.02694956,0.0
 0772274,-0.00207242,-0.00190398,-0.00278738,0.00134603,0.00108627,0.00
 072089,-0.00097327,0.00155223,-0.00096155,-0.00098808,0.00011026,0.000
 85734,0.00007111,-0.00004346,0.00003950,-0.00032921,-0.00015590,0.0004
 2033,0.00033089,-0.00062562,-0.00009403,-0.00021659,0.00032208,0.00053
 559,0.00128500,-0.00101513,-0.00063175,0.21883556,-0.05847090,-0.23691
 477,0.05767559,-0.00623421,-0.02722673,0.00939842,-0.00275333,-0.00204
 920,0.00614094,-0.01568782,-0.02246979,-0.00004871,-0.00150596,-0.0007
 5596,-0.00105422,0.00199878,0.00168172,0.00079900,-0.00009857,0.001234
 24,-0.00023386,0.00088224,-0.00030823,-0.00004139,0.00000357,-0.000125
 29,-0.00000499,-0.00007060,-0.00018421,0.00022102,-0.00040217,-0.00141
 479,-0.00116300,-0.00083043,0.00133350,0.00208022,0.00334561,-0.001003
 67,-0.00086447,0.36529441,1.13614170,0.02165281,0.06054660,-0.08542363
 ,0.00004317,0.00342025,-0.00195527,0.00874561,0.03234196,-0.00896639,-
 0.00228738,-0.01927541,0.00837532,-0.00419427,-0.00134682,-0.00205986,
 -0.00026096,-0.00115683,0.00109142,0.00057105,-0.00079909,0.00025680,-
 0.00011468,0.00004264,-0.00024538,-0.00012676,0.00009678,0.00009737,0.
 00011779,0.00014078,-0.00014657,0.00000173,0.00069269,0.00081062,0.000
 28555,-0.00070488,-0.00100811,-0.00114452,0.00040216,0.00029155,-0.122
 17985,-0.35873719,0.21589038,0.00440325,-0.00129927,0.00089786,-0.0010
 0040,-0.00115410,0.00049591,0.00064652,-0.00017644,-0.00032071,0.00120
 243,0.00012301,0.00017401,-0.00020970,-0.00003720,-0.00014890,-0.00018
 109,0.00010083,-0.00002781,-0.00022230,0.00038015,-0.00075541,-0.00066
 444,-0.00007312,0.00066698,0.00000730,0.00000421,0.00006830,-0.0002379
 2,-0.00001885,0.00026120,0.00003911,-0.00005233,-0.00005504,0.00001116
 ,-0.00002019,0.00004849,0.00010498,0.00015219,0.00008561,-0.12821609,-
 0.28765521,0.09952644,0.18493919,-0.00182993,-0.00088123,0.00359330,-0
 .00180146,-0.00016754,0.00024163,0.00013163,-0.00226886,-0.00133927,0.
 00517999,-0.00064724,0.00262444,-0.00130763,0.00034362,-0.00074018,-0.
 00057443,-0.00002658,-0.00040935,0.00035103,-0.00194863,0.00102936,-0.
 00005392,0.00004431,-0.00071590,-0.00015293,0.00018414,0.00011032,0.00
 027278,0.00030361,-0.00043408,0.00076671,0.00208834,0.00128166,0.00043
 051,-0.00137784,-0.00246904,-0.00274722,0.00113666,0.00135871,-0.28798
 740,-0.85348110,0.28633292,0.40426566,1.20152685,0.00083593,0.00220304
 ,0.00359357,0.00070940,0.00043685,0.00022401,-0.00032813,-0.00045307,0
 .00062530,-0.00208323,0.00056912,-0.00143725,0.00056021,-0.00018780,0.
 00065591,0.00047704,0.00037464,0.00038322,0.00011570,0.00046305,-0.000
 19716,0.00012814,-0.00007512,-0.00022384,-0.00014036,-0.00000609,0.000
 13263,0.00005104,-0.00000400,0.00005232,-0.00006488,-0.00052175,-0.000
 14134,-0.00007283,0.00024576,0.00053983,0.00057406,-0.00019905,-0.0003
 3630,0.09985647,0.28713501,-0.12791726,-0.13978673,-0.40190100,0.18245
 196,0.00539049,-0.00162427,0.00045349,-0.00047089,-0.00104879,0.000440
 49,0.00022082,0.00034006,-0.00005673,0.00037716,0.00072102,-0.00035984
 ,0.00006795,0.00009459,0.00012729,-0.00004647,-0.00003030,-0.00003204,
 -0.00011543,-0.00023326,0.00034852,0.00000576,-0.00013624,-0.00014107,
 -0.00002786,0.00001453,0.00001562,0.00006221,0.00002582,-0.00007333,0.
 00013969,0.00029077,-0.00002709,0.00002852,-0.00005273,-0.00018629,-0.
 00018959,0.00007623,0.00008974,0.00121452,0.00218457,-0.00063573,-0.06
 062199,-0.11494337,0.03916818,0.05396511,-0.00154977,0.00148475,0.0016
 1760,0.00024334,0.00048762,-0.00009028,-0.00012578,-0.00043986,0.00014
 784,-0.00035235,0.00021073,-0.00004771,0.00012003,0.00004630,-0.000015
 41,0.00000586,-0.00004354,-0.00003745,-0.00006243,0.00017598,0.0000145
 0,-0.00009332,0.00006979,0.00003291,0.00000828,-0.00000388,-0.00003910
 ,0.00004226,-0.00001928,-0.00000070,-0.00003682,-0.00022822,-0.0001563
 6,-0.00002939,0.00014685,0.00023278,0.00021516,-0.00015575,-0.00012726
 ,0.00183290,0.00554257,-0.00199656,-0.11453934,-0.34482852,0.11192042,
 0.11432136,0.33755447,0.00027525,0.00120603,0.00544789,0.00002697,0.00
 010657,0.00009598,-0.00021394,-0.00110122,0.00024607,0.00023270,0.0010
 9812,-0.00024543,0.00020701,0.00002465,0.00011404,-0.00002581,-0.00001
 204,-0.00005848,-0.00000519,0.00007648,-0.00001080,0.00005013,0.000012
 18,0.00012287,0.00006670,-0.00001713,-0.00007420,-0.00005504,-0.000027
 71,0.00002091,-0.00008653,-0.00006032,-0.00008927,-0.00002606,0.000048
 32,0.00006657,0.00009428,-0.00003278,-0.00001972,-0.00027905,-0.001302
 38,0.00090899,0.03886979,0.11143647,-0.05840560,-0.03913122,-0.1114552
 4,0.05188018\\0.00000051,0.00000058,0.00000069,-0.00000032,0.00000017,
 -0.00000005,-0.00000019,0.00000037,-0.00000002,-0.00000083,-0.00000099
 ,-0.00000047,-0.00000023,0.00000016,-0.00000040,-0.00000076,0.00000029
 ,-0.00000005,-0.00000012,-0.00000036,0.00000056,-0.00000006,0.00000013
 ,0.00000004,0.00000029,0.00000002,0.00000017,0.00000010,0.00000014,0.0
 0000024,0.00000145,0.00000006,0.00000044,-0.00000011,0.00000004,-0.000
 00096,-0.00000014,-0.00000020,0.00000039,0.00000021,-0.00000011,-0.000
 00029,0.00000019,-0.00000021,-0.00000012,0.,-0.00000010,-0.00000015\\\
 @


 A leading authority is anyone who has guessed right more than once.
 -- Frank A. Clark
 Job cpu time:       2 days  6 hours 47 minutes 38.6 seconds.
 Elapsed time:       0 days  1 hours 24 minutes 54.9 seconds.
 File lengths (MBytes):  RWF=  83473 Int=      0 D2E=      0 Chk=     18 Scr=      1
 Normal termination of Gaussian 16 at Mon Jun 24 13:40:07 2019.
