 Entering Gaussian System, Link 0=g16
 Initial command:
 /ichec/packages/gaussian/16b01/l1.exe "/localscratch/339753/Gau-45631.inp" -scrdir="/localscratch/339753/"
 Entering Link 1 = /ichec/packages/gaussian/16b01/l1.exe PID=     45703.
  
 Copyright (c) 1988-2017, Gaussian, Inc.  All Rights Reserved.
  
 This is part of the Gaussian(R) 16 program.  It is based on
 the Gaussian(R) 09 system (copyright 2009, Gaussian, Inc.),
 the Gaussian(R) 03 system (copyright 2003, Gaussian, Inc.),
 the Gaussian(R) 98 system (copyright 1998, Gaussian, Inc.),
 the Gaussian(R) 94 system (copyright 1995, Gaussian, Inc.),
 the Gaussian 92(TM) system (copyright 1992, Gaussian, Inc.),
 the Gaussian 90(TM) system (copyright 1990, Gaussian, Inc.),
 the Gaussian 88(TM) system (copyright 1988, Gaussian, Inc.),
 the Gaussian 86(TM) system (copyright 1986, Carnegie Mellon
 University), and the Gaussian 82(TM) system (copyright 1983,
 Carnegie Mellon University). Gaussian is a federally registered
 trademark of Gaussian, Inc.
  
 This software contains proprietary and confidential information,
 including trade secrets, belonging to Gaussian, Inc.
  
 This software is provided under written license and may be
 used, copied, transmitted, or stored only in accord with that
 written license.
  
 The following legend is applicable only to US Government
 contracts under FAR:
  
                    RESTRICTED RIGHTS LEGEND
  
 Use, reproduction and disclosure by the US Government is
 subject to restrictions as set forth in subparagraphs (a)
 and (c) of the Commercial Computer Software - Restricted
 Rights clause in FAR 52.227-19.
  
 Gaussian, Inc.
 340 Quinnipiac St., Bldg. 40, Wallingford CT 06492
  
  
 ---------------------------------------------------------------
 Warning -- This program may not be used in any manner that
 competes with the business of Gaussian, Inc. or will provide
 assistance to any competitor of Gaussian, Inc.  The licensee
 of this program is prohibited from giving any competitor of
 Gaussian, Inc. access to this program.  By using this program,
 the user acknowledges that Gaussian, Inc. is engaged in the
 business of creating and licensing software in the field of
 computational chemistry and represents and warrants to the
 licensee that it is not a competitor of Gaussian, Inc. and that
 it will not use this program in any manner prohibited above.
 ---------------------------------------------------------------
  

 Cite this work as:
 Gaussian 16, Revision B.01,
 M. J. Frisch, G. W. Trucks, H. B. Schlegel, G. E. Scuseria, 
 M. A. Robb, J. R. Cheeseman, G. Scalmani, V. Barone, 
 G. A. Petersson, H. Nakatsuji, X. Li, M. Caricato, A. V. Marenich, 
 J. Bloino, B. G. Janesko, R. Gomperts, B. Mennucci, H. P. Hratchian, 
 J. V. Ortiz, A. F. Izmaylov, J. L. Sonnenberg, D. Williams-Young, 
 F. Ding, F. Lipparini, F. Egidi, J. Goings, B. Peng, A. Petrone, 
 T. Henderson, D. Ranasinghe, V. G. Zakrzewski, J. Gao, N. Rega, 
 G. Zheng, W. Liang, M. Hada, M. Ehara, K. Toyota, R. Fukuda, 
 J. Hasegawa, M. Ishida, T. Nakajima, Y. Honda, O. Kitao, H. Nakai, 
 T. Vreven, K. Throssell, J. A. Montgomery, Jr., J. E. Peralta, 
 F. Ogliaro, M. J. Bearpark, J. J. Heyd, E. N. Brothers, K. N. Kudin, 
 V. N. Staroverov, T. A. Keith, R. Kobayashi, J. Normand, 
 K. Raghavachari, A. P. Rendell, J. C. Burant, S. S. Iyengar, 
 J. Tomasi, M. Cossi, J. M. Millam, M. Klene, C. Adamo, R. Cammi, 
 J. W. Ochterski, R. L. Martin, K. Morokuma, O. Farkas, 
 J. B. Foresman, and D. J. Fox, Gaussian, Inc., Wallingford CT, 2016.
 
 ******************************************
 Gaussian 16:  ES64L-G16RevB.01 20-Dec-2017
                 4-Jun-2019 
 ******************************************
 %mem=80GB
 %nproc=40
 Will use up to   40 processors via shared memory.
 ----------------------------------------------------------------------
 # opt=(calcfc,ts,noeigentest,maxcyc=500) freq=noraman uB2PLYPD3/cc-pvt
 z
 ----------------------------------------------------------------------
 1/5=1,6=500,10=4,11=1,18=20,38=1/1,3;
 2/9=110,12=2,17=6,18=5,40=1/2;
 3/5=16,6=1,11=2,25=1,30=1,71=2,74=-60,116=2,140=1/1,2,3;
 4//1;
 5/5=2,38=5/2;
 8/6=3,8=1,10=1,19=11,30=-1/1;
 9/15=3,16=-3/6;
 11/6=1,8=1,15=11,17=12,24=-1,27=1,28=-2,29=300,32=6,42=3/1,2,10;
 10/6=2,21=1/2;
 8/6=4,8=1,10=1,19=11,30=-1/11,4;
 10/5=1,20=4/2;
 11/12=2,14=11,16=1,17=2,28=-2,42=3,76=2/2,10,12;
 6/7=2,8=2,9=2,10=2/1;
 7/10=1,12=2,25=1,44=2/1,2,3,16;
 1/5=1,6=500,10=4,11=1,18=20/3(2);
 2/9=110/2;
 99//99;
 2/9=110/2;
 3/5=16,6=1,11=2,25=1,30=1,71=1,74=-60,116=2/1,2,3;
 4/5=5,16=3,69=1/1;
 5/5=2,38=5/2;
 8/6=4,10=1/1;
 9/15=2,16=-3/6;
 10/5=1/2;
 7/12=2/1,2,3,16;
 1/5=1,6=500,11=1,18=20/3(-8);
 2/9=110/2;
 6/7=2,8=2,9=2,10=2/1;
 99/9=10/99;
 -------------------
 Title Card Required
 -------------------
 Symbolic Z-matrix:
 Charge =  0 Multiplicity = 2
 C                    -0.58433   0.36479  -0.47747 
 H                    -0.58946   0.34299  -1.56643 
 C                     0.78402  -2.97349  -1.41156 
 H                    -0.15756  -2.76587  -1.92195 
 H                     1.5703   -3.15138  -2.14304 
 H                     0.67167  -3.84773  -0.77107 
 O                     1.22942  -1.85419  -0.67071 
 O                     0.22683  -1.63494   0.35905 
 H                    -0.15188  -0.62323   0.04866 
 C                    -1.98894   0.65607   0.08272 
 C                    -3.07888   0.8821    0.51741 
 H                    -4.04661   1.08279   0.90336 
 C                     0.42692   1.44001  -0.0383 
 H                     1.32003   1.34867  -0.62047 
 H                     0.00223   2.41086  -0.18662 
 H                     0.66113   1.30759   0.99732 
 

 GradGradGradGradGradGradGradGradGradGradGradGradGradGradGradGradGradGrad
 Berny optimization.
 Initialization pass.
                           ----------------------------
                           !    Initial Parameters    !
                           ! (Angstroms and Degrees)  !
 --------------------------                            --------------------------
 ! Name  Definition              Value          Derivative Info.                !
 --------------------------------------------------------------------------------
 ! R1    R(1,2)                  1.0892         calculate D2E/DX2 analytically  !
 ! R2    R(1,9)                  1.2            calculate D2E/DX2 analytically  !
 ! R3    R(1,10)                 1.54           calculate D2E/DX2 analytically  !
 ! R4    R(1,13)                 1.54           calculate D2E/DX2 analytically  !
 ! R5    R(3,4)                  1.091          calculate D2E/DX2 analytically  !
 ! R6    R(3,5)                  1.0885         calculate D2E/DX2 analytically  !
 ! R7    R(3,6)                  1.0896         calculate D2E/DX2 analytically  !
 ! R8    R(3,7)                  1.4142         calculate D2E/DX2 analytically  !
 ! R9    R(7,8)                  1.4538         calculate D2E/DX2 analytically  !
 ! R10   R(8,9)                  1.124          calculate D2E/DX2 analytically  !
 ! R11   R(10,11)                1.195          calculate D2E/DX2 analytically  !
 ! R12   R(11,12)                1.061          calculate D2E/DX2 analytically  !
 ! R13   R(13,14)                1.07           calculate D2E/DX2 analytically  !
 ! R14   R(13,15)                1.07           calculate D2E/DX2 analytically  !
 ! R15   R(13,16)                1.07           calculate D2E/DX2 analytically  !
 ! A1    A(2,1,9)              115.0607         calculate D2E/DX2 analytically  !
 ! A2    A(2,1,10)             111.2949         calculate D2E/DX2 analytically  !
 ! A3    A(2,1,13)             107.5887         calculate D2E/DX2 analytically  !
 ! A4    A(9,1,10)             108.9617         calculate D2E/DX2 analytically  !
 ! A5    A(9,1,13)             102.309          calculate D2E/DX2 analytically  !
 ! A6    A(10,1,13)            111.2924         calculate D2E/DX2 analytically  !
 ! A7    A(4,3,5)              109.8854         calculate D2E/DX2 analytically  !
 ! A8    A(4,3,6)              109.7989         calculate D2E/DX2 analytically  !
 ! A9    A(4,3,7)              111.4858         calculate D2E/DX2 analytically  !
 ! A10   A(5,3,6)              109.7781         calculate D2E/DX2 analytically  !
 ! A11   A(5,3,7)              104.7067         calculate D2E/DX2 analytically  !
 ! A12   A(6,3,7)              111.0739         calculate D2E/DX2 analytically  !
 ! A13   A(3,7,8)              105.8563         calculate D2E/DX2 analytically  !
 ! A14   A(7,8,9)               99.9337         calculate D2E/DX2 analytically  !
 ! A15   A(1,13,14)            109.4712         calculate D2E/DX2 analytically  !
 ! A16   A(1,13,15)            109.4712         calculate D2E/DX2 analytically  !
 ! A17   A(1,13,16)            109.4712         calculate D2E/DX2 analytically  !
 ! A18   A(14,13,15)           109.4712         calculate D2E/DX2 analytically  !
 ! A19   A(14,13,16)           109.4712         calculate D2E/DX2 analytically  !
 ! A20   A(15,13,16)           109.4712         calculate D2E/DX2 analytically  !
 ! A21   L(1,9,8,4,-1)         169.6149         calculate D2E/DX2 analytically  !
 ! A22   L(1,10,11,15,-1)      180.0            calculate D2E/DX2 analytically  !
 ! A23   L(10,11,12,6,-1)      180.0            calculate D2E/DX2 analytically  !
 ! A24   L(1,9,8,4,-2)         179.7246         calculate D2E/DX2 analytically  !
 ! A25   L(1,10,11,15,-2)      180.0            calculate D2E/DX2 analytically  !
 ! A26   L(10,11,12,6,-2)      180.0            calculate D2E/DX2 analytically  !
 ! D1    D(2,1,8,7)             36.6213         calculate D2E/DX2 analytically  !
 ! D2    D(10,1,8,7)           160.1133         calculate D2E/DX2 analytically  !
 ! D3    D(13,1,8,7)           -79.3423         calculate D2E/DX2 analytically  !
 ! D4    D(2,1,13,14)          -44.3687         calculate D2E/DX2 analytically  !
 ! D5    D(2,1,13,15)           75.6313         calculate D2E/DX2 analytically  !
 ! D6    D(2,1,13,16)         -164.3687         calculate D2E/DX2 analytically  !
 ! D7    D(9,1,13,14)           77.2306         calculate D2E/DX2 analytically  !
 ! D8    D(9,1,13,15)         -162.7694         calculate D2E/DX2 analytically  !
 ! D9    D(9,1,13,16)          -42.7694         calculate D2E/DX2 analytically  !
 ! D10   D(10,1,13,14)        -166.5388         calculate D2E/DX2 analytically  !
 ! D11   D(10,1,13,15)         -46.5388         calculate D2E/DX2 analytically  !
 ! D12   D(10,1,13,16)          73.4612         calculate D2E/DX2 analytically  !
 ! D13   D(4,3,7,8)             63.9852         calculate D2E/DX2 analytically  !
 ! D14   D(5,3,7,8)           -177.2485         calculate D2E/DX2 analytically  !
 ! D15   D(6,3,7,8)            -58.8202         calculate D2E/DX2 analytically  !
 ! D16   D(3,7,8,9)           -115.9407         calculate D2E/DX2 analytically  !
 --------------------------------------------------------------------------------
 Trust Radius=3.00D-01 FncErr=1.00D-07 GrdErr=1.00D-07 EigMax=2.50D+02 EigMin=1.00D-04
 Number of steps in this run=    100 maximum allowed number of steps=    100.
 Search for a saddle point of order  1.
 GradGradGradGradGradGradGradGradGradGradGradGradGradGradGradGradGradGrad

                          Input orientation:                          
 ---------------------------------------------------------------------
 Center     Atomic      Atomic             Coordinates (Angstroms)
 Number     Number       Type             X           Y           Z
 ---------------------------------------------------------------------
      1          6           0       -0.584325    0.364787   -0.477473
      2          1           0       -0.589460    0.342994   -1.566431
      3          6           0        0.784023   -2.973491   -1.411563
      4          1           0       -0.157562   -2.765866   -1.921954
      5          1           0        1.570296   -3.151378   -2.143043
      6          1           0        0.671671   -3.847732   -0.771070
      7          8           0        1.229417   -1.854195   -0.670711
      8          8           0        0.226834   -1.634936    0.359049
      9          1           0       -0.151878   -0.623227    0.048662
     10          6           0       -1.988939    0.656072    0.082717
     11          6           0       -3.078883    0.882102    0.517410
     12          1           0       -4.046607    1.082787    0.903359
     13          6           0        0.426921    1.440012   -0.038301
     14          1           0        1.320029    1.348668   -0.620465
     15          1           0        0.002226    2.410855   -0.186619
     16          1           0        0.661128    1.307585    0.997320
 ---------------------------------------------------------------------
                    Distance matrix (angstroms):
                    1          2          3          4          5
     1  C    0.000000
     2  H    1.089188   0.000000
     3  C    3.726795   3.592980   0.000000
     4  H    3.474139   3.158789   1.090958   0.000000
     5  H    4.447463   4.148211   1.088545   1.784094   0.000000
     6  H    4.405569   4.448060   1.089566   1.783983   1.781782
     7  O    2.872435   2.989693   1.414235   2.078573   1.991643
     8  O    2.314441   2.878544   2.288505   2.574827   3.219464
     9  H    1.200000   1.932249   2.920943   2.911059   3.763110
    10  C    1.540000   2.185463   4.805821   4.368331   5.667348
    11  C    2.735000   3.290936   5.788659   5.271839   6.705358
    12  H    3.796000   4.312659   6.719169   6.157856   7.665397
    13  C    1.540000   2.138144   4.635987   4.645340   5.178620
    14  H    2.148263   2.356348   4.426533   4.561419   4.757236
    15  H    2.148263   2.555391   5.576995   5.462176   6.101219
    16  H    2.148263   3.011183   4.913800   5.077935   5.529088
                    6          7          8          9         10
     6  H    0.000000
     7  O    2.072521   0.000000
     8  O    2.524186   1.453841   0.000000
     9  H    3.427481   1.985133   1.123974   0.000000
    10  C    5.300193   4.150532   3.199176   2.238875   0.000000
    11  C    6.172371   5.240267   4.157923   3.324620   1.195000
    12  H    7.026797   6.240191   5.093583   4.337039   2.256000
    13  C    5.343884   3.449021   3.106965   2.144651   2.542752
    14  H    5.238858   3.204539   3.325119   2.550022   3.453031
    15  H    6.321365   4.464414   4.088597   3.047091   2.667685
    16  H    5.450194   3.619687   3.042110   2.299775   2.878162
                   11         12         13         14         15
    11  C    0.000000
    12  H    1.061000   0.000000
    13  C    3.593152   4.585498   0.000000
    14  H    4.567589   5.585115   1.070000   0.000000
    15  H    3.510837   4.398281   1.070000   1.747303   0.000000
    16  H    3.794605   4.714035   1.070000   1.747303   1.747303
                   16
    16  H    0.000000
 Stoichiometry    C5H9O2(2)
 Framework group  C1[X(C5H9O2)]
 Deg. of freedom    42
 Full point group                 C1      NOp   1
 Largest Abelian subgroup         C1      NOp   1
 Largest concise Abelian subgroup C1      NOp   1
                         Standard orientation:                         
 ---------------------------------------------------------------------
 Center     Atomic      Atomic             Coordinates (Angstroms)
 Number     Number       Type             X           Y           Z
 ---------------------------------------------------------------------
      1          6           0       -0.812568    0.341893   -0.404726
      2          1           0       -0.523446    0.343495   -1.454839
      3          6           0        2.768755   -0.688126   -0.451505
      4          1           0        2.169843   -1.278013   -1.146865
      5          1           0        3.565511   -0.177824   -0.989745
      6          1           0        3.196577   -1.338536    0.310787
      7          8           0        2.008785    0.350671    0.134506
      8          8           0        0.973951   -0.306520    0.916088
      9          1           0        0.060764    0.044081    0.362476
     10          6           0       -2.026862   -0.573188   -0.160358
     11          6           0       -2.969123   -1.283268    0.029265
     12          1           0       -3.805725   -1.913723    0.197625
     13          6           0       -1.119279    1.796942   -0.004275
     14          1           0       -0.360625    2.442059   -0.395643
     15          1           0       -2.070673    2.083213   -0.401514
     16          1           0       -1.139642    1.876529    1.062566
 ---------------------------------------------------------------------
 Rotational constants (GHZ):           4.2656088           1.1947895           1.0261449
 Standard basis: CC-pVTZ (5D, 7F)
 There are   380 symmetry adapted cartesian basis functions of A   symmetry.
 There are   336 symmetry adapted basis functions of A   symmetry.
   336 basis functions,   517 primitive gaussians,   380 cartesian basis functions
    28 alpha electrons       27 beta electrons
       nuclear repulsion energy       282.8620389099 Hartrees.
 NAtoms=   16 NActive=   16 NUniq=   16 SFac= 1.00D+00 NAtFMM=   60 NAOKFM=F Big=F
 Integral buffers will be    131072 words long.
 Raffenetti 2 integral format.
 Two-electron integral symmetry is turned on.
 Nuclear repulsion after empirical dispersion term =      282.8540043447 Hartrees.
 One-electron integrals computed using PRISM.
 NBasis=   336 RedAO= T EigKep=  4.34D-05  NBF=   336
 NBsUse=   336 1.00D-06 EigRej= -1.00D+00 NBFU=   336
 ExpMin= 1.03D-01 ExpMax= 1.53D+04 ExpMxC= 5.22D+02 IAcc=3 IRadAn=         5 AccDes= 0.00D+00
 Harris functional with IExCor=  419 and IRadAn=       5 diagonalized for initial guess.
 HarFok:  IExCor=  419 AccDes= 0.00D+00 IRadAn=         5 IDoV= 1 UseB2=F ITyADJ=14
 ICtDFT=  3500011 ScaDFX=  1.000000  1.000000  1.000000  1.000000
 FoFCou: FMM=F IPFlag=           0 FMFlag=      100000 FMFlg1=           0
         NFxFlg=           0 DoJE=T BraDBF=F KetDBF=T FulRan=T
         wScrn=  0.000000 ICntrl=       500 IOpCl=  0 I1Cent=   200000004 NGrid=           0
         NMat0=    1 NMatS0=      1 NMatT0=    0 NMatD0=    1 NMtDS0=    0 NMtDT0=    0
 Petite list used in FoFCou.
 Initial guess <Sx>= 0.0000 <Sy>= 0.0000 <Sz>= 0.5000 <S**2>= 0.7500 S= 0.5000
 Requested convergence on RMS density matrix=1.00D-08 within 128 cycles.
 Requested convergence on MAX density matrix=1.00D-06.
 Requested convergence on             energy=1.00D-06.
 No special actions if energy rises.
 Integral accuracy reduced to 1.0D-05 until final iterations.
 Initial convergence to 1.0D-05 achieved.  Increase integral accuracy.
 SCF Done:  E(UB2PLYPD3) =  -345.551943944     A.U. after   22 cycles
            NFock= 22  Conv=0.74D-08     -V/T= 2.0041
 <Sx>= 0.0000 <Sy>= 0.0000 <Sz>= 0.5000 <S**2>= 0.7707 S= 0.5103
 <L.S>=  0.00000000000    
 Annihilation of the first spin contaminant:
 S**2 before annihilation     0.7707,   after     0.7503
 DoSCS=T DFT=T ScalE2(SS,OS)=  0.270000  0.270000
 ExpMin= 1.03D-01 ExpMax= 1.53D+04 ExpMxC= 5.22D+02 IAcc=3 IRadAn=         5 AccDes= 0.00D+00
 HarFok:  IExCor=  205 AccDes= 0.00D+00 IRadAn=         5 IDoV=-2 UseB2=F ITyADJ=14
 ICtDFT= 12500011 ScaDFX=  1.000000  1.000000  1.000000  1.000000
 Range of M.O.s used for correlation:     8   336
 NBasis=   336 NAE=    28 NBE=    27 NFC=     7 NFV=     0
 NROrb=    329 NOA=    21 NOB=    20 NVA=   308 NVB=   309

 **** Warning!!: The largest alpha MO coefficient is  0.25828179D+02


 **** Warning!!: The largest beta MO coefficient is  0.25824975D+02

 DoSCS=T DFT=T ScalE2(SS,OS)=  0.270000  0.270000
 Disk-based method using ON**2 memory for 21 occupieds at a time.
 Permanent disk used for amplitudes=   106523802 words.
 Estimated scratch disk usage=  1932025752 words.
 Actual    scratch disk usage=  1868611480 words.
 JobTyp=2 Pass  1:  I=   8 to  28 NPSUse= 40 ParTrn=T ParDer=T DoDerP=T.
 (rs|ai) integrals will be sorted in core.
 Actual    scratch disk usage=  1868611480 words.
 JobTyp=3 Pass  1:  I=   8 to  27 NPSUse= 40 ParTrn=T ParDer=T DoDerP=T.
 (rs|ai) integrals will be sorted in core.
 Spin components of T(2) and E(2):
     alpha-alpha T2 =       0.7878675903D-01 E2=     -0.5346165238D-01
     alpha-beta  T2 =       0.4720193967D+00 E2=     -0.3276402095D+00
     beta-beta   T2 =       0.8580645844D-01 E2=     -0.5256662114D-01
 (S**2,0)=  0.77074D+00           (S**2,1)=  0.74500D+00
 Scaling Projection term by:   0.270000
 E(PUHF)=      -0.34555831835D+03        E(PMP2)=      -0.34598627525D+03
 E2(B2PLYPD3) =    -0.4336684830D+00 E(B2PLYPD3) =    -0.34598561242719D+03
 G2DrvN: will do    17 centers at a time, making    1 passes.
 Calling FoFCou, ICntrl=  3107 FMM=F I1Cent=   0 AccDes= 0.00D+00.
 End of G2Drv F.D. properties file   721 does not exist.
 End of G2Drv F.D. properties file   722 does not exist.
 End of G2Drv F.D. properties file   788 does not exist.
          IDoAtm=1111111111111111
          Differentiating once with respect to electric field.
                with respect to dipole field.
          Differentiating once with respect to nuclear coordinates.
 Keep R1 and R2 ints in memory in canonical form, NReq=3251642460.
          There are    51 degrees of freedom in the 1st order CPHF.  IDoFFX=6 NUNeed=    51.
     48 vectors produced by pass  0 Test12= 3.33D-14 1.96D-09 XBig12= 1.07D+02 5.85D+00.
 AX will form    48 AO Fock derivatives at one time.
     48 vectors produced by pass  1 Test12= 3.33D-14 1.96D-09 XBig12= 1.14D+01 7.00D-01.
     48 vectors produced by pass  2 Test12= 3.33D-14 1.96D-09 XBig12= 7.46D-01 1.65D-01.
     48 vectors produced by pass  3 Test12= 3.33D-14 1.96D-09 XBig12= 1.11D-02 1.47D-02.
     48 vectors produced by pass  4 Test12= 3.33D-14 1.96D-09 XBig12= 1.42D-04 1.06D-03.
     48 vectors produced by pass  5 Test12= 3.33D-14 1.96D-09 XBig12= 2.65D-06 2.37D-04.
     48 vectors produced by pass  6 Test12= 3.33D-14 1.96D-09 XBig12= 2.60D-08 1.13D-05.
     25 vectors produced by pass  7 Test12= 3.33D-14 1.96D-09 XBig12= 1.53D-10 9.82D-07.
      5 vectors produced by pass  8 Test12= 3.33D-14 1.96D-09 XBig12= 8.33D-13 6.59D-08.
      2 vectors produced by pass  9 Test12= 3.33D-14 1.96D-09 XBig12= 6.74D-15 7.09D-09.
 InvSVY:  IOpt=1 It=  1 EMax= 5.33D-15
 Solved reduced A of dimension   368 with    51 vectors.
 End of Minotr F.D. properties file   721 does not exist.
 End of Minotr F.D. properties file   722 does not exist.
 End of Minotr F.D. properties file   788 does not exist.
 MDV= 10737418240.
 DoSCS=T DFT=T ScalE2(SS,OS)=  0.270000  0.270000
 Form MO integral derivatives with frozen-active canonical formalism.
 Discarding MO integrals.
 Reordered first order wavefunction length =    428928697
 In DefCFB: NBatch=  1 ICI= 28 ICA=309 LFMax= 78
            Large arrays: LIAPS=  8665386240 LIARS=  1611002400 words.
 In DefCFB: NBatch=  1 ICI= 28 ICA=309 LFMax= 78
            Large arrays: LIAPS=  8665386240 LIARS=  1611002400 words.
 Semi-Direct transformation.
 ModeAB=           4 MOrb=            28 LenV=   10734104233
 LASXX=    503301435 LTotXX=   503301435 LenRXX=  1014543915
 LTotAB=   511242480 MaxLAS=   599647104 LenRXY=           0
 NonZer=  1517845350 LenScr=  2285697024 LnRSAI=   599647104
 LnScr1=   902998016 LExtra=           0 Total=   4802886059
 MaxDsk=          -1 SrtSym=           T ITran=            4
 JobTyp=1 Pass  1:  I=   1 to  28.
 (rs|ai) integrals will be sorted in core.
 ModeAB=           4 MOrb=            27 LenV=   10734104233
 LASXX=    486308502 LTotXX=   486308502 LenRXX=   901306008
 LTotAB=   414997506 MaxLAS=   578231136 LenRXY=           0
 NonZer=  1387614510 LenScr=  2089584640 LnRSAI=   578231136
 LnScr1=   870748160 LExtra=           0 Total=   4439869944
 MaxDsk=          -1 SrtSym=           T ITran=            4
 JobTyp=2 Pass  1:  I=   1 to  27.
 (rs|ai) integrals will be sorted in core.
 SymMOI:  orbitals are not symmetric.
 DoSCS=T DFT=T ScalE2(SS,OS)=  0.270000  0.270000
 Spin components of T(2) and E(2):
     alpha-alpha T2 =       0.7878675903D-01 E2=     -0.5346165238D-01
     alpha-beta  T2 =       0.4720193967D+00 E2=     -0.3276402095D+00
     beta-beta   T2 =       0.8580645844D-01 E2=     -0.5256662114D-01
 E2(B2PLYPD3) =    -0.4336684830D+00 E(B2PLYPD3) =    -0.34598561242719D+03
 (S**2,0)=  0.77074D+00           (S**2,1)=  0.74500D+00
 Scaling Projection term by:   0.270000
 E(PUHF)=      -0.34555831835D+03        E(PMP2)=      -0.34598627525D+03
          IDoAtm=1111111111111111
          Differentiating once with respect to electric field.
                with respect to dipole field.
          Differentiating once with respect to nuclear coordinates.
 Keep R1 and R2 ints in memory in canonical form, NReq=3251778068.
          There are     1 degrees of freedom in the 1st order CPHF.  IDoFFX=0 NUNeed=     1.
 LinEq1:  Iter=  0 NonCon=     1 RMS=8.82D-04 Max=5.31D-02 NDo=     1
 AX will form     1 AO Fock derivatives at one time.
 LinEq1:  Iter=  1 NonCon=     1 RMS=2.81D-04 Max=8.75D-03 NDo=     1
 LinEq1:  Iter=  2 NonCon=     1 RMS=1.89D-04 Max=8.84D-03 NDo=     1
 LinEq1:  Iter=  3 NonCon=     1 RMS=1.37D-04 Max=5.35D-03 NDo=     1
 LinEq1:  Iter=  4 NonCon=     1 RMS=7.69D-05 Max=3.88D-03 NDo=     1
 LinEq1:  Iter=  5 NonCon=     1 RMS=4.57D-05 Max=1.80D-03 NDo=     1
 LinEq1:  Iter=  6 NonCon=     1 RMS=2.23D-05 Max=5.18D-04 NDo=     1
 LinEq1:  Iter=  7 NonCon=     1 RMS=7.77D-06 Max=2.22D-04 NDo=     1
 LinEq1:  Iter=  8 NonCon=     1 RMS=6.08D-06 Max=1.68D-04 NDo=     1
 LinEq1:  Iter=  9 NonCon=     1 RMS=3.39D-06 Max=1.44D-04 NDo=     1
 LinEq1:  Iter= 10 NonCon=     1 RMS=1.72D-06 Max=5.64D-05 NDo=     1
 LinEq1:  Iter= 11 NonCon=     1 RMS=8.30D-07 Max=2.40D-05 NDo=     1
 LinEq1:  Iter= 12 NonCon=     1 RMS=3.01D-07 Max=7.95D-06 NDo=     1
 LinEq1:  Iter= 13 NonCon=     1 RMS=1.16D-07 Max=2.58D-06 NDo=     1
 LinEq1:  Iter= 14 NonCon=     1 RMS=4.23D-08 Max=9.04D-07 NDo=     1
 LinEq1:  Iter= 15 NonCon=     1 RMS=2.01D-08 Max=5.22D-07 NDo=     1
 LinEq1:  Iter= 16 NonCon=     1 RMS=8.74D-09 Max=1.89D-07 NDo=     1
 LinEq1:  Iter= 17 NonCon=     1 RMS=3.43D-09 Max=1.31D-07 NDo=     1
 LinEq1:  Iter= 18 NonCon=     1 RMS=1.49D-09 Max=3.96D-08 NDo=     1
 LinEq1:  Iter= 19 NonCon=     1 RMS=7.30D-10 Max=1.59D-08 NDo=     1
 LinEq1:  Iter= 20 NonCon=     1 RMS=2.49D-10 Max=6.97D-09 NDo=     1
 LinEq1:  Iter= 21 NonCon=     1 RMS=8.12D-11 Max=2.38D-09 NDo=     1
 LinEq1:  Iter= 22 NonCon=     0 RMS=2.62D-11 Max=7.71D-10 NDo=     1
 Linear equations converged to 1.000D-10 1.000D-09 after    22 iterations.
 End of Minotr F.D. properties file   721 does not exist.
 End of Minotr F.D. properties file   722 does not exist.
 End of Minotr F.D. properties file   788 does not exist.
 Symmetrizing basis deriv contribution to polar:
 IMax=3 JMax=2 DiffMx= 0.00D+00
 G2DrvN: will do    17 centers at a time, making    1 passes.
 Calling FoFCou, ICntrl=  3107 FMM=F I1Cent=   0 AccDes= 0.00D+00.
 End of G2Drv F.D. properties file   721 does not exist.
 End of G2Drv F.D. properties file   722 does not exist.
 End of G2Drv F.D. properties file   788 does not exist.
 DoSCS=T DFT=T ScalE2(SS,OS)=  0.270000  0.270000
 R2 and R3 integrals will be kept in memory, NReq=  5268037470.
 DD1Dir will call FoFMem   1 times, MxPair=      2242
 NAB=   756 NAA=   378 NBB=   351.
 Discarding MO integrals.

 **********************************************************************

            Population analysis using the SCF Density.

 **********************************************************************

 Orbital symmetries:
 Alpha Orbitals:
       Occupied  (A) (A) (A) (A) (A) (A) (A) (A) (A) (A) (A) (A)
                 (A) (A) (A) (A) (A) (A) (A) (A) (A) (A) (A) (A)
                 (A) (A) (A) (A)
       Virtual   (A) (A) (A) (A) (A) (A) (A) (A) (A) (A) (A) (A)
                 (A) (A) (A) (A) (A) (A) (A) (A) (A) (A) (A) (A)
                 (A) (A) (A) (A) (A) (A) (A) (A) (A) (A) (A) (A)
                 (A) (A) (A) (A) (A) (A) (A) (A) (A) (A) (A) (A)
                 (A) (A) (A) (A) (A) (A) (A) (A) (A) (A) (A) (A)
                 (A) (A) (A) (A) (A) (A) (A) (A) (A) (A) (A) (A)
                 (A) (A) (A) (A) (A) (A) (A) (A) (A) (A) (A) (A)
                 (A) (A) (A) (A) (A) (A) (A) (A) (A) (A) (A) (A)
                 (A) (A) (A) (A) (A) (A) (A) (A) (A) (A) (A) (A)
                 (A) (A) (A) (A) (A) (A) (A) (A) (A) (A) (A) (A)
                 (A) (A) (A) (A) (A) (A) (A) (A) (A) (A) (A) (A)
                 (A) (A) (A) (A) (A) (A) (A) (A) (A) (A) (A) (A)
                 (A) (A) (A) (A) (A) (A) (A) (A) (A) (A) (A) (A)
                 (A) (A) (A) (A) (A) (A) (A) (A) (A) (A) (A) (A)
                 (A) (A) (A) (A) (A) (A) (A) (A) (A) (A) (A) (A)
                 (A) (A) (A) (A) (A) (A) (A) (A) (A) (A) (A) (A)
                 (A) (A) (A) (A) (A) (A) (A) (A) (A) (A) (A) (A)
                 (A) (A) (A) (A) (A) (A) (A) (A) (A) (A) (A) (A)
                 (A) (A) (A) (A) (A) (A) (A) (A) (A) (A) (A) (A)
                 (A) (A) (A) (A) (A) (A) (A) (A) (A) (A) (A) (A)
                 (A) (A) (A) (A) (A) (A) (A) (A) (A) (A) (A) (A)
                 (A) (A) (A) (A) (A) (A) (A) (A) (A) (A) (A) (A)
                 (A) (A) (A) (A) (A) (A) (A) (A) (A) (A) (A) (A)
                 (A) (A) (A) (A) (A) (A) (A) (A) (A) (A) (A) (A)
                 (A) (A) (A) (A) (A) (A) (A) (A) (A) (A) (A) (A)
                 (A) (A) (A) (A) (A) (A) (A) (A)
 Beta  Orbitals:
       Occupied  (A) (A) (A) (A) (A) (A) (A) (A) (A) (A) (A) (A)
                 (A) (A) (A) (A) (A) (A) (A) (A) (A) (A) (A) (A)
                 (A) (A) (A)
       Virtual   (A) (A) (A) (A) (A) (A) (A) (A) (A) (A) (A) (A)
                 (A) (A) (A) (A) (A) (A) (A) (A) (A) (A) (A) (A)
                 (A) (A) (A) (A) (A) (A) (A) (A) (A) (A) (A) (A)
                 (A) (A) (A) (A) (A) (A) (A) (A) (A) (A) (A) (A)
                 (A) (A) (A) (A) (A) (A) (A) (A) (A) (A) (A) (A)
                 (A) (A) (A) (A) (A) (A) (A) (A) (A) (A) (A) (A)
                 (A) (A) (A) (A) (A) (A) (A) (A) (A) (A) (A) (A)
                 (A) (A) (A) (A) (A) (A) (A) (A) (A) (A) (A) (A)
                 (A) (A) (A) (A) (A) (A) (A) (A) (A) (A) (A) (A)
                 (A) (A) (A) (A) (A) (A) (A) (A) (A) (A) (A) (A)
                 (A) (A) (A) (A) (A) (A) (A) (A) (A) (A) (A) (A)
                 (A) (A) (A) (A) (A) (A) (A) (A) (A) (A) (A) (A)
                 (A) (A) (A) (A) (A) (A) (A) (A) (A) (A) (A) (A)
                 (A) (A) (A) (A) (A) (A) (A) (A) (A) (A) (A) (A)
                 (A) (A) (A) (A) (A) (A) (A) (A) (A) (A) (A) (A)
                 (A) (A) (A) (A) (A) (A) (A) (A) (A) (A) (A) (A)
                 (A) (A) (A) (A) (A) (A) (A) (A) (A) (A) (A) (A)
                 (A) (A) (A) (A) (A) (A) (A) (A) (A) (A) (A) (A)
                 (A) (A) (A) (A) (A) (A) (A) (A) (A) (A) (A) (A)
                 (A) (A) (A) (A) (A) (A) (A) (A) (A) (A) (A) (A)
                 (A) (A) (A) (A) (A) (A) (A) (A) (A) (A) (A) (A)
                 (A) (A) (A) (A) (A) (A) (A) (A) (A) (A) (A) (A)
                 (A) (A) (A) (A) (A) (A) (A) (A) (A) (A) (A) (A)
                 (A) (A) (A) (A) (A) (A) (A) (A) (A) (A) (A) (A)
                 (A) (A) (A) (A) (A) (A) (A) (A) (A) (A) (A) (A)
                 (A) (A) (A) (A) (A) (A) (A) (A) (A)
 The electronic state is 2-A.
 Alpha  occ. eigenvalues --  -19.80344 -19.79785 -10.66735 -10.66615 -10.62724
 Alpha  occ. eigenvalues --  -10.61492 -10.61181  -1.27441  -1.05049  -0.92094
 Alpha  occ. eigenvalues --   -0.85526  -0.78227  -0.74670  -0.64372  -0.61036
 Alpha  occ. eigenvalues --   -0.56670  -0.55116  -0.54709  -0.52732  -0.48885
 Alpha  occ. eigenvalues --   -0.46621  -0.44653  -0.44239  -0.40181  -0.38345
 Alpha  occ. eigenvalues --   -0.35194  -0.33244  -0.30545
 Alpha virt. eigenvalues --    0.07539   0.08841   0.09239   0.10512   0.10982
 Alpha virt. eigenvalues --    0.11672   0.13109   0.14828   0.16340   0.16461
 Alpha virt. eigenvalues --    0.17033   0.18514   0.21576   0.24019   0.26747
 Alpha virt. eigenvalues --    0.27809   0.30723   0.31721   0.32134   0.33427
 Alpha virt. eigenvalues --    0.34007   0.36665   0.40772   0.41846   0.44757
 Alpha virt. eigenvalues --    0.45197   0.45999   0.48229   0.48713   0.50781
 Alpha virt. eigenvalues --    0.51378   0.51837   0.52756   0.52948   0.53426
 Alpha virt. eigenvalues --    0.54543   0.55434   0.56072   0.58103   0.60452
 Alpha virt. eigenvalues --    0.62124   0.63420   0.64426   0.66176   0.68108
 Alpha virt. eigenvalues --    0.69538   0.72638   0.72936   0.76498   0.78873
 Alpha virt. eigenvalues --    0.79118   0.84155   0.84585   0.88840   0.89558
 Alpha virt. eigenvalues --    0.91713   0.93363   0.95341   0.96109   0.96765
 Alpha virt. eigenvalues --    0.98778   0.99865   1.01000   1.02409   1.04509
 Alpha virt. eigenvalues --    1.04875   1.05790   1.06843   1.08560   1.12482
 Alpha virt. eigenvalues --    1.13359   1.14821   1.16118   1.18027   1.19299
 Alpha virt. eigenvalues --    1.21284   1.23082   1.24820   1.25787   1.26442
 Alpha virt. eigenvalues --    1.30004   1.30933   1.32459   1.33523   1.35914
 Alpha virt. eigenvalues --    1.37050   1.38543   1.39226   1.41307   1.42267
 Alpha virt. eigenvalues --    1.43046   1.46420   1.47806   1.49879   1.52464
 Alpha virt. eigenvalues --    1.56892   1.59486   1.60776   1.62869   1.64692
 Alpha virt. eigenvalues --    1.67763   1.68890   1.72715   1.78081   1.87441
 Alpha virt. eigenvalues --    1.91081   1.98171   2.01453   2.04367   2.11602
 Alpha virt. eigenvalues --    2.13193   2.15958   2.19399   2.21432   2.22724
 Alpha virt. eigenvalues --    2.25925   2.35445   2.37205   2.39286   2.41062
 Alpha virt. eigenvalues --    2.42865   2.45920   2.49277   2.50146   2.53405
 Alpha virt. eigenvalues --    2.55718   2.56967   2.59286   2.59812   2.63196
 Alpha virt. eigenvalues --    2.64487   2.65936   2.67932   2.68684   2.74070
 Alpha virt. eigenvalues --    2.75583   2.75854   2.82341   2.83777   2.84093
 Alpha virt. eigenvalues --    2.86948   2.89324   2.90038   2.91302   2.91606
 Alpha virt. eigenvalues --    2.92386   2.94443   3.00871   3.01718   3.02201
 Alpha virt. eigenvalues --    3.03568   3.04035   3.04636   3.05578   3.06253
 Alpha virt. eigenvalues --    3.07205   3.08933   3.10620   3.11537   3.12094
 Alpha virt. eigenvalues --    3.14488   3.15136   3.16093   3.16308   3.16975
 Alpha virt. eigenvalues --    3.19217   3.20228   3.21193   3.21823   3.24152
 Alpha virt. eigenvalues --    3.27078   3.28195   3.33101   3.35954   3.37527
 Alpha virt. eigenvalues --    3.40230   3.41823   3.42919   3.44769   3.46008
 Alpha virt. eigenvalues --    3.48009   3.50367   3.52464   3.53574   3.56595
 Alpha virt. eigenvalues --    3.57567   3.58812   3.59764   3.61408   3.62414
 Alpha virt. eigenvalues --    3.65969   3.67669   3.69399   3.74459   3.76851
 Alpha virt. eigenvalues --    3.80343   3.82252   3.83792   3.85349   3.86065
 Alpha virt. eigenvalues --    3.90407   3.91734   3.93660   3.94599   3.97993
 Alpha virt. eigenvalues --    3.98797   4.00442   4.00731   4.03598   4.05330
 Alpha virt. eigenvalues --    4.07890   4.09158   4.10276   4.12996   4.15455
 Alpha virt. eigenvalues --    4.16124   4.17581   4.18428   4.18937   4.22184
 Alpha virt. eigenvalues --    4.23088   4.25242   4.26328   4.28800   4.29809
 Alpha virt. eigenvalues --    4.32977   4.33997   4.36459   4.38167   4.40871
 Alpha virt. eigenvalues --    4.44700   4.46642   4.49850   4.53309   4.59754
 Alpha virt. eigenvalues --    4.62137   4.66243   4.72058   4.73371   4.79127
 Alpha virt. eigenvalues --    4.81385   4.85806   4.89112   4.92376   4.96725
 Alpha virt. eigenvalues --    4.99106   4.99835   5.02863   5.04234   5.07407
 Alpha virt. eigenvalues --    5.08732   5.10212   5.16838   5.18994   5.21135
 Alpha virt. eigenvalues --    5.23517   5.29950   5.31710   5.32882   5.36241
 Alpha virt. eigenvalues --    5.37037   5.39204   5.42622   5.43900   5.45333
 Alpha virt. eigenvalues --    5.49096   5.51818   5.52573   5.55466   5.59499
 Alpha virt. eigenvalues --    5.63838   5.64875   5.71982   5.81544   5.87152
 Alpha virt. eigenvalues --    5.90986   5.94892   5.98153   6.01930   6.02398
 Alpha virt. eigenvalues --    6.05410   6.07437   6.09557   6.10882   6.20687
 Alpha virt. eigenvalues --    6.30750   6.35908   6.43513   6.57083   6.63303
 Alpha virt. eigenvalues --    6.72744   6.80331   6.86617   6.97341   7.02338
 Alpha virt. eigenvalues --    7.09633   7.21345   7.34109   7.42965   7.57120
 Alpha virt. eigenvalues --    7.85255   8.16358  10.07346  10.61981  12.65240
 Alpha virt. eigenvalues --   13.42244  13.95589  17.21792
  Beta  occ. eigenvalues --  -19.79752 -19.78350 -10.66616 -10.65511 -10.62931
  Beta  occ. eigenvalues --  -10.61221 -10.61208  -1.25215  -1.01576  -0.90559
  Beta  occ. eigenvalues --   -0.84903  -0.77889  -0.72754  -0.61592  -0.58791
  Beta  occ. eigenvalues --   -0.55592  -0.54707  -0.53994  -0.51340  -0.46232
  Beta  occ. eigenvalues --   -0.45723  -0.44167  -0.43527  -0.38610  -0.35864
  Beta  occ. eigenvalues --   -0.33141  -0.32467
  Beta virt. eigenvalues --   -0.05905   0.07675   0.09081   0.10165   0.10636
  Beta virt. eigenvalues --    0.11413   0.11829   0.13665   0.14860   0.16368
  Beta virt. eigenvalues --    0.16607   0.17127   0.19063   0.21940   0.24558
  Beta virt. eigenvalues --    0.26913   0.28460   0.30867   0.31858   0.32257
  Beta virt. eigenvalues --    0.33676   0.34311   0.37277   0.41336   0.42094
  Beta virt. eigenvalues --    0.45125   0.45356   0.46564   0.48670   0.49162
  Beta virt. eigenvalues --    0.50816   0.51747   0.51940   0.53142   0.53441
  Beta virt. eigenvalues --    0.53683   0.54917   0.55600   0.56148   0.58711
  Beta virt. eigenvalues --    0.61598   0.62964   0.63738   0.65099   0.66924
  Beta virt. eigenvalues --    0.68666   0.69855   0.72872   0.73499   0.76803
  Beta virt. eigenvalues --    0.79431   0.80098   0.84438   0.84878   0.89022
  Beta virt. eigenvalues --    0.89688   0.91892   0.93491   0.95642   0.96612
  Beta virt. eigenvalues --    0.97055   0.98991   1.00039   1.01192   1.02732
  Beta virt. eigenvalues --    1.04649   1.05031   1.06054   1.06935   1.08702
  Beta virt. eigenvalues --    1.12702   1.13476   1.15168   1.16483   1.18850
  Beta virt. eigenvalues --    1.19765   1.21499   1.23419   1.25085   1.26121
  Beta virt. eigenvalues --    1.26920   1.30379   1.31061   1.32933   1.33799
  Beta virt. eigenvalues --    1.36171   1.37171   1.38756   1.39524   1.41485
  Beta virt. eigenvalues --    1.42484   1.43310   1.46920   1.48406   1.50440
  Beta virt. eigenvalues --    1.53006   1.56998   1.59794   1.60860   1.63091
  Beta virt. eigenvalues --    1.64875   1.68070   1.69569   1.73386   1.78555
  Beta virt. eigenvalues --    1.87872   1.91782   1.98966   2.02559   2.06955
  Beta virt. eigenvalues --    2.11815   2.13708   2.16665   2.20690   2.22501
  Beta virt. eigenvalues --    2.23397   2.26740   2.35745   2.37549   2.39469
  Beta virt. eigenvalues --    2.41703   2.43639   2.46225   2.49356   2.50593
  Beta virt. eigenvalues --    2.53679   2.56343   2.57583   2.59554   2.60065
  Beta virt. eigenvalues --    2.63619   2.64639   2.66219   2.68555   2.68964
  Beta virt. eigenvalues --    2.74360   2.76075   2.76188   2.82921   2.84142
  Beta virt. eigenvalues --    2.84228   2.87658   2.89510   2.90360   2.91584
  Beta virt. eigenvalues --    2.91857   2.92628   2.94539   3.01024   3.02022
  Beta virt. eigenvalues --    3.02829   3.03908   3.04286   3.04791   3.05980
  Beta virt. eigenvalues --    3.06741   3.07445   3.09298   3.10704   3.11588
  Beta virt. eigenvalues --    3.12586   3.14746   3.15481   3.16235   3.16716
  Beta virt. eigenvalues --    3.17151   3.19474   3.20399   3.21517   3.22145
  Beta virt. eigenvalues --    3.24262   3.27390   3.28302   3.33814   3.36571
  Beta virt. eigenvalues --    3.38265   3.40541   3.42004   3.43123   3.45345
  Beta virt. eigenvalues --    3.46324   3.48354   3.50526   3.52543   3.53988
  Beta virt. eigenvalues --    3.56918   3.57940   3.59151   3.60117   3.61935
  Beta virt. eigenvalues --    3.62596   3.66323   3.68084   3.69740   3.75021
  Beta virt. eigenvalues --    3.77046   3.80729   3.82484   3.84079   3.85473
  Beta virt. eigenvalues --    3.86220   3.90509   3.92034   3.93812   3.94821
  Beta virt. eigenvalues --    3.98443   3.98950   4.00735   4.01063   4.03799
  Beta virt. eigenvalues --    4.05697   4.07845   4.09393   4.10599   4.13185
  Beta virt. eigenvalues --    4.15589   4.16171   4.17639   4.18474   4.19217
  Beta virt. eigenvalues --    4.22572   4.23350   4.25572   4.26702   4.29072
  Beta virt. eigenvalues --    4.30178   4.33277   4.34369   4.36534   4.38411
  Beta virt. eigenvalues --    4.41146   4.44900   4.46854   4.50311   4.53585
  Beta virt. eigenvalues --    4.60299   4.63124   4.66586   4.72498   4.75082
  Beta virt. eigenvalues --    4.79784   4.81679   4.86379   4.90065   4.92734
  Beta virt. eigenvalues --    4.97004   4.99362   5.00125   5.03206   5.04521
  Beta virt. eigenvalues --    5.07574   5.09434   5.10561   5.17522   5.19368
  Beta virt. eigenvalues --    5.21553   5.24068   5.30302   5.31837   5.33114
  Beta virt. eigenvalues --    5.36642   5.37448   5.39859   5.42800   5.44567
  Beta virt. eigenvalues --    5.45787   5.49673   5.52104   5.52708   5.56323
  Beta virt. eigenvalues --    5.59774   5.64346   5.65469   5.72673   5.82321
  Beta virt. eigenvalues --    5.88081   5.91194   5.95195   5.98369   6.02393
  Beta virt. eigenvalues --    6.02789   6.05709   6.07878   6.09852   6.11538
  Beta virt. eigenvalues --    6.21119   6.30870   6.36125   6.44613   6.59742
  Beta virt. eigenvalues --    6.66047   6.73925   6.82855   6.88518   6.99210
  Beta virt. eigenvalues --    7.03441   7.10942   7.23822   7.35264   7.44724
  Beta virt. eigenvalues --    7.60431   7.85834   8.16474  10.07679  10.63751
  Beta virt. eigenvalues --   12.66176  13.42245  13.95678  17.21879
          Condensed to atoms (all electrons):
               1          2          3          4          5          6
     1  C    5.120534   0.414372  -0.003286   0.000166   0.000419  -0.000070
     2  H    0.414372   0.547983   0.000380  -0.001411  -0.000170   0.000097
     3  C   -0.003286   0.000380   4.581596   0.396725   0.396853   0.410897
     4  H    0.000166  -0.001411   0.396725   0.661202  -0.031502  -0.057106
     5  H    0.000419  -0.000170   0.396853  -0.031502   0.592795  -0.032246
     6  H   -0.000070   0.000097   0.410897  -0.057106  -0.032246   0.627463
     7  O    0.009951   0.001863   0.300214  -0.048307  -0.027174  -0.037931
     8  O   -0.130193  -0.001556  -0.043065   0.001959   0.006448  -0.000555
     9  H    0.252107  -0.006185   0.003550   0.003196  -0.000644   0.000524
    10  C    0.340813  -0.038903  -0.000347  -0.000727  -0.000032   0.000257
    11  C   -0.069087  -0.003239  -0.000060  -0.000115  -0.000001   0.000026
    12  H    0.000867  -0.000072  -0.000000  -0.000002  -0.000000   0.000000
    13  C    0.309890  -0.039908   0.000001   0.000040   0.000022  -0.000058
    14  H   -0.035829  -0.006156  -0.000088  -0.000023   0.000004   0.000038
    15  H   -0.029857  -0.001713  -0.000002   0.000006  -0.000002  -0.000000
    16  H   -0.032664   0.006774   0.000023  -0.000021  -0.000011  -0.000002
               7          8          9         10         11         12
     1  C    0.009951  -0.130193   0.252107   0.340813  -0.069087   0.000867
     2  H    0.001863  -0.001556  -0.006185  -0.038903  -0.003239  -0.000072
     3  C    0.300214  -0.043065   0.003550  -0.000347  -0.000060  -0.000000
     4  H   -0.048307   0.001959   0.003196  -0.000727  -0.000115  -0.000002
     5  H   -0.027174   0.006448  -0.000644  -0.000032  -0.000001  -0.000000
     6  H   -0.037931  -0.000555   0.000524   0.000257   0.000026   0.000000
     7  O    7.940124   0.079765  -0.024090   0.003062   0.000127   0.000001
     8  O    0.079765   8.063463   0.194868   0.003819   0.000723   0.000010
     9  H   -0.024090   0.194868   0.404072  -0.008383  -0.000343  -0.000032
    10  C    0.003062   0.003819  -0.008383   5.018456   0.854406  -0.062046
    11  C    0.000127   0.000723  -0.000343   0.854406   4.990445   0.403643
    12  H    0.000001   0.000010  -0.000032  -0.062046   0.403643   0.484927
    13  C   -0.004078   0.003402  -0.009074  -0.052869   0.000362  -0.000068
    14  H    0.004012  -0.001525  -0.000954   0.009299   0.000259   0.000007
    15  H   -0.000050   0.000002   0.002156  -0.003631   0.002497  -0.000006
    16  H   -0.000529   0.004554  -0.002783  -0.001295   0.000897   0.000008
              13         14         15         16
     1  C    0.309890  -0.035829  -0.029857  -0.032664
     2  H   -0.039908  -0.006156  -0.001713   0.006774
     3  C    0.000001  -0.000088  -0.000002   0.000023
     4  H    0.000040  -0.000023   0.000006  -0.000021
     5  H    0.000022   0.000004  -0.000002  -0.000011
     6  H   -0.000058   0.000038  -0.000000  -0.000002
     7  O   -0.004078   0.004012  -0.000050  -0.000529
     8  O    0.003402  -0.001525   0.000002   0.004554
     9  H   -0.009074  -0.000954   0.002156  -0.002783
    10  C   -0.052869   0.009299  -0.003631  -0.001295
    11  C    0.000362   0.000259   0.002497   0.000897
    12  H   -0.000068   0.000007  -0.000006   0.000008
    13  C    4.856543   0.409084   0.402352   0.404962
    14  H    0.409084   0.565908  -0.031632  -0.025358
    15  H    0.402352  -0.031632   0.573328  -0.028501
    16  H    0.404962  -0.025358  -0.028501   0.560776
          Atomic-Atomic Spin Densities.
               1          2          3          4          5          6
     1  C    0.646793   0.002741   0.001142  -0.002955   0.000197   0.000975
     2  H    0.002741  -0.018925  -0.000223   0.000528  -0.000012  -0.000072
     3  C    0.001142  -0.000223  -0.001968   0.002368   0.000221  -0.002646
     4  H   -0.002955   0.000528   0.002368   0.002426  -0.001002  -0.001337
     5  H    0.000197  -0.000012   0.000221  -0.001002  -0.002487   0.001571
     6  H    0.000975  -0.000072  -0.002646  -0.001337   0.001571   0.002456
     7  O    0.013935  -0.001221   0.003202  -0.000252   0.000267  -0.001088
     8  O   -0.124512   0.003217  -0.003499   0.001647  -0.000144   0.001354
     9  H    0.057070   0.001359   0.000128  -0.001173   0.000066   0.000520
    10  C   -0.020238   0.001440  -0.000053   0.000168  -0.000005  -0.000048
    11  C   -0.009111  -0.000084  -0.000002   0.000020  -0.000000  -0.000006
    12  H   -0.000056   0.000018  -0.000000   0.000000  -0.000000  -0.000000
    13  C   -0.030502   0.005563  -0.000077   0.000143  -0.000017  -0.000048
    14  H   -0.000483  -0.000085  -0.000000  -0.000003  -0.000000   0.000001
    15  H   -0.005749  -0.001516   0.000011  -0.000014   0.000002   0.000003
    16  H   -0.007540   0.000127  -0.000009   0.000018  -0.000001  -0.000010
               7          8          9         10         11         12
     1  C    0.013935  -0.124512   0.057070  -0.020238  -0.009111  -0.000056
     2  H   -0.001221   0.003217   0.001359   0.001440  -0.000084   0.000018
     3  C    0.003202  -0.003499   0.000128  -0.000053  -0.000002  -0.000000
     4  H   -0.000252   0.001647  -0.001173   0.000168   0.000020   0.000000
     5  H    0.000267  -0.000144   0.000066  -0.000005  -0.000000  -0.000000
     6  H   -0.001088   0.001354   0.000520  -0.000048  -0.000006  -0.000000
     7  O    0.010060  -0.035506   0.008210  -0.000296  -0.000016  -0.000000
     8  O   -0.035506   0.711456  -0.054167   0.007432   0.001000   0.000009
     9  H    0.008210  -0.054167  -0.082337  -0.000115  -0.000523  -0.000006
    10  C   -0.000296   0.007432  -0.000115  -0.118943   0.005054  -0.001453
    11  C   -0.000016   0.001000  -0.000523   0.005054   0.158965   0.002047
    12  H   -0.000000   0.000009  -0.000006  -0.001453   0.002047  -0.005593
    13  C   -0.001688   0.010126  -0.004071   0.005911   0.000327   0.000017
    14  H    0.000027  -0.000169   0.000302  -0.000218  -0.000001  -0.000000
    15  H    0.000113  -0.000822   0.000304  -0.000470   0.000671  -0.000027
    16  H   -0.000190   0.001785  -0.000561   0.000861   0.000130   0.000009
              13         14         15         16
     1  C   -0.030502  -0.000483  -0.005749  -0.007540
     2  H    0.005563  -0.000085  -0.001516   0.000127
     3  C   -0.000077  -0.000000   0.000011  -0.000009
     4  H    0.000143  -0.000003  -0.000014   0.000018
     5  H   -0.000017  -0.000000   0.000002  -0.000001
     6  H   -0.000048   0.000001   0.000003  -0.000010
     7  O   -0.001688   0.000027   0.000113  -0.000190
     8  O    0.010126  -0.000169  -0.000822   0.001785
     9  H   -0.004071   0.000302   0.000304  -0.000561
    10  C    0.005911  -0.000218  -0.000470   0.000861
    11  C    0.000327  -0.000001   0.000671   0.000130
    12  H    0.000017  -0.000000  -0.000027   0.000009
    13  C   -0.008795   0.000316   0.000043   0.006947
    14  H    0.000316  -0.000069   0.000609  -0.000438
    15  H    0.000043   0.000609   0.035016  -0.004383
    16  H    0.006947  -0.000438  -0.004383   0.009229
 Mulliken charges and spin densities:
               1          2
     1  C   -0.148136   0.521707
     2  H    0.127843  -0.007146
     3  C   -0.043391  -0.001406
     4  H    0.075922   0.000583
     5  H    0.095240  -0.001345
     6  H    0.088665   0.001624
     7  O   -0.196960  -0.004442
     8  O   -0.182119   0.519208
     9  H    0.192014  -0.074992
    10  C   -0.061879  -0.120973
    11  C   -0.180540   0.158470
    12  H    0.172764  -0.005035
    13  C   -0.280602  -0.015804
    14  H    0.112954  -0.000212
    15  H    0.115053   0.023789
    16  H    0.113172   0.005974
 Sum of Mulliken charges =  -0.00000   1.00000
 Mulliken charges and spin densities with hydrogens summed into heavy atoms:
               1          2
     1  C   -0.020293   0.514561
     3  C    0.216436  -0.000544
     7  O   -0.196960  -0.004442
     8  O    0.009895   0.444216
    10  C   -0.061879  -0.120973
    11  C   -0.007776   0.153435
    13  C    0.060576   0.013747
 APT charges:
               1
     1  C    0.613391
     2  H   -0.052185
     3  C    0.478499
     4  H   -0.034906
     5  H   -0.010962
     6  H   -0.032365
     7  O   -0.461608
     8  O    0.192232
     9  H   -0.352120
    10  C   -0.246179
    11  C   -0.273032
    12  H    0.220673
    13  C   -0.059404
    14  H   -0.001790
    15  H    0.003856
    16  H    0.015901
 Sum of APT charges =  -0.00000
 APT charges with hydrogens summed into heavy atoms:
               1
     1  C    0.561205
     3  C    0.400266
     7  O   -0.461608
     8  O   -0.159888
    10  C   -0.246179
    11  C   -0.052359
    13  C   -0.041437
 Electronic spatial extent (au):  <R**2>=           1147.8227
 Charge=             -0.0000 electrons
 Dipole moment (field-independent basis, Debye):
    X=              0.1747    Y=             -0.1536    Z=             -1.6085  Tot=              1.6253
 Quadrupole moment (field-independent basis, Debye-Ang):
   XX=            -36.5907   YY=            -41.7463   ZZ=            -44.1522
   XY=             -0.8348   XZ=             -3.4043   YZ=             -0.4818
 Traceless Quadrupole moment (field-independent basis, Debye-Ang):
   XX=              4.2391   YY=             -0.9166   ZZ=             -3.3225
   XY=             -0.8348   XZ=             -3.4043   YZ=             -0.4818
 Octapole moment (field-independent basis, Debye-Ang**2):
  XXX=             18.8915  YYY=              0.8062  ZZZ=              1.5774  XYY=             -1.5787
  XXY=            -21.7037  XXZ=             -1.1115  XZZ=              8.7382  YZZ=              2.4016
  YYZ=              1.5723  XYZ=              2.2337
 Hexadecapole moment (field-independent basis, Debye-Ang**3):
 XXXX=           -956.8006 YYYY=           -321.0561 ZZZZ=           -110.3527 XXXY=             53.0491
 XXXZ=            -27.4935 YYYX=             11.4186 YYYZ=             -4.5734 ZZZX=              0.5344
 ZZZY=             -0.8256 XXYY=           -196.8627 XXZZ=           -210.4026 YYZZ=            -73.2298
 XXYZ=            -11.8350 YYXZ=             -3.4494 ZZXY=             -5.5219
 N-N= 2.828540043447D+02 E-N=-1.374239550301D+03  KE= 3.441305393280D+02
  Exact polarizability: 122.109   7.051  69.393   0.892  -2.645  55.274
 Approx polarizability: 104.579  14.316  76.261  -1.593  -5.556  67.512
                          Isotropic Fermi Contact Couplings
        Atom                 a.u.       MegaHertz       Gauss      10(-4) cm-1
     1  C(13)              0.17656     198.48179      70.82324      66.20640
     2  H(1)              -0.00121      -5.39731      -1.92590      -1.80035
     3  C(13)             -0.00149      -1.67729      -0.59850      -0.55948
     4  H(1)               0.00157       7.03775       2.51125       2.34754
     5  H(1)              -0.00012      -0.51583      -0.18406      -0.17206
     6  H(1)               0.00008       0.34082       0.12161       0.11369
     7  O(17)              0.01255      -7.61018      -2.71550      -2.53848
     8  O(17)              0.06672     -40.44564     -14.43201     -13.49121
     9  H(1)              -0.01828     -81.70971     -29.15606     -27.25543
    10  C(13)             -0.00675      -7.58932      -2.70806      -2.53152
    11  C(13)              0.00075       0.84436       0.30129       0.28165
    12  H(1)              -0.00130      -5.79970      -2.06948      -1.93457
    13  C(13)             -0.00443      -4.97557      -1.77541      -1.65967
    14  H(1)               0.00012       0.52462       0.18720       0.17499
    15  H(1)               0.01276      57.03943      20.35309      19.02631
    16  H(1)               0.00405      18.11332       6.46328       6.04195
 --------------------------------------------------------
       Center         ----  Spin Dipole Couplings  ----
                      3XX-RR        3YY-RR        3ZZ-RR
 --------------------------------------------------------
     1   Atom        0.202054     -0.189491     -0.012563
     2   Atom       -0.006436     -0.032520      0.038957
     3   Atom        0.005678     -0.004292     -0.001386
     4   Atom        0.000030     -0.002153      0.002123
     5   Atom        0.004016     -0.003453     -0.000562
     6   Atom        0.006446     -0.001973     -0.004473
     7   Atom        0.114366     -0.158913      0.044547
     8   Atom        0.461036     -0.915275      0.454239
     9   Atom        0.122914     -0.115895     -0.007019
    10   Atom        0.023619     -0.005481     -0.018138
    11   Atom       -0.018925      0.002004      0.016921
    12   Atom        0.005259     -0.000486     -0.004773
    13   Atom       -0.002384      0.018910     -0.016526
    14   Atom       -0.004371      0.011362     -0.006991
    15   Atom        0.003461      0.002411     -0.005872
    16   Atom       -0.003709      0.003242      0.000467
 --------------------------------------------------------
                        XY            XZ            YZ
 --------------------------------------------------------
     1   Atom       -0.254047      0.391280     -0.192353
     2   Atom       -0.010469     -0.010264     -0.003613
     3   Atom       -0.003452     -0.008127      0.003267
     4   Atom       -0.004252     -0.005000      0.004858
     5   Atom       -0.000889     -0.004005      0.000340
     6   Atom       -0.005985     -0.003001      0.001399
     7   Atom       -0.011690      0.241568      0.024347
     8   Atom       -0.490649      1.525298     -0.492266
     9   Atom       -0.093797      0.188099     -0.065548
    10   Atom        0.026731     -0.009169      0.012019
    11   Atom       -0.039147      0.049740     -0.068208
    12   Atom        0.005933      0.000872     -0.003969
    13   Atom       -0.026260      0.005374     -0.005177
    14   Atom        0.000792      0.001000     -0.002721
    15   Atom       -0.005225      0.003113      0.000373
    16   Atom       -0.005850     -0.003094      0.008946
 --------------------------------------------------------


 ---------------------------------------------------------------------------------
              Anisotropic Spin Dipole Couplings in Principal Axis System
 ---------------------------------------------------------------------------------

       Atom             a.u.   MegaHertz   Gauss  10(-4) cm-1        Axes

              Baa    -0.3144   -42.196   -15.057   -14.075  0.4514  0.8922 -0.0166
     1 C(13)  Bbb    -0.3107   -41.689   -14.876   -13.906 -0.4975  0.2671  0.8253
              Bcc     0.6251    83.885    29.932    27.981  0.7408 -0.3643  0.5644
 
              Baa    -0.0368   -19.652    -7.012    -6.555  0.3519  0.9315  0.0921
     2 H(1)   Bbb    -0.0044    -2.327    -0.830    -0.776  0.9129 -0.3633  0.1860
              Bcc     0.0412    21.979     7.843     7.331 -0.2067 -0.0186  0.9782
 
              Baa    -0.0071    -0.959    -0.342    -0.320  0.3880 -0.4512  0.8037
     3 C(13)  Bbb    -0.0052    -0.696    -0.248    -0.232  0.4608  0.8501  0.2548
              Bcc     0.0123     1.654     0.590     0.552  0.7982 -0.2715 -0.5377
 
              Baa    -0.0057    -3.037    -1.084    -1.013  0.3955  0.8718 -0.2890
     4 H(1)   Bbb    -0.0040    -2.138    -0.763    -0.713  0.7279 -0.1056  0.6775
              Bcc     0.0097     5.174     1.846     1.726 -0.5601  0.4783  0.6764
 
              Baa    -0.0036    -1.908    -0.681    -0.636  0.1870  0.9725  0.1387
     5 H(1)   Bbb    -0.0029    -1.522    -0.543    -0.508  0.4715 -0.2127  0.8558
              Bcc     0.0064     3.430     1.224     1.144  0.8618 -0.0947 -0.4983
 
              Baa    -0.0053    -2.828    -1.009    -0.943  0.4084  0.3869  0.8268
     6 H(1)   Bbb    -0.0050    -2.665    -0.951    -0.889  0.2857  0.8060 -0.5183
              Bcc     0.0103     5.493     1.960     1.832  0.8669 -0.4479 -0.2186
 
              Baa    -0.1880    13.605     4.855     4.538  0.4800  0.6682 -0.5685
     7 O(17)  Bbb    -0.1356     9.813     3.501     3.273 -0.4461  0.7439  0.4976
              Bcc     0.3236   -23.418    -8.356    -7.812  0.7554  0.0148  0.6551
 
              Baa    -1.0739    77.706    27.727    25.920 -0.0529  0.9339  0.3536
     8 O(17)  Bbb    -1.0671    77.215    27.552    25.756  0.7217  0.2805 -0.6328
              Bcc     2.1410  -154.921   -55.280   -51.676  0.6902 -0.2217  0.6888
 
              Baa    -0.1484   -79.153   -28.244   -26.403  0.2988  0.9533  0.0444
     9 H(1)   Bbb    -0.1409   -75.186   -26.828   -25.079 -0.5439  0.1319  0.8287
              Bcc     0.2893   154.339    55.072    51.482  0.7841 -0.2718  0.5579
 
              Baa    -0.0349    -4.680    -1.670    -1.561  0.3932 -0.6311  0.6687
    10 C(13)  Bbb    -0.0047    -0.629    -0.224    -0.210 -0.3165  0.5899  0.7428
              Bcc     0.0396     5.308     1.894     1.771  0.8633  0.5037 -0.0322
 
              Baa    -0.0604    -8.111    -2.894    -2.706 -0.3011  0.6109  0.7322
    11 C(13)  Bbb    -0.0488    -6.547    -2.336    -2.184  0.8448  0.5271 -0.0923
              Bcc     0.1092    14.658     5.230     4.889  0.4423 -0.5907  0.6748
 
              Baa    -0.0084    -4.473    -1.596    -1.492 -0.3089  0.6020  0.7363
    12 H(1)   Bbb    -0.0007    -0.395    -0.141    -0.132  0.4717 -0.5753  0.6683
              Bcc     0.0091     4.869     1.737     1.624  0.8259  0.5537 -0.1063
 
              Baa    -0.0208    -2.792    -0.996    -0.931  0.7804  0.4609 -0.4225
    13 C(13)  Bbb    -0.0168    -2.252    -0.803    -0.751  0.2848  0.3396  0.8964
              Bcc     0.0376     5.043     1.800     1.682 -0.5567  0.8199 -0.1337
 
              Baa    -0.0077    -4.134    -1.475    -1.379 -0.3122  0.1466  0.9386
    14 H(1)   Bbb    -0.0040    -2.152    -0.768    -0.718  0.9492  0.0068  0.3147
              Bcc     0.0118     6.287     2.243     2.097  0.0398  0.9892 -0.1412
 
              Baa    -0.0073    -3.881    -1.385    -1.295 -0.3752 -0.2369  0.8962
    15 H(1)   Bbb    -0.0012    -0.651    -0.232    -0.217  0.5382  0.7315  0.4187
              Bcc     0.0085     4.532     1.617     1.512  0.7547 -0.6394  0.1469
 
              Baa    -0.0081    -4.345    -1.550    -1.449  0.5351  0.6746 -0.5086
    16 H(1)   Bbb    -0.0052    -2.785    -0.994    -0.929  0.7664 -0.1343  0.6282
              Bcc     0.0134     7.130     2.544     2.378 -0.3555  0.7259  0.5888
 

 ---------------------------------------------------------------------------------

 Calling FoFJK, ICntrl=  10100127 FMM=F ISym2X=0 I1Cent= 0 IOpClX= 1 NMat=1 NMatS=1 NMatT=0.
 ***** Axes restored to original set *****
 -------------------------------------------------------------------
 Center     Atomic                   Forces (Hartrees/Bohr)
 Number     Number              X              Y              Z
 -------------------------------------------------------------------
      1        6          -0.057174468    0.078189064    0.003641099
      2        1          -0.004091744   -0.014868344    0.002479795
      3        6          -0.000924340   -0.002660987   -0.003805208
      4        1           0.000352733    0.000511382    0.000484430
      5        1           0.000098755   -0.000177615   -0.000307783
      6        1           0.000219104    0.000741071   -0.000211140
      7        8          -0.012356957    0.000136869    0.018868502
      8        8           0.032398304   -0.036223153   -0.002227543
      9        1          -0.006327867   -0.003051846   -0.003006230
     10        6           0.070862927   -0.021230888   -0.030284526
     11        6          -0.023864312    0.004606835    0.010296102
     12        1           0.000872328    0.000043162   -0.000234854
     13        6          -0.010563975   -0.018857128   -0.001438904
     14        1           0.010833922   -0.001256205   -0.005037523
     15        1          -0.004209660    0.012251615   -0.001490415
     16        1           0.003875251    0.001846168    0.012274198
 -------------------------------------------------------------------
 Cartesian Forces:  Max     0.078189064 RMS     0.020734966
 FormGI is forming the generalized inverse of G from B-inverse, IUseBI=4.

 GradGradGradGradGradGradGradGradGradGradGradGradGradGradGradGradGradGrad
 Berny optimization.
 Internal  Forces:  Max     0.054155102 RMS     0.012584888
 Search for a saddle point.
 Step number   1 out of a maximum of  100
 All quantities printed in internal units (Hartrees-Bohrs-Radians)
 Swapping is turned off.
 Second derivative matrix not updated -- analytic derivatives used.
 ITU=  0
     Eigenvalues ---   -0.02377   0.00014   0.00132   0.00632   0.01357
     Eigenvalues ---    0.01796   0.02719   0.03281   0.03942   0.04265
     Eigenvalues ---    0.04492   0.04608   0.04639   0.05661   0.06661
     Eigenvalues ---    0.08335   0.08502   0.08535   0.10731   0.12264
     Eigenvalues ---    0.13052   0.13197   0.14534   0.15834   0.16622
     Eigenvalues ---    0.16812   0.18505   0.20184   0.22811   0.28984
     Eigenvalues ---    0.31405   0.32726   0.33480   0.34186   0.34375
     Eigenvalues ---    0.35147   0.37885   0.38027   0.38629   0.39996
     Eigenvalues ---    0.41377   1.11784
 Eigenvectors required to have negative eigenvalues:
                          R10       R2        D16       R9        A5
   1                   -0.64579   0.55389  -0.29662   0.23758  -0.16529
                          A14       D12       R3        D4        D5
   1                   -0.12081  -0.09755  -0.09483   0.09194   0.08965
 RFO step:  Lambda0=5.491947938D-04 Lambda=-3.62735769D-02.
 Linear search not attempted -- option 19 set.
 Maximum step size (   0.300) exceeded in Quadratic search.
    -- Step size scaled by   0.707
 Iteration  1 RMS(Cart)=  0.05541690 RMS(Int)=  0.00221546
 Iteration  2 RMS(Cart)=  0.00317621 RMS(Int)=  0.00111929
 Iteration  3 RMS(Cart)=  0.00001070 RMS(Int)=  0.00111928
 Iteration  4 RMS(Cart)=  0.00000005 RMS(Int)=  0.00111928
 Variable       Old X    -DE/DX   Delta X   Delta X   Delta X     New X
                                 (Linear)    (Quad)   (Total)
    R1        2.05827  -0.00216   0.00000  -0.00187  -0.00187   2.05639
    R2        2.26767   0.04273   0.00000   0.15409   0.15409   2.42176
    R3        2.91018  -0.05416   0.00000  -0.18910  -0.18910   2.72108
    R4        2.91018  -0.00301   0.00000  -0.02456  -0.02456   2.88562
    R5        2.06161  -0.00048   0.00000  -0.00041  -0.00041   2.06120
    R6        2.05705   0.00031   0.00000  -0.00013  -0.00013   2.05692
    R7        2.05898  -0.00074   0.00000  -0.00101  -0.00101   2.05797
    R8        2.67252   0.00332   0.00000   0.00591   0.00592   2.67843
    R9        2.74736  -0.01906   0.00000  -0.04621  -0.04621   2.70115
   R10        2.12400   0.04405   0.00000   0.01572   0.01573   2.13973
   R11        2.25822   0.02551   0.00000   0.01768   0.01768   2.27590
   R12        2.00500  -0.00087   0.00000  -0.00119  -0.00119   2.00381
   R13        2.02201   0.01189   0.00000   0.01958   0.01958   2.04159
   R14        2.02201   0.01299   0.00000   0.02414   0.02414   2.04615
   R15        2.02201   0.01250   0.00000   0.02135   0.02135   2.04336
    A1        2.00819  -0.01100   0.00000  -0.10517  -0.10447   1.90372
    A2        1.94246  -0.00423   0.00000   0.02014   0.01409   1.95655
    A3        1.87778   0.01277   0.00000   0.06806   0.06474   1.94252
    A4        1.90174  -0.00456   0.00000  -0.02975  -0.02969   1.87205
    A5        1.78563   0.00138   0.00000  -0.00831  -0.00762   1.77801
    A6        1.94242   0.00708   0.00000   0.05941   0.05656   1.99898
    A7        1.91786   0.00019   0.00000   0.00147   0.00147   1.91933
    A8        1.91635   0.00048   0.00000   0.00042   0.00041   1.91676
    A9        1.94579  -0.00103   0.00000  -0.00411  -0.00412   1.94168
   A10        1.91599   0.00012   0.00000   0.00210   0.00210   1.91809
   A11        1.82748   0.00056   0.00000   0.00376   0.00376   1.83123
   A12        1.93861  -0.00030   0.00000  -0.00338  -0.00339   1.93522
   A13        1.84754   0.00411   0.00000   0.01263   0.01262   1.86016
   A14        1.74417   0.00959   0.00000   0.03153   0.03153   1.77571
   A15        1.91063   0.00039   0.00000   0.00872   0.00866   1.91929
   A16        1.91063   0.00063   0.00000   0.00653   0.00649   1.91713
   A17        1.91063   0.00439   0.00000   0.01403   0.01397   1.92460
   A18        1.91063  -0.00059   0.00000  -0.00557  -0.00561   1.90502
   A19        1.91063  -0.00222   0.00000  -0.00949  -0.00956   1.90107
   A20        1.91063  -0.00259   0.00000  -0.01421  -0.01424   1.89639
   A21        2.96034   0.00792   0.00000   0.04793   0.04773   3.00807
   A22        3.14159  -0.00049   0.00000   0.00735   0.00735   3.14894
   A23        3.14159   0.00041   0.00000   0.00247   0.00247   3.14407
   A24        3.13679  -0.00184   0.00000  -0.01810  -0.01807   3.11872
   A25        3.14159   0.00163   0.00000   0.01930   0.01930   3.16089
   A26        3.14159  -0.00015   0.00000   0.00161   0.00161   3.14320
    D1        0.63916   0.00902   0.00000   0.03292   0.03261   0.67177
    D2        2.79450  -0.00563   0.00000  -0.02159  -0.02070   2.77381
    D3       -1.38478  -0.00116   0.00000   0.01234   0.01174  -1.37304
    D4       -0.77438   0.00407   0.00000   0.05743   0.05905  -0.71533
    D5        1.32002   0.00396   0.00000   0.05994   0.06155   1.38157
    D6       -2.86877   0.00386   0.00000   0.05512   0.05672  -2.81206
    D7        1.34793  -0.00204   0.00000  -0.03616  -0.03643   1.31150
    D8       -2.84086  -0.00214   0.00000  -0.03365  -0.03392  -2.87479
    D9       -0.74647  -0.00224   0.00000  -0.03847  -0.03876  -0.78522
   D10       -2.90665  -0.00350   0.00000  -0.04926  -0.05058  -2.95723
   D11       -0.81225  -0.00360   0.00000  -0.04675  -0.04808  -0.86033
   D12        1.28214  -0.00370   0.00000  -0.05156  -0.05291   1.22923
   D13        1.11675  -0.00017   0.00000  -0.00237  -0.00237   1.11439
   D14       -3.09357  -0.00015   0.00000  -0.00052  -0.00052  -3.09409
   D15       -1.02661   0.00016   0.00000   0.00243   0.00242  -1.02418
   D16       -2.02355   0.00458   0.00000   0.04872   0.04872  -1.97483
         Item               Value     Threshold  Converged?
 Maximum Force            0.054155     0.000450     NO 
 RMS     Force            0.012585     0.000300     NO 
 Maximum Displacement     0.197755     0.001800     NO 
 RMS     Displacement     0.055229     0.001200     NO 
 Predicted change in Energy=-1.819636D-02
 GradGradGradGradGradGradGradGradGradGradGradGradGradGradGradGradGradGrad

                          Input orientation:                          
 ---------------------------------------------------------------------
 Center     Atomic      Atomic             Coordinates (Angstroms)
 Number     Number       Type             X           Y           Z
 ---------------------------------------------------------------------
      1          6           0       -0.617177    0.451230   -0.487512
      2          1           0       -0.624580    0.345975   -1.570581
      3          6           0        0.767973   -2.988925   -1.405401
      4          1           0       -0.154055   -2.745095   -1.934668
      5          1           0        1.565541   -3.185858   -2.119462
      6          1           0        0.611517   -3.862497   -0.774225
      7          8           0        1.227223   -1.888165   -0.639673
      8          8           0        0.231256   -1.639357    0.354960
      9          1           0       -0.166277   -0.628524    0.035139
     10          6           0       -1.937842    0.664643    0.045129
     11          6           0       -3.038258    0.830011    0.505791
     12          1           0       -4.007289    0.978139    0.910045
     13          6           0        0.421431    1.475925   -0.036924
     14          1           0        1.327016    1.361991   -0.614952
     15          1           0        0.034400    2.477444   -0.176813
     16          1           0        0.654011    1.338100    1.010033
 ---------------------------------------------------------------------
                    Distance matrix (angstroms):
                    1          2          3          4          5
     1  C    0.000000
     2  H    1.088196   0.000000
     3  C    3.820449   3.617741   0.000000
     4  H    3.539101   3.147804   1.090739   0.000000
     5  H    4.544879   4.191866   1.088476   1.784777   0.000000
     6  H    4.494455   4.457954   1.089031   1.783623   1.782601
     7  O    2.982907   3.047482   1.417365   2.078285   1.997058
     8  O    2.408350   2.895118   2.282163   2.571676   3.208542
     9  H    1.281540   1.933398   2.918813   2.891394   3.765827
    10  C    1.439933   2.106353   4.772215   4.327564   5.637863
    11  C    2.644194   3.220474   5.720518   5.201524   6.649370
    12  H    3.704545   4.242152   6.625859   6.066488   7.587701
    13  C    1.527003   2.173253   4.682703   4.663650   5.232415
    14  H    2.150725   2.398801   4.457333   4.561072   4.796183
    15  H    2.150960   2.630589   5.650553   5.513663   6.179907
    16  H    2.155249   3.046091   4.956859   5.098697   5.575914
                    6          7          8          9         10
     6  H    0.000000
     7  O    2.072483   0.000000
     8  O    2.522302   1.429388   0.000000
     9  H    3.423245   1.995973   1.132298   0.000000
    10  C    5.259806   4.123520   3.179528   2.193360   0.000000
    11  C    6.081030   5.186029   4.100031   3.255322   1.204355
    12  H    6.899412   6.165828   5.012451   4.254433   2.264722
    13  C    5.392448   3.511368   3.145587   2.186161   2.496214
    14  H    5.275659   3.251782   3.339088   2.571905   3.403131
    15  H    6.394123   4.549242   4.155668   3.119652   2.687981
    16  H    5.498325   3.668635   3.077838   2.343267   2.846452
                   11         12         13         14         15
    11  C    0.000000
    12  H    1.060369   0.000000
    13  C    3.561067   4.556106   0.000000
    14  H    4.538137   5.561274   1.080362   0.000000
    15  H    3.552635   4.445720   1.082775   1.762684   0.000000
    16  H    3.761019   4.676247   1.081299   1.759000   1.758017
                   16
    16  H    0.000000
 Stoichiometry    C5H9O2(2)
 Framework group  C1[X(C5H9O2)]
 Deg. of freedom    42
 Full point group                 C1      NOp   1
 Largest Abelian subgroup         C1      NOp   1
 Largest concise Abelian subgroup C1      NOp   1
                         Standard orientation:                         
 ---------------------------------------------------------------------
 Center     Atomic      Atomic             Coordinates (Angstroms)
 Number     Number       Type             X           Y           Z
 ---------------------------------------------------------------------
      1          6           0       -0.906808    0.350743   -0.429005
      2          1           0       -0.563281    0.306642   -1.460613
      3          6           0        2.777866   -0.658123   -0.463610
      4          1           0        2.174831   -1.220259   -1.177798
      5          1           0        3.577936   -0.134431   -0.983624
      6          1           0        3.198935   -1.335432    0.277970
      7          8           0        2.017529    0.363193    0.159067
      8          8           0        0.990823   -0.291520    0.907649
      9          1           0        0.059221    0.026864    0.348321
     10          6           0       -1.984927   -0.569929   -0.177153
     11          6           0       -2.877860   -1.345153    0.051258
     12          1           0       -3.665751   -2.026240    0.250585
     13          6           0       -1.187541    1.788774    0.001103
     14          1           0       -0.420602    2.445296   -0.383560
     15          1           0       -2.150173    2.105255   -0.380444
     16          1           0       -1.202316    1.861052    1.079883
 ---------------------------------------------------------------------
 Rotational constants (GHZ):           4.1999100           1.2027913           1.0298586
 Standard basis: CC-pVTZ (5D, 7F)
 There are   380 symmetry adapted cartesian basis functions of A   symmetry.
 There are   336 symmetry adapted basis functions of A   symmetry.
   336 basis functions,   517 primitive gaussians,   380 cartesian basis functions
    28 alpha electrons       27 beta electrons
       nuclear repulsion energy       283.2948510227 Hartrees.
 NAtoms=   16 NActive=   16 NUniq=   16 SFac= 1.00D+00 NAtFMM=   60 NAOKFM=F Big=F
 Integral buffers will be    131072 words long.
 Raffenetti 2 integral format.
 Two-electron integral symmetry is turned on.
 Nuclear repulsion after empirical dispersion term =      283.2868205590 Hartrees.
 One-electron integrals computed using PRISM.
 NBasis=   336 RedAO= T EigKep=  4.12D-05  NBF=   336
 NBsUse=   336 1.00D-06 EigRej= -1.00D+00 NBFU=   336
 Initial guess from the checkpoint file:  "/localscratch/339753/Gau-45703.chk"
 B after Tr=     0.000000    0.000000    0.000000
         Rot=    0.999955   -0.001519   -0.001614   -0.009199 Ang=  -1.08 deg.
 Initial guess <Sx>= 0.0000 <Sy>= 0.0000 <Sz>= 0.5000 <S**2>= 0.7720 S= 0.5109
 ExpMin= 1.03D-01 ExpMax= 1.53D+04 ExpMxC= 5.22D+02 IAcc=3 IRadAn=         5 AccDes= 0.00D+00
 Harris functional with IExCor=  419 and IRadAn=       5 diagonalized for initial guess.
 HarFok:  IExCor=  419 AccDes= 0.00D+00 IRadAn=         5 IDoV= 1 UseB2=F ITyADJ=14
 ICtDFT=  3500011 ScaDFX=  1.000000  1.000000  1.000000  1.000000
 FoFCou: FMM=F IPFlag=           0 FMFlag=      100000 FMFlg1=           0
         NFxFlg=           0 DoJE=T BraDBF=F KetDBF=T FulRan=T
         wScrn=  0.000000 ICntrl=       500 IOpCl=  0 I1Cent=   200000004 NGrid=           0
         NMat0=    1 NMatS0=      1 NMatT0=    0 NMatD0=    1 NMtDS0=    0 NMtDT0=    0
 Petite list used in FoFCou.
 Requested convergence on RMS density matrix=1.00D-08 within 128 cycles.
 Requested convergence on MAX density matrix=1.00D-06.
 Requested convergence on             energy=1.00D-06.
 No special actions if energy rises.
 Integral accuracy reduced to 1.0D-05 until final iterations.
 Initial convergence to 1.0D-05 achieved.  Increase integral accuracy.
 SCF Done:  E(UB2PLYPD3) =  -345.570188192     A.U. after   20 cycles
            NFock= 20  Conv=0.39D-08     -V/T= 2.0041
 <Sx>= 0.0000 <Sy>= 0.0000 <Sz>= 0.5000 <S**2>= 0.7821 S= 0.5159
 <L.S>=  0.00000000000    
 Annihilation of the first spin contaminant:
 S**2 before annihilation     0.7821,   after     0.7507
 DoSCS=T DFT=T ScalE2(SS,OS)=  0.270000  0.270000
 ExpMin= 1.03D-01 ExpMax= 1.53D+04 ExpMxC= 5.22D+02 IAcc=3 IRadAn=         5 AccDes= 0.00D+00
 HarFok:  IExCor=  205 AccDes= 0.00D+00 IRadAn=         5 IDoV=-2 UseB2=F ITyADJ=14
 ICtDFT= 12500011 ScaDFX=  1.000000  1.000000  1.000000  1.000000
 Range of M.O.s used for correlation:     8   336
 NBasis=   336 NAE=    28 NBE=    27 NFC=     7 NFV=     0
 NROrb=    329 NOA=    21 NOB=    20 NVA=   308 NVB=   309

 **** Warning!!: The largest alpha MO coefficient is  0.31169489D+02


 **** Warning!!: The largest beta MO coefficient is  0.31019919D+02

 DoSCS=T DFT=T ScalE2(SS,OS)=  0.270000  0.270000
 Disk-based method using ON**2 memory for 21 occupieds at a time.
 Estimated scratch disk usage=  1957770696 words.
 Actual    scratch disk usage=  1794478536 words.
 JobTyp=2 Pass  1:  I=   8 to  28 NPSUse= 40 ParTrn=T ParDer=T DoDerP=T.
 (rs|ai) integrals will be sorted in core.
 Actual    scratch disk usage=  1794478536 words.
 JobTyp=3 Pass  1:  I=   8 to  27 NPSUse= 40 ParTrn=T ParDer=T DoDerP=T.
 (rs|ai) integrals will be sorted in core.
 Spin components of T(2) and E(2):
     alpha-alpha T2 =       0.7910720626D-01 E2=     -0.5370538595D-01
     alpha-beta  T2 =       0.4686584286D+00 E2=     -0.3269706171D+00
     beta-beta   T2 =       0.8571145774D-01 E2=     -0.5267224005D-01
 (S**2,0)=  0.78208D+00           (S**2,1)=  0.74675D+00
 Scaling Projection term by:   0.270000
 E(PUHF)=      -0.34557760467D+03        E(PMP2)=      -0.34600445059D+03
 E2(B2PLYPD3) =    -0.4333482431D+00 E(B2PLYPD3) =    -0.34600353643483D+03
          IDoAtm=1111111111111111
          Differentiating once with respect to electric field.
                with respect to dipole field.
          Differentiating once with respect to nuclear coordinates.
 Keep R1 and R2 ints in memory in canonical form, NReq=3251778068.
          There are     1 degrees of freedom in the 1st order CPHF.  IDoFFX=0 NUNeed=     1.
 LinEq1:  Iter=  0 NonCon=     1 RMS=9.14D-04 Max=4.03D-02 NDo=     1
 AX will form     1 AO Fock derivatives at one time.
 LinEq1:  Iter=  1 NonCon=     1 RMS=3.12D-04 Max=8.63D-03 NDo=     1
 LinEq1:  Iter=  2 NonCon=     1 RMS=2.09D-04 Max=6.56D-03 NDo=     1
 LinEq1:  Iter=  3 NonCon=     1 RMS=1.48D-04 Max=5.91D-03 NDo=     1
 LinEq1:  Iter=  4 NonCon=     1 RMS=8.70D-05 Max=3.79D-03 NDo=     1
 LinEq1:  Iter=  5 NonCon=     1 RMS=5.49D-05 Max=2.04D-03 NDo=     1
 LinEq1:  Iter=  6 NonCon=     1 RMS=2.43D-05 Max=5.69D-04 NDo=     1
 LinEq1:  Iter=  7 NonCon=     1 RMS=7.91D-06 Max=2.42D-04 NDo=     1
 LinEq1:  Iter=  8 NonCon=     1 RMS=4.76D-06 Max=1.74D-04 NDo=     1
 LinEq1:  Iter=  9 NonCon=     1 RMS=3.35D-06 Max=1.04D-04 NDo=     1
 LinEq1:  Iter= 10 NonCon=     1 RMS=1.84D-06 Max=3.98D-05 NDo=     1
 LinEq1:  Iter= 11 NonCon=     1 RMS=8.89D-07 Max=3.55D-05 NDo=     1
 LinEq1:  Iter= 12 NonCon=     1 RMS=3.18D-07 Max=7.64D-06 NDo=     1
 LinEq1:  Iter= 13 NonCon=     1 RMS=1.19D-07 Max=2.20D-06 NDo=     1
 LinEq1:  Iter= 14 NonCon=     1 RMS=4.65D-08 Max=1.51D-06 NDo=     1
 LinEq1:  Iter= 15 NonCon=     1 RMS=2.35D-08 Max=4.29D-07 NDo=     1
[...]

 ----------------------------------------------------------------------

 Dipole orientation:
     6         -1.53095472         -0.60849441          1.18057712
     1         -1.72348884          0.15864663          3.07932015
     6          2.13723083          5.44503818          1.86230126
     1          0.90612984          4.74488046          3.35939901
     1          4.02565244          5.78076474          2.60086924
     1          1.35837244          7.17445042          1.06842484
     8          2.44590265          3.58774404         -0.05983792
     8          0.10325676          3.18712293         -1.20114205
     1         -0.82009928          1.40980268         -0.07685741
     6         -3.87890657         -1.32630988          0.08808526
     6         -5.85221988         -1.90040455         -0.91248022
     1         -7.58673992         -2.41142534         -1.77435802
     6          0.68838063         -2.38026861          0.84158022
     1          2.43740340         -1.43945081          1.37544718
     1          0.46408506         -4.05928107          2.01892771
     1          0.83983232         -2.98298319         -1.11676762

 Electric dipole moment (dipole orientation):
 (Debye = 10**-18 statcoulomb cm , SI units = C m)
                  (au)            (Debye)         (10**-30 SI)
   Tot        0.809191D+00      0.205676D+01      0.686061D+01
   x          0.000000D+00      0.000000D+00      0.000000D+00
   y          0.000000D+00      0.000000D+00      0.000000D+00
   z          0.809191D+00      0.205676D+01      0.686061D+01

 Dipole polarizability, Alpha (dipole orientation).
 (esu units = cm**3 , SI units = C**2 m**2 J**-1)
 Alpha(0;0):
               (au)            (10**-24 esu)      (10**-40 SI)
   iso        0.898776D+02      0.133185D+02      0.148188D+02
   aniso      0.857038D+02      0.127000D+02      0.141306D+02
   xx         0.107827D+03      0.159784D+02      0.177783D+02
   yx         0.397367D+02      0.588837D+01      0.655170D+01
   yy         0.102715D+03      0.152208D+02      0.169354D+02
   zx         0.120628D+02      0.178753D+01      0.198889D+01
   zy         0.253754D+01      0.376024D+00      0.418383D+00
   zz         0.590904D+02      0.875629D+01      0.974269D+01

 ----------------------------------------------------------------------
 1\1\GINC-N58\Freq\UB2PLYPD3-FC\CC-pVTZ\C5H9O2(2)\ROOT\04-Jun-2019\0\\#
 N Geom=AllCheck Guess=TCheck SCRF=Check GenChk UB2PLYPD3(FC)/CC-pVTZ F
 req\\Title Card Required\\0,2\C,-0.8562552074,0.3730140182,-0.52725966
 13\H,-1.0393954312,0.0569577333,-1.5525950728\C,1.0385766471,-2.779166
 2539,-1.3229851528\H,0.3273014337,-2.3424937628,-2.0249273422\H,2.0028
 929992,-2.9181101526,-1.8064329457\H,0.6580157756,-3.7292850568,-0.953
 7538135\O,1.2860033158,-1.8893556927,-0.239349355\O,0.0992102301,-1.73
 58619567,0.4779075693\H,-0.431983272,-0.7482421606,0.0091618511\C,-2.0
 473146279,0.695973438,0.1793871746\C,-3.0449057124,0.9481694899,0.8152
 086735\H,-3.9225082518,1.1740417355,1.3651358099\C,0.3320379174,1.2952
 498537,-0.3600819545\H,1.2303326124,0.8275367299,-0.7583492658\H,0.167
 16667,2.2348353823,-0.8908065836\H,0.4957162714,1.5217751153,0.6906264
 489\\Version=ES64L-G16RevB.01\State=2-A\HF=-345.5760747\MP2=-346.01003
 19\PUHF=-345.5843264\PMP2-0=-346.0110672\S2=0.787664\S2-1=0.746737\S2A
 =0.750946\RMSD=8.368e-10\RMSF=2.683e-06\ZeroPoint=0.1231876\Thermal=0.
 1328693\Dipole=-0.0645462,0.0714108,-0.8034456\DipoleDeriv=0.6200228,-
 0.4871212,-0.065469,-0.7230167,1.2268524,0.0616705,0.1042562,-0.248411
 4,0.163681,-0.0355508,0.0007532,0.0042859,0.0981042,-0.1175185,-0.0410
 027,-0.0295629,-0.0061112,-0.0647503,0.2725035,0.0448896,0.0475714,-0.
 2336714,0.6916817,0.1401664,-0.2247689,0.4383759,0.474596,0.0030292,-0
 .0076897,-0.1168914,0.1165433,-0.0608024,0.0549579,0.0084048,-0.065613
 2,-0.0584002,-0.0732993,0.0343189,0.073776,0.0214255,0.0264481,-0.0386
 045,0.079216,-0.0819868,0.013796,0.0700445,-0.1044862,-0.0102654,0.025
 628,-0.1573553,-0.0197098,0.0513971,0.048119,-0.0015645,-1.0027351,0.9
 524943,0.0394861,0.0903173,-0.4425271,-0.05827,0.5780485,-0.8479444,-0
 .3899286,0.922208,-1.3758657,-0.0959804,-0.5107444,0.4414468,-0.033545
 7,-0.3007757,0.2239572,-0.1755342,-0.3985715,0.6645125,0.0747804,0.907
 8605,-1.137605,-0.0570132,-0.3551985,0.5581572,0.1133669,-0.3543759,0.
 2906694,-0.0413427,0.0803428,-0.3138279,0.0016003,0.0737264,-0.1371493
 ,-0.0906328,-0.3150498,-0.0110531,0.0494815,0.0408904,-0.2291544,-0.02
 04854,0.0492386,0.0103484,-0.2480005,0.247845,-0.0231306,-0.0086499,-0
 .0109691,0.2210845,0.0057765,-0.017744,0.0150038,0.216823,-0.0425374,0
 .1187745,0.014195,0.0634232,-0.1477475,-0.0261205,-0.0029176,0.1390542
 ,0.0428592,-0.0444749,-0.0061558,0.0535241,0.058414,0.0528706,-0.03325
 56,0.0343567,-0.0329645,0.0445503,0.0800207,-0.0668836,-0.0219232,-0.0
 037843,-0.1148213,0.0748118,-0.0114526,0.0429306,0.0366119,0.0509209,-
 0.0240263,0.0034217,-0.0207632,0.0609755,-0.0109762,-0.0362241,-0.0557
 655,-0.0774733\Polar=105.3205645,-37.8718782,101.6571411,-19.1813398,9
 .328649,62.6551327\PG=C01 [X(C5H9O2)]\NImag=1\\0.47235806,0.07364767,0
 .24570152,-0.05988589,0.13047824,0.52010357,-0.05506521,-0.02075500,-0
 .04234440,0.06111328,-0.02051337,-0.04693168,-0.07014363,0.01933639,0.
 05843978,-0.03941930,-0.08469516,-0.28683288,0.04149549,0.08585175,0.3
 0685200,0.00125261,-0.00049911,0.00140188,-0.00009770,-0.00013703,-0.0
 0035753,0.62120311,0.00262261,-0.00784676,0.00163894,-0.00013100,0.001
 14970,-0.00051763,-0.00461454,0.52926996,0.00539226,-0.00960851,0.0057
 6881,-0.00036772,0.00105000,-0.00116168,-0.02702260,-0.07398339,0.4931
 5108,-0.00075139,0.00151557,-0.00090802,0.00011505,0.00020903,0.000230
 37,-0.16197883,0.07361715,-0.10395456,0.17035004,-0.00036658,0.0010368
 4,0.00018309,0.00041603,-0.00085203,0.00003651,0.07747833,-0.10222297,
 0.07454578,-0.07738139,0.10499548,-0.00101415,0.00242030,-0.00093999,0
 .00024914,-0.00059147,0.00051982,-0.09939717,0.07264301,-0.14538356,0.
 12017194,-0.07063679,0.16654412,0.00011820,-0.00030333,0.00007065,0.00
 002879,-0.00008093,0.00006514,-0.26956552,0.02885543,0.10612109,-0.015
 66250,0.00086644,0.00930643,0.28453515,-0.00022747,0.00048421,-0.00010
 506,0.00000402,-0.00005343,0.00001244,0.02144341,-0.05440764,-0.010278
 33,0.01223046,-0.00103034,-0.00578936,-0.03141183,0.05542857,-0.000466
 47,0.00074756,-0.00019596,0.00007025,-0.00026995,0.00013886,0.09632874
 ,-0.01266706,-0.09753265,-0.01785844,0.00247544,0.01144372,-0.11527051
 ,0.02136407,0.11085735,-0.00070073,0.00089564,-0.00068145,0.00006901,-
 0.00005040,0.00012423,-0.08389407,-0.07861509,0.03357000,0.00812344,0.
 01947679,-0.00857391,-0.00747768,-0.02447709,0.00967871,0.08392944,-0.
 00079073,0.00162965,-0.00049801,0.00002069,-0.00028535,0.00007359,-0.0
 7568007,-0.24427763,0.08780673,-0.00514450,-0.01007659,0.00665519,0.00
 223884,0.00669490,-0.00121739,0.09025831,0.27103267,-0.00026658,0.0005
 0812,-0.00053105,0.00011269,-0.00004346,0.00013644,0.03847682,0.094716
 99,-0.08831039,0.00775597,0.01684998,-0.00541847,0.00266927,0.01172193
 ,-0.00371307,-0.03390064,-0.08709859,0.09390026,0.01500300,-0.03702975
 ,0.01108503,-0.00144157,0.00555948,-0.00272383,-0.09387780,-0.03146174
 ,-0.02836848,-0.00316792,-0.01724198,-0.01787906,0.00398825,0.02148751
 ,0.02654183,-0.00199782,-0.00934655,-0.01088673,0.29895525,-0.00027555
 ,0.00327625,-0.00017038,-0.00009676,-0.00033159,0.00052414,-0.05080045
 ,-0.12569053,-0.06233724,-0.00217572,0.00738957,-0.00410499,-0.0001832
 0,-0.00415039,-0.00471904,-0.00876246,-0.02643123,-0.03775815,0.026173
 82,0.19331518,-0.01363393,0.02872864,-0.00969200,0.00112128,-0.0044352
 0,0.00205913,-0.05516714,-0.06962315,-0.12986712,-0.00750278,-0.026533
 84,-0.03227411,-0.00117734,-0.01192226,-0.01559581,-0.00002203,-0.0098
 0589,-0.00005012,-0.03617158,0.13944310,0.25878677,-0.04029305,0.09608
 801,-0.03426458,0.00255556,-0.01012286,0.00461670,-0.01276894,0.016648
 39,0.02490007,0.00137932,-0.00407200,-0.00518474,0.00422017,0.00071763
 ,0.00063497,0.00122558,-0.00333971,-0.00479959,-0.16554322,0.01576610,
 0.08776150,0.15821976,0.05020905,-0.10694435,0.03963889,-0.00192314,0.
 00801870,-0.00288572,0.03233488,-0.00603099,-0.02375015,-0.00067060,0.
 00217167,0.00361552,-0.00037621,-0.00269540,-0.00504793,0.00276792,0.0
 0450783,0.00200986,-0.02425055,-0.04445953,0.00613579,0.00300357,0.078
 42689,-0.01512503,0.02745193,-0.00944219,0.00016625,0.00063603,0.00061
 756,0.04288869,-0.00714606,-0.03197592,0.00180006,0.00206172,0.0042536
 8,-0.00143949,-0.00492815,-0.00492080,-0.00062715,0.00307463,0.0037233
 3,0.07362504,-0.01888138,-0.09389430,-0.11664130,-0.01047402,0.1608683
 4,0.00434516,-0.05448932,0.01899429,-0.00253271,0.00917240,-0.00470709
 ,0.00017423,-0.00487394,-0.00717971,0.00122405,0.00071391,0.00176166,-
 0.00007455,0.00006132,0.00005554,0.00043581,0.00123669,0.00066591,-0.0
 4470605,0.01792289,0.01922593,0.03473526,-0.04651501,0.01186906,0.0296
 5334,-0.05353058,0.08134673,-0.02842922,0.00274787,-0.01232196,0.00462
 539,-0.00021027,0.00795307,0.01331526,-0.00154492,-0.00125000,-0.00361
 142,0.00020360,0.00003281,-0.00034233,-0.00110859,-0.00237182,-0.00084
 317,0.05419623,-0.00180413,-0.04282640,-0.09222662,0.04826979,0.009369
 54,0.06183912,-0.06758394,0.02724063,-0.04565617,-0.01423454,-0.007010
 99,0.01895730,-0.01150154,0.00343738,-0.00516703,-0.00382199,0.0001698
 2,0.00093282,0.00104146,-0.00041666,-0.00006974,-0.00061309,0.00030192
 ,0.00104982,0.00016222,-0.01474347,-0.01144775,0.01974616,0.04269237,-
 0.01171208,-0.02826885,-0.04278781,0.04599879,0.03303467,-0.21330710,0
 .01318030,0.10859606,0.00281374,0.00478292,0.00095667,-0.00057135,-0.0
 0189368,-0.00297904,0.00042828,0.00038737,0.00071646,-0.00008526,0.000
 14056,0.00026938,0.00033586,0.00052886,0.00013786,-0.00956010,0.001949
 78,0.00697074,0.01947408,-0.02010267,0.00467325,-0.02424088,0.03939645
 ,-0.01404225,0.96172785,0.03727932,-0.05931923,-0.04230010,0.00855595,
 -0.00282220,-0.00298864,0.00019114,0.00137058,0.00194802,-0.00034750,-
 0.00000679,-0.00036272,0.00010855,-0.00013002,-0.00013122,-0.00017006,
 -0.00030816,-0.00009604,0.00596751,-0.00130877,-0.00405779,-0.01022652
 ,0.00928362,-0.00121510,0.02169253,-0.02214021,-0.00020405,-0.21433366
 ,0.14179994,0.08765694,-0.02211028,-0.13036941,0.03043696,-0.01217107,
 -0.01366354,0.00007079,0.00053535,0.00060725,-0.00005962,-0.00008395,-
 0.00010392,0.00006338,-0.00006501,-0.00006779,-0.00007021,-0.00020660,
 0.00005820,0.00313999,-0.00056755,-0.00263112,-0.00785583,0.00944707,-
 0.00250121,0.00221489,-0.01528960,0.01119350,-0.54395456,0.14482414,0.
 43081681,-0.01573815,0.00947071,0.01083628,-0.00270578,-0.00079635,-0.
 00001527,0.00018151,-0.00012772,0.00011922,-0.00008125,-0.00011324,-0.
 00011147,-0.00000100,0.00000833,-0.00001323,-0.00005671,0.00000651,-0.
 00000653,0.00115251,-0.00029320,-0.00055492,-0.00234302,0.00418733,-0.
 00203670,0.00211673,-0.00778339,0.00517690,-0.70693591,0.17195159,0.42
 826146,1.01920085,0.00614720,0.00348015,-0.00326161,0.00050461,0.00086
 635,-0.00033805,-0.00003521,0.00012069,0.00003881,-0.00001946,-0.00000
 490,0.00001777,0.00000620,-0.00001164,-0.00000908,-0.00000834,0.000004
 75,-0.00001263,0.00003449,-0.00003967,0.00003138,-0.00009529,0.0000227
 2,0.00009654,-0.00074246,0.00115105,-0.00028050,0.17241977,-0.07395342
 ,-0.10787048,-0.24946230,0.10647360,0.01362020,-0.00607862,-0.00101231
 ,0.00040433,0.00062762,0.00046367,-0.00022294,0.00005913,-0.00025386,0
 .00007381,0.00004778,0.00008998,0.00000387,0.00001446,0.00003196,0.000
 04938,0.00001686,0.00000945,-0.00075575,0.00027694,0.00055194,0.001941
 30,-0.00342779,0.00170035,-0.00099369,0.00563311,-0.00398535,0.4294059
 1,-0.10776830,-0.30093161,-0.61651148,0.15776021,0.43190117,0.00209027
 ,0.00156163,0.00255888,-0.00056326,0.00014816,0.00024858,0.00002567,0.
 00019334,0.00022436,-0.00002676,-0.00002040,-0.00003938,0.00001078,-0.
 00001995,-0.00003094,-0.00002248,-0.00004336,-0.00001066,0.00047714,-0
 .00012615,-0.00041948,-0.00062249,0.00020084,0.00018693,0.00035746,-0.
 00042988,0.00014885,0.00531937,-0.00143148,-0.00336662,-0.29714407,0.0
 7121987,0.17403162,0.28964672,0.00104718,0.00527357,0.00010444,-0.0002
 0185,0.00005286,0.00001390,-0.00000339,-0.00007686,-0.00009646,0.00002
 331,0.00000686,0.00000972,-0.00001091,0.00001042,0.00001203,0.00001507
 ,0.00000635,0.00000942,-0.00025254,0.00005259,0.00017561,0.00024323,-0
 .00009752,-0.00011109,-0.00049842,0.00034543,0.00021620,-0.00176589,0.
 00116214,0.00068521,0.07148353,-0.03763927,-0.04550284,-0.07099184,0.0
 3125114,0.00246752,-0.00019664,0.00450481,-0.00093412,0.00027100,0.000
 36378,0.00002731,-0.00007515,-0.00002973,-0.00000156,0.00001263,-0.000
 00371,-0.00000918,0.00000634,0.00000682,0.00000434,0.00001868,-0.00000
 139,-0.00021077,0.00003902,0.00015137,0.00026694,-0.00011469,-0.000112
 04,0.00018830,0.00008285,-0.00019321,-0.00229609,0.00018303,0.00199925
 ,0.17325285,-0.04513805,-0.12804401,-0.17317522,0.04498461,0.12164597,
 -0.14139498,-0.06405308,-0.01162842,-0.00218968,-0.00469807,0.00000008
 ,-0.00016077,-0.00055721,-0.00120059,0.00026670,0.00010427,0.00019179,
 -0.00010965,0.00016321,0.00012736,0.00009921,0.00013185,0.00011515,-0.
 00328578,-0.00019310,0.00339971,0.00498044,-0.00059807,-0.00192156,-0.
 00134218,0.00280886,-0.00144129,-0.03513520,-0.01563371,0.00715291,0.0
 0297778,-0.00088238,-0.00192410,0.00037969,0.00086142,0.00031562,0.505
 86213,-0.06899582,-0.10395379,-0.02358595,-0.00559856,-0.00468287,0.00
 090168,0.00057396,0.00071339,0.00170876,-0.00029211,-0.00015744,-0.000
 32104,0.00007508,-0.00014578,-0.00022307,-0.00025208,-0.00018073,-0.00
 005630,0.00468525,0.00059088,-0.00454852,-0.01163671,0.00838944,-0.000
 98729,-0.00264613,-0.03172086,0.00827652,0.00492170,0.00896325,0.00527
 458,0.00356263,-0.00134653,-0.00347711,-0.00036252,-0.00048577,-0.0001
 2529,-0.04962579,0.51480569,-0.00494127,-0.02169859,-0.07739086,-0.023
 81213,-0.02090190,0.00023897,-0.00043232,-0.00068859,-0.00171727,0.000
 20023,0.00017115,0.00033501,-0.00001800,0.00006883,0.00020518,0.000214
 88,0.00021631,0.00012412,-0.00316283,-0.00000807,0.00341253,0.00688707
 ,-0.00387573,-0.00018672,-0.00038052,0.01450746,-0.00396038,0.01218301
 ,0.01271027,0.00285558,0.00151529,-0.00118777,-0.00068692,-0.00030894,
 -0.00053548,-0.00021254,-0.01375613,0.00760896,0.57614443,-0.02135913,
 0.00986587,0.01080466,0.00085647,-0.00009923,-0.00030714,0.00005822,-0
 .00002852,0.00020117,-0.00009371,-0.00012236,-0.00008460,0.00001577,-0
 .00002593,-0.00000447,-0.00002423,-0.00000119,-0.00003520,0.00126523,0
 .00060146,-0.00139077,-0.00135235,0.00008079,0.00117042,-0.00022952,0.
 00027853,0.00008263,-0.00350527,-0.00327661,-0.00173270,-0.00054754,0.
 00013595,0.00051337,0.00014589,0.00016528,0.00007675,-0.22713681,0.096
 05724,0.08030718,0.25014486,-0.01933280,0.00850962,0.00963896,0.001021
 18,0.00056371,-0.00009800,0.00001079,-0.00032758,-0.00060138,0.0000107
 3,-0.00003161,0.00004000,-0.00000872,-0.00001158,0.00001972,0.00005325
 ,0.00012085,0.00010506,0.00053123,-0.00007032,-0.00025697,-0.00031688,
 0.00035827,0.00041630,-0.00070777,0.00058809,0.00022623,-0.00312389,-0
 .00283235,-0.00091321,-0.00098799,0.00048983,0.00085953,0.00009777,0.0
 0017895,0.00008740,0.09858440,-0.09851356,-0.04574890,-0.10258852,0.10
 603686,-0.00224433,0.00267990,0.00075451,0.00017730,0.00069812,0.00013
 537,-0.00004388,-0.00004436,0.00034197,-0.00009636,-0.00003981,-0.0000
 6376,0.00002860,-0.00001924,-0.00000455,-0.00004629,-0.00005074,-0.000
 11074,-0.00050047,-0.00011083,0.00005675,0.00052914,-0.00035723,-0.000
 42604,0.00022329,0.00027988,-0.00006093,-0.00098673,-0.00054825,0.0015
 2233,0.00018443,0.00009018,0.00015015,-0.00002660,0.00003722,-0.000034
 42,0.07980585,-0.04479588,-0.08619796,-0.08922493,0.04875801,0.0877061
 6,-0.00142174,-0.02255936,0.01224995,0.00073109,0.00103443,-0.00015437
 ,0.00013925,0.00038132,0.00063366,-0.00009358,-0.00007822,-0.00012779,
 0.00002960,-0.00007225,-0.00008595,-0.00005918,-0.00007301,-0.00001523
 ,0.00255267,0.00026542,-0.00224655,-0.00377795,0.00166347,0.00114274,0
 .00005387,-0.00514379,0.00141346,0.00175936,-0.00070430,-0.00081152,-0
 .00020333,0.00055403,-0.00007884,-0.00001106,-0.00005499,0.00003687,-0
 .05022632,0.03604635,-0.01983620,-0.00370412,0.02249947,-0.01436585,0.
 05580187,-0.00264420,-0.01822514,0.00813891,-0.00003572,0.00081140,-0.
 00041562,0.00006783,0.00031390,0.00047465,-0.00007828,-0.00001917,-0.0
 0006000,0.00002097,-0.00004078,-0.00004253,-0.00005274,-0.00007539,-0.
 00004803,0.00086288,-0.00014240,-0.00073638,-0.00097178,0.00069496,0.0
 0014734,-0.00168997,-0.00160984,0.00009752,0.00198781,-0.00015253,-0.0
 0148446,-0.00085428,0.00033281,0.00054924,0.00003164,-0.00003486,0.000
 00537,0.03995439,-0.23544168,0.11084326,0.00190469,-0.01163314,0.00697
 868,-0.03761902,0.25862575,0.00107414,-0.00253406,0.00151267,0.0003937
 7,0.00025600,0.00026509,0.00005491,0.00019253,0.00016891,-0.00004702,-
 0.00002859,-0.00004188,0.00000630,-0.00001804,-0.00003148,-0.00002916,
 -0.00001312,0.00000583,0.00063250,0.00005944,-0.00053313,-0.00126732,0
 .00071558,0.00019254,0.00086550,-0.00220317,0.00135477,-0.00000522,-0.
 00000887,0.00029243,0.00016591,-0.00013946,-0.00013143,0.00000686,0.00
 000749,-0.00001321,-0.02191189,0.10822881,-0.10915163,0.00155080,-0.01
 147173,0.00594522,0.02373881,-0.12091372,0.11458310,-0.00513581,-0.006
 53645,-0.02688491,-0.00368707,-0.00374457,-0.00005274,-0.00011962,-0.0
 0001481,-0.00008912,-0.00003093,-0.00004697,0.00001485,0.00002945,-0.0
 0002193,0.00002323,0.00001456,-0.00000263,-0.00001253,0.00018622,0.000
 22712,-0.00019264,-0.00008912,-0.00001160,0.00026880,0.00002998,0.0005
 0738,-0.00022148,0.00148253,0.00037724,-0.00114626,0.00012738,0.000223
 32,0.00044301,-0.00006286,-0.00005919,-0.00000956,-0.05358459,-0.00651
 248,-0.03465933,0.00546625,0.00425776,0.02658684,-0.00157044,-0.000884
 23,-0.00522891,0.05694407,-0.00427592,-0.00751758,-0.02132752,-0.00386
 470,-0.00162139,-0.00010059,-0.00012028,-0.00001033,-0.00023256,0.0000
 4821,0.00005140,0.00007628,0.00000003,0.00002608,0.00005079,0.00002988
 ,0.00000991,0.00003503,0.00008470,-0.00019590,0.00023187,0.00054145,0.
 00008387,0.00048907,-0.00047583,0.00111580,-0.00121788,0.00152427,0.00
 039414,-0.00000414,-0.00025214,0.00005348,0.00040979,-0.00002768,-0.00
 000604,-0.00004113,-0.00636700,-0.05683366,-0.05148121,-0.00294746,-0.
 00342604,-0.01355564,0.00386045,0.00659610,0.02787089,0.01224203,0.061
 28017,-0.00045475,-0.00043665,-0.00200318,-0.00015811,0.00020885,0.001
 36895,-0.00004294,0.00012645,0.00001615,0.00002616,0.00000607,0.000001
 59,-0.00000356,0.00000714,-0.00000870,0.00000738,-0.00002148,0.0000153
 6,0.00037857,-0.00023727,-0.00022696,-0.00021670,0.00008265,0.00037227
 ,-0.00001555,-0.00026697,0.00010708,0.00035457,0.00001563,0.00092326,-
 0.00026274,0.00020275,0.00014683,-0.00002823,-0.00001000,-0.00002774,-
 0.03732450,-0.05387886,-0.30381154,-0.00192717,-0.00106101,-0.00971407
 ,-0.00149319,-0.00353422,-0.01441781,0.04116077,0.05879693,0.32725851\
 \0.00000009,0.00000393,0.00000105,-0.00000072,0.00000252,-0.00000052,0
 .00000035,-0.00000080,-0.00000128,0.00000114,-0.00000090,0.00000047,0.
 00000025,-0.00000043,0.00000012,-0.00000066,0.00000022,-0.00000007,0.0
 0001018,-0.00000286,-0.00000415,-0.00000588,-0.00000521,0.00000662,-0.
 00000280,-0.00000186,-0.00000258,-0.00000096,-0.00000022,0.00000226,-0
 .00000024,0.00000031,0.00000028,-0.00000024,0.00000005,-0.00000043,0.0
 0000176,0.00000395,-0.00000383,-0.00000205,0.00000200,0.00000347,0.000
 00061,-0.00000058,-0.00000153,-0.00000084,-0.00000012,0.00000012\\\@


 GOD DOES NOT PLAY WITH DICE.
               -- A. EINSTEIN
 Job cpu time:       2 days  6 hours 52 minutes 30.5 seconds.
 Elapsed time:       0 days  1 hours 25 minutes 28.8 seconds.
 File lengths (MBytes):  RWF=  83473 Int=      0 D2E=      0 Chk=     18 Scr=      1
 Normal termination of Gaussian 16 at Tue Jun  4 14:53:24 2019.
