 Entering Gaussian System, Link 0=g16
 Initial command:
 /ichec/packages/gaussian/16b01/l1.exe "/localscratch/353443/Gau-87263.inp" -scrdir="/localscratch/353443/"
 Entering Link 1 = /ichec/packages/gaussian/16b01/l1.exe PID=     87375.
  
 Copyright (c) 1988-2017, Gaussian, Inc.  All Rights Reserved.
  
 This is part of the Gaussian(R) 16 program.  It is based on
 the Gaussian(R) 09 system (copyright 2009, Gaussian, Inc.),
 the Gaussian(R) 03 system (copyright 2003, Gaussian, Inc.),
 the Gaussian(R) 98 system (copyright 1998, Gaussian, Inc.),
 the Gaussian(R) 94 system (copyright 1995, Gaussian, Inc.),
 the Gaussian 92(TM) system (copyright 1992, Gaussian, Inc.),
 the Gaussian 90(TM) system (copyright 1990, Gaussian, Inc.),
 the Gaussian 88(TM) system (copyright 1988, Gaussian, Inc.),
 the Gaussian 86(TM) system (copyright 1986, Carnegie Mellon
 University), and the Gaussian 82(TM) system (copyright 1983,
 Carnegie Mellon University). Gaussian is a federally registered
 trademark of Gaussian, Inc.
  
 This software contains proprietary and confidential information,
 including trade secrets, belonging to Gaussian, Inc.
  
 This software is provided under written license and may be
 used, copied, transmitted, or stored only in accord with that
 written license.
  
 The following legend is applicable only to US Government
 contracts under FAR:
  
                    RESTRICTED RIGHTS LEGEND
  
 Use, reproduction and disclosure by the US Government is
 subject to restrictions as set forth in subparagraphs (a)
 and (c) of the Commercial Computer Software - Restricted
 Rights clause in FAR 52.227-19.
  
 Gaussian, Inc.
 340 Quinnipiac St., Bldg. 40, Wallingford CT 06492
  
  
 ---------------------------------------------------------------
 Warning -- This program may not be used in any manner that
 competes with the business of Gaussian, Inc. or will provide
 assistance to any competitor of Gaussian, Inc.  The licensee
 of this program is prohibited from giving any competitor of
 Gaussian, Inc. access to this program.  By using this program,
 the user acknowledges that Gaussian, Inc. is engaged in the
 business of creating and licensing software in the field of
 computational chemistry and represents and warrants to the
 licensee that it is not a competitor of Gaussian, Inc. and that
 it will not use this program in any manner prohibited above.
 ---------------------------------------------------------------
  

 Cite this work as:
 Gaussian 16, Revision B.01,
 M. J. Frisch, G. W. Trucks, H. B. Schlegel, G. E. Scuseria, 
 M. A. Robb, J. R. Cheeseman, G. Scalmani, V. Barone, 
 G. A. Petersson, H. Nakatsuji, X. Li, M. Caricato, A. V. Marenich, 
 J. Bloino, B. G. Janesko, R. Gomperts, B. Mennucci, H. P. Hratchian, 
 J. V. Ortiz, A. F. Izmaylov, J. L. Sonnenberg, D. Williams-Young, 
 F. Ding, F. Lipparini, F. Egidi, J. Goings, B. Peng, A. Petrone, 
 T. Henderson, D. Ranasinghe, V. G. Zakrzewski, J. Gao, N. Rega, 
 G. Zheng, W. Liang, M. Hada, M. Ehara, K. Toyota, R. Fukuda, 
 J. Hasegawa, M. Ishida, T. Nakajima, Y. Honda, O. Kitao, H. Nakai, 
 T. Vreven, K. Throssell, J. A. Montgomery, Jr., J. E. Peralta, 
 F. Ogliaro, M. J. Bearpark, J. J. Heyd, E. N. Brothers, K. N. Kudin, 
 V. N. Staroverov, T. A. Keith, R. Kobayashi, J. Normand, 
 K. Raghavachari, A. P. Rendell, J. C. Burant, S. S. Iyengar, 
 J. Tomasi, M. Cossi, J. M. Millam, M. Klene, C. Adamo, R. Cammi, 
 J. W. Ochterski, R. L. Martin, K. Morokuma, O. Farkas, 
 J. B. Foresman, and D. J. Fox, Gaussian, Inc., Wallingford CT, 2016.
 
 ******************************************
 Gaussian 16:  ES64L-G16RevB.01 20-Dec-2017
                24-Jun-2019 
 ******************************************
 %mem=80GB
 %nproc=40
 Will use up to   40 processors via shared memory.
 ----------------------------------------------------------------------
 # opt=(calcfc,ts,noeigentest,maxcyc=500) freq=noraman uB2PLYPD3/cc-pvt
 z
 ----------------------------------------------------------------------
 1/5=1,6=500,10=4,11=1,18=20,38=1/1,3;
 2/9=110,12=2,17=6,18=5,40=1/2;
 3/5=16,6=1,11=2,25=1,30=1,71=2,74=-60,116=2,140=1/1,2,3;
 4//1;
 5/5=2,38=5/2;
 8/6=3,8=1,10=1,19=11,30=-1/1;
 9/15=3,16=-3/6;
 11/6=1,8=1,15=11,17=12,24=-1,27=1,28=-2,29=300,32=6,42=3/1,2,10;
 10/6=2,21=1/2;
 8/6=4,8=1,10=1,19=11,30=-1/11,4;
 10/5=1,20=4/2;
 11/12=2,14=11,16=1,17=2,28=-2,42=3,76=2/2,10,12;
 6/7=2,8=2,9=2,10=2/1;
 7/10=1,12=2,25=1,44=2/1,2,3,16;
 1/5=1,6=500,10=4,11=1,18=20/3(2);
 2/9=110/2;
 99//99;
 2/9=110/2;
 3/5=16,6=1,11=2,25=1,30=1,71=1,74=-60,116=2/1,2,3;
 4/5=5,16=3,69=1/1;
 5/5=2,38=5/2;
 8/6=4,10=1/1;
 9/15=2,16=-3/6;
 10/5=1/2;
 7/12=2/1,2,3,16;
 1/5=1,6=500,11=1,18=20/3(-8);
 2/9=110/2;
 6/7=2,8=2,9=2,10=2/1;
 99/9=10/99;
 -------------------
 Title Card Required
 -------------------
 Symbolic Z-matrix:
 Charge =  0 Multiplicity = 2
 C                    -0.79908   1.04661  -0.57598 
 H                    -0.66456   1.38085  -1.60228 
 C                     2.1888   -1.25377  -0.44249 
 H                     3.16596  -0.85975  -0.71502 
 H                     2.27772  -2.27532  -0.0802 
 H                     1.51448  -1.21955  -1.29722 
 O                     1.64704  -0.51608   0.65018 
 O                     1.57323   0.82322   0.27605 
 H                     0.4597    0.94343  -0.16533 
 C                    -1.26362  -0.28888  -0.46686 
 C                    -1.60563  -1.44203  -0.32777 
 H                    -1.92414  -2.44643  -0.21233 
 C                    -1.40699   2.07554   0.35358 
 H                    -0.86364   3.01593   0.28869 
 H                    -2.44954   2.26532   0.09136 
 H                    -1.3757    1.72659   1.38313 
 
 Add virtual bond connecting atoms H9         and O8         Dist= 2.27D+00.
 Add virtual bond connecting atoms H9         and C1         Dist= 2.51D+00.

 GradGradGradGradGradGradGradGradGradGradGradGradGradGradGradGradGradGrad
 Berny optimization.
 Initialization pass.
                           ----------------------------
                           !    Initial Parameters    !
                           ! (Angstroms and Degrees)  !
 --------------------------                            --------------------------
 ! Name  Definition              Value          Derivative Info.                !
 --------------------------------------------------------------------------------
 ! R1    R(1,2)                  1.0877         calculate D2E/DX2 analytically  !
 ! R2    R(1,9)                  1.3281         calculate D2E/DX2 analytically  !
 ! R3    R(1,10)                 1.4182         calculate D2E/DX2 analytically  !
 ! R4    R(1,13)                 1.514          calculate D2E/DX2 analytically  !
 ! R5    R(3,4)                  1.0883         calculate D2E/DX2 analytically  !
 ! R6    R(3,5)                  1.0875         calculate D2E/DX2 analytically  !
 ! R7    R(3,6)                  1.0892         calculate D2E/DX2 analytically  !
 ! R8    R(3,7)                  1.4253         calculate D2E/DX2 analytically  !
 ! R9    R(7,8)                  1.3925         calculate D2E/DX2 analytically  !
 ! R10   R(8,9)                  1.2038         calculate D2E/DX2 analytically  !
 ! R11   R(10,11)                1.2108         calculate D2E/DX2 analytically  !
 ! R12   R(11,12)                1.06           calculate D2E/DX2 analytically  !
 ! R13   R(13,14)                1.088          calculate D2E/DX2 analytically  !
 ! R14   R(13,15)                1.0916         calculate D2E/DX2 analytically  !
 ! R15   R(13,16)                1.0875         calculate D2E/DX2 analytically  !
 ! A1    A(2,1,9)              101.443          calculate D2E/DX2 analytically  !
 ! A2    A(2,1,10)             113.7336         calculate D2E/DX2 analytically  !
 ! A3    A(2,1,13)             114.8421         calculate D2E/DX2 analytically  !
 ! A4    A(9,1,10)             102.3287         calculate D2E/DX2 analytically  !
 ! A5    A(9,1,13)             104.0945         calculate D2E/DX2 analytically  !
 ! A6    A(10,1,13)            117.4651         calculate D2E/DX2 analytically  !
 ! A7    A(4,3,5)              110.4934         calculate D2E/DX2 analytically  !
 ! A8    A(4,3,6)              110.3641         calculate D2E/DX2 analytically  !
 ! A9    A(4,3,7)              110.2347         calculate D2E/DX2 analytically  !
 ! A10   A(5,3,6)              109.9705         calculate D2E/DX2 analytically  !
 ! A11   A(5,3,7)              105.1797         calculate D2E/DX2 analytically  !
 ! A12   A(6,3,7)              110.4866         calculate D2E/DX2 analytically  !
 ! A13   A(3,7,8)              108.177          calculate D2E/DX2 analytically  !
 ! A14   A(7,8,9)              104.0974         calculate D2E/DX2 analytically  !
 ! A15   A(1,13,14)            110.5028         calculate D2E/DX2 analytically  !
 ! A16   A(1,13,15)            110.74           calculate D2E/DX2 analytically  !
 ! A17   A(1,13,16)            110.5863         calculate D2E/DX2 analytically  !
 ! A18   A(14,13,15)           108.2006         calculate D2E/DX2 analytically  !
 ! A19   A(14,13,16)           108.6275         calculate D2E/DX2 analytically  !
 ! A20   A(15,13,16)           108.0996         calculate D2E/DX2 analytically  !
 ! A21   L(1,9,8,6,-1)         180.9292         calculate D2E/DX2 analytically  !
 ! A22   L(1,10,11,3,-1)       177.3302         calculate D2E/DX2 analytically  !
 ! A23   L(10,11,12,3,-1)      181.0706         calculate D2E/DX2 analytically  !
 ! A24   L(1,9,8,6,-2)         183.8227         calculate D2E/DX2 analytically  !
 ! A25   L(1,10,11,3,-2)       177.8423         calculate D2E/DX2 analytically  !
 ! A26   L(10,11,12,3,-2)      180.3564         calculate D2E/DX2 analytically  !
 ! D1    D(2,1,8,7)           -121.1748         calculate D2E/DX2 analytically  !
 ! D2    D(10,1,8,7)            -3.1849         calculate D2E/DX2 analytically  !
 ! D3    D(13,1,8,7)           118.8971         calculate D2E/DX2 analytically  !
 ! D4    D(2,1,13,14)          -51.3573         calculate D2E/DX2 analytically  !
 ! D5    D(2,1,13,15)           68.522          calculate D2E/DX2 analytically  !
 ! D6    D(2,1,13,16)         -171.6707         calculate D2E/DX2 analytically  !
 ! D7    D(9,1,13,14)           58.6201         calculate D2E/DX2 analytically  !
 ! D8    D(9,1,13,15)          178.4993         calculate D2E/DX2 analytically  !
 ! D9    D(9,1,13,16)          -61.6933         calculate D2E/DX2 analytically  !
 ! D10   D(10,1,13,14)         170.8683         calculate D2E/DX2 analytically  !
 ! D11   D(10,1,13,15)         -69.2524         calculate D2E/DX2 analytically  !
 ! D12   D(10,1,13,16)          50.5549         calculate D2E/DX2 analytically  !
 ! D13   D(4,3,7,8)             57.7419         calculate D2E/DX2 analytically  !
 ! D14   D(5,3,7,8)            176.861          calculate D2E/DX2 analytically  !
 ! D15   D(6,3,7,8)            -64.5095         calculate D2E/DX2 analytically  !
 ! D16   D(3,7,8,9)             92.8745         calculate D2E/DX2 analytically  !
 --------------------------------------------------------------------------------
 Trust Radius=3.00D-01 FncErr=1.00D-07 GrdErr=1.00D-07 EigMax=2.50D+02 EigMin=1.00D-04
 Number of steps in this run=    100 maximum allowed number of steps=    100.
 Search for a saddle point of order  1.
 GradGradGradGradGradGradGradGradGradGradGradGradGradGradGradGradGradGrad

                          Input orientation:                          
 ---------------------------------------------------------------------
 Center     Atomic      Atomic             Coordinates (Angstroms)
 Number     Number       Type             X           Y           Z
 ---------------------------------------------------------------------
      1          6           0       -0.799081    1.046607   -0.575976
      2          1           0       -0.664555    1.380853   -1.602279
      3          6           0        2.188800   -1.253768   -0.442492
      4          1           0        3.165958   -0.859746   -0.715016
      5          1           0        2.277721   -2.275316   -0.080196
      6          1           0        1.514480   -1.219553   -1.297221
      7          8           0        1.647035   -0.516078    0.650175
      8          8           0        1.573231    0.823220    0.276049
      9          1           0        0.459696    0.943433   -0.165332
     10          6           0       -1.263616   -0.288876   -0.466861
     11          6           0       -1.605633   -1.442029   -0.327771
     12          1           0       -1.924141   -2.446434   -0.212333
     13          6           0       -1.406992    2.075537    0.353579
     14          1           0       -0.863641    3.015931    0.288690
     15          1           0       -2.449538    2.265323    0.091356
     16          1           0       -1.375696    1.726593    1.383131
 ---------------------------------------------------------------------
                    Distance matrix (angstroms):
                    1          2          3          4          5
     1  C    0.000000
     2  H    1.087711   0.000000
     3  C    3.773192   4.053143   0.000000
     4  H    4.401710   4.525522   1.088283   0.000000
     5  H    4.554962   4.933690   1.087532   1.787680   0.000000
     6  H    3.317867   3.406371   1.089238   1.787681   1.782785
     7  O    3.151018   3.743707   1.425348   2.070986   2.006521
     8  O    2.530556   2.974350   2.282346   2.520191   3.197521
     9  H    1.328079   1.876191   2.809682   3.298100   3.697676
    10  C    1.418173   2.106192   3.584799   4.473097   4.078789
    11  C    2.627821   3.237076   3.800832   4.822561   3.979460
    12  H    3.687727   4.262233   4.288556   5.355313   4.207420
    13  C    1.514043   2.204355   4.964647   5.538019   5.717971
    14  H    2.151756   2.507764   5.299279   5.680314   6.164538
    15  H    2.157454   2.614737   5.846638   6.476889   6.556967
    16  H    2.152433   3.088354   4.992102   5.631873   5.612848
                    6          7          8          9         10
     6  H    0.000000
     7  O    2.074801   0.000000
     8  O    2.579060   1.392529   0.000000
     9  H    2.659370   2.050609   1.203839   0.000000
    10  C    3.045238   3.125905   3.136299   2.139932   0.000000
    11  C    3.274818   3.520456   3.949826   3.159494   1.210819
    12  H    3.808718   4.150120   4.812563   4.144404   2.270712
    13  C    4.702952   4.016406   3.233580   2.243981   2.506816
    14  H    5.109785   4.348477   3.278183   2.500521   3.413589
    15  H    5.457650   4.983009   4.277434   3.205764   2.870880
    16  H    4.921095   3.834540   3.276871   2.525815   2.738092
                   11         12         13         14         15
    11  C    0.000000
    12  H    1.060001   0.000000
    13  C    3.588449   4.586493   0.000000
    14  H    4.561138   5.586870   1.088017   0.000000
    15  H    3.825219   4.750676   1.091642   1.765622   0.000000
    16  H    3.608354   4.501161   1.087529   1.767030   1.764100
                   16
    16  H    0.000000
 Stoichiometry    C5H9O2(2)
 Framework group  C1[X(C5H9O2)]
 Deg. of freedom    42
 Full point group                 C1      NOp   1
 Largest Abelian subgroup         C1      NOp   1
 Largest concise Abelian subgroup C1      NOp   1
                         Standard orientation:                         
 ---------------------------------------------------------------------
 Center     Atomic      Atomic             Coordinates (Angstroms)
 Number     Number       Type             X           Y           Z
 ---------------------------------------------------------------------
      1          6           0       -1.296661   -0.242985    0.562873
      2          1           0       -1.351334   -0.369263    1.641845
      3          6           0        2.433189    0.284659    0.346569
      4          1           0        3.093773   -0.453817    0.796728
      5          1           0        3.010088    1.037092   -0.186119
      6          1           0        1.818508    0.759059    1.110475
      7          8           0        1.612424   -0.327485   -0.645017
      8          8           0        0.894482   -1.356036   -0.040221
      9          1           0       -0.141875   -0.837709    0.286168
     10          6           0       -1.053915    1.093768    0.156206
     11          6           0       -0.792192    2.210401   -0.232016
     12          1           0       -0.582307    3.193957   -0.566931
     13          6           0       -2.318161   -1.037415   -0.223094
     14          1           0       -2.299892   -2.083295    0.076211
     15          1           0       -3.324423   -0.650928   -0.050619
     16          1           0       -2.111332   -0.977496   -1.289091
 ---------------------------------------------------------------------
 Rotational constants (GHZ):           3.2251149           1.7006423           1.2214495
 Standard basis: CC-pVTZ (5D, 7F)
 There are   380 symmetry adapted cartesian basis functions of A   symmetry.
 There are   336 symmetry adapted basis functions of A   symmetry.
   336 basis functions,   517 primitive gaussians,   380 cartesian basis functions
    28 alpha electrons       27 beta electrons
       nuclear repulsion energy       289.9915187605 Hartrees.
 NAtoms=   16 NActive=   16 NUniq=   16 SFac= 1.00D+00 NAtFMM=   60 NAOKFM=F Big=F
 Integral buffers will be    131072 words long.
 Raffenetti 2 integral format.
 Two-electron integral symmetry is turned on.
 Nuclear repulsion after empirical dispersion term =      289.9829215413 Hartrees.
 One-electron integrals computed using PRISM.
 NBasis=   336 RedAO= T EigKep=  4.56D-05  NBF=   336
 NBsUse=   336 1.00D-06 EigRej= -1.00D+00 NBFU=   336
 ExpMin= 1.03D-01 ExpMax= 1.53D+04 ExpMxC= 5.22D+02 IAcc=3 IRadAn=         5 AccDes= 0.00D+00
 Harris functional with IExCor=  419 and IRadAn=       5 diagonalized for initial guess.
 HarFok:  IExCor=  419 AccDes= 0.00D+00 IRadAn=         5 IDoV= 1 UseB2=F ITyADJ=14
 ICtDFT=  3500011 ScaDFX=  1.000000  1.000000  1.000000  1.000000
 FoFCou: FMM=F IPFlag=           0 FMFlag=      100000 FMFlg1=           0
         NFxFlg=           0 DoJE=T BraDBF=F KetDBF=T FulRan=T
         wScrn=  0.000000 ICntrl=       500 IOpCl=  0 I1Cent=   200000004 NGrid=           0
         NMat0=    1 NMatS0=      1 NMatT0=    0 NMatD0=    1 NMtDS0=    0 NMtDT0=    0
 Petite list used in FoFCou.
 Initial guess <Sx>= 0.0000 <Sy>= 0.0000 <Sz>= 0.5000 <S**2>= 0.7500 S= 0.5000
 Requested convergence on RMS density matrix=1.00D-08 within 128 cycles.
 Requested convergence on MAX density matrix=1.00D-06.
 Requested convergence on             energy=1.00D-06.
 No special actions if energy rises.
 Integral accuracy reduced to 1.0D-05 until final iterations.
 Initial convergence to 1.0D-05 achieved.  Increase integral accuracy.
 SCF Done:  E(UB2PLYPD3) =  -345.576810628     A.U. after   21 cycles
            NFock= 21  Conv=0.51D-08     -V/T= 2.0044
 <Sx>= 0.0000 <Sy>= 0.0000 <Sz>= 0.5000 <S**2>= 0.7899 S= 0.5197
 <L.S>=  0.00000000000    
 Annihilation of the first spin contaminant:
 S**2 before annihilation     0.7899,   after     0.7511
 DoSCS=T DFT=T ScalE2(SS,OS)=  0.270000  0.270000
 ExpMin= 1.03D-01 ExpMax= 1.53D+04 ExpMxC= 5.22D+02 IAcc=3 IRadAn=         5 AccDes= 0.00D+00
 HarFok:  IExCor=  205 AccDes= 0.00D+00 IRadAn=         5 IDoV=-2 UseB2=F ITyADJ=14
 ICtDFT= 12500011 ScaDFX=  1.000000  1.000000  1.000000  1.000000
 Range of M.O.s used for correlation:     8   336
 NBasis=   336 NAE=    28 NBE=    27 NFC=     7 NFV=     0
 NROrb=    329 NOA=    21 NOB=    20 NVA=   308 NVB=   309

 **** Warning!!: The largest alpha MO coefficient is  0.41445461D+02


 **** Warning!!: The largest beta MO coefficient is  0.41443433D+02

 DoSCS=T DFT=T ScalE2(SS,OS)=  0.270000  0.270000
 Disk-based method using ON**2 memory for 21 occupieds at a time.
 Permanent disk used for amplitudes=   106523802 words.
 Estimated scratch disk usage=  1988947800 words.
 Actual    scratch disk usage=  1923230040 words.
 JobTyp=2 Pass  1:  I=   8 to  28 NPSUse= 40 ParTrn=T ParDer=T DoDerP=T.
 (rs|ai) integrals will be sorted in core.
 Actual    scratch disk usage=  1923230040 words.
 JobTyp=3 Pass  1:  I=   8 to  27 NPSUse= 40 ParTrn=T ParDer=T DoDerP=T.
 (rs|ai) integrals will be sorted in core.
 Spin components of T(2) and E(2):
     alpha-alpha T2 =       0.7916098349D-01 E2=     -0.5372919502D-01
     alpha-beta  T2 =       0.4711019824D+00 E2=     -0.3274933392D+00
     beta-beta   T2 =       0.8911905646D-01 E2=     -0.5364834437D-01
 (S**2,0)=  0.78989D+00           (S**2,1)=  0.74710D+00
 Scaling Projection term by:   0.270000
 E(PUHF)=      -0.34558524871D+03        E(PMP2)=      -0.34601275690D+03
 E2(B2PLYPD3) =    -0.4348708786D+00 E(B2PLYPD3) =    -0.34601168150676D+03
 G2DrvN: will do    17 centers at a time, making    1 passes.
 Calling FoFCou, ICntrl=  3107 FMM=F I1Cent=   0 AccDes= 0.00D+00.
 End of G2Drv F.D. properties file   721 does not exist.
 End of G2Drv F.D. properties file   722 does not exist.
 End of G2Drv F.D. properties file   788 does not exist.
          IDoAtm=1111111111111111
          Differentiating once with respect to electric field.
                with respect to dipole field.
          Differentiating once with respect to nuclear coordinates.
 Keep R1 and R2 ints in memory in canonical form, NReq=3251642453.
          There are    51 degrees of freedom in the 1st order CPHF.  IDoFFX=6 NUNeed=    51.
     48 vectors produced by pass  0 Test12= 3.33D-14 1.96D-09 XBig12= 1.10D+02 5.53D+00.
 AX will form    48 AO Fock derivatives at one time.
     48 vectors produced by pass  1 Test12= 3.33D-14 1.96D-09 XBig12= 1.79D+01 5.73D-01.
     48 vectors produced by pass  2 Test12= 3.33D-14 1.96D-09 XBig12= 8.84D-01 1.95D-01.
     48 vectors produced by pass  3 Test12= 3.33D-14 1.96D-09 XBig12= 1.01D-02 1.42D-02.
     48 vectors produced by pass  4 Test12= 3.33D-14 1.96D-09 XBig12= 1.53D-04 1.83D-03.
     48 vectors produced by pass  5 Test12= 3.33D-14 1.96D-09 XBig12= 1.84D-06 1.38D-04.
     48 vectors produced by pass  6 Test12= 3.33D-14 1.96D-09 XBig12= 1.44D-08 1.14D-05.
     25 vectors produced by pass  7 Test12= 3.33D-14 1.96D-09 XBig12= 1.03D-10 1.11D-06.
      4 vectors produced by pass  8 Test12= 3.33D-14 1.96D-09 XBig12= 7.64D-13 8.72D-08.
      2 vectors produced by pass  9 Test12= 3.33D-14 1.96D-09 XBig12= 5.35D-15 7.12D-09.
 InvSVY:  IOpt=1 It=  1 EMax= 1.83D-15
 Solved reduced A of dimension   367 with    51 vectors.
 End of Minotr F.D. properties file   721 does not exist.
 End of Minotr F.D. properties file   722 does not exist.
 End of Minotr F.D. properties file   788 does not exist.
 MDV= 10737418240.
 DoSCS=T DFT=T ScalE2(SS,OS)=  0.270000  0.270000
 Form MO integral derivatives with frozen-active canonical formalism.
 Discarding MO integrals.
 Reordered first order wavefunction length =    428928697
 In DefCFB: NBatch=  1 ICI= 28 ICA=309 LFMax= 78
            Large arrays: LIAPS=  8665386240 LIARS=  1611002400 words.
 In DefCFB: NBatch=  1 ICI= 28 ICA=309 LFMax= 78
            Large arrays: LIAPS=  8665386240 LIARS=  1611002400 words.
 Semi-Direct transformation.
 ModeAB=           4 MOrb=            28 LenV=   10734089849
 LASXX=    503301435 LTotXX=   503301435 LenRXX=  1014543915
 LTotAB=   511242480 MaxLAS=   623025984 LenRXY=           0
 NonZer=  1517845350 LenScr=  2285697024 LnRSAI=   623025984
 LnScr1=   938204160 LExtra=           0 Total=   4861471083
 MaxDsk=          -1 SrtSym=           T ITran=            4
 JobTyp=1 Pass  1:  I=   1 to  28.
 (rs|ai) integrals will be sorted in core.
 ModeAB=           4 MOrb=            27 LenV=   10734089849
 LASXX=    486308502 LTotXX=   486308502 LenRXX=   901306008
 LTotAB=   414997506 MaxLAS=   600775056 LenRXY=           0
 NonZer=  1387614510 LenScr=  2089584640 LnRSAI=   600775056
 LnScr1=   904696832 LExtra=           0 Total=   4496362536
 MaxDsk=          -1 SrtSym=           T ITran=            4
 JobTyp=2 Pass  1:  I=   1 to  27.
 (rs|ai) integrals will be sorted in core.
 SymMOI:  orbitals are not symmetric.
 DoSCS=T DFT=T ScalE2(SS,OS)=  0.270000  0.270000
 Spin components of T(2) and E(2):
     alpha-alpha T2 =       0.7916098349D-01 E2=     -0.5372919502D-01
     alpha-beta  T2 =       0.4711019824D+00 E2=     -0.3274933392D+00
     beta-beta   T2 =       0.8911905646D-01 E2=     -0.5364834437D-01
 E2(B2PLYPD3) =    -0.4348708786D+00 E(B2PLYPD3) =    -0.34601168150676D+03
 (S**2,0)=  0.78989D+00           (S**2,1)=  0.74710D+00
 Scaling Projection term by:   0.270000
 E(PUHF)=      -0.34558524871D+03        E(PMP2)=      -0.34601275690D+03
          IDoAtm=1111111111111111
          Differentiating once with respect to electric field.
                with respect to dipole field.
          Differentiating once with respect to nuclear coordinates.
 Keep R1 and R2 ints in memory in canonical form, NReq=3251778068.
          There are     1 degrees of freedom in the 1st order CPHF.  IDoFFX=0 NUNeed=     1.
 LinEq1:  Iter=  0 NonCon=     1 RMS=9.81D-04 Max=5.60D-02 NDo=     1
 AX will form     1 AO Fock derivatives at one time.
 LinEq1:  Iter=  1 NonCon=     1 RMS=3.62D-04 Max=8.76D-03 NDo=     1
 LinEq1:  Iter=  2 NonCon=     1 RMS=2.55D-04 Max=9.46D-03 NDo=     1
 LinEq1:  Iter=  3 NonCon=     1 RMS=1.70D-04 Max=7.08D-03 NDo=     1
 LinEq1:  Iter=  4 NonCon=     1 RMS=9.31D-05 Max=3.79D-03 NDo=     1
 LinEq1:  Iter=  5 NonCon=     1 RMS=6.80D-05 Max=2.84D-03 NDo=     1
 LinEq1:  Iter=  6 NonCon=     1 RMS=3.10D-05 Max=9.42D-04 NDo=     1
 LinEq1:  Iter=  7 NonCon=     1 RMS=9.09D-06 Max=2.54D-04 NDo=     1
 LinEq1:  Iter=  8 NonCon=     1 RMS=5.25D-06 Max=1.56D-04 NDo=     1
 LinEq1:  Iter=  9 NonCon=     1 RMS=3.67D-06 Max=8.27D-05 NDo=     1
 LinEq1:  Iter= 10 NonCon=     1 RMS=1.98D-06 Max=3.71D-05 NDo=     1
 LinEq1:  Iter= 11 NonCon=     1 RMS=9.14D-07 Max=2.13D-05 NDo=     1
 LinEq1:  Iter= 12 NonCon=     1 RMS=3.32D-07 Max=7.10D-06 NDo=     1
 LinEq1:  Iter= 13 NonCon=     1 RMS=1.09D-07 Max=2.42D-06 NDo=     1
 LinEq1:  Iter= 14 NonCon=     1 RMS=3.28D-08 Max=7.60D-07 NDo=     1
 LinEq1:  Iter= 15 NonCon=     1 RMS=1.43D-08 Max=4.52D-07 NDo=     1
 LinEq1:  Iter= 16 NonCon=     1 RMS=7.86D-09 Max=2.94D-07 NDo=     1
 LinEq1:  Iter= 17 NonCon=     1 RMS=2.81D-09 Max=1.32D-07 NDo=     1
 LinEq1:  Iter= 18 NonCon=     1 RMS=8.10D-10 Max=4.09D-08 NDo=     1
 LinEq1:  Iter= 19 NonCon=     1 RMS=2.58D-10 Max=1.05D-08 NDo=     1
 LinEq1:  Iter= 20 NonCon=     1 RMS=9.03D-11 Max=3.42D-09 NDo=     1
 LinEq1:  Iter= 21 NonCon=     1 RMS=3.40D-11 Max=1.10D-09 NDo=     1
 LinEq1:  Iter= 22 NonCon=     0 RMS=1.14D-11 Max=4.14D-10 NDo=     1
 Linear equations converged to 1.000D-10 1.000D-09 after    22 iterations.
 End of Minotr F.D. properties file   721 does not exist.
 End of Minotr F.D. properties file   722 does not exist.
 End of Minotr F.D. properties file   788 does not exist.
 Symmetrizing basis deriv contribution to polar:
 IMax=3 JMax=2 DiffMx= 0.00D+00
 G2DrvN: will do    17 centers at a time, making    1 passes.
 Calling FoFCou, ICntrl=  3107 FMM=F I1Cent=   0 AccDes= 0.00D+00.
 End of G2Drv F.D. properties file   721 does not exist.
 End of G2Drv F.D. properties file   722 does not exist.
 End of G2Drv F.D. properties file   788 does not exist.
 DoSCS=T DFT=T ScalE2(SS,OS)=  0.270000  0.270000
 R2 and R3 integrals will be kept in memory, NReq=  5268037470.
 DD1Dir will call FoFMem   1 times, MxPair=      2242
 NAB=   756 NAA=   378 NBB=   351.
 Discarding MO integrals.

 **********************************************************************

            Population analysis using the SCF Density.

 **********************************************************************

 Orbital symmetries:
 Alpha Orbitals:
       Occupied  (A) (A) (A) (A) (A) (A) (A) (A) (A) (A) (A) (A)
                 (A) (A) (A) (A) (A) (A) (A) (A) (A) (A) (A) (A)
                 (A) (A) (A) (A)
       Virtual   (A) (A) (A) (A) (A) (A) (A) (A) (A) (A) (A) (A)
                 (A) (A) (A) (A) (A) (A) (A) (A) (A) (A) (A) (A)
                 (A) (A) (A) (A) (A) (A) (A) (A) (A) (A) (A) (A)
                 (A) (A) (A) (A) (A) (A) (A) (A) (A) (A) (A) (A)
                 (A) (A) (A) (A) (A) (A) (A) (A) (A) (A) (A) (A)
                 (A) (A) (A) (A) (A) (A) (A) (A) (A) (A) (A) (A)
                 (A) (A) (A) (A) (A) (A) (A) (A) (A) (A) (A) (A)
                 (A) (A) (A) (A) (A) (A) (A) (A) (A) (A) (A) (A)
                 (A) (A) (A) (A) (A) (A) (A) (A) (A) (A) (A) (A)
                 (A) (A) (A) (A) (A) (A) (A) (A) (A) (A) (A) (A)
                 (A) (A) (A) (A) (A) (A) (A) (A) (A) (A) (A) (A)
                 (A) (A) (A) (A) (A) (A) (A) (A) (A) (A) (A) (A)
                 (A) (A) (A) (A) (A) (A) (A) (A) (A) (A) (A) (A)
                 (A) (A) (A) (A) (A) (A) (A) (A) (A) (A) (A) (A)
                 (A) (A) (A) (A) (A) (A) (A) (A) (A) (A) (A) (A)
                 (A) (A) (A) (A) (A) (A) (A) (A) (A) (A) (A) (A)
                 (A) (A) (A) (A) (A) (A) (A) (A) (A) (A) (A) (A)
                 (A) (A) (A) (A) (A) (A) (A) (A) (A) (A) (A) (A)
                 (A) (A) (A) (A) (A) (A) (A) (A) (A) (A) (A) (A)
                 (A) (A) (A) (A) (A) (A) (A) (A) (A) (A) (A) (A)
                 (A) (A) (A) (A) (A) (A) (A) (A) (A) (A) (A) (A)
                 (A) (A) (A) (A) (A) (A) (A) (A) (A) (A) (A) (A)
                 (A) (A) (A) (A) (A) (A) (A) (A) (A) (A) (A) (A)
                 (A) (A) (A) (A) (A) (A) (A) (A) (A) (A) (A) (A)
                 (A) (A) (A) (A) (A) (A) (A) (A) (A) (A) (A) (A)
                 (A) (A) (A) (A) (A) (A) (A) (A)
 Beta  Orbitals:
       Occupied  (A) (A) (A) (A) (A) (A) (A) (A) (A) (A) (A) (A)
                 (A) (A) (A) (A) (A) (A) (A) (A) (A) (A) (A) (A)
                 (A) (A) (A)
       Virtual   (A) (A) (A) (A) (A) (A) (A) (A) (A) (A) (A) (A)
                 (A) (A) (A) (A) (A) (A) (A) (A) (A) (A) (A) (A)
                 (A) (A) (A) (A) (A) (A) (A) (A) (A) (A) (A) (A)
                 (A) (A) (A) (A) (A) (A) (A) (A) (A) (A) (A) (A)
                 (A) (A) (A) (A) (A) (A) (A) (A) (A) (A) (A) (A)
                 (A) (A) (A) (A) (A) (A) (A) (A) (A) (A) (A) (A)
                 (A) (A) (A) (A) (A) (A) (A) (A) (A) (A) (A) (A)
                 (A) (A) (A) (A) (A) (A) (A) (A) (A) (A) (A) (A)
                 (A) (A) (A) (A) (A) (A) (A) (A) (A) (A) (A) (A)
                 (A) (A) (A) (A) (A) (A) (A) (A) (A) (A) (A) (A)
                 (A) (A) (A) (A) (A) (A) (A) (A) (A) (A) (A) (A)
                 (A) (A) (A) (A) (A) (A) (A) (A) (A) (A) (A) (A)
                 (A) (A) (A) (A) (A) (A) (A) (A) (A) (A) (A) (A)
                 (A) (A) (A) (A) (A) (A) (A) (A) (A) (A) (A) (A)
                 (A) (A) (A) (A) (A) (A) (A) (A) (A) (A) (A) (A)
                 (A) (A) (A) (A) (A) (A) (A) (A) (A) (A) (A) (A)
                 (A) (A) (A) (A) (A) (A) (A) (A) (A) (A) (A) (A)
                 (A) (A) (A) (A) (A) (A) (A) (A) (A) (A) (A) (A)
                 (A) (A) (A) (A) (A) (A) (A) (A) (A) (A) (A) (A)
                 (A) (A) (A) (A) (A) (A) (A) (A) (A) (A) (A) (A)
                 (A) (A) (A) (A) (A) (A) (A) (A) (A) (A) (A) (A)
                 (A) (A) (A) (A) (A) (A) (A) (A) (A) (A) (A) (A)
                 (A) (A) (A) (A) (A) (A) (A) (A) (A) (A) (A) (A)
                 (A) (A) (A) (A) (A) (A) (A) (A) (A) (A) (A) (A)
                 (A) (A) (A) (A) (A) (A) (A) (A) (A) (A) (A) (A)
                 (A) (A) (A) (A) (A) (A) (A) (A) (A)
 The electronic state is 2-A.
 Alpha  occ. eigenvalues --  -19.79120 -19.78820 -10.66069 -10.65851 -10.63052
 Alpha  occ. eigenvalues --  -10.62606 -10.62086  -1.28260  -1.01778  -0.93607
 Alpha  occ. eigenvalues --   -0.85700  -0.77735  -0.75582  -0.62994  -0.61035
 Alpha  occ. eigenvalues --   -0.56557  -0.55811  -0.54700  -0.52061  -0.48851
 Alpha  occ. eigenvalues --   -0.47938  -0.44921  -0.44252  -0.39772  -0.36607
 Alpha  occ. eigenvalues --   -0.35538  -0.33444  -0.28503
 Alpha virt. eigenvalues --    0.07101   0.09010   0.09641   0.10674   0.11001
 Alpha virt. eigenvalues --    0.12642   0.13683   0.15472   0.15564   0.16544
 Alpha virt. eigenvalues --    0.17184   0.19777   0.22930   0.25399   0.26051
 Alpha virt. eigenvalues --    0.29026   0.30412   0.31280   0.31919   0.34211
 Alpha virt. eigenvalues --    0.35538   0.37579   0.38001   0.43133   0.44827
 Alpha virt. eigenvalues --    0.45648   0.46419   0.47974   0.48409   0.50487
 Alpha virt. eigenvalues --    0.51166   0.51867   0.52588   0.53277   0.53943
 Alpha virt. eigenvalues --    0.55014   0.55495   0.56459   0.58370   0.59870
 Alpha virt. eigenvalues --    0.61321   0.64029   0.65463   0.66324   0.67898
 Alpha virt. eigenvalues --    0.69730   0.73473   0.73946   0.74890   0.76695
 Alpha virt. eigenvalues --    0.82847   0.83735   0.85658   0.87186   0.89064
 Alpha virt. eigenvalues --    0.91323   0.92490   0.94200   0.95351   0.97115
 Alpha virt. eigenvalues --    0.97562   0.98468   1.00059   1.01191   1.03824
 Alpha virt. eigenvalues --    1.04803   1.06836   1.09420   1.11062   1.11581
 Alpha virt. eigenvalues --    1.13872   1.15066   1.16923   1.18286   1.19281
 Alpha virt. eigenvalues --    1.20482   1.22981   1.25286   1.27042   1.28233
 Alpha virt. eigenvalues --    1.29152   1.30549   1.33967   1.35721   1.36019
 Alpha virt. eigenvalues --    1.38676   1.40037   1.40310   1.41053   1.41709
 Alpha virt. eigenvalues --    1.45130   1.46520   1.48937   1.50372   1.52072
 Alpha virt. eigenvalues --    1.53874   1.58994   1.62447   1.63432   1.64931
 Alpha virt. eigenvalues --    1.66879   1.69717   1.74398   1.78382   1.79240
 Alpha virt. eigenvalues --    1.88881   1.92865   2.01100   2.04031   2.12036
 Alpha virt. eigenvalues --    2.15171   2.19559   2.22839   2.25021   2.27918
 Alpha virt. eigenvalues --    2.29373   2.35838   2.36949   2.39085   2.40865
 Alpha virt. eigenvalues --    2.44207   2.46059   2.47366   2.50492   2.53891
 Alpha virt. eigenvalues --    2.56153   2.56899   2.58813   2.59571   2.63118
 Alpha virt. eigenvalues --    2.63858   2.65286   2.67785   2.71001   2.73845
 Alpha virt. eigenvalues --    2.76933   2.78797   2.82286   2.84860   2.86413
 Alpha virt. eigenvalues --    2.89311   2.90554   2.91542   2.92487   2.93303
 Alpha virt. eigenvalues --    2.94294   2.95435   2.97001   2.99471   3.00702
 Alpha virt. eigenvalues --    3.01647   3.03223   3.04050   3.04998   3.06798
 Alpha virt. eigenvalues --    3.08319   3.09908   3.09952   3.11173   3.12168
 Alpha virt. eigenvalues --    3.12951   3.13719   3.14629   3.16546   3.18213
 Alpha virt. eigenvalues --    3.19276   3.21232   3.22900   3.23969   3.26168
 Alpha virt. eigenvalues --    3.28214   3.29447   3.32447   3.34307   3.36332
 Alpha virt. eigenvalues --    3.41301   3.42151   3.43360   3.43849   3.46039
 Alpha virt. eigenvalues --    3.47606   3.49639   3.51030   3.54152   3.55464
 Alpha virt. eigenvalues --    3.57034   3.58096   3.60450   3.62684   3.63901
 Alpha virt. eigenvalues --    3.65124   3.66413   3.69035   3.73537   3.75561
 Alpha virt. eigenvalues --    3.80416   3.83408   3.85621   3.87837   3.88959
 Alpha virt. eigenvalues --    3.91285   3.92319   3.93458   3.95115   3.95617
 Alpha virt. eigenvalues --    3.97681   3.98935   3.99624   4.02397   4.03555
 Alpha virt. eigenvalues --    4.05201   4.08401   4.09567   4.12083   4.14354
 Alpha virt. eigenvalues --    4.16686   4.18024   4.18877   4.20150   4.23104
 Alpha virt. eigenvalues --    4.24521   4.25181   4.26098   4.29404   4.30892
 Alpha virt. eigenvalues --    4.32838   4.36009   4.37860   4.38935   4.41887
 Alpha virt. eigenvalues --    4.42605   4.46412   4.48321   4.53692   4.55892
 Alpha virt. eigenvalues --    4.61273   4.62768   4.66745   4.70293   4.73926
 Alpha virt. eigenvalues --    4.78086   4.81964   4.83512   4.88364   4.94213
 Alpha virt. eigenvalues --    4.98020   4.99618   5.01215   5.02686   5.05383
 Alpha virt. eigenvalues --    5.06818   5.10990   5.12391   5.20637   5.22330
 Alpha virt. eigenvalues --    5.29145   5.30479   5.31157   5.34417   5.34916
 Alpha virt. eigenvalues --    5.36220   5.37562   5.38369   5.39149   5.41314
 Alpha virt. eigenvalues --    5.47142   5.48175   5.49561   5.51519   5.59025
 Alpha virt. eigenvalues --    5.63493   5.67908   5.76220   5.81533   5.84089
 Alpha virt. eigenvalues --    5.93601   5.97053   5.97707   6.01583   6.01768
 Alpha virt. eigenvalues --    6.05385   6.05957   6.08310   6.15803   6.23431
 Alpha virt. eigenvalues --    6.27298   6.33227   6.40147   6.40783   6.65657
 Alpha virt. eigenvalues --    6.73517   6.75132   6.82218   6.96594   7.05064
 Alpha virt. eigenvalues --    7.06710   7.15279   7.44005   7.47046   7.58521
 Alpha virt. eigenvalues --    7.73059   8.54511   9.86712  10.69921  13.05506
 Alpha virt. eigenvalues --   13.43076  13.78335  16.84463
  Beta  occ. eigenvalues --  -19.78825 -19.77138 -10.65867 -10.65025 -10.63413
  Beta  occ. eigenvalues --  -10.62142 -10.62072  -1.26139  -0.98725  -0.92261
  Beta  occ. eigenvalues --   -0.84766  -0.77232  -0.74242  -0.61834  -0.58108
  Beta  occ. eigenvalues --   -0.55940  -0.54461  -0.54264  -0.50446  -0.48230
  Beta  occ. eigenvalues --   -0.45340  -0.44735  -0.43376  -0.36306  -0.35295
  Beta  occ. eigenvalues --   -0.33179  -0.31389
  Beta virt. eigenvalues --   -0.06284   0.07256   0.09132   0.10525   0.10796
  Beta virt. eigenvalues --    0.11073   0.13214   0.14215   0.15519   0.15734
  Beta virt. eigenvalues --    0.16751   0.17297   0.20395   0.23471   0.25707
  Beta virt. eigenvalues --    0.26548   0.29169   0.30892   0.31503   0.32790
  Beta virt. eigenvalues --    0.34491   0.36250   0.38052   0.38891   0.43495
  Beta virt. eigenvalues --    0.44978   0.46203   0.47131   0.48521   0.48957
  Beta virt. eigenvalues --    0.50813   0.51359   0.51926   0.52771   0.53421
  Beta virt. eigenvalues --    0.54275   0.55192   0.55605   0.57613   0.58926
  Beta virt. eigenvalues --    0.60703   0.61670   0.64319   0.65688   0.66672
  Beta virt. eigenvalues --    0.68157   0.70371   0.73993   0.74281   0.75374
  Beta virt. eigenvalues --    0.77052   0.83186   0.84319   0.86472   0.87503
  Beta virt. eigenvalues --    0.89092   0.91581   0.92756   0.94423   0.95566
  Beta virt. eigenvalues --    0.97479   0.97820   0.98707   1.00436   1.01372
  Beta virt. eigenvalues --    1.03996   1.04929   1.07047   1.09751   1.11265
  Beta virt. eigenvalues --    1.11733   1.14530   1.15246   1.17123   1.18368
  Beta virt. eigenvalues --    1.19431   1.21056   1.23449   1.25445   1.27368
  Beta virt. eigenvalues --    1.28541   1.29499   1.30791   1.34174   1.35963
  Beta virt. eigenvalues --    1.36463   1.39030   1.40153   1.40514   1.41288
  Beta virt. eigenvalues --    1.41826   1.45408   1.46802   1.49373   1.50928
  Beta virt. eigenvalues --    1.52636   1.54180   1.59267   1.62755   1.63611
  Beta virt. eigenvalues --    1.65562   1.67350   1.70231   1.75311   1.79267
  Beta virt. eigenvalues --    1.79625   1.90809   1.93776   2.01732   2.05012
  Beta virt. eigenvalues --    2.12364   2.15605   2.21117   2.23170   2.25506
  Beta virt. eigenvalues --    2.28794   2.30397   2.36022   2.37016   2.39608
  Beta virt. eigenvalues --    2.41102   2.44631   2.46627   2.47745   2.50571
  Beta virt. eigenvalues --    2.54096   2.56748   2.57314   2.59508   2.59852
  Beta virt. eigenvalues --    2.63424   2.64125   2.65839   2.68180   2.71341
  Beta virt. eigenvalues --    2.74267   2.77735   2.79350   2.82704   2.85154
  Beta virt. eigenvalues --    2.86658   2.89467   2.90812   2.91737   2.92645
  Beta virt. eigenvalues --    2.93623   2.94720   2.95978   2.97704   2.99673
  Beta virt. eigenvalues --    3.01072   3.01939   3.03643   3.04277   3.05422
  Beta virt. eigenvalues --    3.07262   3.09015   3.10038   3.10469   3.11562
  Beta virt. eigenvalues --    3.12184   3.13259   3.13837   3.14789   3.16786
  Beta virt. eigenvalues --    3.18441   3.19323   3.21514   3.23146   3.24092
  Beta virt. eigenvalues --    3.26416   3.28327   3.29872   3.33330   3.34519
  Beta virt. eigenvalues --    3.36924   3.41822   3.42388   3.43523   3.44217
  Beta virt. eigenvalues --    3.46846   3.48116   3.49900   3.51171   3.54202
  Beta virt. eigenvalues --    3.55813   3.57327   3.58438   3.60582   3.62948
  Beta virt. eigenvalues --    3.63995   3.65606   3.66839   3.69775   3.73593
  Beta virt. eigenvalues --    3.75688   3.81279   3.83511   3.85945   3.88128
  Beta virt. eigenvalues --    3.89208   3.91440   3.92498   3.93790   3.95297
  Beta virt. eigenvalues --    3.95816   3.97644   3.99291   3.99812   4.02283
  Beta virt. eigenvalues --    4.03784   4.05391   4.08646   4.09752   4.12264
  Beta virt. eigenvalues --    4.14249   4.16786   4.18350   4.18917   4.20260
  Beta virt. eigenvalues --    4.23258   4.24636   4.25458   4.26392   4.29458
  Beta virt. eigenvalues --    4.31237   4.33128   4.36085   4.38242   4.39282
  Beta virt. eigenvalues --    4.42132   4.42737   4.47058   4.48554   4.54055
  Beta virt. eigenvalues --    4.56431   4.61658   4.63610   4.67462   4.70817
  Beta virt. eigenvalues --    4.74519   4.78629   4.82223   4.83768   4.88995
  Beta virt. eigenvalues --    4.94402   4.98285   4.99814   5.01361   5.02934
  Beta virt. eigenvalues --    5.05679   5.06987   5.11601   5.13053   5.21438
  Beta virt. eigenvalues --    5.23042   5.29550   5.30673   5.31549   5.34671
  Beta virt. eigenvalues --    5.35155   5.36519   5.38134   5.38768   5.39898
  Beta virt. eigenvalues --    5.41431   5.47478   5.48355   5.49697   5.51803
  Beta virt. eigenvalues --    5.59408   5.63957   5.68717   5.76745   5.81783
  Beta virt. eigenvalues --    5.85355   5.93689   5.97586   5.98063   6.01889
  Beta virt. eigenvalues --    6.02503   6.05931   6.06843   6.08962   6.15970
  Beta virt. eigenvalues --    6.24814   6.28489   6.33539   6.40626   6.42104
  Beta virt. eigenvalues --    6.66604   6.76576   6.77529   6.83547   6.98595
  Beta virt. eigenvalues --    7.07029   7.08021   7.17456   7.44213   7.49148
  Beta virt. eigenvalues --    7.60164   7.73952   8.54676   9.87818  10.70950
  Beta virt. eigenvalues --   13.06235  13.43078  13.78424  16.84655
          Condensed to atoms (all electrons):
               1          2          3          4          5          6
     1  C    5.069024   0.414440  -0.002678  -0.000682   0.000484   0.000060
     2  H    0.414440   0.548361   0.000500   0.000100  -0.000007  -0.001011
     3  C   -0.002678   0.000500   4.615807   0.412937   0.395324   0.395335
     4  H   -0.000682   0.000100   0.412937   0.606336  -0.027901  -0.055104
     5  H    0.000484  -0.000007   0.395324  -0.027901   0.589294  -0.033937
     6  H    0.000060  -0.001011   0.395335  -0.055104  -0.033937   0.663533
     7  O    0.003082   0.000341   0.294472  -0.037244  -0.025158  -0.048387
     8  O   -0.079818  -0.000051  -0.047060   0.004475   0.006680  -0.001539
     9  H    0.223446  -0.009870   0.000854   0.000916  -0.000643   0.003977
    10  C    0.400211  -0.049836  -0.000642   0.000446   0.000415   0.001500
    11  C   -0.095238  -0.002292  -0.003238   0.000354   0.000033  -0.002187
    12  H    0.000777  -0.000059  -0.000092   0.000002  -0.000006  -0.000046
    13  C    0.351788  -0.031515   0.000019  -0.000023  -0.000006  -0.000000
    14  H   -0.039605  -0.003247   0.000026   0.000000  -0.000000  -0.000012
    15  H   -0.037542  -0.003594  -0.000006  -0.000002  -0.000002   0.000008
    16  H   -0.033323   0.006142   0.000021   0.000006  -0.000002  -0.000046
               7          8          9         10         11         12
     1  C    0.003082  -0.079818   0.223446   0.400211  -0.095238   0.000777
     2  H    0.000341  -0.000051  -0.009870  -0.049836  -0.002292  -0.000059
     3  C    0.294472  -0.047060   0.000854  -0.000642  -0.003238  -0.000092
     4  H   -0.037244   0.004475   0.000916   0.000446   0.000354   0.000002
     5  H   -0.025158   0.006680  -0.000643   0.000415   0.000033  -0.000006
     6  H   -0.048387  -0.001539   0.003977   0.001500  -0.002187  -0.000046
     7  O    7.928687   0.077937  -0.025594  -0.001856   0.006241   0.000117
     8  O    0.077937   8.076719   0.182256  -0.005267   0.000975   0.000022
     9  H   -0.025594   0.182256   0.435605   0.001392  -0.001191  -0.000014
    10  C   -0.001856  -0.005267   0.001392   4.975118   0.797451  -0.055268
    11  C    0.006241   0.000975  -0.001191   0.797451   5.077382   0.412090
    12  H    0.000117   0.000022  -0.000014  -0.055268   0.412090   0.472576
    13  C   -0.000053   0.005824  -0.016296  -0.060294  -0.003139  -0.000097
    14  H   -0.000036   0.000687  -0.002455   0.009628   0.000201   0.000006
    15  H   -0.000040   0.000051   0.003070  -0.001604   0.002309   0.000022
    16  H    0.000385   0.001762  -0.003621  -0.002040   0.002070   0.000008
              13         14         15         16
     1  C    0.351788  -0.039605  -0.037542  -0.033323
     2  H   -0.031515  -0.003247  -0.003594   0.006142
     3  C    0.000019   0.000026  -0.000006   0.000021
     4  H   -0.000023   0.000000  -0.000002   0.000006
     5  H   -0.000006  -0.000000  -0.000002  -0.000002
     6  H   -0.000000  -0.000012   0.000008  -0.000046
     7  O   -0.000053  -0.000036  -0.000040   0.000385
     8  O    0.005824   0.000687   0.000051   0.001762
     9  H   -0.016296  -0.002455   0.003070  -0.003621
    10  C   -0.060294   0.009628  -0.001604  -0.002040
    11  C   -0.003139   0.000201   0.002309   0.002070
    12  H   -0.000097   0.000006   0.000022   0.000008
    13  C    4.816529   0.409306   0.401122   0.406417
    14  H    0.409306   0.573104  -0.032192  -0.023854
    15  H    0.401122  -0.032192   0.588979  -0.029766
    16  H    0.406417  -0.023854  -0.029766   0.558576
          Atomic-Atomic Spin Densities.
               1          2          3          4          5          6
     1  C    0.563950   0.002987   0.000917   0.000834   0.000032  -0.003963
     2  H    0.002987  -0.024210  -0.000177  -0.000096  -0.000003   0.000704
     3  C    0.000917  -0.000177  -0.008877  -0.001081   0.000828   0.002945
     4  H    0.000834  -0.000096  -0.001081   0.002101   0.000621  -0.000944
     5  H    0.000032  -0.000003   0.000828   0.000621  -0.001724  -0.000681
     6  H   -0.003963   0.000704   0.002945  -0.000944  -0.000681   0.003260
     7  O    0.011088  -0.000509   0.000690  -0.000358   0.000230  -0.001727
     8  O   -0.071233   0.003053  -0.001920  -0.000022  -0.000189   0.003968
     9  H    0.054626   0.003042   0.001383   0.001239   0.000072  -0.003540
    10  C   -0.013317   0.002106  -0.001133  -0.000260  -0.000106   0.001827
    11  C   -0.012480  -0.000818  -0.000782  -0.000153  -0.000021   0.001825
    12  H   -0.000098   0.000011   0.000017   0.000002   0.000004  -0.000009
    13  C   -0.023622   0.003155  -0.000022  -0.000025  -0.000000   0.000137
    14  H   -0.002867   0.000480  -0.000002  -0.000003  -0.000000   0.000011
    15  H   -0.010279  -0.001570   0.000006   0.000002   0.000000  -0.000024
    16  H   -0.004193   0.000153  -0.000009  -0.000007  -0.000000   0.000036
               7          8          9         10         11         12
     1  C    0.011088  -0.071233   0.054626  -0.013317  -0.012480  -0.000098
     2  H   -0.000509   0.003053   0.003042   0.002106  -0.000818   0.000011
     3  C    0.000690  -0.001920   0.001383  -0.001133  -0.000782   0.000017
     4  H   -0.000358  -0.000022   0.001239  -0.000260  -0.000153   0.000002
     5  H    0.000230  -0.000189   0.000072  -0.000106  -0.000021   0.000004
     6  H   -0.001727   0.003968  -0.003540   0.001827   0.001825  -0.000009
     7  O    0.096649  -0.052423   0.010027  -0.002634  -0.003277   0.000009
     8  O   -0.052423   0.591322  -0.045080   0.006729   0.000903  -0.000016
     9  H    0.010027  -0.045080  -0.101942   0.000102  -0.000828  -0.000017
    10  C   -0.002634   0.006729   0.000102  -0.212676   0.004061  -0.001665
    11  C   -0.003277   0.000903  -0.000828   0.004061   0.327729   0.003333
    12  H    0.000009  -0.000016  -0.000017  -0.001665   0.003333  -0.011953
    13  C   -0.000580   0.005102  -0.002822   0.005620   0.000250   0.000002
    14  H   -0.000033   0.000570  -0.000392  -0.000215  -0.000055  -0.000000
    15  H    0.000055  -0.000522   0.000395   0.000407   0.001179   0.000001
    16  H   -0.000239   0.001071  -0.000367   0.000413  -0.000273   0.000000
              13         14         15         16
     1  C   -0.023622  -0.002867  -0.010279  -0.004193
     2  H    0.003155   0.000480  -0.001570   0.000153
     3  C   -0.000022  -0.000002   0.000006  -0.000009
     4  H   -0.000025  -0.000003   0.000002  -0.000007
     5  H   -0.000000  -0.000000   0.000000  -0.000000
     6  H    0.000137   0.000011  -0.000024   0.000036
     7  O   -0.000580  -0.000033   0.000055  -0.000239
     8  O    0.005102   0.000570  -0.000522   0.001071
     9  H   -0.002822  -0.000392   0.000395  -0.000367
    10  C    0.005620  -0.000215   0.000407   0.000413
    11  C    0.000250  -0.000055   0.001179  -0.000273
    12  H    0.000002  -0.000000   0.000001   0.000000
    13  C   -0.024217   0.003537   0.004110   0.003728
    14  H    0.003537   0.003025  -0.002307   0.000638
    15  H    0.004110  -0.002307   0.039821  -0.004060
    16  H    0.003728   0.000638  -0.004060   0.007293
 Mulliken charges and spin densities:
               1          2
     1  C   -0.174423   0.492380
     2  H    0.131601  -0.011694
     3  C   -0.061578  -0.007217
     4  H    0.095383   0.001850
     5  H    0.095434  -0.000936
     6  H    0.077856   0.003825
     7  O   -0.172894   0.056970
     8  O   -0.223653   0.441313
     9  H    0.208168  -0.084101
    10  C   -0.009351  -0.210740
    11  C   -0.191821   0.320591
    12  H    0.169963  -0.010379
    13  C   -0.279581  -0.025647
    14  H    0.108444   0.002387
    15  H    0.109187   0.027213
    16  H    0.117266   0.004186
 Sum of Mulliken charges =  -0.00000   1.00000
 Mulliken charges and spin densities with hydrogens summed into heavy atoms:
               1          2
     1  C   -0.042822   0.480686
     3  C    0.207095  -0.002479
     7  O   -0.172894   0.056970
     8  O   -0.015485   0.357212
    10  C   -0.009351  -0.210740
    11  C   -0.021858   0.310213
    13  C    0.055316   0.008138
 APT charges:
               1
     1  C    0.574762
     2  H   -0.065081
     3  C    0.441530
     4  H   -0.034783
     5  H   -0.005412
     6  H   -0.029347
     7  O   -0.391154
     8  O    0.161150
     9  H   -0.412690
    10  C   -0.178258
    11  C   -0.244792
    12  H    0.216241
    13  C   -0.017205
    14  H   -0.003798
    15  H   -0.021831
    16  H    0.010669
 Sum of APT charges =  -0.00000
 APT charges with hydrogens summed into heavy atoms:
               1
     1  C    0.509681
     3  C    0.371988
     7  O   -0.391154
     8  O   -0.251540
    10  C   -0.178258
    11  C   -0.028551
    13  C   -0.032165
 Electronic spatial extent (au):  <R**2>=            991.1504
 Charge=             -0.0000 electrons
 Dipole moment (field-independent basis, Debye):
    X=             -0.5605    Y=              1.4066    Z=              1.2953  Tot=              1.9926
 Quadrupole moment (field-independent basis, Debye-Ang):
   XX=            -38.9104   YY=            -40.9714   ZZ=            -43.8714
   XY=              4.8425   XZ=              1.4069   YZ=             -2.3417
 Traceless Quadrupole moment (field-independent basis, Debye-Ang):
   XX=              2.3407   YY=              0.2797   ZZ=             -2.6204
   XY=              4.8425   XZ=              1.4069   YZ=             -2.3417
 Octapole moment (field-independent basis, Debye-Ang**2):
  XXX=             23.9287  YYY=             12.7314  ZZZ=             -0.2147  XYY=              2.4172
  XXY=             -4.5284  XXZ=              3.2546  XZZ=              2.2794  YZZ=             -3.9591
  YYZ=             -6.8564  XYZ=              0.1150
 Hexadecapole moment (field-independent basis, Debye-Ang**3):
 XXXX=           -760.1297 YYYY=           -341.6577 ZZZZ=           -101.1069 XXXY=             13.7992
 XXXZ=              0.4476 YYYX=              0.6649 YYYZ=            -24.5671 ZZZX=             -4.3555
 ZZZY=              0.2385 XXYY=           -208.5221 XXZZ=           -153.5401 YYZZ=            -88.4958
 XXYZ=             -3.4958 YYXZ=              0.6979 ZZXY=              2.6087
 N-N= 2.899829215413D+02 E-N=-1.388571212820D+03  KE= 3.440655349043D+02
  Exact polarizability: 107.551  -4.442  90.078  -3.403  -5.010  54.180
 Approx polarizability:  89.901  -0.233 106.816  -7.331  -9.674  67.210
                          Isotropic Fermi Contact Couplings
        Atom                 a.u.       MegaHertz       Gauss      10(-4) cm-1
     1  C(13)              0.07779      87.44954      31.20417      29.17003
     2  H(1)              -0.00275     -12.27765      -4.38097      -4.09538
     3  C(13)             -0.00502      -5.64541      -2.01442      -1.88311
     4  H(1)               0.00092       4.13397       1.47510       1.37894
     5  H(1)              -0.00013      -0.57210      -0.20414      -0.19083
     6  H(1)               0.00254      11.35947       4.05334       3.78911
     7  O(17)              0.02203     -13.35442      -4.76519      -4.45455
     8  O(17)              0.02838     -17.20498      -6.13916      -5.73896
     9  H(1)              -0.02150     -96.08067     -34.28397     -32.04906
    10  C(13)             -0.01282     -14.40901      -5.14149      -4.80633
    11  C(13)              0.00058       0.64741       0.23101       0.21595
    12  H(1)              -0.00276     -12.33116      -4.40007      -4.11323
    13  C(13)             -0.00829      -9.32418      -3.32710      -3.11021
    14  H(1)               0.00205       9.16680       3.27094       3.05772
    15  H(1)               0.01329      59.40060      21.19561      19.81391
    16  H(1)               0.00232      10.36503       3.69850       3.45740
 --------------------------------------------------------
       Center         ----  Spin Dipole Couplings  ----
                      3XX-RR        3YY-RR        3ZZ-RR
 --------------------------------------------------------
     1   Atom        0.347795     -0.117080     -0.230714
     2   Atom       -0.008171     -0.025394      0.033565
     3   Atom        0.003336     -0.001013     -0.002322
     4   Atom        0.005800     -0.003833     -0.001967
     5   Atom        0.003082      0.001226     -0.004308
     6   Atom       -0.000500      0.001636     -0.001136
     7   Atom        0.293229     -0.045859     -0.247370
     8   Atom        0.644675      0.146142     -0.790816
     9   Atom        0.133359     -0.049209     -0.084150
    10   Atom       -0.039905      0.040513     -0.000608
    11   Atom        0.161248     -0.078330     -0.082918
    12   Atom       -0.001816      0.013153     -0.011337
    13   Atom        0.020124     -0.010025     -0.010099
    14   Atom        0.001942      0.003798     -0.005741
    15   Atom        0.007220     -0.003182     -0.004039
    16   Atom        0.000401     -0.004434      0.004033
 --------------------------------------------------------
                        XY            XZ            YZ
 --------------------------------------------------------
     1   Atom       -0.318912     -0.168804      0.086617
     2   Atom       -0.012892     -0.006331     -0.007177
     3   Atom        0.007258      0.003912      0.003370
     4   Atom        0.003216      0.005225      0.001259
     5   Atom        0.004893      0.000782      0.000955
     6   Atom        0.003617      0.003717      0.005004
     7   Atom       -0.410657     -0.195407      0.166245
     8   Atom       -1.288906     -0.422349      0.351488
     9   Atom       -0.110355     -0.068499      0.029929
    10   Atom        0.013542      0.014960     -0.014126
    11   Atom       -0.086373     -0.104504      0.027531
    12   Atom        0.000389     -0.006249     -0.007399
    13   Atom        0.002769      0.006626      0.002656
    14   Atom        0.006947      0.000664      0.001999
    15   Atom        0.000349      0.001682      0.001842
    16   Atom        0.001205      0.006522      0.003122
 --------------------------------------------------------


 ---------------------------------------------------------------------------------
              Anisotropic Spin Dipole Couplings in Principal Axis System
 ---------------------------------------------------------------------------------

       Atom             a.u.   MegaHertz   Gauss  10(-4) cm-1        Axes

              Baa    -0.2794   -37.496   -13.379   -12.507  0.3962  0.8927 -0.2146
     1 C(13)  Bbb    -0.2763   -37.081   -13.232   -12.369  0.3040  0.0930  0.9481
              Bcc     0.5558    74.577    26.611    24.876  0.8664 -0.4408 -0.2345
 
              Baa    -0.0336   -17.917    -6.393    -5.977  0.4752  0.8690  0.1377
     2 H(1)   Bbb    -0.0014    -0.751    -0.268    -0.250  0.8720 -0.4860  0.0581
              Bcc     0.0350    18.668     6.661     6.227 -0.1174 -0.0925  0.9888
 
              Baa    -0.0065    -0.869    -0.310    -0.290 -0.5485  0.8224 -0.1509
     3 C(13)  Bbb    -0.0043    -0.576    -0.206    -0.192 -0.3861 -0.0890  0.9182
              Bcc     0.0108     1.445     0.516     0.482  0.7417  0.5618  0.3664
 
              Baa    -0.0050    -2.657    -0.948    -0.886 -0.4540  0.7560  0.4715
     4 H(1)   Bbb    -0.0043    -2.319    -0.827    -0.774 -0.2053 -0.6037  0.7703
              Bcc     0.0093     4.976     1.775     1.660  0.8670  0.2529  0.4293
 
              Baa    -0.0045    -2.384    -0.851    -0.795  0.0111 -0.1746  0.9846
     5 H(1)   Bbb    -0.0028    -1.490    -0.532    -0.497 -0.6446  0.7515  0.1406
              Bcc     0.0073     3.874     1.382     1.292  0.7644  0.6362  0.1042
 
              Baa    -0.0052    -2.778    -0.991    -0.927 -0.3211 -0.4426  0.8373
     6 H(1)   Bbb    -0.0032    -1.709    -0.610    -0.570  0.8039 -0.5947 -0.0060
              Bcc     0.0084     4.487     1.601     1.497  0.5006  0.6712  0.5467
 
              Baa    -0.3489    25.249     9.010     8.422  0.2367  0.6938 -0.6802
     7 O(17)  Bbb    -0.2922    21.143     7.544     7.053  0.5598  0.4748  0.6791
              Bcc     0.6411   -46.392   -16.554   -15.475  0.7941 -0.5415 -0.2760
 
              Baa    -0.9178    66.413    23.698    22.153  0.5942  0.7820 -0.1882
     8 O(17)  Bbb    -0.9059    65.547    23.389    21.864  0.2781  0.0198  0.9604
              Bcc     1.8237  -131.960   -47.087   -44.017  0.7547 -0.6230 -0.2057
 
              Baa    -0.1046   -55.836   -19.924   -18.625  0.4082  0.3597  0.8390
     9 H(1)   Bbb    -0.1000   -53.344   -19.034   -17.794  0.2545  0.8378 -0.4830
              Bcc     0.2046   109.180    38.958    36.418  0.8767 -0.4107 -0.2505
 
              Baa    -0.0484    -6.494    -2.317    -2.166  0.9182 -0.1947 -0.3450
    10 C(13)  Bbb     0.0026     0.347     0.124     0.116  0.3815  0.1999  0.9025
              Bcc     0.0458     6.147     2.194     2.051  0.1067  0.9603 -0.2578
 
              Baa    -0.1224   -16.431    -5.863    -5.481  0.3945  0.2149  0.8934
    11 C(13)  Bbb    -0.1043   -13.997    -4.995    -4.669  0.1835  0.9342 -0.3058
              Bcc     0.2268    30.428    10.858    10.150  0.9004 -0.2846 -0.3291
 
              Baa    -0.0159    -8.487    -3.028    -2.831  0.3901  0.2223  0.8935
    12 H(1)   Bbb     0.0004     0.229     0.082     0.076  0.9120 -0.2267 -0.3418
              Bcc     0.0155     8.258     2.947     2.755  0.1266  0.9483 -0.2912
 
              Baa    -0.0130    -1.747    -0.624    -0.583 -0.1079 -0.6017  0.7914
    13 C(13)  Bbb    -0.0088    -1.184    -0.423    -0.395 -0.2072  0.7922  0.5741
              Bcc     0.0218     2.932     1.046     0.978  0.9723  0.1020  0.2102
 
              Baa    -0.0063    -3.353    -1.197    -1.119  0.1925 -0.3168  0.9288
    14 H(1)   Bbb    -0.0038    -2.045    -0.730    -0.682  0.7365 -0.5788 -0.3501
              Bcc     0.0101     5.398     1.926     1.801  0.6485  0.7514  0.1219
 
              Baa    -0.0056    -2.987    -1.066    -0.996 -0.0886 -0.5955  0.7984
    15 H(1)   Bbb    -0.0019    -1.016    -0.362    -0.339 -0.1380  0.8012  0.5823
              Bcc     0.0075     4.003     1.428     1.335  0.9865  0.0586  0.1531
 
              Baa    -0.0058    -3.103    -1.107    -1.035  0.3605  0.7935 -0.4903
    16 H(1)   Bbb    -0.0039    -2.083    -0.743    -0.695  0.7320 -0.5664 -0.3786
              Bcc     0.0097     5.186     1.851     1.730  0.5781  0.2224  0.7851
 

 ---------------------------------------------------------------------------------

 Calling FoFJK, ICntrl=  10100127 FMM=F ISym2X=0 I1Cent= 0 IOpClX= 1 NMat=1 NMatS=1 NMatT=0.
 ***** Axes restored to original set *****
 -------------------------------------------------------------------
 Center     Atomic                   Forces (Hartrees/Bohr)
 Number     Number              X              Y              Z
 -------------------------------------------------------------------
      1        6          -0.000000997   -0.000003810    0.000005446
      2        1          -0.000002598   -0.000000599    0.000001408
      3        6           0.000001673    0.000001278    0.000004755
      4        1          -0.000000031    0.000001877   -0.000000819
      5        1          -0.000000221    0.000000321    0.000000245
      6        1          -0.000004187   -0.000002884    0.000000240
      7        8           0.000014550    0.000005589   -0.000005611
      8        8           0.000003357   -0.000016436    0.000011497
      9        1          -0.000019861    0.000012810   -0.000019130
     10        6           0.000005927    0.000000048    0.000002188
     11        6           0.000003193   -0.000002151    0.000003348
     12        1          -0.000001404   -0.000000076   -0.000001408
     13        6          -0.000001043    0.000001596   -0.000001059
     14        1           0.000001521    0.000000009    0.000000593
     15        1           0.000001241    0.000001747   -0.000000691
     16        1          -0.000001121    0.000000681   -0.000001003
 -------------------------------------------------------------------
 Cartesian Forces:  Max     0.000019861 RMS     0.000006139
 FormGI is forming the generalized inverse of G from B-inverse, IUseBI=4.

 GradGradGradGradGradGradGradGradGradGradGradGradGradGradGradGradGradGrad
 Berny optimization.
 Internal  Forces:  Max     0.000032751 RMS     0.000006245
 Search for a saddle point.
 Step number   1 out of a maximum of  100
 All quantities printed in internal units (Hartrees-Bohrs-Radians)
 Swapping is turned off.
 Second derivative matrix not updated -- analytic derivatives used.
 ITU=  0
     Eigenvalues ---   -0.08099   0.00166   0.00198   0.00593   0.01973
     Eigenvalues ---    0.03034   0.03453   0.03663   0.03808   0.03898
     Eigenvalues ---    0.04502   0.04516   0.05841   0.07625   0.08433
     Eigenvalues ---    0.08453   0.08488   0.09360   0.10479   0.12140
     Eigenvalues ---    0.12446   0.13072   0.15239   0.16533   0.16658
     Eigenvalues ---    0.16690   0.18194   0.19469   0.26285   0.30138
     Eigenvalues ---    0.31868   0.33472   0.33868   0.34203   0.34333
     Eigenvalues ---    0.34591   0.34984   0.35499   0.38112   0.41128
     Eigenvalues ---    0.41639   1.03476
 Eigenvectors required to have negative eigenvalues:
                          R10       R2        R9        D4        D12
   1                    0.71081  -0.62621  -0.16681  -0.08503   0.07898
                          D5        R3        A5        D11       D6
   1                   -0.07872   0.07706   0.07580   0.07343  -0.07316
 RFO step:  Lambda0=4.918190750D-09 Lambda=-3.53141834D-08.
 Linear search not attempted -- option 19 set.
 Iteration  1 RMS(Cart)=  0.00082392 RMS(Int)=  0.00000036
 Iteration  2 RMS(Cart)=  0.00000055 RMS(Int)=  0.00000000
 Variable       Old X    -DE/DX   Delta X   Delta X   Delta X     New X
                                 (Linear)    (Quad)   (Total)
    R1        2.05548  -0.00000   0.00000  -0.00000  -0.00000   2.05547
    R2        2.50970  -0.00001   0.00000   0.00015   0.00015   2.50985
    R3        2.67996  -0.00000   0.00000  -0.00002  -0.00002   2.67993
    R4        2.86113   0.00000   0.00000  -0.00002  -0.00002   2.86111
    R5        2.05656   0.00000   0.00000  -0.00000  -0.00000   2.05656
    R6        2.05514   0.00000   0.00000   0.00000   0.00000   2.05514
    R7        2.05836   0.00000   0.00000   0.00001   0.00001   2.05837
    R8        2.69352  -0.00001   0.00000  -0.00001  -0.00001   2.69350
    R9        2.63150  -0.00000   0.00000   0.00001   0.00001   2.63151
   R10        2.27493   0.00002   0.00000  -0.00013  -0.00013   2.27480
   R11        2.28812   0.00000   0.00000   0.00000   0.00000   2.28812
   R12        2.00311  -0.00000   0.00000  -0.00000  -0.00000   2.00311
   R13        2.05605   0.00000   0.00000   0.00001   0.00001   2.05606
   R14        2.06290  -0.00000   0.00000   0.00000   0.00000   2.06290
   R15        2.05513  -0.00000   0.00000  -0.00001  -0.00001   2.05512
    A1        1.77051  -0.00000   0.00000  -0.00013  -0.00013   1.77039
    A2        1.98503  -0.00000   0.00000  -0.00000  -0.00000   1.98502
    A3        2.00437  -0.00000   0.00000  -0.00001  -0.00001   2.00437
    A4        1.78597  -0.00000   0.00000   0.00003   0.00003   1.78600
    A5        1.81679   0.00000   0.00000  -0.00005  -0.00005   1.81675
    A6        2.05015   0.00001   0.00000   0.00011   0.00011   2.05026
    A7        1.92847   0.00000   0.00000   0.00000   0.00000   1.92848
    A8        1.92622   0.00000   0.00000   0.00003   0.00003   1.92625
    A9        1.92396  -0.00000   0.00000  -0.00000  -0.00000   1.92395
   A10        1.91935  -0.00000   0.00000  -0.00002  -0.00002   1.91932
   A11        1.83573  -0.00000   0.00000  -0.00001  -0.00001   1.83572
   A12        1.92835  -0.00000   0.00000   0.00001   0.00001   1.92836
   A13        1.88804   0.00001   0.00000   0.00003   0.00003   1.88808
   A14        1.81684   0.00003   0.00000   0.00019   0.00019   1.81703
   A15        1.92864  -0.00000   0.00000  -0.00002  -0.00002   1.92862
   A16        1.93278   0.00000   0.00000   0.00000   0.00000   1.93278
   A17        1.93009   0.00000   0.00000   0.00002   0.00002   1.93011
   A18        1.88846  -0.00000   0.00000  -0.00002  -0.00002   1.88844
   A19        1.89591  -0.00000   0.00000  -0.00001  -0.00001   1.89590
   A20        1.88669  -0.00000   0.00000   0.00002   0.00002   1.88671
   A21        3.15781   0.00000   0.00000   0.00025   0.00025   3.15806
   A22        3.09500   0.00000   0.00000  -0.00000  -0.00000   3.09499
   A23        3.16028   0.00000   0.00000   0.00009   0.00009   3.16037
   A24        3.20831  -0.00000   0.00000   0.00009   0.00009   3.20840
   A25        3.10393   0.00001   0.00000   0.00014   0.00014   3.10407
   A26        3.14781   0.00001   0.00000   0.00010   0.00010   3.14791
    D1       -2.11490  -0.00000   0.00000  -0.00090  -0.00090  -2.11580
    D2       -0.05559  -0.00001   0.00000  -0.00088  -0.00088  -0.05646
    D3        2.07515   0.00000   0.00000  -0.00079  -0.00079   2.07436
    D4       -0.89635  -0.00000   0.00000  -0.00071  -0.00071  -0.89707
    D5        1.19593  -0.00000   0.00000  -0.00074  -0.00074   1.19519
    D6       -2.99622   0.00000   0.00000  -0.00070  -0.00070  -2.99692
    D7        1.02311  -0.00000   0.00000  -0.00089  -0.00089   1.02222
    D8        3.11540  -0.00000   0.00000  -0.00092  -0.00092   3.11448
    D9       -1.07675  -0.00000   0.00000  -0.00089  -0.00089  -1.07764
   D10        2.98221  -0.00000   0.00000  -0.00084  -0.00084   2.98138
   D11       -1.20868  -0.00000   0.00000  -0.00087  -0.00087  -1.20955
   D12        0.88235  -0.00000   0.00000  -0.00083  -0.00083   0.88152
   D13        1.00779  -0.00000   0.00000  -0.00037  -0.00037   1.00741
   D14        3.08681  -0.00000   0.00000  -0.00038  -0.00038   3.08643
   D15       -1.12590  -0.00000   0.00000  -0.00041  -0.00041  -1.12631
   D16        1.62097  -0.00001   0.00000  -0.00012  -0.00012   1.62085
         Item               Value     Threshold  Converged?
 Maximum Force            0.000033     0.000450     YES
 RMS     Force            0.000006     0.000300     YES
 Maximum Displacement     0.002434     0.001800     NO 
 RMS     Displacement     0.000824     0.001200     YES
 Predicted change in Energy=-1.519800D-08
 GradGradGradGradGradGradGradGradGradGradGradGradGradGradGradGradGradGrad

                          Input orientation:                          
 ---------------------------------------------------------------------
 Center     Atomic      Atomic             Coordinates (Angstroms)
 Number     Number       Type             X           Y           Z
 ---------------------------------------------------------------------
      1          6           0       -0.799363    1.046665   -0.576102
      2          1           0       -0.665177    1.381108   -1.602384
      3          6           0        2.188810   -1.253859   -0.442105
      4          1           0        3.165632   -0.859681   -0.715608
      5          1           0        2.278383   -2.275032   -0.078908
      6          1           0        1.513921   -1.220748   -1.296433
      7          8           0        1.647433   -0.515391    0.650218
      8          8           0        1.573275    0.823619    0.275118
      9          1           0        0.459677    0.943529   -0.166001
     10          6           0       -1.263740   -0.288867   -0.467092
     11          6           0       -1.605634   -1.442087   -0.328245
     12          1           0       -1.924125   -2.446533   -0.213121
     13          6           0       -1.406871    2.075450    0.353860
     14          1           0       -0.863024    3.015595    0.289483
     15          1           0       -2.449278    2.265913    0.091573
     16          1           0       -1.375891    1.726016    1.383251
 ---------------------------------------------------------------------
                    Distance matrix (angstroms):
                    1          2          3          4          5
     1  C    0.000000
     2  H    1.087710   0.000000
     3  C    3.773532   4.053953   0.000000
     4  H    4.401681   4.525771   1.088283   0.000000
     5  H    4.555589   4.934864   1.087534   1.787684   0.000000
     6  H    3.318331   3.407599   1.089242   1.787701   1.782774
     7  O    3.151300   3.744207   1.425340   2.070976   2.006504
     8  O    2.530560   2.974302   2.282369   2.520047   3.197522
     9  H    1.328157   1.876158   2.809742   3.297851   3.697893
    10  C    1.418160   2.106178   3.584960   4.472910   4.079482
    11  C    2.627812   3.237024   3.800816   4.822263   3.980145
    12  H    3.687721   4.262141   4.288490   5.355018   4.208147
    13  C    1.514032   2.204339   4.964553   5.537738   5.717961
    14  H    2.151738   2.507958   5.298787   5.679616   6.163999
    15  H    2.157447   2.614458   5.846834   6.476735   6.557441
    16  H    2.152433   3.088380   4.991861   5.631737   5.612487
                    6          7          8          9         10
     6  H    0.000000
     7  O    2.074803   0.000000
     8  O    2.579289   1.392533   0.000000
     9  H    2.659587   2.050713   1.203771   0.000000
    10  C    3.044932   3.126440   3.136424   2.140006   0.000000
    11  C    3.273836   3.521165   3.950055   3.159588   1.210820
    12  H    3.807398   4.150987   4.812908   4.144545   2.270712
    13  C    4.703128   4.016100   3.233350   2.243993   2.506880
    14  H    5.109951   4.347457   3.277272   2.500092   3.413569
    15  H    5.458051   4.983049   4.277246   3.205786   2.871326
    16  H    4.920888   3.834284   3.277172   2.526218   2.737901
                   11         12         13         14         15
    11  C    0.000000
    12  H    1.060001   0.000000
    13  C    3.588571   4.586649   0.000000
    14  H    4.561139   5.586895   1.088020   0.000000
    15  H    3.825866   4.751397   1.091642   1.765615   0.000000
    16  H    3.608169   4.501015   1.087525   1.767024   1.764109
                   16
    16  H    0.000000
 Stoichiometry    C5H9O2(2)
 Framework group  C1[X(C5H9O2)]
 Deg. of freedom    42
 Full point group                 C1      NOp   1
 Largest Abelian subgroup         C1      NOp   1
 Largest concise Abelian subgroup C1      NOp   1
                         Standard orientation:                         
 ---------------------------------------------------------------------
 Center     Atomic      Atomic             Coordinates (Angstroms)
 Number     Number       Type             X           Y           Z
 ---------------------------------------------------------------------
      1          6           0       -1.296878   -0.242924    0.562823
      2          1           0       -1.351939   -0.369154    1.641780
      3          6           0        2.433236    0.285091    0.346037
      4          1           0        3.093535   -0.453028    0.797195
      5          1           0        3.010438    1.036746   -0.187427
      6          1           0        1.818524    0.760580    1.109245
      7          8           0        1.612525   -0.327999   -0.644997
      8          8           0        0.894535   -1.355985   -0.039289
      9          1           0       -0.141801   -0.837546    0.286736
     10          6           0       -1.054147    1.093828    0.156187
     11          6           0       -0.792433    2.210524   -0.231862
     12          1           0       -0.582645    3.194183   -0.566536
     13          6           0       -2.317834   -1.037694   -0.223485
     14          1           0       -2.298866   -2.083686    0.075395
     15          1           0       -3.324357   -0.651965   -0.050844
     16          1           0       -2.111039   -0.977212   -1.289453
 ---------------------------------------------------------------------
 Rotational constants (GHZ):           3.2247417           1.7006467           1.2213612
 Standard basis: CC-pVTZ (5D, 7F)
 There are   380 symmetry adapted cartesian basis functions of A   symmetry.
 There are   336 symmetry adapted basis functions of A   symmetry.
   336 basis functions,   517 primitive gaussians,   380 cartesian basis functions
    28 alpha electrons       27 beta electrons
       nuclear repulsion energy       289.9871280808 Hartrees.
 NAtoms=   16 NActive=   16 NUniq=   16 SFac= 1.00D+00 NAtFMM=   60 NAOKFM=F Big=F
 Integral buffers will be    131072 words long.
 Raffenetti 2 integral format.
 Two-electron integral symmetry is turned on.
 Nuclear repulsion after empirical dispersion term =      289.9785311689 Hartrees.
 One-electron integrals computed using PRISM.
 NBasis=   336 RedAO= T EigKep=  4.56D-05  NBF=   336
 NBsUse=   336 1.00D-06 EigRej= -1.00D+00 NBFU=   336
 Initial guess from the checkpoint file:  "/localscratch/353443/Gau-87375.chk"
 B after Tr=     0.000000    0.000000    0.000000
         Rot=    1.000000    0.000067    0.000016   -0.000042 Ang=   0.01 deg.
 Initial guess <Sx>= 0.0000 <Sy>= 0.0000 <Sz>= 0.5000 <S**2>= 0.7899 S= 0.5197
 Requested convergence on RMS density matrix=1.00D-08 within 128 cycles.
 Requested convergence on MAX density matrix=1.00D-06.
 Requested convergence on             energy=1.00D-06.
 No special actions if energy rises.
 SCF Done:  E(UB2PLYPD3) =  -345.576813035     A.U. after   10 cycles
            NFock= 10  Conv=0.37D-08     -V/T= 2.0044
 <Sx>= 0.0000 <Sy>= 0.0000 <Sz>= 0.5000 <S**2>= 0.7899 S= 0.5198
 <L.S>=  0.00000000000    
 Annihilation of the first spin contaminant:
 S**2 before annihilation     0.7899,   after     0.7511
 DoSCS=T DFT=T ScalE2(SS,OS)=  0.270000  0.270000
 ExpMin= 1.03D-01 ExpMax= 1.53D+04 ExpMxC= 5.22D+02 IAcc=3 IRadAn=         5 AccDes= 0.00D+00
 HarFok:  IExCor=  205 AccDes= 0.00D+00 IRadAn=         5 IDoV=-2 UseB2=F ITyADJ=14
 ICtDFT= 12500011 ScaDFX=  1.000000  1.000000  1.000000  1.000000
 Range of M.O.s used for correlation:     8   336
 NBasis=   336 NAE=    28 NBE=    27 NFC=     7 NFV=     0
 NROrb=    329 NOA=    21 NOB=    20 NVA=   308 NVB=   309

 **** Warning!!: The largest alpha MO coefficient is  0.41357331D+02


 **** Warning!!: The largest beta MO coefficient is  0.41353697D+02

 DoSCS=T DFT=T ScalE2(SS,OS)=  0.270000  0.270000
 Disk-based method using ON**2 memory for 21 occupieds at a time.
 Estimated scratch disk usage=  2029210008 words.
 Actual    scratch disk usage=  1859765656 words.
 JobTyp=2 Pass  1:  I=   8 to  28 NPSUse= 40 ParTrn=T ParDer=T DoDerP=T.
 (rs|ai) integrals will be sorted in core.
 Actual    scratch disk usage=  1859765656 words.
 JobTyp=3 Pass  1:  I=   8 to  27 NPSUse= 40 ParTrn=T ParDer=T DoDerP=T.
 (rs|ai) integrals will be sorted in core.
 Spin components of T(2) and E(2):
     alpha-alpha T2 =       0.7916169941D-01 E2=     -0.5372948509D-01
     alpha-beta  T2 =       0.4710968005D+00 E2=     -0.3274919429D+00
     beta-beta   T2 =       0.8911453436D-01 E2=     -0.5364709394D-01
 (S**2,0)=  0.78989D+00           (S**2,1)=  0.74710D+00
 Scaling Projection term by:   0.270000
 E(PUHF)=      -0.34558525161D+03        E(PMP2)=      -0.34601275708D+03
 E2(B2PLYPD3) =    -0.4348685220D+00 E(B2PLYPD3) =    -0.34601168155709D+03
          IDoAtm=1111111111111111
          Differentiating once with respect to electric field.
                with respect to dipole field.
          Differentiating once with respect to nuclear coordinates.
 Keep R1 and R2 ints in memory in canonical form, NReq=3251778068.
          There are     1 degrees of freedom in the 1st order CPHF.  IDoFFX=0 NUNeed=     1.
 LinEq1:  Iter=  0 NonCon=     1 RMS=9.81D-04 Max=5.60D-02 NDo=     1
 AX will form     1 AO Fock derivatives at one time.
 LinEq1:  Iter=  1 NonCon=     1 RMS=3.62D-04 Max=8.76D-03 NDo=     1
 LinEq1:  Iter=  2 NonCon=     1 RMS=2.55D-04 Max=9.45D-03 NDo=     1
 LinEq1:  Iter=  3 NonCon=     1 RMS=1.70D-04 Max=7.07D-03 NDo=     1
 LinEq1:  Iter=  4 NonCon=     1 RMS=9.31D-05 Max=3.79D-03 NDo=     1
 LinEq1:  Iter=  5 NonCon=     1 RMS=6.80D-05 Max=2.84D-03 NDo=     1
 LinEq1:  Iter=  6 NonCon=     1 RMS=3.10D-05 Max=9.42D-04 NDo=     1
 LinEq1:  Iter=  7 NonCon=     1 RMS=9.09D-06 Max=2.55D-04 NDo=     1
 LinEq1:  Iter=  8 NonCon=     1 RMS=5.25D-06 Max=1.56D-04 NDo=     1
 LinEq1:  Iter=  9 NonCon=     1 RMS=3.67D-06 Max=8.27D-05 NDo=     1
 LinEq1:  Iter= 10 NonCon=     1 RMS=1.98D-06 Max=3.70D-05 NDo=     1
 LinEq1:  Iter= 11 NonCon=     1 RMS=9.14D-07 Max=2.13D-05 NDo=     1
 LinEq1:  Iter= 12 NonCon=     1 RMS=3.32D-07 Max=7.09D-06 NDo=     1
 LinEq1:  Iter= 13 NonCon=     1 RMS=1.08D-07 Max=2.42D-06 NDo=     1
 LinEq1:  Iter= 14 NonCon=     1 RMS=3.28D-08 Max=7.61D-07 NDo=     1
 LinEq1:  Iter= 15 NonCon=     1 RMS=1.43D-08 Max=4.51D-07 NDo=     1
 LinEq1:  Iter= 16 NonCon=     1 RMS=7.85D-09 Max=2.93D-07 NDo=     1
 LinEq1:  Iter= 17 NonCon=     1 RMS=2.81D-09 Max=1.31D-07 NDo=     1
 LinEq1:  Iter= 18 NonCon=     1 RMS=8.10D-10 Max=4.09D-08 NDo=     1
 LinEq1:  Iter= 19 NonCon=     1 RMS=2.58D-10 Max=1.05D-08 NDo=     1
 LinEq1:  Iter= 20 NonCon=     1 RMS=9.02D-11 Max=3.42D-09 NDo=     1
 LinEq1:  Iter= 21 NonCon=     1 RMS=3.40D-11 Max=1.10D-09 NDo=     1
 LinEq1:  Iter= 22 NonCon=     0 RMS=1.14D-11 Max=4.18D-10 NDo=     1
 Linear equations converged to 1.000D-10 1.000D-09 after    22 iterations.
 End of Minotr F.D. properties file   721 does not exist.
 End of Minotr F.D. properties file   722 does not exist.
 End of Minotr F.D. properties file   788 does not exist.
 Calling FoFJK, ICntrl=  10002127 FMM=F ISym2X=0 I1Cent= 0 IOpClX= 1 NMat=1 NMatS=1 NMatT=0.
 ***** Axes restored to original set *****
[...]

 ----------------------------------------------------------------------

 Dipole orientation:
     6         -1.12365945         -2.40365494          0.58225450
     1         -0.15808963         -3.81910293          1.71766302
     6          4.33556840          2.15013212          0.02530557
     1          6.13992910          1.45097913         -0.67103677
     1          4.40801351          4.18640842          0.29351045
     1          3.84432419          1.22476593          1.79710049
     8          2.40872969          1.74910797         -1.81356102
     8          2.30857192         -0.82524744         -2.34973571
     1          0.72716590         -1.62731437         -0.92476422
     6         -1.73611802         -0.17155265          1.93305395
     6         -2.19899687          1.80612498          2.98662913
     1         -2.63298853          3.51953882          3.92913740
     6         -3.09432935         -3.44257907         -1.21302433
     1         -2.30219103         -4.95997005         -2.35206949
     1         -4.70808799         -4.19434219         -0.17080988
     1         -3.77714810         -1.96648737         -2.46938606

 Electric dipole moment (dipole orientation):
 (Debye = 10**-18 statcoulomb cm , SI units = C m)
                  (au)            (Debye)         (10**-30 SI)
   Tot        0.721397D+00      0.183361D+01      0.611626D+01
   x          0.000000D+00      0.000000D+00      0.000000D+00
   y          0.000000D+00      0.000000D+00      0.000000D+00
   z          0.721397D+00      0.183361D+01      0.611626D+01

 Dipole polarizability, Alpha (dipole orientation).
 (esu units = cm**3 , SI units = C**2 m**2 J**-1)
 Alpha(0;0):
               (au)            (10**-24 esu)      (10**-40 SI)
   iso        0.839373D+02      0.124382D+02      0.138394D+02
   aniso      0.488944D+02      0.724541D+01      0.806161D+01
   xx         0.940655D+02      0.139391D+02      0.155093D+02
   yx         0.150552D+02      0.223095D+01      0.248226D+01
   yy         0.850610D+02      0.126047D+02      0.140247D+02
   zx        -0.189455D+02     -0.280743D+01     -0.312369D+01
   zy         0.980165D+01      0.145245D+01      0.161607D+01
   zz         0.726852D+02      0.107708D+02      0.119842D+02

 ----------------------------------------------------------------------
 1\1\GINC-N143\Freq\UB2PLYPD3-FC\CC-pVTZ\C5H9O2(2)\ROOT\24-Jun-2019\0\\
 #N Geom=AllCheck Guess=TCheck SCRF=Check GenChk UB2PLYPD3(FC)/CC-pVTZ 
 Freq\\Title Card Required\\0,2\C,-0.7993627883,1.0466653133,-0.5761023
 647\H,-0.6651765786,1.3811080755,-1.6023841809\C,2.1888101436,-1.25385
 89926,-0.442105292\H,3.1656315024,-0.8596812025,-0.7156076674\H,2.2783
 831582,-2.2750317253,-0.078907943\H,1.5139211474,-1.2207483396,-1.2964
 330763\O,1.6474332343,-0.5153906685,0.6502182736\O,1.5732747479,0.8236
 191538,0.2751176161\H,0.4596770266,0.9435289767,-0.1660006925\C,-1.263
 7402261,-0.2888674932,-0.4670920894\C,-1.6056341322,-1.4420871529,-0.3
 282452213\H,-1.9241251291,-2.4465334841,-0.2131208652\C,-1.4068713196,
 2.0754498999,0.3538596361\H,-0.8630235331,3.0155950335,0.2894830351\H,
 -2.4492781683,2.2659131862,0.09157304\H,-1.3758910852,1.7260164196,1.3
 832507918\\Version=ES64L-G16RevB.01\State=2-A\HF=-345.576813\MP2=-346.
 0116815\PUHF=-345.5852516\PMP2-0=-346.0127571\S2=0.789895\S2-1=0.7471\
 S2A=0.751065\RMSD=1.077e-09\RMSF=6.325e-07\ZeroPoint=0.1233537\Thermal
 =0.1329358\Dipole=-0.2986845,-0.3286572,-0.5684937\DipoleDeriv=1.28753
 07,-0.3407094,0.1774156,0.1749102,0.2468233,0.0583906,0.1642478,-0.063
 8992,0.1902659,-0.1022893,0.0698666,-0.0245958,0.0137869,-0.0262477,0.
 0125109,0.0180822,0.0311115,-0.0666841,0.5628929,-0.1021245,-0.0169275
 ,-0.3298526,0.4149211,0.0375261,-0.3939751,0.1831567,0.3467388,-0.1583
 063,0.0104971,0.0547707,-0.0807626,0.0171918,0.019246,0.0944785,-0.055
 357,0.0368157,0.0454498,0.0130262,0.0177436,0.0801859,-0.0901717,0.029
 8479,0.0315513,0.0416049,0.0284576,-0.0503055,0.003501,-0.1149263,0.06
 2352,0.0113804,0.0279661,0.0465386,-0.0624634,-0.0491087,-0.287142,0.0
 466227,0.0200065,1.3400964,-0.5211112,0.1843612,-0.1555427,0.0007187,-
 0.3654322,0.4853102,-0.2082275,0.1664781,-1.2709238,0.091543,-0.332112
 5,0.7190317,-0.2213253,-0.0932786,-1.2824732,0.3453749,-0.2439926,0.21
 93803,0.0124224,0.04483,-0.5405472,0.1470658,0.0317888,-0.3340153,0.08
 59501,-0.0276354,-0.2706394,-0.0596671,-0.1132045,0.0229923,-0.0250965
 ,-0.1410623,-0.2071743,-0.0505348,0.0062676,-0.0234741,-0.318936,-0.01
 54238,0.020038,-0.0117772,-0.2083522,0.2142706,0.0091426,-0.0015752,0.
 0349235,0.2251182,0.0077516,-0.0081151,0.0007792,0.2093412,-0.1583304,
 0.1381309,0.0129877,-0.0004911,0.067869,-0.0075875,-0.1018256,0.103884
 2,0.0386248,0.0281994,-0.0966323,0.0133526,-0.0420878,-0.0990315,-0.00
 71875,0.0321917,-0.0144552,0.0595499,-0.1192157,0.0782439,-0.0273552,0
 .0815883,-0.0000506,-0.0118361,0.0272347,-0.0607189,0.0538465,0.075598
 1,-0.0021275,-0.0120144,0.0110079,0.0279464,0.0649216,0.0236188,0.0067
 717,-0.0715111\Polar=106.5000356,-5.300221,91.4734395,5.7220598,0.3807
 945,53.8383124\PG=C01 [X(C5H9O2)]\NImag=1\\0.18520475,0.02751563,0.537
 52722,-0.09743044,-0.04295144,0.51578287,-0.02514944,-0.00498242,0.027
 11132,0.03426759,-0.01241695,-0.07555132,0.07896063,0.01239762,0.08385
 267,0.03962702,0.07866097,-0.28999577,-0.03889259,-0.08467293,0.309213
 74,-0.00478477,-0.00019379,0.00064057,0.00125729,-0.00003437,0.0000846
 8,0.56615348,0.00893984,0.00079244,0.00184462,-0.00159520,0.00027546,-
 0.00032816,0.03670622,0.56396806,0.00926269,0.00061531,0.00310947,-0.0
 0154475,0.00045546,-0.00042387,0.04009464,-0.08480151,0.51476274,0.001
 48696,0.00001966,0.00030753,-0.00026744,0.00003859,-0.00004141,-0.2630
 9640,-0.09180805,0.04916167,0.28400527,-0.00021003,-0.00003214,0.00015
 081,0.00011089,0.00001047,0.00003168,-0.09730627,-0.09201629,0.0282078
 8,0.09799392,0.09178207,-0.00179822,-0.00030157,-0.00054849,0.00026332
 ,-0.00005090,0.00005855,0.04619265,0.02215299,-0.06090990,-0.06395992,
 -0.02112678,0.07237252,0.00046304,0.00017500,0.00010354,-0.00004692,-0
 .00005075,0.00001343,-0.05257258,0.01483600,-0.00540776,0.00522429,-0.
 02679883,0.00931623,0.04986747,-0.00085711,-0.00014496,-0.00017840,0.0
 0012864,-0.00001675,0.00000865,0.01898918,-0.28147421,0.08607462,0.001
 35377,-0.00812581,0.00414169,-0.02436587,0.31239520,-0.00021006,0.0000
 5129,-0.00009853,0.00010848,-0.00007276,0.00002576,-0.00794990,0.09771
 009,-0.08710130,-0.00220329,0.00562938,-0.00167846,0.00490796,-0.09145
 551,0.08829167,0.00050658,0.00047878,-0.00020263,-0.00001125,-0.000046
 15,0.00009700,-0.16337718,0.00843687,-0.13395477,-0.01645571,0.0028315
 7,-0.02218275,-0.00064927,-0.00080067,-0.00013058,0.16794050,-0.000800
 82,0.00010943,0.00015722,0.00043087,-0.00015095,0.00006818,0.00841901,
 -0.05229055,0.01665619,-0.00928587,0.00200808,-0.00927607,0.01928889,0
 .00128653,0.02298619,-0.01070893,0.05054545,-0.00315817,-0.00062074,-0
 .00043744,0.00058392,-0.00006241,0.00014255,-0.12824160,0.01157180,-0.
 19735808,0.00441900,0.00067950,0.00778256,-0.00661241,0.00056488,-0.00
 589225,0.13832971,-0.00569262,0.22750178,-0.00186343,-0.00249200,-0.00
 322669,-0.00120485,0.00013271,0.00002539,-0.08602189,0.01252450,0.0576
 9000,-0.01116734,0.02284579,0.03362069,-0.00181640,0.00214948,0.002675
 31,0.01258916,-0.00638200,-0.00843809,0.12260826,-0.04942619,-0.003710
 16,-0.01017942,0.00710516,-0.00092446,0.00125504,0.02283516,-0.0758576
 9,-0.05058592,0.00463781,0.00063703,-0.00007311,0.01463738,-0.02266982
 ,-0.02724783,0.00299018,-0.00685452,-0.01197105,-0.06509155,0.33743530
 ,0.00836433,0.00043967,0.00013650,-0.00182483,0.00012097,-0.00007268,0
 .05058297,-0.02002827,-0.18443334,0.01379802,-0.01258083,-0.01845526,-
 0.00452905,0.00563984,0.00857677,0.01724136,-0.02362235,-0.03443696,-0
 .08197109,0.00653143,0.29732401,-0.13077070,-0.00361436,-0.03624884,0.
 00941461,-0.00070514,0.00126335,-0.00290528,0.02747840,-0.00260047,0.0
 0310381,0.00013129,-0.00400864,-0.00022614,0.00259984,0.00289591,0.001
 02254,-0.00327158,-0.00147554,-0.03966867,-0.02726172,0.01469732,0.088
 45230,0.06455189,0.00948024,0.01393637,-0.00802225,0.00084691,-0.00180
 154,0.00914190,-0.06443035,-0.00024127,-0.00315923,0.00603100,0.004901
 41,0.00263432,-0.00124118,-0.00722084,-0.00244755,0.00539548,0.0061253
 7,0.00977119,-0.20884969,0.03102630,0.03165604,0.27513557,-0.06827415,
 -0.00345629,-0.01505292,0.00623252,-0.00083313,0.00179696,-0.00555524,
 -0.02234299,0.01618704,-0.00070148,-0.00128575,0.00039952,0.00245208,-
 0.00476308,-0.00176505,0.00113888,-0.00167567,0.00097575,0.00534007,0.
 05883413,-0.05920947,-0.00398607,-0.01687493,0.04626902,0.11031378,0.0
 1643981,0.03040430,-0.01633628,0.00163703,-0.00338987,0.00533781,-0.01
 335744,-0.01138027,-0.00216917,0.00057293,0.00250849,-0.00010558,0.000
 33802,-0.00030847,-0.00025441,0.00185397,0.00428378,0.00332864,0.07558
 859,-0.01460174,0.05268888,-0.08446284,0.05089639,-0.09453267,-0.02311
 275,-0.02966541,-0.00334414,0.00757043,-0.00073526,0.00286310,0.000753
 32,0.00131724,0.00431578,0.00021097,-0.00022813,-0.00058806,-0.0000827
 7,-0.00029507,-0.00046380,-0.00023669,0.00005750,-0.00133137,0.0224088
 1,-0.02503385,0.01268294,-0.03773050,-0.01407524,-0.01466210,0.0255295
 4,0.07207322,0.05043907,0.00832344,-0.01102816,-0.01947762,0.00215737,
 -0.00790539,0.00379758,-0.00558269,-0.00241605,-0.00086961,0.00040225,
 0.00077318,-0.00026239,-0.00009917,-0.00048786,-0.00069898,0.00048042,
 0.00139321,-0.00537412,0.03298901,-0.00961205,0.02985731,-0.02931802,0
 .00896211,-0.05346628,0.00411643,0.02125723,-0.06092544,-0.07443396,0.
 01967838,-0.00319368,-0.00323874,-0.00039085,-0.00009698,-0.00035001,0
 .00023303,-0.00032667,-0.00024023,-0.00019351,0.00005702,0.00026599,0.
 00020933,-0.00117773,0.00055564,0.00012362,0.00388709,0.00591918,-0.00
 047453,0.00803745,-0.01103830,0.00627431,-0.03430663,-0.01189149,-0.00
 862118,0.19008597,-0.04104026,-0.26757185,0.02933188,-0.01141415,-0.01
 252723,0.00258837,0.00061848,-0.00007121,0.00074350,-0.00036372,-0.000
 35446,-0.00020531,-0.00004096,0.00025261,0.00011139,-0.00083526,0.0003
 0491,0.00020963,0.00678939,0.00680065,-0.00042354,0.01573257,-0.013450
 00,0.00987651,-0.04131111,0.00632593,-0.01539417,0.34592704,1.22675326
 ,0.01284653,0.01792562,-0.07410630,0.01318082,0.02954843,0.00221816,0.
 00028760,-0.00008704,-0.00079976,0.00009531,-0.00001004,0.00012470,-0.
 00001073,0.00000174,0.00003621,0.00030402,-0.00005544,0.00022672,-0.00
 053492,0.00029870,0.00005750,-0.00082264,-0.00072926,0.00030415,-0.002
 55681,-0.00516729,-0.00030450,-0.04539479,-0.12261920,0.10923024,0.000
 57143,-0.00954099,0.00046407,0.00090107,-0.00117539,-0.00028977,-0.000
 24566,0.00010579,0.00066331,-0.00007983,-0.00005614,-0.00024262,0.0000
 7550,-0.00003539,0.00003963,-0.00012688,0.00001251,-0.00040581,-0.0010
 5829,-0.00077893,-0.00008494,-0.00072031,0.00181463,-0.00086962,0.0038
 7187,-0.00013473,0.00134799,-0.10986171,-0.26836281,0.03120360,0.16178
 613,-0.01355015,-0.02324730,0.00180588,0.00022927,-0.00223351,-0.00168
 231,0.00043830,-0.00098473,-0.00218893,0.00019712,0.00030030,0.0005325
 2,-0.00026266,0.00008380,-0.00001775,0.00044694,-0.00029771,0.00062988
 ,-0.00279162,0.00237500,-0.00044930,-0.00132322,0.00100381,-0.00071970
 ,0.00785684,-0.00450800,0.00364108,-0.26628244,-0.91879160,0.10392761,
 0.39355401,1.32705169,0.00149961,0.00349356,0.00572455,-0.00042932,-0.
 00078945,-0.00004327,0.00008654,0.00011646,-0.00041305,0.00007537,-0.0
 0008279,0.00006444,0.00003854,-0.00001843,0.00001254,0.00007643,-0.000
 08113,0.00012566,-0.00005158,-0.00064307,0.00013378,-0.00013031,0.0004
 8320,-0.00001713,-0.00044394,0.00111023,-0.00014822,0.03089284,0.10434
 493,-0.04079659,-0.04669322,-0.14942534,0.05953000,0.00496971,-0.00129
 232,-0.00032530,-0.00005932,-0.00005940,0.00005794,0.00000814,-0.00012
 587,-0.00013865,0.00004745,0.00008018,0.00006152,-0.00013896,0.0000515
 2,-0.00006156,0.00002522,-0.00011455,0.00012274,0.00005690,0.00015615,
 0.00003961,0.00014866,-0.00005589,0.00008821,0.00008299,0.00050309,-0.
 00011206,0.00159055,0.00346672,-0.00018424,-0.05509167,-0.11670091,0.0
 1404368,0.04878108,-0.00162738,0.00092740,0.00087056,-0.00002267,-0.00
 006870,0.00000346,-0.00021478,0.00027612,0.00021188,0.00005536,-0.0000
 2157,-0.00004384,0.00004382,-0.00004423,0.00000816,-0.00002322,0.00000
 144,-0.00004182,0.00005721,-0.00061194,0.00003574,-0.00012343,0.000538
 97,-0.00026733,0.00032053,-0.00019675,0.00018614,0.00139893,0.00613486
 ,-0.00099299,-0.11495139,-0.38262706,0.04155458,0.11484392,0.37537307,
 -0.00041723,0.00049702,0.00636200,-0.00046206,-0.00111870,-0.00010456,
 0.00001871,-0.00003063,0.00019342,-0.00001974,0.00000677,-0.00004032,-
 0.00000593,0.00001811,0.00002028,-0.00000869,0.00006556,-0.00005713,0.
 00004108,0.00007635,-0.00010128,0.00007205,-0.00010010,-0.00002150,0.0
 0004103,0.00017633,0.00000599,0.00045988,0.00007490,0.00006606,0.01355
 541,0.04077349,-0.02405436,-0.01363891,-0.04138634,0.01787999,-0.07202
 587,0.03418592,0.04383656,0.00011593,0.00173120,0.00018166,0.00033586,
 -0.00181437,-0.00233995,-0.00029234,0.00004483,0.00044906,-0.00013696,
 0.00021713,0.00006804,-0.00000518,0.00002347,0.00053094,-0.00006564,0.
 00862921,-0.00122271,0.01190039,-0.00953035,0.00788553,-0.03062578,0.0
 1504314,0.00100027,0.00696569,-0.00698470,-0.01042318,-0.00082430,-0.0
 0446985,0.00165842,-0.00046513,0.00029319,0.00048777,0.53050306,0.0302
 4704,-0.12852841,-0.05154287,-0.00361257,0.00875958,0.00600913,0.00020
 724,-0.00004875,0.00015435,0.00000141,0.00002906,0.00002112,-0.0000367
 7,0.00002480,-0.00003907,-0.00007767,-0.00008112,0.00003102,-0.0000289
 9,-0.00043426,-0.00008413,-0.00349932,0.00102460,-0.00116859,0.0080630
 8,-0.00346053,-0.00065964,0.01125396,-0.03487538,-0.01759313,0.0002964
 7,0.00240252,-0.00048194,-0.00077048,0.00026071,0.00078878,0.03712274,
 0.53076723,0.03991485,-0.04376149,-0.12429512,0.01527319,-0.02177825,-
 0.01496376,0.00038809,-0.00083110,-0.00104175,-0.00017697,0.00000813,0
 .00016562,-0.00004619,0.00012881,0.00007644,0.00003209,0.00002836,0.00
 019650,-0.00024058,0.00403839,-0.00052590,0.00185193,-0.00369013,0.002
 12202,-0.00492960,0.00219031,-0.00060648,-0.00547374,-0.00759121,0.004
 77985,0.00218902,0.00416252,-0.00070216,0.00011669,-0.00016857,-0.0001
 9213,0.01836493,-0.04850862,0.53527313,0.00600144,0.01551011,-0.001010
 67,0.00029015,-0.00075274,-0.00051468,-0.00003923,0.00005867,0.0001710
 9,0.00000776,0.00000243,-0.00002687,0.00001355,-0.00002945,-0.00001917
 ,0.00000273,0.00000295,-0.00003502,0.00014272,-0.00035306,0.00000663,-
 0.00026423,-0.00003584,-0.00021190,0.00119499,0.00036209,0.00009797,-0
 .00080513,0.00124194,0.00230310,0.00051215,0.00115366,-0.00030972,0.00
 006772,-0.00001975,-0.00013947,-0.11656999,-0.11973809,0.00909911,0.12
 433222,-0.00942890,-0.01979056,0.00243179,0.00013271,0.00088914,-0.000
 05382,-0.00011746,0.00009838,-0.00010051,0.00003927,0.00000074,0.00001
 370,-0.00002604,0.00002299,0.00002224,-0.00000879,-0.00003417,0.000030
 91,-0.00003185,-0.00025944,0.00026817,0.00085624,0.00051544,0.00017989
 ,-0.00119150,-0.00023597,-0.00023989,0.00177880,-0.00195500,-0.0038807
 2,-0.00016200,-0.00070341,0.00004302,-0.00008843,0.00012087,0.00018713
 ,-0.11737787,-0.24505286,0.01586194,0.12720616,0.26867024,-0.01037935,
 -0.01828974,0.00150329,-0.00063270,0.00077152,0.00059210,-0.00005739,0
 .00001919,0.00006803,0.00001939,0.00000381,0.00000738,0.00000107,-0.00
 001051,-0.00001552,-0.00002516,-0.00002356,0.00000346,0.00005633,-0.00
 017585,-0.00002099,0.00026117,0.00015230,0.00000387,-0.00060820,0.0001
 7676,0.00009115,0.00200889,-0.00332291,-0.00216238,-0.00029174,-0.0006
 3690,0.00038792,-0.00012950,0.00005976,0.00010849,0.00986084,0.0170176
 5,-0.05089695,-0.01228203,-0.01440463,0.05048882,-0.01193585,0.0060456
 9,0.00048617,0.00034045,0.00004773,0.00029701,0.00009365,-0.00017367,-
 0.00015127,-0.00004114,0.00001015,0.00004346,-0.00002141,0.00003039,0.
 00000744,-0.00002415,-0.00000142,0.00003066,0.00017176,0.00050275,0.00
 006296,-0.00004858,-0.00070670,-0.00004402,0.00040116,0.00127135,0.001
 26669,0.00007194,-0.00232886,0.00034225,0.00029577,0.00109088,-0.00019
 957,-0.00003842,-0.00002114,-0.00000765,-0.28238203,0.03848789,-0.0653
 5719,-0.01498993,0.00301851,-0.00440740,0.30847118,0.02100418,-0.00801
 881,0.00266845,-0.00074396,0.00049872,0.00007585,-0.00021008,0.0004968
 8,0.00052378,0.00007808,-0.00002108,-0.00011144,0.00003367,-0.00005081
 ,-0.00000801,-0.00000891,-0.00000903,-0.00012324,0.00011483,-0.0019177
 6,0.00038427,-0.00082717,0.00196454,-0.00093880,0.00270013,-0.00169642
 ,-0.00077521,0.00066726,0.00147933,-0.00003934,-0.00062367,0.00007367,
 -0.00004138,0.00007786,-0.00002106,0.00000570,0.04115168,-0.05193035,0
 .01302506,-0.02721362,0.00577477,-0.00760909,-0.04682149,0.05573149,0.
 01887093,-0.00612330,0.00268701,-0.00071479,0.00057339,0.00037724,-0.0
 0024570,0.00053023,0.00058711,0.00008952,-0.00002089,-0.00010974,0.000
 03341,-0.00005564,-0.00001567,-0.00002004,-0.00001558,-0.00014118,0.00
 022515,-0.00247715,0.00042644,-0.00172652,0.00264087,-0.00124733,0.004
 00684,-0.00216625,0.00038280,0.00048701,0.00121239,0.00029699,-0.00031
 949,0.00004061,-0.00011184,0.00004516,0.00000420,-0.00000155,-0.061272
 20,0.01157516,-0.06157410,0.00293742,-0.00037318,-0.00020608,0.0677884
 3,-0.00956544,0.06547665,-0.00206218,-0.00382075,0.01541213,-0.0003179
 3,0.00249474,0.00187170,-0.00004627,0.00013830,0.00024147,0.00002050,-
 0.00001248,-0.00004290,0.00001336,-0.00003546,-0.00002908,-0.00000500,
 -0.00002214,-0.00005775,0.00008198,-0.00009010,-0.00008431,-0.00016474
 ,-0.00011102,-0.00066551,0.00111039,-0.00046382,0.00107536,-0.00000176
 ,-0.00109431,-0.00063593,-0.00000527,0.00041382,-0.00011377,0.00001508
 ,-0.00000919,0.00002374,-0.04642771,0.00208408,-0.01100562,0.00010308,
 -0.00459885,0.01660577,-0.00036441,0.01062121,-0.03018512,0.04805087,0
 .00021197,0.00742418,-0.02396193,0.00228763,-0.00292475,-0.00302567,-0
 .00003206,-0.00005081,-0.00004060,-0.00000909,0.00000075,0.00001365,0.
 00001557,-0.00000307,0.00000684,0.00000949,0.00000925,0.00000025,0.000
 02412,-0.00012439,0.00005909,-0.00009796,0.00010991,0.00009784,-0.0005
 7756,0.00035674,-0.00022734,-0.00029163,0.00154518,-0.00052766,0.00003
 803,0.00010253,0.00041752,0.00002842,-0.00004212,-0.00003436,0.0017346
 2,-0.07885684,0.08688585,0.00260454,-0.00806116,0.02627221,-0.00045206
 ,-0.00235408,0.00422059,-0.00549403,0.08286870,0.00084260,0.00549771,-
 0.01974297,0.00122508,-0.00320925,-0.00091576,-0.00012420,0.00008703,-
 0.00001070,0.00000660,-0.00001312,-0.00000630,0.00000819,0.00000239,0.
 00001496,0.00000411,0.00000030,-0.00002514,0.00016305,-0.00066964,0.00
 021292,0.00009999,0.00071027,0.00029296,-0.00045566,0.00009112,-0.0003
 5695,0.00018129,0.00106283,0.00082897,-0.00026585,-0.00039337,0.000307
 74,0.00001469,-0.00003359,-0.00006340,-0.00906598,0.08448077,-0.287815
 21,-0.00006578,0.00001396,0.00004741,-0.00015796,0.00252884,-0.0068267
 3,0.00758982,-0.09015626,0.31405819\\0.00000055,0.00000042,0.00000009,
 0.00000100,0.00000088,0.00000022,-0.00000026,-0.00000042,0.00000032,0.
 ,-0.00000053,0.00000102,-0.00000067,-0.00000061,-0.00000010,0.00000017
 ,0.00000017,0.00000006,-0.00000050,-0.00000077,0.00000046,0.00000004,-
 0.00000068,0.00000107,-0.00000001,-0.00000009,0.00000052,-0.00000003,0
 .00000038,-0.00000085,-0.00000033,0.00000051,-0.00000159,-0.00000064,0
 .00000053,-0.00000223,0.00000017,0.00000011,0.00000022,0.00000049,0.,0
 .00000093,0.00000039,0.00000050,-0.00000020,-0.00000037,-0.00000041,0.
 00000007\\\@


 THERE ARE PEOPLE SO ADDICTED TO EXAGERATING THEY
 CAN'T TELL THE TRUTH WITHOUT LYING. -- FORTUNE COOKIE
 Job cpu time:       2 days  7 hours 50 minutes 18.6 seconds.
 Elapsed time:       0 days  1 hours 26 minutes 25.7 seconds.
 File lengths (MBytes):  RWF=  83473 Int=      0 D2E=      0 Chk=     18 Scr=      1
 Normal termination of Gaussian 16 at Mon Jun 24 16:49:31 2019.
