 Entering Gaussian System, Link 0=g16
 Initial command:
 /ichec/packages/gaussian/16b01/l1.exe "/localscratch/353442/Gau-82227.inp" -scrdir="/localscratch/353442/"
 Entering Link 1 = /ichec/packages/gaussian/16b01/l1.exe PID=     82657.
  
 Copyright (c) 1988-2017, Gaussian, Inc.  All Rights Reserved.
  
 This is part of the Gaussian(R) 16 program.  It is based on
 the Gaussian(R) 09 system (copyright 2009, Gaussian, Inc.),
 the Gaussian(R) 03 system (copyright 2003, Gaussian, Inc.),
 the Gaussian(R) 98 system (copyright 1998, Gaussian, Inc.),
 the Gaussian(R) 94 system (copyright 1995, Gaussian, Inc.),
 the Gaussian 92(TM) system (copyright 1992, Gaussian, Inc.),
 the Gaussian 90(TM) system (copyright 1990, Gaussian, Inc.),
 the Gaussian 88(TM) system (copyright 1988, Gaussian, Inc.),
 the Gaussian 86(TM) system (copyright 1986, Carnegie Mellon
 University), and the Gaussian 82(TM) system (copyright 1983,
 Carnegie Mellon University). Gaussian is a federally registered
 trademark of Gaussian, Inc.
  
 This software contains proprietary and confidential information,
 including trade secrets, belonging to Gaussian, Inc.
  
 This software is provided under written license and may be
 used, copied, transmitted, or stored only in accord with that
 written license.
  
 The following legend is applicable only to US Government
 contracts under FAR:
  
                    RESTRICTED RIGHTS LEGEND
  
 Use, reproduction and disclosure by the US Government is
 subject to restrictions as set forth in subparagraphs (a)
 and (c) of the Commercial Computer Software - Restricted
 Rights clause in FAR 52.227-19.
  
 Gaussian, Inc.
 340 Quinnipiac St., Bldg. 40, Wallingford CT 06492
  
  
 ---------------------------------------------------------------
 Warning -- This program may not be used in any manner that
 competes with the business of Gaussian, Inc. or will provide
 assistance to any competitor of Gaussian, Inc.  The licensee
 of this program is prohibited from giving any competitor of
 Gaussian, Inc. access to this program.  By using this program,
 the user acknowledges that Gaussian, Inc. is engaged in the
 business of creating and licensing software in the field of
 computational chemistry and represents and warrants to the
 licensee that it is not a competitor of Gaussian, Inc. and that
 it will not use this program in any manner prohibited above.
 ---------------------------------------------------------------
  

 Cite this work as:
 Gaussian 16, Revision B.01,
 M. J. Frisch, G. W. Trucks, H. B. Schlegel, G. E. Scuseria, 
 M. A. Robb, J. R. Cheeseman, G. Scalmani, V. Barone, 
 G. A. Petersson, H. Nakatsuji, X. Li, M. Caricato, A. V. Marenich, 
 J. Bloino, B. G. Janesko, R. Gomperts, B. Mennucci, H. P. Hratchian, 
 J. V. Ortiz, A. F. Izmaylov, J. L. Sonnenberg, D. Williams-Young, 
 F. Ding, F. Lipparini, F. Egidi, J. Goings, B. Peng, A. Petrone, 
 T. Henderson, D. Ranasinghe, V. G. Zakrzewski, J. Gao, N. Rega, 
 G. Zheng, W. Liang, M. Hada, M. Ehara, K. Toyota, R. Fukuda, 
 J. Hasegawa, M. Ishida, T. Nakajima, Y. Honda, O. Kitao, H. Nakai, 
 T. Vreven, K. Throssell, J. A. Montgomery, Jr., J. E. Peralta, 
 F. Ogliaro, M. J. Bearpark, J. J. Heyd, E. N. Brothers, K. N. Kudin, 
 V. N. Staroverov, T. A. Keith, R. Kobayashi, J. Normand, 
 K. Raghavachari, A. P. Rendell, J. C. Burant, S. S. Iyengar, 
 J. Tomasi, M. Cossi, J. M. Millam, M. Klene, C. Adamo, R. Cammi, 
 J. W. Ochterski, R. L. Martin, K. Morokuma, O. Farkas, 
 J. B. Foresman, and D. J. Fox, Gaussian, Inc., Wallingford CT, 2016.
 
 ******************************************
 Gaussian 16:  ES64L-G16RevB.01 20-Dec-2017
                24-Jun-2019 
 ******************************************
 %mem=80GB
 %nproc=40
 Will use up to   40 processors via shared memory.
 ----------------------------------------------------------------------
 # opt=(calcfc,ts,noeigentest,maxcyc=500) freq=noraman uB2PLYPD3/cc-pvt
 z
 ----------------------------------------------------------------------
 1/5=1,6=500,10=4,11=1,18=20,38=1/1,3;
 2/9=110,12=2,17=6,18=5,40=1/2;
 3/5=16,6=1,11=2,25=1,30=1,71=2,74=-60,116=2,140=1/1,2,3;
 4//1;
 5/5=2,38=5/2;
 8/6=3,8=1,10=1,19=11,30=-1/1;
 9/15=3,16=-3/6;
 11/6=1,8=1,15=11,17=12,24=-1,27=1,28=-2,29=300,32=6,42=3/1,2,10;
 10/6=2,21=1/2;
 8/6=4,8=1,10=1,19=11,30=-1/11,4;
 10/5=1,20=4/2;
 11/12=2,14=11,16=1,17=2,28=-2,42=3,76=2/2,10,12;
 6/7=2,8=2,9=2,10=2/1;
 7/10=1,12=2,25=1,44=2/1,2,3,16;
 1/5=1,6=500,10=4,11=1,18=20/3(2);
 2/9=110/2;
 99//99;
 2/9=110/2;
 3/5=16,6=1,11=2,25=1,30=1,71=1,74=-60,116=2/1,2,3;
 4/5=5,16=3,69=1/1;
 5/5=2,38=5/2;
 8/6=4,10=1/1;
 9/15=2,16=-3/6;
 10/5=1/2;
 7/12=2/1,2,3,16;
 1/5=1,6=500,11=1,18=20/3(-8);
 2/9=110/2;
 6/7=2,8=2,9=2,10=2/1;
 99/9=10/99;
 -------------------
 Title Card Required
 -------------------
 Symbolic Z-matrix:
 Charge =  0 Multiplicity = 2
 C                    -1.26865   0.1661    0.63719 
 H                    -0.68821  -0.6695    1.03087 
 H                    -1.2375    0.95197   1.39167 
 C                    -0.64733   0.65844  -0.65017 
 H                    -0.59024  -0.07361  -1.44862 
 H                    -0.96206   1.64059  -0.98588 
 C                     2.6757   -1.10674  -0.16336 
 H                     3.60736  -0.62395  -0.45219 
 H                     2.88053  -2.02924   0.37579 
 H                     2.07696  -1.31846  -1.05038 
 O                     1.95467  -0.29363   0.75279 
 O                     1.72935   0.95379   0.13275 
 H                     0.66554   0.85763  -0.30048 
 C                    -2.65198  -0.25479   0.42149 
 C                    -3.78825  -0.59251   0.20189 
 H                    -4.78916  -0.89212   0.02393 
 
 Add virtual bond connecting atoms H13        and O12        Dist= 2.18D+00.
 Add virtual bond connecting atoms H13        and C4         Dist= 2.59D+00.

 GradGradGradGradGradGradGradGradGradGradGradGradGradGradGradGradGradGrad
 Berny optimization.
 Initialization pass.
                           ----------------------------
                           !    Initial Parameters    !
                           ! (Angstroms and Degrees)  !
 --------------------------                            --------------------------
 ! Name  Definition              Value          Derivative Info.                !
 --------------------------------------------------------------------------------
 ! R1    R(1,2)                  1.0909         calculate D2E/DX2 analytically  !
 ! R2    R(1,3)                  1.0899         calculate D2E/DX2 analytically  !
 ! R3    R(1,4)                  1.5119         calculate D2E/DX2 analytically  !
 ! R4    R(1,14)                 1.4619         calculate D2E/DX2 analytically  !
 ! R5    R(4,5)                  1.0848         calculate D2E/DX2 analytically  !
 ! R6    R(4,6)                  1.0846         calculate D2E/DX2 analytically  !
 ! R7    R(4,13)                 1.3732         calculate D2E/DX2 analytically  !
 ! R8    R(7,8)                  1.0883         calculate D2E/DX2 analytically  !
 ! R9    R(7,9)                  1.088          calculate D2E/DX2 analytically  !
 ! R10   R(7,10)                 1.0909         calculate D2E/DX2 analytically  !
 ! R11   R(7,11)                 1.4214         calculate D2E/DX2 analytically  !
 ! R12   R(11,12)                1.4111         calculate D2E/DX2 analytically  !
 ! R13   R(12,13)                1.1527         calculate D2E/DX2 analytically  !
 ! R14   R(14,15)                1.2056         calculate D2E/DX2 analytically  !
 ! R15   R(15,16)                1.0598         calculate D2E/DX2 analytically  !
 ! A1    A(2,1,3)              106.6954         calculate D2E/DX2 analytically  !
 ! A2    A(2,1,4)              109.7585         calculate D2E/DX2 analytically  !
 ! A3    A(2,1,14)             109.6442         calculate D2E/DX2 analytically  !
 ! A4    A(3,1,4)              110.054          calculate D2E/DX2 analytically  !
 ! A5    A(3,1,14)             109.6809         calculate D2E/DX2 analytically  !
 ! A6    A(4,1,14)             110.9153         calculate D2E/DX2 analytically  !
 ! A7    A(1,4,5)              115.3804         calculate D2E/DX2 analytically  !
 ! A8    A(1,4,6)              116.0523         calculate D2E/DX2 analytically  !
 ! A9    A(1,4,13)             102.904          calculate D2E/DX2 analytically  !
 ! A10   A(5,4,6)              113.4876         calculate D2E/DX2 analytically  !
 ! A11   A(5,4,13)             103.5927         calculate D2E/DX2 analytically  !
 ! A12   A(6,4,13)             102.9975         calculate D2E/DX2 analytically  !
 ! A13   A(8,7,9)              110.2728         calculate D2E/DX2 analytically  !
 ! A14   A(8,7,10)             109.8848         calculate D2E/DX2 analytically  !
 ! A15   A(8,7,11)             110.5811         calculate D2E/DX2 analytically  !
 ! A16   A(9,7,10)             109.9811         calculate D2E/DX2 analytically  !
 ! A17   A(9,7,11)             105.1379         calculate D2E/DX2 analytically  !
 ! A18   A(10,7,11)            110.8964         calculate D2E/DX2 analytically  !
 ! A19   A(7,11,12)            107.6666         calculate D2E/DX2 analytically  !
 ! A20   A(11,12,13)           103.8139         calculate D2E/DX2 analytically  !
 ! A21   L(4,13,12,10,-1)      180.0802         calculate D2E/DX2 analytically  !
 ! A22   L(1,14,15,5,-1)       178.0946         calculate D2E/DX2 analytically  !
 ! A23   L(14,15,16,5,-1)      180.7941         calculate D2E/DX2 analytically  !
 ! A24   L(4,13,12,10,-2)      188.446          calculate D2E/DX2 analytically  !
 ! A25   L(1,14,15,5,-2)       180.9291         calculate D2E/DX2 analytically  !
 ! A26   L(14,15,16,5,-2)      179.5711         calculate D2E/DX2 analytically  !
 ! D1    D(2,1,4,5)             60.0743         calculate D2E/DX2 analytically  !
 ! D2    D(2,1,4,6)           -163.6277         calculate D2E/DX2 analytically  !
 ! D3    D(2,1,4,13)           -51.9842         calculate D2E/DX2 analytically  !
 ! D4    D(3,1,4,5)            177.2087         calculate D2E/DX2 analytically  !
 ! D5    D(3,1,4,6)            -46.4933         calculate D2E/DX2 analytically  !
 ! D6    D(3,1,4,13)            65.1502         calculate D2E/DX2 analytically  !
 ! D7    D(14,1,4,5)           -61.2365         calculate D2E/DX2 analytically  !
 ! D8    D(14,1,4,6)            75.0614         calculate D2E/DX2 analytically  !
 ! D9    D(14,1,4,13)         -173.295          calculate D2E/DX2 analytically  !
 ! D10   D(1,4,12,11)           49.816          calculate D2E/DX2 analytically  !
 ! D11   D(5,4,12,11)          -69.7356         calculate D2E/DX2 analytically  !
 ! D12   D(6,4,12,11)          170.215          calculate D2E/DX2 analytically  !
 ! D13   D(8,7,11,12)           57.5416         calculate D2E/DX2 analytically  !
 ! D14   D(9,7,11,12)          176.5541         calculate D2E/DX2 analytically  !
 ! D15   D(10,7,11,12)         -64.6166         calculate D2E/DX2 analytically  !
 ! D16   D(7,11,12,13)          96.5615         calculate D2E/DX2 analytically  !
 --------------------------------------------------------------------------------
 Trust Radius=3.00D-01 FncErr=1.00D-07 GrdErr=1.00D-07 EigMax=2.50D+02 EigMin=1.00D-04
 Number of steps in this run=    100 maximum allowed number of steps=    100.
 Search for a saddle point of order  1.
 GradGradGradGradGradGradGradGradGradGradGradGradGradGradGradGradGradGrad

                          Input orientation:                          
 ---------------------------------------------------------------------
 Center     Atomic      Atomic             Coordinates (Angstroms)
 Number     Number       Type             X           Y           Z
 ---------------------------------------------------------------------
      1          6           0       -1.268654    0.166100    0.637192
      2          1           0       -0.688214   -0.669504    1.030874
      3          1           0       -1.237502    0.951965    1.391666
      4          6           0       -0.647328    0.658441   -0.650168
      5          1           0       -0.590237   -0.073613   -1.448620
      6          1           0       -0.962060    1.640588   -0.985876
      7          6           0        2.675701   -1.106739   -0.163359
      8          1           0        3.607358   -0.623953   -0.452189
      9          1           0        2.880525   -2.029240    0.375794
     10          1           0        2.076958   -1.318456   -1.050383
     11          8           0        1.954670   -0.293631    0.752788
     12          8           0        1.729347    0.953786    0.132749
     13          1           0        0.665536    0.857626   -0.300484
     14          6           0       -2.651978   -0.254786    0.421492
     15          6           0       -3.788252   -0.592512    0.201886
     16          1           0       -4.789156   -0.892116    0.023930
 ---------------------------------------------------------------------
                    Distance matrix (angstroms):
                    1          2          3          4          5
     1  C    0.000000
     2  H    1.090931   0.000000
     3  H    1.089856   1.749586   0.000000
     4  C    1.511867   2.142665   2.145588   0.000000
     5  H    2.206428   2.551975   3.088363   1.084753   0.000000
     6  H    2.214151   3.078766   2.490537   1.084605   1.814075
     7  C    4.221248   3.596289   4.687166   3.794122   3.658633
     8  H    5.058303   4.544611   5.418117   4.448155   4.349201
     9  H    4.701439   3.874779   5.184373   4.552139   4.381684
    10  H    4.030501   3.521214   4.701495   3.389694   2.970211
    11  O    3.257995   2.683924   3.485633   3.105659   3.372115
    12  O    3.140529   3.047343   3.222898   2.519677   2.989439
    13  H    2.257994   2.436653   2.548298   1.373159   1.939688
    14  C    1.461936   2.097548   2.097195   2.449706   2.789430
    15  C    2.667088   3.209889   3.210500   3.486586   3.636032
    16  H    3.726908   4.228619   4.229135   4.473631   4.524298
                    6          7          8          9         10
     6  H    0.000000
     7  C    4.632240   0.000000
     8  H    5.127626   1.088343   0.000000
     9  H    5.485184   1.087955   1.785686   0.000000
    10  H    4.242138   1.090930   1.783899   1.784633   0.000000
    11  O    3.907873   1.421392   2.071825   2.002916   2.077654
    12  O    2.994443   2.286707   2.521575   3.206669   2.585289
    13  H    1.931802   2.813947   3.297333   3.701017   2.699962
    14  C    2.903265   5.426973   6.330789   5.810281   5.065634
    15  C    3.792740   6.494653   7.424544   6.824003   6.041180
    16  H    4.699038   7.470290   8.414276   7.761499   6.962718
                   11         12         13         14         15
    11  O    0.000000
    12  O    1.411123   0.000000
    13  H    2.024016   1.152663   0.000000
    14  C    4.618709   4.554122   3.572759   0.000000
    15  C    5.777021   5.730595   4.710786   1.205572   0.000000
    16  H    6.809450   6.775698   5.737639   2.265342   1.059830
                   16
    16  H    0.000000
 Stoichiometry    C5H9O2(2)
 Framework group  C1[X(C5H9O2)]
 Deg. of freedom    42
 Full point group                 C1      NOp   1
 Largest Abelian subgroup         C1      NOp   1
 Largest concise Abelian subgroup C1      NOp   1
                         Standard orientation:                         
 ---------------------------------------------------------------------
 Center     Atomic      Atomic             Coordinates (Angstroms)
 Number     Number       Type             X           Y           Z
 ---------------------------------------------------------------------
      1          6           0        1.215606    0.129374   -0.490704
      2          1           0        0.630998   -0.756268   -0.743689
      3          1           0        1.212127    0.769336   -1.372873
      4          6           0        0.574949    0.849030    0.674369
      5          1           0        0.490106    0.270804    1.588231
      6          1           0        0.897364    1.871567    0.838186
      7          6           0       -2.763410   -0.937364    0.430403
      8          1           0       -3.693522   -0.400674    0.607448
      9          1           0       -2.970791   -1.938494    0.058411
     10          1           0       -2.186642   -0.995132    1.354595
     11          8           0       -2.011159   -0.307633   -0.598146
     12          8           0       -1.780077    1.027357   -0.203597
     13          1           0       -0.727147    0.997680    0.264472
     14          6           0        2.587600   -0.261988   -0.171760
     15          6           0        3.713799   -0.568069    0.130555
     16          1           0        4.706121   -0.842510    0.381989
 ---------------------------------------------------------------------
 Rotational constants (GHZ):           6.3684727           0.9131100           0.8687117
 Standard basis: CC-pVTZ (5D, 7F)
 There are   380 symmetry adapted cartesian basis functions of A   symmetry.
 There are   336 symmetry adapted basis functions of A   symmetry.
   336 basis functions,   517 primitive gaussians,   380 cartesian basis functions
    28 alpha electrons       27 beta electrons
       nuclear repulsion energy       277.9313310711 Hartrees.
 NAtoms=   16 NActive=   16 NUniq=   16 SFac= 1.00D+00 NAtFMM=   60 NAOKFM=F Big=F
 Integral buffers will be    131072 words long.
 Raffenetti 2 integral format.
 Two-electron integral symmetry is turned on.
 Nuclear repulsion after empirical dispersion term =      277.9233052932 Hartrees.
 One-electron integrals computed using PRISM.
 NBasis=   336 RedAO= T EigKep=  4.20D-05  NBF=   336
 NBsUse=   336 1.00D-06 EigRej= -1.00D+00 NBFU=   336
 ExpMin= 1.03D-01 ExpMax= 1.53D+04 ExpMxC= 5.22D+02 IAcc=3 IRadAn=         5 AccDes= 0.00D+00
 Harris functional with IExCor=  419 and IRadAn=       5 diagonalized for initial guess.
 HarFok:  IExCor=  419 AccDes= 0.00D+00 IRadAn=         5 IDoV= 1 UseB2=F ITyADJ=14
 ICtDFT=  3500011 ScaDFX=  1.000000  1.000000  1.000000  1.000000
 FoFCou: FMM=F IPFlag=           0 FMFlag=      100000 FMFlg1=           0
         NFxFlg=           0 DoJE=T BraDBF=F KetDBF=T FulRan=T
         wScrn=  0.000000 ICntrl=       500 IOpCl=  0 I1Cent=   200000004 NGrid=           0
         NMat0=    1 NMatS0=      1 NMatT0=    0 NMatD0=    1 NMtDS0=    0 NMtDT0=    0
 Petite list used in FoFCou.
 Initial guess <Sx>= 0.0000 <Sy>= 0.0000 <Sz>= 0.5000 <S**2>= 0.7500 S= 0.5000
 Requested convergence on RMS density matrix=1.00D-08 within 128 cycles.
 Requested convergence on MAX density matrix=1.00D-06.
 Requested convergence on             energy=1.00D-06.
 No special actions if energy rises.
 Integral accuracy reduced to 1.0D-05 until final iterations.
 Initial convergence to 1.0D-05 achieved.  Increase integral accuracy.
 SCF Done:  E(UB2PLYPD3) =  -345.567242976     A.U. after   22 cycles
            NFock= 22  Conv=0.48D-08     -V/T= 2.0044
 <Sx>= 0.0000 <Sy>= 0.0000 <Sz>= 0.5000 <S**2>= 0.7683 S= 0.5091
 <L.S>=  0.00000000000    
 Annihilation of the first spin contaminant:
 S**2 before annihilation     0.7683,   after     0.7502
 DoSCS=T DFT=T ScalE2(SS,OS)=  0.270000  0.270000
 ExpMin= 1.03D-01 ExpMax= 1.53D+04 ExpMxC= 5.22D+02 IAcc=3 IRadAn=         5 AccDes= 0.00D+00
 HarFok:  IExCor=  205 AccDes= 0.00D+00 IRadAn=         5 IDoV=-2 UseB2=F ITyADJ=14
 ICtDFT= 12500011 ScaDFX=  1.000000  1.000000  1.000000  1.000000
 Range of M.O.s used for correlation:     8   336
 NBasis=   336 NAE=    28 NBE=    27 NFC=     7 NFV=     0
 NROrb=    329 NOA=    21 NOB=    20 NVA=   308 NVB=   309

 **** Warning!!: The largest alpha MO coefficient is  0.38778974D+02


 **** Warning!!: The largest beta MO coefficient is  0.39000455D+02

 DoSCS=T DFT=T ScalE2(SS,OS)=  0.270000  0.270000
 Disk-based method using ON**2 memory for 21 occupieds at a time.
 Permanent disk used for amplitudes=   106523802 words.
 Estimated scratch disk usage=  1899598744 words.
 Actual    scratch disk usage=  1836769176 words.
 JobTyp=2 Pass  1:  I=   8 to  28 NPSUse= 40 ParTrn=T ParDer=T DoDerP=T.
 (rs|ai) integrals will be sorted in core.
 Actual    scratch disk usage=  1836769176 words.
 JobTyp=3 Pass  1:  I=   8 to  27 NPSUse= 40 ParTrn=T ParDer=T DoDerP=T.
 (rs|ai) integrals will be sorted in core.
 Spin components of T(2) and E(2):
     alpha-alpha T2 =       0.7932598427D-01 E2=     -0.5368485651D-01
     alpha-beta  T2 =       0.4678948876D+00 E2=     -0.3263849030D+00
     beta-beta   T2 =       0.8335985419D-01 E2=     -0.5191001640D-01
 (S**2,0)=  0.76832D+00           (S**2,1)=  0.74289D+00
 Scaling Projection term by:   0.270000
 E(PUHF)=      -0.34557336411D+03        E(PMP2)=      -0.34599973390D+03
 E2(B2PLYPD3) =    -0.4319797759D+00 E(B2PLYPD3) =    -0.34599922275215D+03
 G2DrvN: will do    17 centers at a time, making    1 passes.
 Calling FoFCou, ICntrl=  3107 FMM=F I1Cent=   0 AccDes= 0.00D+00.
 End of G2Drv F.D. properties file   721 does not exist.
 End of G2Drv F.D. properties file   722 does not exist.
 End of G2Drv F.D. properties file   788 does not exist.
          IDoAtm=1111111111111111
          Differentiating once with respect to electric field.
                with respect to dipole field.
          Differentiating once with respect to nuclear coordinates.
 Keep R1 and R2 ints in memory in canonical form, NReq=3251642446.
          There are    51 degrees of freedom in the 1st order CPHF.  IDoFFX=6 NUNeed=    51.
     48 vectors produced by pass  0 Test12= 3.33D-14 1.96D-09 XBig12= 1.11D+02 4.05D+00.
 AX will form    48 AO Fock derivatives at one time.
     48 vectors produced by pass  1 Test12= 3.33D-14 1.96D-09 XBig12= 1.44D+01 5.71D-01.
     48 vectors produced by pass  2 Test12= 3.33D-14 1.96D-09 XBig12= 6.55D-01 1.35D-01.
     48 vectors produced by pass  3 Test12= 3.33D-14 1.96D-09 XBig12= 1.22D-02 1.07D-02.
     48 vectors produced by pass  4 Test12= 3.33D-14 1.96D-09 XBig12= 1.32D-04 1.24D-03.
     48 vectors produced by pass  5 Test12= 3.33D-14 1.96D-09 XBig12= 1.44D-06 1.05D-04.
     48 vectors produced by pass  6 Test12= 3.33D-14 1.96D-09 XBig12= 1.36D-08 1.04D-05.
     24 vectors produced by pass  7 Test12= 3.33D-14 1.96D-09 XBig12= 1.23D-10 1.06D-06.
      4 vectors produced by pass  8 Test12= 3.33D-14 1.96D-09 XBig12= 9.13D-13 6.52D-08.
      2 vectors produced by pass  9 Test12= 3.33D-14 1.96D-09 XBig12= 7.93D-15 8.16D-09.
 InvSVY:  IOpt=1 It=  1 EMax= 3.55D-15
 Solved reduced A of dimension   366 with    51 vectors.
 End of Minotr F.D. properties file   721 does not exist.
 End of Minotr F.D. properties file   722 does not exist.
 End of Minotr F.D. properties file   788 does not exist.
 MDV= 10737418240.
 DoSCS=T DFT=T ScalE2(SS,OS)=  0.270000  0.270000
 Form MO integral derivatives with frozen-active canonical formalism.
 Discarding MO integrals.
 Reordered first order wavefunction length =    428928697
 In DefCFB: NBatch=  1 ICI= 28 ICA=309 LFMax= 78
            Large arrays: LIAPS=  8665386240 LIARS=  1611002400 words.
 In DefCFB: NBatch=  1 ICI= 28 ICA=309 LFMax= 78
            Large arrays: LIAPS=  8665386240 LIARS=  1611002400 words.
 Semi-Direct transformation.
 ModeAB=           4 MOrb=            28 LenV=   10734109785
 LASXX=    503301435 LTotXX=   503301435 LenRXX=  1014543915
 LTotAB=   511242480 MaxLAS=   586475904 LenRXY=           0
 NonZer=  1517845350 LenScr=  2285697024 LnRSAI=   586475904
 LnScr1=   883164160 LExtra=           0 Total=   4769881003
 MaxDsk=          -1 SrtSym=           T ITran=            4
 JobTyp=1 Pass  1:  I=   1 to  28.
 (rs|ai) integrals will be sorted in core.
 ModeAB=           4 MOrb=            27 LenV=   10734109785
 LASXX=    486308502 LTotXX=   486308502 LenRXX=   901306008
 LTotAB=   414997506 MaxLAS=   565530336 LenRXY=           0
 NonZer=  1387614510 LenScr=  2089584640 LnRSAI=   565530336
 LnScr1=   851622912 LExtra=           0 Total=   4408043896
 MaxDsk=          -1 SrtSym=           T ITran=            4
 JobTyp=2 Pass  1:  I=   1 to  27.
 (rs|ai) integrals will be sorted in core.
 SymMOI:  orbitals are not symmetric.
 DoSCS=T DFT=T ScalE2(SS,OS)=  0.270000  0.270000
 Spin components of T(2) and E(2):
     alpha-alpha T2 =       0.7932598427D-01 E2=     -0.5368485651D-01
     alpha-beta  T2 =       0.4678948876D+00 E2=     -0.3263849030D+00
     beta-beta   T2 =       0.8335985419D-01 E2=     -0.5191001640D-01
 E2(B2PLYPD3) =    -0.4319797759D+00 E(B2PLYPD3) =    -0.34599922275215D+03
 (S**2,0)=  0.76832D+00           (S**2,1)=  0.74289D+00
 Scaling Projection term by:   0.270000
 E(PUHF)=      -0.34557336411D+03        E(PMP2)=      -0.34599973390D+03
          IDoAtm=1111111111111111
          Differentiating once with respect to electric field.
                with respect to dipole field.
          Differentiating once with respect to nuclear coordinates.
 Keep R1 and R2 ints in memory in canonical form, NReq=3251778068.
          There are     1 degrees of freedom in the 1st order CPHF.  IDoFFX=0 NUNeed=     1.
 LinEq1:  Iter=  0 NonCon=     1 RMS=8.96D-04 Max=6.68D-02 NDo=     1
 AX will form     1 AO Fock derivatives at one time.
 LinEq1:  Iter=  1 NonCon=     1 RMS=2.95D-04 Max=1.02D-02 NDo=     1
 LinEq1:  Iter=  2 NonCon=     1 RMS=1.74D-04 Max=9.92D-03 NDo=     1
 LinEq1:  Iter=  3 NonCon=     1 RMS=1.09D-04 Max=3.22D-03 NDo=     1
 LinEq1:  Iter=  4 NonCon=     1 RMS=5.15D-05 Max=1.27D-03 NDo=     1
 LinEq1:  Iter=  5 NonCon=     1 RMS=4.19D-05 Max=1.05D-03 NDo=     1
 LinEq1:  Iter=  6 NonCon=     1 RMS=1.92D-05 Max=6.83D-04 NDo=     1
 LinEq1:  Iter=  7 NonCon=     1 RMS=8.29D-06 Max=2.11D-04 NDo=     1
 LinEq1:  Iter=  8 NonCon=     1 RMS=5.99D-06 Max=1.23D-04 NDo=     1
 LinEq1:  Iter=  9 NonCon=     1 RMS=2.95D-06 Max=6.90D-05 NDo=     1
 LinEq1:  Iter= 10 NonCon=     1 RMS=1.26D-06 Max=3.13D-05 NDo=     1
 LinEq1:  Iter= 11 NonCon=     1 RMS=5.68D-07 Max=1.00D-05 NDo=     1
 LinEq1:  Iter= 12 NonCon=     1 RMS=2.40D-07 Max=4.80D-06 NDo=     1
 LinEq1:  Iter= 13 NonCon=     1 RMS=9.92D-08 Max=1.54D-06 NDo=     1
 LinEq1:  Iter= 14 NonCon=     1 RMS=3.28D-08 Max=7.60D-07 NDo=     1
 LinEq1:  Iter= 15 NonCon=     1 RMS=1.10D-08 Max=2.45D-07 NDo=     1
 LinEq1:  Iter= 16 NonCon=     1 RMS=4.99D-09 Max=1.02D-07 NDo=     1
 LinEq1:  Iter= 17 NonCon=     1 RMS=2.09D-09 Max=4.09D-08 NDo=     1
 LinEq1:  Iter= 18 NonCon=     1 RMS=6.93D-10 Max=2.12D-08 NDo=     1
 LinEq1:  Iter= 19 NonCon=     1 RMS=3.03D-10 Max=1.11D-08 NDo=     1
 LinEq1:  Iter= 20 NonCon=     1 RMS=1.40D-10 Max=4.50D-09 NDo=     1
 LinEq1:  Iter= 21 NonCon=     1 RMS=5.77D-11 Max=1.78D-09 NDo=     1
 LinEq1:  Iter= 22 NonCon=     0 RMS=1.84D-11 Max=4.49D-10 NDo=     1
 Linear equations converged to 1.000D-10 1.000D-09 after    22 iterations.
 End of Minotr F.D. properties file   721 does not exist.
 End of Minotr F.D. properties file   722 does not exist.
 End of Minotr F.D. properties file   788 does not exist.
 Symmetrizing basis deriv contribution to polar:
 IMax=3 JMax=2 DiffMx= 0.00D+00
 G2DrvN: will do    17 centers at a time, making    1 passes.
 Calling FoFCou, ICntrl=  3107 FMM=F I1Cent=   0 AccDes= 0.00D+00.
 End of G2Drv F.D. properties file   721 does not exist.
 End of G2Drv F.D. properties file   722 does not exist.
 End of G2Drv F.D. properties file   788 does not exist.
 DoSCS=T DFT=T ScalE2(SS,OS)=  0.270000  0.270000
 R2 and R3 integrals will be kept in memory, NReq=  5268037470.
 DD1Dir will call FoFMem   1 times, MxPair=      2242
 NAB=   756 NAA=   378 NBB=   351.
 Discarding MO integrals.

 **********************************************************************

            Population analysis using the SCF Density.

 **********************************************************************

 Orbital symmetries:
 Alpha Orbitals:
       Occupied  (A) (A) (A) (A) (A) (A) (A) (A) (A) (A) (A) (A)
                 (A) (A) (A) (A) (A) (A) (A) (A) (A) (A) (A) (A)
                 (A) (A) (A) (A)
       Virtual   (A) (A) (A) (A) (A) (A) (A) (A) (A) (A) (A) (A)
                 (A) (A) (A) (A) (A) (A) (A) (A) (A) (A) (A) (A)
                 (A) (A) (A) (A) (A) (A) (A) (A) (A) (A) (A) (A)
                 (A) (A) (A) (A) (A) (A) (A) (A) (A) (A) (A) (A)
                 (A) (A) (A) (A) (A) (A) (A) (A) (A) (A) (A) (A)
                 (A) (A) (A) (A) (A) (A) (A) (A) (A) (A) (A) (A)
                 (A) (A) (A) (A) (A) (A) (A) (A) (A) (A) (A) (A)
                 (A) (A) (A) (A) (A) (A) (A) (A) (A) (A) (A) (A)
                 (A) (A) (A) (A) (A) (A) (A) (A) (A) (A) (A) (A)
                 (A) (A) (A) (A) (A) (A) (A) (A) (A) (A) (A) (A)
                 (A) (A) (A) (A) (A) (A) (A) (A) (A) (A) (A) (A)
                 (A) (A) (A) (A) (A) (A) (A) (A) (A) (A) (A) (A)
                 (A) (A) (A) (A) (A) (A) (A) (A) (A) (A) (A) (A)
                 (A) (A) (A) (A) (A) (A) (A) (A) (A) (A) (A) (A)
                 (A) (A) (A) (A) (A) (A) (A) (A) (A) (A) (A) (A)
                 (A) (A) (A) (A) (A) (A) (A) (A) (A) (A) (A) (A)
                 (A) (A) (A) (A) (A) (A) (A) (A) (A) (A) (A) (A)
                 (A) (A) (A) (A) (A) (A) (A) (A) (A) (A) (A) (A)
                 (A) (A) (A) (A) (A) (A) (A) (A) (A) (A) (A) (A)
                 (A) (A) (A) (A) (A) (A) (A) (A) (A) (A) (A) (A)
                 (A) (A) (A) (A) (A) (A) (A) (A) (A) (A) (A) (A)
                 (A) (A) (A) (A) (A) (A) (A) (A) (A) (A) (A) (A)
                 (A) (A) (A) (A) (A) (A) (A) (A) (A) (A) (A) (A)
                 (A) (A) (A) (A) (A) (A) (A) (A) (A) (A) (A) (A)
                 (A) (A) (A) (A) (A) (A) (A) (A) (A) (A) (A) (A)
                 (A) (A) (A) (A) (A) (A) (A) (A)
 Beta  Orbitals:
       Occupied  (A) (A) (A) (A) (A) (A) (A) (A) (A) (A) (A) (A)
                 (A) (A) (A) (A) (A) (A) (A) (A) (A) (A) (A) (A)
                 (A) (A) (A)
       Virtual   (A) (A) (A) (A) (A) (A) (A) (A) (A) (A) (A) (A)
                 (A) (A) (A) (A) (A) (A) (A) (A) (A) (A) (A) (A)
                 (A) (A) (A) (A) (A) (A) (A) (A) (A) (A) (A) (A)
                 (A) (A) (A) (A) (A) (A) (A) (A) (A) (A) (A) (A)
                 (A) (A) (A) (A) (A) (A) (A) (A) (A) (A) (A) (A)
                 (A) (A) (A) (A) (A) (A) (A) (A) (A) (A) (A) (A)
                 (A) (A) (A) (A) (A) (A) (A) (A) (A) (A) (A) (A)
                 (A) (A) (A) (A) (A) (A) (A) (A) (A) (A) (A) (A)
                 (A) (A) (A) (A) (A) (A) (A) (A) (A) (A) (A) (A)
                 (A) (A) (A) (A) (A) (A) (A) (A) (A) (A) (A) (A)
                 (A) (A) (A) (A) (A) (A) (A) (A) (A) (A) (A) (A)
                 (A) (A) (A) (A) (A) (A) (A) (A) (A) (A) (A) (A)
                 (A) (A) (A) (A) (A) (A) (A) (A) (A) (A) (A) (A)
                 (A) (A) (A) (A) (A) (A) (A) (A) (A) (A) (A) (A)
                 (A) (A) (A) (A) (A) (A) (A) (A) (A) (A) (A) (A)
                 (A) (A) (A) (A) (A) (A) (A) (A) (A) (A) (A) (A)
                 (A) (A) (A) (A) (A) (A) (A) (A) (A) (A) (A) (A)
                 (A) (A) (A) (A) (A) (A) (A) (A) (A) (A) (A) (A)
                 (A) (A) (A) (A) (A) (A) (A) (A) (A) (A) (A) (A)
                 (A) (A) (A) (A) (A) (A) (A) (A) (A) (A) (A) (A)
                 (A) (A) (A) (A) (A) (A) (A) (A) (A) (A) (A) (A)
                 (A) (A) (A) (A) (A) (A) (A) (A) (A) (A) (A) (A)
                 (A) (A) (A) (A) (A) (A) (A) (A) (A) (A) (A) (A)
                 (A) (A) (A) (A) (A) (A) (A) (A) (A) (A) (A) (A)
                 (A) (A) (A) (A) (A) (A) (A) (A) (A) (A) (A) (A)
                 (A) (A) (A) (A) (A) (A) (A) (A) (A)
 The electronic state is 2-A.
 Alpha  occ. eigenvalues --  -19.79221 -19.79143 -10.66495 -10.65105 -10.65009
 Alpha  occ. eigenvalues --  -10.62677 -10.61237  -1.27946  -1.02823  -0.93611
 Alpha  occ. eigenvalues --   -0.85174  -0.78340  -0.75342  -0.62416  -0.61182
 Alpha  occ. eigenvalues --   -0.56597  -0.55476  -0.55042  -0.54025  -0.50141
 Alpha  occ. eigenvalues --   -0.48696  -0.45584  -0.44539  -0.38407  -0.37206
 Alpha  occ. eigenvalues --   -0.33540  -0.32587  -0.30557
 Alpha virt. eigenvalues --    0.07160   0.09087   0.10192   0.10329   0.11194
 Alpha virt. eigenvalues --    0.11333   0.12203   0.13940   0.15121   0.17065
 Alpha virt. eigenvalues --    0.18520   0.19829   0.22976   0.24610   0.25929
 Alpha virt. eigenvalues --    0.29529   0.30540   0.30991   0.33220   0.33727
 Alpha virt. eigenvalues --    0.34391   0.36283   0.37463   0.41329   0.44056
 Alpha virt. eigenvalues --    0.45593   0.45762   0.48396   0.48596   0.48940
 Alpha virt. eigenvalues --    0.50605   0.51471   0.52302   0.53061   0.53687
 Alpha virt. eigenvalues --    0.54239   0.54914   0.55656   0.56944   0.58959
 Alpha virt. eigenvalues --    0.61413   0.64429   0.65555   0.66227   0.69308
 Alpha virt. eigenvalues --    0.70595   0.70989   0.71470   0.74945   0.79507
 Alpha virt. eigenvalues --    0.80335   0.83018   0.84594   0.86916   0.88929
 Alpha virt. eigenvalues --    0.89758   0.91352   0.93899   0.94672   0.95907
 Alpha virt. eigenvalues --    0.96778   0.97904   1.00002   1.02495   1.03720
 Alpha virt. eigenvalues --    1.04532   1.06494   1.08186   1.09771   1.11096
 Alpha virt. eigenvalues --    1.13135   1.15975   1.16316   1.18321   1.20359
 Alpha virt. eigenvalues --    1.21110   1.23326   1.24271   1.24985   1.25407
 Alpha virt. eigenvalues --    1.27196   1.29644   1.32891   1.35245   1.35514
 Alpha virt. eigenvalues --    1.36660   1.37456   1.38389   1.38862   1.42784
 Alpha virt. eigenvalues --    1.43852   1.47036   1.48716   1.50958   1.51926
 Alpha virt. eigenvalues --    1.55379   1.58929   1.60834   1.61811   1.62804
 Alpha virt. eigenvalues --    1.66359   1.70151   1.75164   1.77149   1.79719
 Alpha virt. eigenvalues --    1.86129   1.93285   1.98315   2.04134   2.11937
 Alpha virt. eigenvalues --    2.13088   2.16590   2.19023   2.19998   2.23582
 Alpha virt. eigenvalues --    2.26811   2.33661   2.37464   2.40860   2.42887
 Alpha virt. eigenvalues --    2.43688   2.44893   2.48524   2.50345   2.54034
 Alpha virt. eigenvalues --    2.55438   2.57240   2.57938   2.61387   2.61856
 Alpha virt. eigenvalues --    2.65095   2.65726   2.67848   2.69042   2.69603
 Alpha virt. eigenvalues --    2.74113   2.76674   2.77387   2.82434   2.83599
 Alpha virt. eigenvalues --    2.85620   2.88316   2.90024   2.90728   2.91918
 Alpha virt. eigenvalues --    2.93055   2.94129   2.95100   3.00654   3.01836
 Alpha virt. eigenvalues --    3.02111   3.04158   3.04560   3.05729   3.06183
 Alpha virt. eigenvalues --    3.07418   3.08819   3.09694   3.10358   3.12286
 Alpha virt. eigenvalues --    3.13526   3.14316   3.15658   3.16565   3.17207
 Alpha virt. eigenvalues --    3.19038   3.20078   3.20849   3.24414   3.26387
 Alpha virt. eigenvalues --    3.27477   3.28203   3.28485   3.34642   3.36522
 Alpha virt. eigenvalues --    3.40853   3.41717   3.42266   3.44355   3.45536
 Alpha virt. eigenvalues --    3.47080   3.48332   3.49980   3.50494   3.53723
 Alpha virt. eigenvalues --    3.54189   3.57197   3.60013   3.61056   3.63908
 Alpha virt. eigenvalues --    3.64619   3.67106   3.72386   3.72948   3.75203
 Alpha virt. eigenvalues --    3.81132   3.83167   3.85174   3.85973   3.86542
 Alpha virt. eigenvalues --    3.89155   3.89533   3.91099   3.93601   3.95147
 Alpha virt. eigenvalues --    3.95254   3.96783   3.99735   4.01175   4.03724
 Alpha virt. eigenvalues --    4.05233   4.06248   4.09555   4.10963   4.12065
 Alpha virt. eigenvalues --    4.14417   4.15257   4.17947   4.18318   4.18735
 Alpha virt. eigenvalues --    4.21677   4.23678   4.25372   4.29809   4.30615
 Alpha virt. eigenvalues --    4.34511   4.35135   4.36860   4.38335   4.40895
 Alpha virt. eigenvalues --    4.43927   4.45273   4.48166   4.51647   4.55724
 Alpha virt. eigenvalues --    4.58990   4.60602   4.64691   4.67045   4.74878
 Alpha virt. eigenvalues --    4.79552   4.80841   4.81581   4.86493   4.93113
 Alpha virt. eigenvalues --    4.94163   4.98710   5.00295   5.02597   5.03748
 Alpha virt. eigenvalues --    5.05913   5.06584   5.15090   5.18948   5.24949
 Alpha virt. eigenvalues --    5.25843   5.28781   5.29721   5.30653   5.33376
 Alpha virt. eigenvalues --    5.34770   5.35642   5.36631   5.39686   5.40088
 Alpha virt. eigenvalues --    5.42671   5.45579   5.46566   5.54677   5.62486
 Alpha virt. eigenvalues --    5.65650   5.66455   5.75568   5.77765   5.85090
 Alpha virt. eigenvalues --    5.92114   5.95590   5.98621   6.00982   6.03286
 Alpha virt. eigenvalues --    6.04678   6.07857   6.09241   6.14558   6.24835
 Alpha virt. eigenvalues --    6.31974   6.33707   6.37197   6.40158   6.63662
 Alpha virt. eigenvalues --    6.75214   6.76156   6.82309   6.95583   7.04739
 Alpha virt. eigenvalues --    7.07761   7.17782   7.41493   7.42230   7.58545
 Alpha virt. eigenvalues --    7.74551   8.36473   9.88963  10.60587  12.57438
 Alpha virt. eigenvalues --   13.42286  13.52398  16.96521
  Beta  occ. eigenvalues --  -19.79096 -19.77565 -10.66502 -10.65063 -10.63800
  Beta  occ. eigenvalues --  -10.62595 -10.61178  -1.26114  -1.00003  -0.92527
  Beta  occ. eigenvalues --   -0.84110  -0.77902  -0.72966  -0.61584  -0.58399
  Beta  occ. eigenvalues --   -0.55729  -0.54935  -0.54557  -0.53151  -0.48199
  Beta  occ. eigenvalues --   -0.46636  -0.45076  -0.43770  -0.36326  -0.34631
  Beta  occ. eigenvalues --   -0.32572  -0.32333
  Beta virt. eigenvalues --   -0.05405   0.07356   0.09286   0.10363   0.10587
  Beta virt. eigenvalues --    0.11308   0.11608   0.12648   0.14383   0.15180
  Beta virt. eigenvalues --    0.17147   0.18757   0.20559   0.23707   0.24941
  Beta virt. eigenvalues --    0.26141   0.29750   0.30795   0.31244   0.33866
  Beta virt. eigenvalues --    0.34097   0.34569   0.36643   0.38071   0.41898
  Beta virt. eigenvalues --    0.44200   0.45844   0.46037   0.48678   0.49174
  Beta virt. eigenvalues --    0.50125   0.50884   0.51601   0.52438   0.53756
  Beta virt. eigenvalues --    0.54177   0.55062   0.56168   0.56953   0.57330
  Beta virt. eigenvalues --    0.59256   0.61585   0.64618   0.65821   0.66736
  Beta virt. eigenvalues --    0.69467   0.70901   0.71478   0.71879   0.75933
  Beta virt. eigenvalues --    0.79819   0.80559   0.83322   0.84824   0.87102
  Beta virt. eigenvalues --    0.89141   0.89933   0.91709   0.94066   0.94710
  Beta virt. eigenvalues --    0.96444   0.96959   0.98092   1.00162   1.02754
  Beta virt. eigenvalues --    1.03867   1.04702   1.06588   1.08596   1.10001
  Beta virt. eigenvalues --    1.11277   1.13394   1.16065   1.16617   1.19024
  Beta virt. eigenvalues --    1.20544   1.21318   1.23898   1.24641   1.25335
  Beta virt. eigenvalues --    1.25801   1.27778   1.30116   1.33479   1.35421
  Beta virt. eigenvalues --    1.35917   1.36913   1.37664   1.38463   1.39016
  Beta virt. eigenvalues --    1.43027   1.44181   1.47544   1.48864   1.51462
  Beta virt. eigenvalues --    1.52378   1.55754   1.59446   1.61180   1.62047
  Beta virt. eigenvalues --    1.63128   1.66972   1.70739   1.75748   1.77334
  Beta virt. eigenvalues --    1.80158   1.88835   1.94099   1.98841   2.05144
  Beta virt. eigenvalues --    2.12233   2.13291   2.17713   2.19247   2.21289
  Beta virt. eigenvalues --    2.23721   2.27510   2.33895   2.37607   2.41295
  Beta virt. eigenvalues --    2.43483   2.44006   2.45678   2.48915   2.50529
  Beta virt. eigenvalues --    2.54485   2.55683   2.57423   2.58554   2.62039
  Beta virt. eigenvalues --    2.62185   2.65400   2.65936   2.67948   2.69636
  Beta virt. eigenvalues --    2.69887   2.74953   2.77059   2.77953   2.82656
  Beta virt. eigenvalues --    2.83659   2.85955   2.89051   2.90185   2.91050
  Beta virt. eigenvalues --    2.92002   2.93714   2.94666   2.95395   3.00856
  Beta virt. eigenvalues --    3.02257   3.02717   3.04450   3.04820   3.05914
  Beta virt. eigenvalues --    3.06396   3.07504   3.09110   3.10098   3.10850
  Beta virt. eigenvalues --    3.12404   3.13835   3.14828   3.16287   3.16813
  Beta virt. eigenvalues --    3.17718   3.19522   3.20264   3.21223   3.25125
  Beta virt. eigenvalues --    3.26600   3.28424   3.28671   3.29358   3.34945
  Beta virt. eigenvalues --    3.36864   3.40884   3.41917   3.42584   3.44868
  Beta virt. eigenvalues --    3.46661   3.47300   3.49472   3.50055   3.50630
  Beta virt. eigenvalues --    3.53859   3.54699   3.57626   3.60171   3.61161
  Beta virt. eigenvalues --    3.64027   3.64686   3.67227   3.72876   3.73524
  Beta virt. eigenvalues --    3.75623   3.81265   3.83275   3.85354   3.86123
  Beta virt. eigenvalues --    3.86639   3.89371   3.89910   3.91306   3.93905
  Beta virt. eigenvalues --    3.95093   3.95417   3.96863   3.99771   4.01284
  Beta virt. eigenvalues --    4.03882   4.05129   4.06304   4.09834   4.11385
  Beta virt. eigenvalues --    4.12188   4.14732   4.15509   4.17979   4.18454
  Beta virt. eigenvalues --    4.18807   4.21845   4.23817   4.25724   4.30142
  Beta virt. eigenvalues --    4.30675   4.34586   4.35220   4.37012   4.38405
  Beta virt. eigenvalues --    4.41190   4.44083   4.45642   4.48461   4.52400
  Beta virt. eigenvalues --    4.56460   4.59406   4.61203   4.65440   4.67366
  Beta virt. eigenvalues --    4.75270   4.80108   4.81348   4.81757   4.87170
  Beta virt. eigenvalues --    4.93382   4.94419   4.99004   5.00806   5.02802
  Beta virt. eigenvalues --    5.04063   5.06256   5.06854   5.15897   5.19664
  Beta virt. eigenvalues --    5.25484   5.26471   5.29193   5.30051   5.30782
  Beta virt. eigenvalues --    5.33592   5.35089   5.35884   5.36925   5.39815
  Beta virt. eigenvalues --    5.40681   5.43149   5.45947   5.46942   5.54997
  Beta virt. eigenvalues --    5.63077   5.65972   5.67112   5.76494   5.77861
  Beta virt. eigenvalues --    5.86312   5.92159   5.95948   5.98765   6.01339
  Beta virt. eigenvalues --    6.04110   6.04967   6.08206   6.09903   6.14626
  Beta virt. eigenvalues --    6.25196   6.32135   6.35673   6.37771   6.41647
  Beta virt. eigenvalues --    6.64670   6.76972   6.78590   6.83598   6.97237
  Beta virt. eigenvalues --    7.05913   7.08834   7.20016   7.42276   7.43785
  Beta virt. eigenvalues --    7.60425   7.75085   8.36549   9.89764  10.61654
  Beta virt. eigenvalues --   12.58424  13.42290  13.52519  16.96575
          Condensed to atoms (all electrons):
               1          2          3          4          5          6
     1  C    4.968843   0.435067   0.400443   0.292865  -0.045505  -0.027565
     2  H    0.435067   0.551323  -0.028469  -0.035169  -0.004450   0.005773
     3  H    0.400443  -0.028469   0.560565  -0.029734   0.006324  -0.005152
     4  C    0.292865  -0.035169  -0.029734   5.148216   0.399511   0.401535
     5  H   -0.045505  -0.004450   0.006324   0.399511   0.544067  -0.027108
     6  H   -0.027565   0.005773  -0.005152   0.401535  -0.027108   0.527606
     7  C    0.000742  -0.001099   0.000058  -0.003460   0.000460   0.000046
     8  H   -0.000008   0.000351  -0.000005  -0.000163  -0.000028   0.000029
     9  H   -0.000116   0.000016  -0.000022   0.000256  -0.000085   0.000002
    10  H    0.000191  -0.000902  -0.000032   0.000078  -0.000609  -0.000197
    11  O   -0.006158   0.014939  -0.000488   0.004460   0.000015   0.000561
    12  O    0.000494  -0.003140   0.003185  -0.073489  -0.000587   0.000146
    13  H   -0.004711  -0.001737  -0.001751   0.208825  -0.007978  -0.006837
    14  C    0.284427  -0.057163  -0.032847  -0.041261   0.006544  -0.001270
    15  C   -0.148405  -0.005969   0.001405   0.008832   0.005070   0.001257
    16  H   -0.000249  -0.000109  -0.000009   0.000047   0.000054   0.000006
               7          8          9         10         11         12
     1  C    0.000742  -0.000008  -0.000116   0.000191  -0.006158   0.000494
     2  H   -0.001099   0.000351   0.000016  -0.000902   0.014939  -0.003140
     3  H    0.000058  -0.000005  -0.000022  -0.000032  -0.000488   0.003185
     4  C   -0.003460  -0.000163   0.000256   0.000078   0.004460  -0.073489
     5  H    0.000460  -0.000028  -0.000085  -0.000609   0.000015  -0.000587
     6  H    0.000046   0.000029   0.000002  -0.000197   0.000561   0.000146
     7  C    4.598135   0.412229   0.396183   0.392460   0.300964  -0.046910
     8  H    0.412229   0.615105  -0.029388  -0.058267  -0.036951   0.002916
     9  H    0.396183  -0.029388   0.589861  -0.032740  -0.026725   0.006637
    10  H    0.392460  -0.058267  -0.032740   0.676717  -0.049878  -0.000553
    11  O    0.300964  -0.036951  -0.026725  -0.049878   7.954146   0.068348
    12  O   -0.046910   0.002916   0.006637  -0.000553   0.068348   8.055960
    13  H    0.000904   0.000146  -0.000233   0.004690  -0.028461   0.207107
    14  C   -0.000007  -0.000011  -0.000092  -0.000023  -0.001115   0.002719
    15  C    0.000001  -0.000001  -0.000005  -0.000007  -0.000048   0.000075
    16  H    0.000000  -0.000000  -0.000000  -0.000000  -0.000000   0.000000
              13         14         15         16
     1  C   -0.004711   0.284427  -0.148405  -0.000249
     2  H   -0.001737  -0.057163  -0.005969  -0.000109
     3  H   -0.001751  -0.032847   0.001405  -0.000009
     4  C    0.208825  -0.041261   0.008832   0.000047
     5  H   -0.007978   0.006544   0.005070   0.000054
     6  H   -0.006837  -0.001270   0.001257   0.000006
     7  C    0.000904  -0.000007   0.000001   0.000000
     8  H    0.000146  -0.000011  -0.000001  -0.000000
     9  H   -0.000233  -0.000092  -0.000005  -0.000000
    10  H    0.004690  -0.000023  -0.000007  -0.000000
    11  O   -0.028461  -0.001115  -0.000048  -0.000000
    12  O    0.207107   0.002719   0.000075   0.000000
    13  H    0.420660  -0.000680  -0.000488  -0.000005
    14  C   -0.000680   5.168304   0.772685  -0.062742
    15  C   -0.000488   0.772685   5.166951   0.414012
    16  H   -0.000005  -0.062742   0.414012   0.480088
          Atomic-Atomic Spin Densities.
               1          2          3          4          5          6
     1  C   -0.045901  -0.000050   0.002131  -0.025032   0.000808   0.000103
     2  H   -0.000050   0.006804   0.000437  -0.003152   0.000574  -0.000076
     3  H    0.002131   0.000437   0.001827  -0.002331  -0.000114   0.000571
     4  C   -0.025032  -0.003152  -0.002331   0.713896   0.004270   0.004358
     5  H    0.000808   0.000574  -0.000114   0.004270  -0.024754   0.003112
     6  H    0.000103  -0.000076   0.000571   0.004358   0.003112  -0.022841
     7  C   -0.000228  -0.000127  -0.000013   0.000810  -0.000199  -0.000024
     8  H   -0.000067  -0.000046  -0.000004   0.000935  -0.000090  -0.000019
     9  H   -0.000012  -0.000031   0.000001   0.000119  -0.000006  -0.000002
    10  H    0.000304   0.000243   0.000018  -0.003551   0.000759   0.000103
    11  O   -0.001743  -0.001417  -0.000127   0.011984  -0.000746  -0.000217
    12  O    0.006430   0.001077   0.000453  -0.086646   0.002653   0.002028
    13  H   -0.000023   0.000366  -0.000101   0.061799   0.001486   0.001488
    14  C    0.031629   0.000163  -0.001623  -0.020396  -0.001156  -0.000853
    15  C    0.003182   0.001516   0.000194   0.005116   0.000186   0.000407
    16  H    0.000122   0.000013  -0.000001   0.000039  -0.000000   0.000004
               7          8          9         10         11         12
     1  C   -0.000228  -0.000067  -0.000012   0.000304  -0.001743   0.006430
     2  H   -0.000127  -0.000046  -0.000031   0.000243  -0.001417   0.001077
     3  H   -0.000013  -0.000004   0.000001   0.000018  -0.000127   0.000453
     4  C    0.000810   0.000935   0.000119  -0.003551   0.011984  -0.086646
     5  H   -0.000199  -0.000090  -0.000006   0.000759  -0.000746   0.002653
     6  H   -0.000024  -0.000019  -0.000002   0.000103  -0.000217   0.002028
     7  C   -0.004760  -0.002944   0.000504   0.003811   0.001226  -0.002171
     8  H   -0.002944   0.004048   0.001093  -0.001276  -0.000698   0.000142
     9  H    0.000504   0.001093  -0.001652  -0.000827   0.000136  -0.000182
    10  H    0.003811  -0.001276  -0.000827   0.001833  -0.000850   0.003096
    11  O    0.001226  -0.000698   0.000136  -0.000850   0.042921  -0.038895
    12  O   -0.002171   0.000142  -0.000182   0.003096  -0.038895   0.564674
    13  H    0.001070   0.001242   0.000059  -0.003133   0.009913  -0.047990
    14  C    0.000029   0.000002   0.000008  -0.000019   0.000049  -0.000177
    15  C   -0.000001  -0.000000   0.000000   0.000006  -0.000008   0.000019
    16  H   -0.000000  -0.000000   0.000000   0.000000  -0.000000   0.000000
              13         14         15         16
     1  C   -0.000023   0.031629   0.003182   0.000122
     2  H    0.000366   0.000163   0.001516   0.000013
     3  H   -0.000101  -0.001623   0.000194  -0.000001
     4  C    0.061799  -0.020396   0.005116   0.000039
     5  H    0.001486  -0.001156   0.000186  -0.000000
     6  H    0.001488  -0.000853   0.000407   0.000004
     7  C    0.001070   0.000029  -0.000001  -0.000000
     8  H    0.001242   0.000002  -0.000000  -0.000000
     9  H    0.000059   0.000008   0.000000   0.000000
    10  H   -0.003133  -0.000019   0.000006   0.000000
    11  O    0.009913   0.000049  -0.000008  -0.000000
    12  O   -0.047990  -0.000177   0.000019   0.000000
    13  H   -0.100023  -0.000770  -0.000099  -0.000000
    14  C   -0.000770   0.017026  -0.017816   0.000641
    15  C   -0.000099  -0.017816   0.035336  -0.000801
    16  H   -0.000000   0.000641  -0.000801  -0.000744
 Mulliken charges and spin densities:
               1          2
     1  C   -0.150356  -0.028347
     2  H    0.130738   0.006295
     3  H    0.126528   0.001315
     4  C   -0.281347   0.662218
     5  H    0.124305  -0.013217
     6  H    0.131167  -0.011857
     7  C   -0.050706  -0.003017
     8  H    0.094045   0.002317
     9  H    0.096451  -0.000793
    10  H    0.069071   0.000516
    11  O   -0.193610   0.021529
    12  O   -0.222908   0.404511
    13  H    0.210550  -0.074718
    14  C   -0.037468   0.006738
    15  C   -0.215365   0.027238
    16  H    0.168906  -0.000728
 Sum of Mulliken charges =  -0.00000   1.00000
 Mulliken charges and spin densities with hydrogens summed into heavy atoms:
               1          2
     1  C    0.106909  -0.020737
     4  C   -0.025876   0.637144
     7  C    0.208861  -0.000977
    11  O   -0.193610   0.021529
    12  O   -0.012358   0.329793
    14  C   -0.037468   0.006738
    15  C   -0.046459   0.026510
 APT charges:
               1
     1  C    0.050520
     2  H    0.021262
     3  H    0.000170
     4  C    0.437098
     5  H   -0.045946
     6  H   -0.033754
     7  C    0.453514
     8  H   -0.033697
     9  H   -0.005668
    10  H   -0.041077
    11  O   -0.412849
    12  O    0.119340
    13  H   -0.349499
    14  C   -0.043453
    15  C   -0.332678
    16  H    0.216718
 Sum of APT charges =  -0.00000
 APT charges with hydrogens summed into heavy atoms:
               1
     1  C    0.071951
     4  C    0.357398
     7  C    0.373072
    11  O   -0.412849
    12  O   -0.230159
    14  C   -0.043453
    15  C   -0.115960
 Electronic spatial extent (au):  <R**2>=           1307.1817
 Charge=              0.0000 electrons
 Dipole moment (field-independent basis, Debye):
    X=              0.3071    Y=             -0.8959    Z=              1.6201  Tot=              1.8766
 Quadrupole moment (field-independent basis, Debye-Ang):
   XX=            -40.2689   YY=            -42.7972   ZZ=            -44.0376
   XY=              3.8941   XZ=             -1.8739   YZ=             -0.3640
 Traceless Quadrupole moment (field-independent basis, Debye-Ang):
   XX=              2.0990   YY=             -0.4293   ZZ=             -1.6697
   XY=              3.8941   XZ=             -1.8739   YZ=             -0.3640
 Octapole moment (field-independent basis, Debye-Ang**2):
  XXX=             -5.5654  YYY=              3.1924  ZZZ=             -2.0786  XYY=             -9.2060
  XXY=            -19.3545  XXZ=             13.3394  XZZ=             -8.1125  YZZ=              1.6974
  YYZ=             -0.1146  XYZ=             -1.2882
 Hexadecapole moment (field-independent basis, Debye-Ang**3):
 XXXX=          -1178.2789 YYYY=           -185.8295 ZZZZ=           -120.4189 XXXY=            -35.9714
 XXXZ=             35.0225 YYYX=             17.0655 YYYZ=              3.4774 ZZZX=              2.4736
 ZZZY=             -3.1675 XXYY=           -271.0906 XXZZ=           -277.6006 YYZZ=            -52.7624
 XXYZ=            -10.8285 YYXZ=              3.4469 ZZXY=              2.6005
 N-N= 2.779233052932D+02 E-N=-1.364295017670D+03  KE= 3.440396720675D+02
  Exact polarizability: 124.414   0.952  61.666   8.945   0.909  55.794
 Approx polarizability: 107.826  -4.462  72.205  12.148   0.295  66.422
                          Isotropic Fermi Contact Couplings
        Atom                 a.u.       MegaHertz       Gauss      10(-4) cm-1
     1  C(13)             -0.00556      -6.25422      -2.23166      -2.08618
     2  H(1)               0.00458      20.45616       7.29927       6.82344
     3  H(1)               0.00107       4.78597       1.70775       1.59643
     4  C(13)              0.09629     108.25086      38.62660      36.10860
     5  H(1)              -0.00425     -18.99429      -6.77764      -6.33581
     6  H(1)              -0.00376     -16.82433      -6.00334      -5.61199
     7  C(13)             -0.00283      -3.18369      -1.13602      -1.06196
     8  H(1)               0.00051       2.28889       0.81673       0.76349
     9  H(1)              -0.00009      -0.38734      -0.13821      -0.12920
    10  H(1)               0.00209       9.33097       3.32952       3.11248
    11  O(17)              0.01435      -8.69658      -3.10316      -2.90087
    12  O(17)              0.04022     -24.38106      -8.69977      -8.13265
    13  H(1)              -0.02444    -109.22925     -38.97571     -36.43496
    14  C(13)              0.04965      55.81170      19.91500      18.61678
    15  C(13)              0.00367       4.12353       1.47138       1.37546
    16  H(1)              -0.00016      -0.73517      -0.26233      -0.24523
 --------------------------------------------------------
       Center         ----  Spin Dipole Couplings  ----
                      3XX-RR        3YY-RR        3ZZ-RR
 --------------------------------------------------------
     1   Atom        0.015771     -0.011859     -0.003912
     2   Atom       -0.004228      0.005199     -0.000971
     3   Atom       -0.000530     -0.008352      0.008882
     4   Atom        0.649204     -0.366043     -0.283161
     5   Atom       -0.002376     -0.019191      0.021566
     6   Atom       -0.001661      0.043406     -0.041745
     7   Atom       -0.000670      0.002869     -0.002199
     8   Atom        0.004040     -0.001137     -0.002902
     9   Atom       -0.000225      0.003402     -0.003177
    10   Atom       -0.001205      0.001512     -0.000307
    11   Atom        0.255000     -0.219429     -0.035571
    12   Atom        1.230838     -0.739164     -0.491674
    13   Atom        0.195996     -0.119973     -0.076023
    14   Atom        0.032047     -0.008372     -0.023675
    15   Atom       -0.008119     -0.016574      0.024693
    16   Atom        0.003247     -0.002131     -0.001117
 --------------------------------------------------------
                        XY            XZ            YZ
 --------------------------------------------------------
     1   Atom       -0.008409     -0.010143      0.007454
     2   Atom       -0.003585     -0.001382      0.010484
     3   Atom       -0.000147     -0.007710      0.000489
     4   Atom       -0.110808      0.314435     -0.034721
     5   Atom        0.005193     -0.000121     -0.043142
     6   Atom        0.013955      0.015664      0.009144
     7   Atom        0.007551     -0.001959     -0.003361
     8   Atom        0.005262     -0.003500     -0.002106
     9   Atom        0.004018     -0.000372     -0.001190
    10   Atom        0.004120     -0.002241     -0.005880
    11   Atom       -0.013081      0.243105     -0.037365
    12   Atom       -0.547392      0.911505     -0.232183
    13   Atom       -0.013026      0.124448     -0.003700
    14   Atom       -0.020633     -0.003478     -0.000097
    15   Atom       -0.003019      0.005227      0.011791
    16   Atom       -0.002142      0.000385      0.000429
 --------------------------------------------------------


 ---------------------------------------------------------------------------------
              Anisotropic Spin Dipole Couplings in Principal Axis System
 ---------------------------------------------------------------------------------

       Atom             a.u.   MegaHertz   Gauss  10(-4) cm-1        Axes

              Baa    -0.0165    -2.215    -0.791    -0.739  0.0885  0.8869 -0.4534
     1 C(13)  Bbb    -0.0068    -0.914    -0.326    -0.305  0.4901  0.3575  0.7950
              Bcc     0.0233     3.130     1.117     1.044  0.8671 -0.2926 -0.4030
 
              Baa    -0.0091    -4.840    -1.727    -1.614 -0.2390 -0.6132  0.7529
     2 H(1)   Bbb    -0.0047    -2.525    -0.901    -0.842  0.9499  0.0132  0.3123
              Bcc     0.0138     7.364     2.628     2.457 -0.2014  0.7898  0.5793
 
              Baa    -0.0084    -4.464    -1.593    -1.489 -0.0164  0.9992 -0.0357
     3 H(1)   Bbb    -0.0049    -2.590    -0.924    -0.864  0.8721  0.0318  0.4884
              Bcc     0.0132     7.054     2.517     2.353 -0.4891  0.0231  0.8719
 
              Baa    -0.3797   -50.950   -18.180   -16.995 -0.2193  0.4377  0.8720
     4 C(13)  Bbb    -0.3777   -50.677   -18.083   -16.904  0.2170  0.8932 -0.3938
              Bcc     0.7573   101.627    36.263    33.899  0.9512 -0.1028  0.2909
 
              Baa    -0.0469   -25.048    -8.938    -8.355 -0.0967  0.8423  0.5302
     5 H(1)   Bbb    -0.0021    -1.130    -0.403    -0.377  0.9937  0.0517  0.0992
              Bcc     0.0491    26.178     9.341     8.732 -0.0561 -0.5365  0.8420
 
              Baa    -0.0473   -25.256    -9.012    -8.425 -0.3109 -0.0478  0.9492
     6 H(1)   Bbb    -0.0020    -1.057    -0.377    -0.353  0.9009 -0.3331  0.2783
              Bcc     0.0493    26.314     9.389     8.777  0.3028  0.9417  0.1467
 
              Baa    -0.0067    -0.905    -0.323    -0.302  0.7507 -0.6430 -0.1520
     7 C(13)  Bbb    -0.0033    -0.446    -0.159    -0.149  0.3074  0.1363  0.9418
              Bcc     0.0101     1.351     0.482     0.451  0.5848  0.7537 -0.3000
 
              Baa    -0.0044    -2.371    -0.846    -0.791 -0.5974  0.6667 -0.4457
     8 H(1)   Bbb    -0.0043    -2.296    -0.819    -0.766 -0.0011  0.5551  0.8318
              Bcc     0.0087     4.667     1.665     1.557  0.8020  0.4974 -0.3309
 
              Baa    -0.0035    -1.864    -0.665    -0.622 -0.3088  0.3337  0.8907
     9 H(1)   Bbb    -0.0027    -1.418    -0.506    -0.473  0.7871 -0.4362  0.4362
              Bcc     0.0062     3.283     1.171     1.095  0.5341  0.8357 -0.1279
 
              Baa    -0.0057    -3.038    -1.084    -1.013 -0.3308  0.7029  0.6297
    10 H(1)   Bbb    -0.0030    -1.600    -0.571    -0.534  0.8437 -0.0786  0.5310
              Bcc     0.0087     4.638     1.655     1.547  0.4227  0.7069 -0.5671
 
              Baa    -0.2324    16.814     6.000     5.609 -0.1615  0.9137  0.3730
    11 O(17)  Bbb    -0.1620    11.723     4.183     3.910 -0.4702 -0.4036  0.7849
              Bcc     0.3944   -28.537   -10.183    -9.519  0.8676 -0.0486  0.4948
 
              Baa    -0.8863    64.131    22.884    21.392 -0.4487 -0.4730  0.7582
    12 O(17)  Bbb    -0.8785    63.569    22.683    21.204 -0.0068  0.8502  0.5264
              Bcc     1.7648  -127.700   -45.567   -42.596  0.8936 -0.2310  0.3848
 
              Baa    -0.1247   -66.557   -23.749   -22.201 -0.3568 -0.2842  0.8899
    13 H(1)   Bbb    -0.1201   -64.077   -22.864   -21.374 -0.0700  0.9580  0.2780
              Bcc     0.2448   130.634    46.613    43.575  0.9315 -0.0369  0.3617
 
              Baa    -0.0241    -3.237    -1.155    -1.080  0.1211  0.1647  0.9789
    14 C(13)  Bbb    -0.0168    -2.248    -0.802    -0.750  0.3696  0.9077 -0.1985
              Bcc     0.0409     5.485     1.957     1.830  0.9212 -0.3859 -0.0491
 
              Baa    -0.0211    -2.837    -1.012    -0.946  0.3190  0.9084 -0.2701
    15 C(13)  Bbb    -0.0072    -0.965    -0.344    -0.322  0.9404 -0.3388 -0.0289
              Bcc     0.0283     3.802     1.357     1.268  0.1177  0.2448  0.9624
 
              Baa    -0.0030    -1.616    -0.577    -0.539  0.3258  0.9063 -0.2692
    16 H(1)   Bbb    -0.0010    -0.522    -0.186    -0.174  0.0484  0.2683  0.9621
              Bcc     0.0040     2.137     0.763     0.713  0.9442 -0.3265  0.0435
 

 ---------------------------------------------------------------------------------

 Calling FoFJK, ICntrl=  10100127 FMM=F ISym2X=0 I1Cent= 0 IOpClX= 1 NMat=1 NMatS=1 NMatT=0.
 ***** Axes restored to original set *****
 -------------------------------------------------------------------
 Center     Atomic                   Forces (Hartrees/Bohr)
 Number     Number              X              Y              Z
 -------------------------------------------------------------------
      1        6           0.000000031    0.000001419   -0.000003661
      2        1          -0.000005854   -0.000000115    0.000005820
      3        1          -0.000000430   -0.000000129    0.000000412
      4        6           0.000112091   -0.000116427   -0.000273833
      5        1          -0.000000378    0.000001398   -0.000000777
      6        1          -0.000000917   -0.000001213   -0.000000773
      7        6          -0.000502089   -0.000198624   -0.000216104
      8        1           0.000000132   -0.000000495    0.000000798
      9        1           0.000000595   -0.000000428   -0.000000403
     10        1          -0.000007764    0.000000785    0.000006178
     11        8           0.000708149    0.000218715    0.000180903
     12        8          -0.000300097    0.000095016    0.000306194
     13        1          -0.000003362    0.000000665   -0.000004802
     14        6          -0.000000366   -0.000000016    0.000000518
     15        6          -0.000000349   -0.000000551   -0.000000237
     16        1           0.000000606    0.000000002   -0.000000236
 -------------------------------------------------------------------
 Cartesian Forces:  Max     0.000708149 RMS     0.000159063
 FormGI is forming the generalized inverse of G from B-inverse, IUseBI=4.

 GradGradGradGradGradGradGradGradGradGradGradGradGradGradGradGradGradGrad
 Berny optimization.
 Internal  Forces:  Max     0.001473091 RMS     0.000223777
 Search for a saddle point.
 Step number   1 out of a maximum of  100
 All quantities printed in internal units (Hartrees-Bohrs-Radians)
 Swapping is turned off.
 Second derivative matrix not updated -- analytic derivatives used.
 ITU=  0
     Eigenvalues ---   -0.07331   0.00116   0.00143   0.00606   0.01498
     Eigenvalues ---    0.01601   0.02274   0.02855   0.03150   0.03790
     Eigenvalues ---    0.03986   0.04678   0.04824   0.06098   0.06628
     Eigenvalues ---    0.08491   0.08509   0.08903   0.09402   0.09993
     Eigenvalues ---    0.13072   0.13343   0.16177   0.16507   0.16579
     Eigenvalues ---    0.17245   0.18203   0.18822   0.25937   0.30493
     Eigenvalues ---    0.31990   0.32797   0.33476   0.33598   0.34497
     Eigenvalues ---    0.35213   0.35387   0.35511   0.35728   0.40299
     Eigenvalues ---    0.41656   1.04755
 Eigenvectors required to have negative eigenvalues:
                          R7        R13       R12       A20       D5
   1                    0.70498  -0.64720   0.15397  -0.08690   0.07636
                          D1        D7        D16       D8        D2
   1                   -0.07579  -0.07010   0.06912   0.06853   0.06285
 RFO step:  Lambda0=2.820793675D-07 Lambda=-1.34433644D-04.
 Linear search not attempted -- option 19 set.
 Iteration  1 RMS(Cart)=  0.06348576 RMS(Int)=  0.00188827
 Iteration  2 RMS(Cart)=  0.00332689 RMS(Int)=  0.00000342
 Iteration  3 RMS(Cart)=  0.00000638 RMS(Int)=  0.00000187
 Iteration  4 RMS(Cart)=  0.00000000 RMS(Int)=  0.00000187
 Variable       Old X    -DE/DX   Delta X   Delta X   Delta X     New X
                                 (Linear)    (Quad)   (Total)
    R1        2.06156  -0.00000   0.00000   0.00022   0.00022   2.06178
    R2        2.05953  -0.00000   0.00000  -0.00003  -0.00003   2.05950
    R3        2.85701   0.00000   0.00000  -0.00001  -0.00001   2.85701
    R4        2.76266   0.00000   0.00000   0.00006   0.00006   2.76272
    R5        2.04989  -0.00000   0.00000  -0.00017  -0.00017   2.04972
    R6        2.04961  -0.00000   0.00000  -0.00008  -0.00008   2.04953
    R7        2.59489  -0.00001   0.00000   0.00759   0.00759   2.60248
    R8        2.05667  -0.00000   0.00000  -0.00002  -0.00002   2.05665
    R9        2.05594   0.00000   0.00000  -0.00004  -0.00004   2.05590
   R10        2.06156   0.00000   0.00000   0.00034   0.00034   2.06190
   R11        2.68604  -0.00000   0.00000  -0.00011  -0.00011   2.68593
   R12        2.66664  -0.00001   0.00000  -0.00109  -0.00109   2.66555
   R13        2.17822   0.00003   0.00000  -0.00460  -0.00460   2.17362
   R14        2.27820   0.00000   0.00000  -0.00001  -0.00001   2.27819
   R15        2.00279  -0.00000   0.00000   0.00001   0.00001   2.00280
    A1        1.86219  -0.00000   0.00000  -0.00076  -0.00076   1.86142
    A2        1.91565   0.00001   0.00000   0.00074   0.00074   1.91638
    A3        1.91365  -0.00000   0.00000  -0.00039  -0.00039   1.91326
    A4        1.92080   0.00000   0.00000  -0.00005  -0.00005   1.92075
    A5        1.91429   0.00000   0.00000   0.00009   0.00009   1.91438
    A6        1.93584  -0.00001   0.00000   0.00033   0.00033   1.93617
    A7        2.01377  -0.00000   0.00000   0.00041   0.00042   2.01418
    A8        2.02549  -0.00004   0.00000   0.00048   0.00047   2.02597
    A9        1.79601   0.00002   0.00000   0.00012   0.00012   1.79613
   A10        1.98073   0.00003   0.00000  -0.00041  -0.00041   1.98032
   A11        1.80803  -0.00000   0.00000   0.00160   0.00160   1.80963
   A12        1.79764   0.00000   0.00000  -0.00238  -0.00238   1.79527
   A13        1.92462  -0.00000   0.00000   0.00086   0.00086   1.92549
   A14        1.91785  -0.00000   0.00000  -0.00030  -0.00030   1.91756
   A15        1.93000  -0.00000   0.00000   0.00003   0.00003   1.93003
   A16        1.91953   0.00001   0.00000  -0.00081  -0.00081   1.91873
   A17        1.83500   0.00000   0.00000   0.00070   0.00070   1.83570
   A18        1.93551  -0.00000   0.00000  -0.00045  -0.00045   1.93506
   A19        1.87914  -0.00004   0.00000   0.00192   0.00192   1.88106
   A20        1.81190   0.00001   0.00000   0.00224   0.00224   1.81414
   A21        3.14299  -0.00061   0.00000  -0.01329  -0.01329   3.12970
   A22        3.10834  -0.00001   0.00000  -0.00026  -0.00026   3.10808
   A23        3.15545  -0.00000   0.00000   0.00007   0.00007   3.15552
   A24        3.28900  -0.00055   0.00000  -0.01369  -0.01369   3.27531
   A25        3.15781  -0.00000   0.00000  -0.00041  -0.00041   3.15740
   A26        3.13411  -0.00000   0.00000   0.00046   0.00046   3.13456
    D1        1.04849   0.00000   0.00000   0.00863   0.00863   1.05712
    D2       -2.85584  -0.00000   0.00000   0.00903   0.00903  -2.84681
    D3       -0.90730  -0.00000   0.00000   0.00647   0.00646  -0.90083
    D4        3.09288   0.00001   0.00000   0.00811   0.00811   3.10098
    D5       -0.81146   0.00000   0.00000   0.00851   0.00851  -0.80295
    D6        1.13709  -0.00000   0.00000   0.00594   0.00594   1.14303
    D7       -1.06878   0.00000   0.00000   0.00841   0.00841  -1.06037
    D8        1.31007   0.00000   0.00000   0.00881   0.00881   1.31888
    D9       -3.02457  -0.00000   0.00000   0.00624   0.00624  -3.01833
   D10        0.86945  -0.00003   0.00000  -0.01520  -0.01521   0.85424
   D11       -1.21712  -0.00002   0.00000  -0.01670  -0.01669  -1.23380
   D12        2.97081   0.00006   0.00000  -0.01337  -0.01337   2.95744
   D13        1.00429   0.00000   0.00000  -0.00878  -0.00878   0.99551
   D14        3.08145   0.00001   0.00000  -0.00734  -0.00734   3.07412
   D15       -1.12777   0.00001   0.00000  -0.00812  -0.00812  -1.13589
   D16        1.68532  -0.00147   0.00000  -0.08072  -0.08072   1.60459
         Item               Value     Threshold  Converged?
 Maximum Force            0.001473     0.000450     NO 
 RMS     Force            0.000224     0.000300     YES
 Maximum Displacement     0.265662     0.001800     NO 
 RMS     Displacement     0.065736     0.001200     NO 
 Predicted change in Energy=-6.764679D-05
 GradGradGradGradGradGradGradGradGradGradGradGradGradGradGradGradGradGrad

                          Input orientation:                          
 ---------------------------------------------------------------------
 Center     Atomic      Atomic             Coordinates (Angstroms)
 Number     Number       Type             X           Y           Z
 ---------------------------------------------------------------------
      1          6           0       -1.247066    0.168987    0.637783
      2          1           0       -0.657461   -0.657266    1.037854
      3          1           0       -1.235354    0.955147    1.392478
      4          6           0       -0.621438    0.671232   -0.643650
      5          1           0       -0.552307   -0.057153   -1.444380
      6          1           0       -0.941948    1.651814   -0.978333
      7          6           0        2.610222   -1.111217   -0.162499
      8          1           0        3.527563   -0.664393   -0.541057
      9          1           0        2.833178   -2.022360    0.388599
     10          1           0        1.936376   -1.333284   -0.991435
     11          8           0        1.986584   -0.249370    0.780096
     12          8           0        1.753515    0.987863    0.144029
     13          1           0        0.690438    0.884158   -0.282747
     14          6           0       -2.621447   -0.274044    0.409425
     15          6           0       -3.749942   -0.630258    0.179210
     16          1           0       -4.744199   -0.945900   -0.008082
 ---------------------------------------------------------------------
                    Distance matrix (angstroms):
                    1          2          3          4          5
     1  C    0.000000
     2  H    1.091048   0.000000
     3  H    1.089839   1.749169   0.000000
     4  C    1.511863   2.143283   2.145535   0.000000
     5  H    2.206634   2.555911   3.088539   1.084663   0.000000
     6  H    2.214431   3.078603   2.488409   1.084564   1.813722
     7  C    4.142227   3.510651   4.634250   3.721863   3.571536
     8  H    4.988112   4.472967   5.389512   4.359889   4.222567
     9  H    4.638156   3.803889   5.140649   4.500595   4.322426
    10  H    3.878850   3.361994   4.580375   3.268250   2.833234
    11  O    3.263705   2.687711   3.493818   3.110682   3.381008
    12  O    3.149260   3.052569   3.239296   2.522122   2.988632
    13  H    2.261143   2.436556   2.553447   1.377174   1.944190
    14  C    1.461967   2.097385   2.097274   2.450011   2.786571
    15  C    2.667109   3.209586   3.210713   3.486906   3.631716
    16  H    3.726937   4.228324   4.229367   4.473949   4.519378
                    6          7          8          9         10
     6  H    0.000000
     7  C    4.573602   0.000000
     8  H    5.052974   1.088334   0.000000
     9  H    5.442393   1.087934   1.786198   0.000000
    10  H    4.146774   1.091109   1.783853   1.784258   0.000000
    11  O    3.909332   1.421334   2.071787   2.003369   2.077430
    12  O    2.994336   2.287803   2.519233   3.207324   2.590452
    13  H    1.933344   2.771562   3.242532   3.672859   2.640389
    14  C    2.907838   5.329008   6.234269   5.728000   4.884481
    15  C    3.799025   6.387470   7.313140   6.731958   5.847980
    16  H    4.706019   7.357900   8.293693   7.663731   6.763663
                   11         12         13         14         15
    11  O    0.000000
    12  O    1.410548   0.000000
    13  H    2.023491   1.150229   0.000000
    14  C    4.622982   4.561046   3.576188   0.000000
    15  C    5.780474   5.736514   4.714216   1.205565   0.000000
    16  H    6.812476   6.781067   5.741065   2.265343   1.059838
                   16
    16  H    0.000000
 Stoichiometry    C5H9O2(2)
 Framework group  C1[X(C5H9O2)]
 Deg. of freedom    42
 Full point group                 C1      NOp   1
 Largest Abelian subgroup         C1      NOp   1
 Largest concise Abelian subgroup C1      NOp   1
                         Standard orientation:                         
 ---------------------------------------------------------------------
 Center     Atomic      Atomic             Coordinates (Angstroms)
 Number     Number       Type             X           Y           Z
 ---------------------------------------------------------------------
      1          6           0        1.200420    0.156121   -0.493084
      2          1           0        0.614482   -0.718950   -0.778237
      3          1           0        1.202585    0.824543   -1.353873
      4          6           0        0.556863    0.839367    0.692134
      5          1           0        0.473338    0.234848    1.588835
      6          1           0        0.875201    1.857865    0.886048
      7          6           0       -2.672468   -0.991482    0.424410
      8          1           0       -3.594114   -0.493768    0.719911
      9          1           0       -2.889756   -1.972734    0.007839
     10          1           0       -2.012004   -1.091527    1.287136
     11          8           0       -2.031938   -0.275917   -0.623387
     12          8           0       -1.804845    1.040291   -0.169875
     13          1           0       -0.748712    0.998736    0.283866
     14          6           0        2.569816   -0.250190   -0.181616
     15          6           0        3.693590   -0.570139    0.115290
     16          1           0        4.683919   -0.856065    0.361766
 ---------------------------------------------------------------------
 Rotational constants (GHZ):           6.1945587           0.9271294           0.8797906
 Standard basis: CC-pVTZ (5D, 7F)
 There are   380 symmetry adapted cartesian basis functions of A   symmetry.
 There are   336 symmetry adapted basis functions of A   symmetry.
   336 basis functions,   517 primitive gaussians,   380 cartesian basis functions
    28 alpha electrons       27 beta electrons
       nuclear repulsion energy       278.4324056728 Hartrees.
 NAtoms=   16 NActive=   16 NUniq=   16 SFac= 1.00D+00 NAtFMM=   60 NAOKFM=F Big=F
 Integral buffers will be    131072 words long.
 Raffenetti 2 integral format.
 Two-electron integral symmetry is turned on.
 Nuclear repulsion after empirical dispersion term =      278.4243133177 Hartrees.
 One-electron integrals computed using PRISM.
 NBasis=   336 RedAO= T EigKep=  4.21D-05  NBF=   336
 NBsUse=   336 1.00D-06 EigRej= -1.00D+00 NBFU=   336
 Initial guess from the checkpoint file:  "/localscratch/353442/Gau-82657.chk"
 B after Tr=    -0.000000    0.000000   -0.000000
         Rot=    0.999860   -0.016237   -0.002011   -0.003494 Ang=  -1.92 deg.
 Initial guess <Sx>= 0.0000 <Sy>= 0.0000 <Sz>= 0.5000 <S**2>= 0.7683 S= 0.5091
 ExpMin= 1.03D-01 ExpMax= 1.53D+04 ExpMxC= 5.22D+02 IAcc=3 IRadAn=         5 AccDes= 0.00D+00
 Harris functional with IExCor=  419 and IRadAn=       5 diagonalized for initial guess.
 HarFok:  IExCor=  419 AccDes= 0.00D+00 IRadAn=         5 IDoV= 1 UseB2=F ITyADJ=14
 ICtDFT=  3500011 ScaDFX=  1.000000  1.000000  1.000000  1.000000
 FoFCou: FMM=F IPFlag=           0 FMFlag=      100000 FMFlg1=           0
         NFxFlg=           0 DoJE=T BraDBF=F KetDBF=T FulRan=T
         wScrn=  0.000000 ICntrl=       500 IOpCl=  0 I1Cent=   200000004 NGrid=           0
         NMat0=    1 NMatS0=      1 NMatT0=    0 NMatD0=    1 NMtDS0=    0 NMtDT0=    0
 Petite list used in FoFCou.
 Requested convergence on RMS density matrix=1.00D-08 within 128 cycles.
 Requested convergence on MAX density matrix=1.00D-06.
 Requested convergence on             energy=1.00D-06.
 No special actions if energy rises.
 Integral accuracy reduced to 1.0D-05 until final iterations.
 Initial convergence to 1.0D-05 achieved.  Increase integral accuracy.
 SCF Done:  E(UB2PLYPD3) =  -345.567250074     A.U. after   15 cycles
            NFock= 15  Conv=0.57D-08     -V/T= 2.0044
 <Sx>= 0.0000 <Sy>= 0.0000 <Sz>= 0.5000 <S**2>= 0.7682 S= 0.5091
 <L.S>=  0.00000000000    
 Annihilation of the first spin contaminant:
 S**2 before annihilation     0.7682,   after     0.7502
 DoSCS=T DFT=T ScalE2(SS,OS)=  0.270000  0.270000
 ExpMin= 1.03D-01 ExpMax= 1.53D+04 ExpMxC= 5.22D+02 IAcc=3 IRadAn=         5 AccDes= 0.00D+00
 HarFok:  IExCor=  205 AccDes= 0.00D+00 IRadAn=         5 IDoV=-2 UseB2=F ITyADJ=14
 ICtDFT= 12500011 ScaDFX=  1.000000  1.000000  1.000000  1.000000
 Range of M.O.s used for correlation:     8   336
 NBasis=   336 NAE=    28 NBE=    27 NFC=     7 NFV=     0
 NROrb=    329 NOA=    21 NOB=    20 NVA=   308 NVB=   309

 **** Warning!!: The largest alpha MO coefficient is  0.39127797D+02


 **** Warning!!: The largest beta MO coefficient is  0.39505203D+02

 DoSCS=T DFT=T ScalE2(SS,OS)=  0.270000  0.270000
 Disk-based method using ON**2 memory for 21 occupieds at a time.
 Estimated scratch disk usage=  1919276704 words.
 Actual    scratch disk usage=  1758959776 words.
 JobTyp=2 Pass  1:  I=   8 to  28 NPSUse= 40 ParTrn=T ParDer=T DoDerP=T.
 (rs|ai) integrals will be sorted in core.
 Actual    scratch disk usage=  1758959776 words.
 JobTyp=3 Pass  1:  I=   8 to  27 NPSUse= 40 ParTrn=T ParDer=T DoDerP=T.
 (rs|ai) integrals will be sorted in core.
 Spin components of T(2) and E(2):
     alpha-alpha T2 =       0.7935855111D-01 E2=     -0.5369981046D-01
     alpha-beta  T2 =       0.4679072965D+00 E2=     -0.3264093244D+00
     beta-beta   T2 =       0.8339119164D-01 E2=     -0.5192812404D-01
 (S**2,0)=  0.76825D+00           (S**2,1)=  0.74290D+00
 Scaling Projection term by:   0.270000
 E(PUHF)=      -0.34557334329D+03        E(PMP2)=      -0.34599979558D+03
 E2(B2PLYPD3) =    -0.4320372589D+00 E(B2PLYPD3) =    -0.34599928733343D+03
          IDoAtm=1111111111111111
          Differentiating once with respect to electric field.
                with respect to dipole field.
          Differentiating once with respect to nuclear coordinates.
 Keep R1 and R2 ints in memory in canonical form, NReq=3251778068.
          There are     1 degrees of freedom in the 1st order CPHF.  IDoFFX=0 NUNeed=     1.
 LinEq1:  Iter=  0 NonCon=     1 RMS=8.99D-04 Max=6.97D-02 NDo=     1
 AX will form     1 AO Fock derivatives at one time.
 LinEq1:  Iter=  1 NonCon=     1 RMS=2.97D-04 Max=1.02D-02 NDo=     1
 LinEq1:  Iter=  2 NonCon=     1 RMS=1.74D-04 Max=1.00D-02 NDo=     1
 LinEq1:  Iter=  3 NonCon=     1 RMS=1.09D-04 Max=3.29D-03 NDo=     1
 LinEq1:  Iter=  4 NonCon=     1 RMS=5.05D-05 Max=1.19D-03 NDo=     1
 LinEq1:  Iter=  5 NonCon=     1 RMS=4.09D-05 Max=1.08D-03 NDo=     1
 LinEq1:  Iter=  6 NonCon=     1 RMS=1.86D-05 Max=4.23D-04 NDo=     1
 LinEq1:  Iter=  7 NonCon=     1 RMS=8.29D-06 Max=2.13D-04 NDo=     1
 LinEq1:  Iter=  8 NonCon=     1 RMS=6.02D-06 Max=1.17D-04 NDo=     1
 LinEq1:  Iter=  9 NonCon=     1 RMS=2.95D-06 Max=7.29D-05 NDo=     1
 LinEq1:  Iter= 10 NonCon=     1 RMS=1.24D-06 Max=2.94D-05 NDo=     1
 LinEq1:  Iter= 11 NonCon=     1 RMS=5.58D-07 Max=9.46D-06 NDo=     1
 LinEq1:  Iter= 12 NonCon=     1 RMS=2.36D-07 Max=4.14D-06 NDo=     1
 LinEq1:  Iter= 13 NonCon=     1 RMS=9.87D-08 Max=1.55D-06 NDo=     1
 LinEq1:  Iter= 14 NonCon=     1 RMS=3.27D-08 Max=7.97D-07 NDo=     1
[...]
     6          5.03812665          1.56073191          1.02735720
     1          6.80389818          0.55178095          0.72080911
     1          5.40850718          3.54399938          1.42254650
     1          4.00926692          0.71088153          2.59915211
     8          3.54738173          1.55551816         -1.20682871
     8          3.14654493         -0.98396285         -1.91162200
     1          1.27144888         -1.50710191         -0.94315500
     6         -4.97911486          0.64773542          0.45464047
     6         -7.00066555          0.71720545          1.50279813
     1         -8.78533098          0.80125011          2.40785223

 Electric dipole moment (dipole orientation):
 (Debye = 10**-18 statcoulomb cm , SI units = C m)
                  (au)            (Debye)         (10**-30 SI)
   Tot        0.717626D+00      0.182402D+01      0.608429D+01
   x          0.000000D+00      0.000000D+00      0.000000D+00
   y          0.000000D+00      0.000000D+00      0.000000D+00
   z          0.717626D+00      0.182402D+01      0.608429D+01

 Dipole polarizability, Alpha (dipole orientation).
 (esu units = cm**3 , SI units = C**2 m**2 J**-1)
 Alpha(0;0):
               (au)            (10**-24 esu)      (10**-40 SI)
   iso        0.803166D+02      0.119017D+02      0.132424D+02
   aniso      0.663369D+02      0.983011D+01      0.109375D+02
   xx         0.120092D+03      0.177958D+02      0.198005D+02
   yx         0.862134D+01      0.127755D+01      0.142147D+01
   yy         0.614560D+02      0.910685D+01      0.101327D+02
   zx        -0.142561D+02     -0.211253D+01     -0.235051D+01
   zy         0.129686D+01      0.192175D+00      0.213823D+00
   zz         0.594017D+02      0.880242D+01      0.979402D+01

 ----------------------------------------------------------------------
 1\1\GINC-N142\Freq\UB2PLYPD3-FC\CC-pVTZ\C5H9O2(2)\ROOT\24-Jun-2019\0\\
 #N Geom=AllCheck Guess=TCheck SCRF=Check GenChk UB2PLYPD3(FC)/CC-pVTZ 
 Freq\\Title Card Required\\0,2\C,-1.24662436,0.1666277652,0.6363656458
 \H,-0.6570569363,-0.6614372366,1.0327201781\H,-1.2324307882,0.95043912
 86,1.3934595648\C,-0.6232291096,0.6722799348,-0.6448285856\H,-0.556427
 5756,-0.0536117237,-1.4480051291\H,-0.9438999856,1.6540947808,-0.97575
 14375\C,2.6124735897,-1.1112331542,-0.1603275116\H,3.5305749816,-0.664
 1331215,-0.536737974\H,2.8346660076,-2.0212557741,0.3929243631\H,1.941
 4762311,-1.3353152007,-0.9910172667\O,1.9851053405,-0.2485707423,0.778
 9967087\O,1.7527509365,0.9874935458,0.1401367057\H,0.6890388791,0.8838
 716301,-0.286054126\C,-2.6219646408,-0.2742435705,0.4096499969\C,-3.75
 13586244,-0.6285331425,0.1808882593\H,-4.7463799457,-0.9425171191,-0.0
 051273919\\Version=ES64L-G16RevB.01\State=2-A\HF=-345.5672442\MP2=-345
 .9992877\PUHF=-345.5733431\PMP2-0=-345.9997965\S2=0.768265\S2-1=0.7428
 97\S2A=0.750152\RMSD=1.364e-09\RMSF=1.915e-07\ZeroPoint=0.1229547\Ther
 mal=0.132555\Dipole=-0.0933738,-0.4971667,-0.5090128\DipoleDeriv=-0.06
 52095,0.0155767,-0.0211332,0.0133613,0.118098,0.0241256,-0.2490502,0.0
 26431,0.1016692,0.0141877,0.0160929,-0.0350167,0.003799,-0.0062025,0.0
 327288,0.0115423,0.0289721,0.0533427,-0.0044249,-0.0317099,0.0040529,-
 0.0336548,0.0057106,-0.074062,0.0232249,-0.0517662,-0.0010372,1.092372
 5,-0.1699203,0.1946799,0.216897,0.0893892,0.0455034,0.0982779,-0.03628
 81,0.1069468,-0.0782034,0.0274619,-0.0429975,0.012754,-0.0154025,-0.06
 9715,0.0378905,-0.026521,-0.0408755,-0.0826061,0.0955748,-0.0473864,-0
 .043475,-0.028373,0.0392107,0.0099038,0.0451129,0.0139888,0.5664897,-0
 .0989528,-0.0154313,-0.3022494,0.4067407,0.0578257,-0.3016875,0.165744
 6,0.358247,-0.131627,-0.0016634,0.0532042,-0.0875528,0.0065502,0.02978
 69,0.1054906,-0.0439478,0.0316117,0.041908,0.0438056,0.0043327,0.09016
 91,-0.0633181,0.0481338,0.0110813,0.0619232,0.0095702,-0.0794561,-0.02
 12973,-0.1218313,0.0428312,0.0146294,-0.0065578,0.0138372,-0.0910883,-
 0.0578815,-0.4322401,0.0038152,0.0330845,0.9563639,-0.4041607,0.127999
 6,-0.2413859,-0.0474193,-0.4017722,0.4848639,-0.0564049,0.2278504,-0.7
 299336,-0.0927147,-0.2538123,0.7823937,-0.1254341,-0.0303659,-1.156590
 8,0.1573262,-0.2946779,-0.0826407,0.1136105,-0.0158837,-0.5289671,0.07
 54415,0.0194989,0.100358,0.0738061,0.0752063,0.0245973,-0.0961539,0.02
 02763,0.2666823,0.0296875,-0.1349474,-0.4987009,-0.0537572,-0.0109894,
 -0.0909283,-0.259253,-0.005166,-0.0273339,-0.0102691,-0.2384151,0.2288
 789,0.0002466,-0.002947,0.0096619,0.2108497,-0.0003939,-0.0118998,-0.0
 00579,0.2104195\Polar=123.4570241,0.3449424,61.5377398,7.7159756,-1.89
 45792,55.9549389\PG=C01 [X(C5H9O2)]\NImag=1\\0.48950627,-0.03182747,0.
 55086303,0.02922689,0.03393443,0.49581323,-0.11849316,0.11001280,-0.04
 948487,0.13639121,0.10737570,-0.19957465,0.06763118,-0.11549214,0.2169
 3950,-0.04921575,0.06896285,-0.07945584,0.05314517,-0.07914559,0.08749
 042,-0.04528543,-0.00057949,-0.00268736,0.00040112,0.01253386,0.012696
 14,0.05379544,0.00117579,-0.18748349,-0.13274132,-0.00032491,-0.018236
 17,-0.01700457,0.00451976,0.20147286,-0.00046087,-0.13039372,-0.169656
 51,0.00089454,0.00830437,0.00842067,0.00015993,0.14321546,0.18788001,-
 0.06846542,-0.00897205,0.05072033,0.00873991,0.00368472,-0.01262860,-0
 .00086349,-0.00015038,0.00219605,0.17605029,-0.01143510,-0.09473556,0.
 03592154,-0.01255290,-0.01011214,0.02453454,0.01116143,0.00986898,-0.0
 2050968,-0.07970120,0.58243322,0.05443288,0.03370043,-0.16845296,0.004
 76755,0.00581369,-0.01081146,0.01111707,0.00942022,-0.02184520,-0.0619
 2292,0.01304276,0.49547936,-0.00057060,0.00996480,0.01178984,0.0003655
 3,-0.00073014,-0.00014978,-0.00036175,-0.00180778,0.00234431,-0.025015
 73,0.00627072,0.00764677,0.02810345,-0.00215859,0.00970020,0.00994522,
 0.00057158,0.00069349,-0.00078325,-0.00145166,0.00016796,0.00269793,0.
 01622656,-0.18321778,-0.13889679,-0.01336213,0.18776743,-0.00012906,-0
 .01863110,-0.01655589,-0.00061096,-0.00011946,0.00082217,0.00262584,0.
 00263732,-0.00366827,0.02003884,-0.13840651,-0.20180988,-0.01908916,0.
 14919726,0.21400122,0.00642840,-0.01562100,0.00722973,-0.00169507,-0.0
 0062250,0.00236125,0.00016478,0.00053361,-0.00075741,-0.05444650,0.094
 07160,-0.02211483,0.00253754,-0.00073122,-0.00098618,0.05533204,0.0049
 6104,-0.00568873,0.00215177,-0.00163073,0.00096901,0.00116330,-0.00043
 904,0.00087029,0.00014093,0.07980763,-0.28065672,0.07413345,0.00740131
 ,-0.01390682,0.00779144,-0.08812000,0.29725534,-0.00935410,0.02288547,
 -0.00593217,0.00276117,0.00224006,-0.00410934,-0.00085050,-0.00039999,
 0.00128884,-0.01742527,0.07714595,-0.07516304,0.00764867,-0.02062146,0
 .00898423,0.02042081,-0.08380851,0.07645371,0.00021676,-0.00005112,0.0
 0048595,-0.00028554,0.00000812,0.00033308,0.00012068,-0.00007650,-0.00
 007685,-0.00456862,-0.00050132,0.00034232,0.00078776,0.00000941,-0.000
 11232,0.00073411,0.00014099,0.00013081,0.55664756,-0.00093933,-0.00012
 595,-0.00131025,0.00069087,0.00035209,0.00012189,0.00010668,-0.0000294
 7,-0.00002662,0.00746703,0.00258884,0.00230126,-0.00100352,-0.00024246
 ,-0.00041043,-0.00122797,-0.00053148,-0.00035763,0.04177050,0.54177008
 ,-0.00130335,-0.00017231,-0.00126855,0.00046489,0.00011414,0.00011529,
 0.00014831,0.00004546,-0.00014432,0.00674721,0.00264715,0.00299672,-0.
 00076681,-0.00039200,-0.00063355,-0.00107573,-0.00070608,-0.00030778,0
 .03669231,-0.08182113,0.54892701,-0.00005723,-0.00002966,-0.00016646,0
 .00011577,0.00003378,-0.00003846,-0.00000890,0.00000226,0.00001279,0.0
 0105744,0.00019444,0.00007226,-0.00020402,-0.00000512,0.00006237,-0.00
 017654,-0.00001320,-0.00001283,-0.23625579,-0.09847955,0.06753252,0.25
 585956,-0.00004228,-0.00001832,0.00002485,-0.00009549,-0.00008547,-0.0
 0004283,-0.00003389,0.00003028,-0.00000363,0.00005884,-0.00005993,0.00
 005024,0.00003515,-0.00000296,0.00006289,0.00000830,0.00001448,0.00002
 634,-0.10433479,-0.10370013,0.04327491,0.10383836,0.10557092,0.0002329
 5,0.00005238,0.00023418,-0.00015690,-0.00010354,-0.00007531,-0.0000464
 4,0.00002737,0.00001414,-0.00124498,-0.00048005,-0.00062649,0.00014656
 ,0.00003533,0.00016070,0.00018317,0.00012530,0.00010005,0.06634607,0.0
 3658119,-0.07616345,-0.08433802,-0.03619545,0.08700792,-0.00013469,0.0
 0010632,-0.00015386,-0.00001693,0.00002444,0.00001838,0.00001766,-0.00
 001917,0.00001582,0.00037485,0.00009045,0.00002562,0.00000345,0.000012
 43,0.00003023,-0.00008577,-0.00002731,0.00003135,-0.06077869,0.0399368
 8,-0.02494181,0.00828615,-0.02242519,0.01338845,0.06070511,0.00022227,
 0.00000078,0.00024794,-0.00001020,-0.00002260,-0.00000386,-0.00003000,
 -0.00000611,0.00001446,-0.00078386,-0.00014087,-0.00020783,0.00017934,
 0.00002658,0.00003843,0.00010585,0.00008677,0.00000541,0.04296990,-0.2
 3057461,0.11320061,0.00284709,-0.00872562,0.00672432,-0.05303430,0.258
 13621,0.00009515,0.00006126,0.00007105,0.00000633,0.00001619,0.0000173
 1,-0.00001887,-0.00002477,0.00002861,-0.00034748,-0.00002335,-0.000134
 36,0.00022781,0.00005049,0.00007300,0.00001139,0.00006442,0.00002869,-
 0.02931443,0.12411121,-0.12890876,-0.00359863,0.00692390,-0.00422544,0
 .02780198,-0.12376373,0.13109802,-0.00009744,-0.00005086,-0.00009413,-
 0.00003043,-0.00004681,0.00008166,0.00002582,-0.00002337,0.00002282,0.
 00039254,-0.00033803,-0.00023451,-0.00072243,0.00028417,-0.00005235,0.
 00010054,-0.00001558,-0.00010406,-0.16229478,-0.03144191,-0.12644989,-
 0.01590083,-0.00364986,-0.02112942,-0.00313864,-0.00193645,-0.00293945
 ,0.16622240,0.00010805,0.00011374,0.00011632,-0.00005247,-0.00000597,-
 0.00001793,-0.00002623,-0.00001428,0.00002802,-0.00120434,-0.00018722,
 -0.00019095,0.00064156,0.00008525,0.00017094,0.00007624,0.00009532,0.0
 0012822,-0.03079957,-0.05860548,-0.02772402,-0.01061331,-0.00084164,-0
 .01028394,0.01695005,0.00763940,0.01979296,0.03134484,0.06085089,0.000
 39814,-0.00002908,0.00037372,-0.00004391,-0.00006439,-0.00021530,-0.00
 008493,0.00005842,0.00000711,-0.00237271,-0.00068976,-0.00065325,0.000
 30701,0.00011062,0.00037122,0.00031894,0.00026614,0.00013341,-0.122374
 33,-0.03248630,-0.18810122,0.00615218,0.00300344,0.00927974,-0.0103002
 2,-0.00303292,-0.00993370,0.13137706,0.04538579,0.21418448,-0.00000147
 ,-0.00020749,-0.00000703,-0.00012155,0.00075065,-0.00066137,-0.0002193
 7,0.00023312,0.00008990,0.00195697,0.00140948,-0.00105279,-0.00038336,
 -0.00028210,-0.00017529,-0.00076280,-0.00054566,-0.00013614,-0.0927863
 4,0.02467150,0.06210588,-0.01386629,0.02707545,0.02886755,-0.00427635,
 0.00584763,0.00485884,0.01405919,-0.00497411,-0.00599711,0.14425434,0.
 00480133,-0.00037000,0.00531691,0.00018121,0.00096043,-0.00121884,0.00
 012929,-0.00012609,-0.00034952,-0.03835849,-0.00784367,-0.00744635,0.0
 0569564,0.00041926,0.00106263,0.00471964,0.00196185,0.00094103,0.03491
 318,-0.09426129,-0.06861371,0.00569361,0.00264915,0.00132907,0.0153585
 0,-0.02330718,-0.02005557,0.00903723,-0.01417565,-0.01600752,-0.104519
 99,0.31106237,-0.00111117,0.00022732,-0.00097125,-0.00028786,-0.000595
 00,0.00011631,-0.00029641,0.00009411,0.00018064,0.01361799,0.00284950,
 0.00138010,-0.00206503,-0.00001941,-0.00044271,-0.00183509,-0.00081951
 ,-0.00055447,0.04859558,-0.03326906,-0.17087519,0.01499370,-0.01551299
 ,-0.01659317,-0.00804459,0.01110907,0.01170066,0.01793419,-0.02586296,
 -0.02739323,-0.06481905,-0.00098562,0.29915276,0.00716508,0.00163576,0
 .00143754,0.00035404,0.00034675,0.00006572,0.00025513,-0.00006702,-0.0
 0000632,-0.12956168,-0.02302987,-0.03334392,0.00735906,-0.00006570,0.0
 0095908,0.00763143,0.00332244,0.00182419,-0.00653353,0.02971413,-0.011
 36602,0.00299399,-0.00049334,-0.00387597,-0.00102774,0.00329917,0.0031
 6018,0.00207039,-0.00380414,-0.00052459,-0.04467327,-0.00210884,0.0082
 6178,0.11813700,-0.00427595,0.00054412,-0.00529028,-0.00024539,-0.0013
 8035,0.00096613,-0.00045262,0.00020052,0.00048721,0.02394918,0.0083739
 1,0.00292297,-0.00505445,0.00009049,-0.00024552,-0.00422329,-0.0007508
 3,-0.00104885,0.01328935,-0.05568144,0.01755334,-0.00322617,0.00540756
 ,0.00223150,0.00320830,-0.00277929,-0.00654286,-0.00249209,0.00482702,
 0.00396725,0.02476457,-0.17466615,0.05189355,0.01478558,0.25532440,0.0
 0608244,0.00027883,0.00366399,-0.00005339,0.00047514,-0.00037371,-0.00
 032173,-0.00001639,0.00022785,-0.07037468,-0.01317866,-0.01417666,0.00
 572170,0.00067390,0.00151047,0.00548075,0.00207761,0.00116474,-0.00422
 229,-0.00969119,0.01509893,-0.00007023,-0.00190544,0.00053064,0.002144
 02,-0.00396366,0.00053389,0.00204831,-0.00198881,0.00096109,-0.0097590
 7,0.08184244,-0.07949700,0.01127680,-0.05652733,0.06446623,-0.02464062
 ,-0.00547805,-0.00526209,0.00007839,-0.00022468,-0.00041240,0.00039367
 ,0.00041468,-0.00038186,0.11765334,0.02422377,0.03212922,-0.01392992,0
 .00009357,-0.00198910,-0.01757950,-0.00511080,-0.00460276,0.00468780,-
 0.01073573,-0.00721111,-0.00175176,0.00005740,0.00150999,0.00012437,0.
 00022177,0.00002107,-0.00067870,0.00231082,0.00300138,-0.00298362,0.06
 285943,-0.02467249,0.03468001,-0.05874229,0.05094347,-0.09379895,-0.00
 652720,-0.00190959,0.00052737,-0.00071522,-0.00021310,0.00026789,0.000
 49996,0.00013139,-0.00038369,0.01106802,-0.02078367,0.00246944,-0.0091
 4493,-0.00219587,-0.00305186,0.01025272,-0.00017996,0.00304495,0.00250
 688,-0.00061125,0.00301650,-0.00020513,-0.00023575,-0.00010933,-0.0001
 0367,-0.00041306,-0.00062944,-0.00063208,0.00019600,-0.00060949,0.0256
 3888,-0.00419888,0.01143991,-0.02457502,-0.03785179,0.00049452,-0.0074
 9042,0.06833361,0.00483132,0.00219974,-0.00277886,0.00038289,0.0002705
 5,-0.00011930,0.00054503,-0.00003332,-0.00022081,0.05155212,0.00914298
 ,-0.00678851,-0.01341387,-0.00217322,-0.00379860,-0.00851639,-0.002061
 46,-0.00209946,0.00364369,-0.00431972,-0.00137469,-0.00068705,0.000243
 82,0.00044274,-0.00011056,-0.00021438,-0.00029318,-0.00054704,0.000512
 19,0.00117420,-0.01312148,0.02764796,-0.01734697,0.02440326,-0.0137378
 1,0.00840739,-0.04920785,-0.01744136,0.02415119,-0.24533278,-0.0552973
 8,-0.03986048,-0.02603697,-0.00611212,-0.00613687,-0.00620676,-0.00485
 553,-0.00518673,-0.02408017,-0.01061374,0.01196417,0.00249530,0.000962
 79,-0.00101809,0.00254340,0.00059643,-0.00080892,-0.00002707,-0.000091
 99,-0.00022878,-0.00000257,-0.00001044,0.00002619,-0.00001976,0.000043
 31,0.00002896,0.00000254,0.00002135,0.00007928,0.00013466,0.00081796,-
 0.00005194,0.00070557,-0.00083160,0.00042439,-0.00130694,-0.00026499,0
 .00003202,1.21598060,-0.05754619,-0.08113865,-0.01558986,0.02198979,0.
 01113096,0.00207270,-0.02722085,-0.00785621,-0.00332783,-0.01365957,-0
 .00661766,0.00386741,0.00113553,0.00081752,-0.00037208,0.00073962,0.00
 048994,-0.00011457,0.00004344,-0.00014572,-0.00026703,-0.00000973,-0.0
 0001662,0.00002556,-0.00005829,0.00005651,0.00001755,-0.00003654,0.000
 01307,0.00008396,0.00028001,0.00160512,-0.00048936,0.00086819,-0.00151
 829,0.00119293,-0.00204282,0.00001382,0.00001510,0.35545722,0.19932954
 ,-0.03262375,-0.01275927,-0.06491697,-0.01214976,-0.00501649,-0.002501
 67,-0.02434975,-0.00547239,-0.00309403,0.02333125,0.00837720,0.0015905
 0,-0.00000666,0.00033988,0.00064236,-0.00034170,-0.00036034,-0.0002151
 3,-0.00050451,0.00063841,0.00070452,0.00009470,0.00004675,-0.00009997,
 0.00009706,-0.00015818,-0.00005568,0.00008745,-0.00006389,-0.00020577,
 -0.00015844,-0.00355909,0.00116794,-0.00239424,0.00338062,-0.00255753,
 0.00626920,0.00111548,0.00018292,0.21881084,0.06865399,0.13300797,-0.0
 0159584,-0.00209885,-0.00228640,-0.00005765,-0.00168890,0.00056723,-0.
 00184040,0.00054122,0.00121633,0.00086644,0.00082570,-0.00394466,-0.00
 043885,-0.00010174,0.00043553,-0.00071420,-0.00034087,0.00049386,0.000
 43532,-0.00052534,-0.00041621,-0.00011349,0.00000564,0.00010657,-0.000
 03655,0.00007441,0.00001134,-0.00001420,0.00002944,0.00007086,-0.00041
 834,0.00100715,-0.00028409,0.00051829,-0.00065739,0.00085534,-0.001200
 73,-0.00032087,0.00009488,-0.92512781,-0.28172898,-0.17748377,1.306135
 98,-0.00244002,0.00433230,-0.00078560,-0.00119964,-0.00094846,0.000287
 92,0.00042338,0.00074498,0.00009237,0.00043964,0.00096768,-0.00100504,
 -0.00022870,-0.00019392,0.00028976,0.00006206,-0.00000322,-0.00006827,
 0.00014735,-0.00026769,-0.00021008,-0.00003402,0.00001621,0.00005121,-
 0.00003281,0.00003485,0.00000066,-0.00000663,0.00001073,0.00006318,-0.
 00013501,0.00050015,-0.00011542,0.00025390,-0.00029994,0.00038213,-0.0
 0057055,-0.00009429,-0.00011443,-0.28188308,-0.11732295,-0.05558175,0.
 39766064,0.16787534,-0.00043412,-0.00025476,0.00441548,0.00003721,-0.0
 0004137,0.00053956,0.00050543,0.00008517,0.00046216,-0.00087220,0.0000
 0066,-0.00101509,-0.00039966,-0.00015925,0.00038908,-0.00042615,-0.000
 19827,0.00022098,0.00000662,-0.00003641,-0.00004479,-0.00000614,0.0000
 0650,0.00001019,0.00000765,-0.00000745,-0.00000382,0.00001048,-0.00000
 499,0.00000934,-0.00006578,-0.00013788,0.00007435,-0.00001211,0.000223
 29,-0.00010307,0.00020620,-0.00008856,0.00046909,-0.17766806,-0.055603
 72,-0.06449584,0.24613590,0.07741805,0.09172451,0.00135817,-0.00150626
 ,-0.00088760,0.00029131,0.00015928,-0.00002540,-0.00038821,-0.00009577
 ,-0.00008247,-0.00009017,-0.00007544,0.00011575,-0.00002544,-0.0000022
 6,0.00001062,-0.00001186,0.00001334,-0.00001627,-0.00009961,0.00008773
 ,0.00006860,0.00002451,0.00000612,-0.00001578,0.00000353,-0.00001595,-
 0.00000419,0.00000405,-0.00000818,-0.00000705,0.00008762,-0.00022685,0
 .00006450,-0.00007376,0.00020426,-0.00017581,0.00025318,0.00001308,0.0
 0011904,0.00627877,0.00178917,0.00132209,-0.37639798,-0.11245652,-0.06
 702527,0.36878591,-0.00145206,0.00549079,-0.00010022,-0.00112717,-0.00
 046656,-0.00016034,0.00085942,0.00026457,0.00001394,0.00012829,0.00012
 259,0.00002509,0.00000760,-0.00000837,-0.00001370,-0.00002368,-0.00002
 524,0.00000186,-0.00003582,0.00006596,0.00005425,0.00000633,-0.0000021
 6,-0.00001090,0.00001337,-0.00001176,0.00000108,0.00000396,-0.00000119
 ,-0.00001933,-0.00000692,-0.00020943,0.00005588,-0.00008198,0.00016006
 ,-0.00014604,0.00021390,0.00001238,0.00006336,0.00206180,0.00115964,0.
 00041906,-0.11268128,-0.05535175,-0.02120102,0.11211423,0.04880048,-0.
 00066759,-0.00006246,0.00541736,0.00032790,0.00022051,0.00014019,0.000
 85824,0.00010923,0.00011912,-0.00101495,-0.00037427,0.00003022,0.00005
 832,-0.00000524,-0.00004555,0.00004744,0.00003981,0.00000674,0.0000282
 9,-0.00002522,-0.00002017,-0.00000269,-0.00000329,0.00000352,-0.000009
 51,0.00001177,0.00000370,-0.00001110,0.00000305,0.00000816,0.00003139,
 0.00023407,-0.00009878,0.00013463,-0.00023322,0.00014277,-0.00034089,-
 0.00006232,-0.00000716,-0.00040599,-0.00016476,0.00084638,-0.06557270,
 -0.02070468,-0.03265214,0.06653923,0.02101703,0.02610565\\-0.00000004,
 0.00000018,-0.00000010,0.00000002,0.00000018,0.00000017,-0.00000002,0.
 00000024,-0.00000023,-0.00000029,-0.00000012,-0.00000031,-0.00000003,-
 0.00000031,0.00000003,0.00000005,-0.00000025,-0.00000044,0.00000012,0.
 00000009,0.00000036,0.00000007,-0.00000003,0.00000012,0.00000003,0.000
 00015,0.00000040,0.00000010,-0.00000019,0.00000032,0.,-0.00000038,-0.0
 0000006,-0.00000006,0.00000041,-0.00000019,0.00000006,0.00000016,-0.00
 000027,-0.00000003,0.,0.00000004,-0.00000004,-0.00000006,0.00000004,0.
 00000005,-0.00000009,0.00000011\\\@


 I (ERNEST RUTHERFORD) CAME INTO THE ROOM, WHICH WAS HALF DARK, AND PRESENTLY
 SPOTTED LORD KELVIN IN THE AUDIENCE AND REALIZED I WAS IN TROUBLE AT
 THE LAST PART OF MY SPEECH DEALING THE AGE OF THE EARTH, WHERE MY VIEWS
 CONFLICTED WITH HIS.  TO MY RELIEF KELVIN FELL FAST ASLEEP, BUT AS I CAME
 TO THE IMPORTANT POINT, I SAW THE OLD BIRD SIT UP AND COCK A BALEFUL GLANCE
 AT ME! THEN A SUDDEN INSPIRATION CAME AND I SAID LORD KELVIN HAD LIMITED
 THE AGE OF THE EARTH PROVIDED NO NEW SOURCE WAS DISCOVERED. THAT
 PROPHETIC UTTERANCE REFERS TO WHAT WE ARE NOW CONSIDERING TONIGHT, RADIUM!
 BEHOLD!  THE OLD BOY BEAMED UPON ME.
 Job cpu time:       2 days  4 hours 23 minutes 29.8 seconds.
 Elapsed time:       0 days  1 hours 21 minutes  8.6 seconds.
 File lengths (MBytes):  RWF=  83473 Int=      0 D2E=      0 Chk=     18 Scr=      1
 Normal termination of Gaussian 16 at Mon Jun 24 20:02:31 2019.
