 Entering Gaussian System, Link 0=g16
 Initial command:
 /ichec/packages/gaussian/16b01/l1.exe "/localscratch/339753/Gau-50194.inp" -scrdir="/localscratch/339753/"
 Entering Link 1 = /ichec/packages/gaussian/16b01/l1.exe PID=     50218.
  
 Copyright (c) 1988-2017, Gaussian, Inc.  All Rights Reserved.
  
 This is part of the Gaussian(R) 16 program.  It is based on
 the Gaussian(R) 09 system (copyright 2009, Gaussian, Inc.),
 the Gaussian(R) 03 system (copyright 2003, Gaussian, Inc.),
 the Gaussian(R) 98 system (copyright 1998, Gaussian, Inc.),
 the Gaussian(R) 94 system (copyright 1995, Gaussian, Inc.),
 the Gaussian 92(TM) system (copyright 1992, Gaussian, Inc.),
 the Gaussian 90(TM) system (copyright 1990, Gaussian, Inc.),
 the Gaussian 88(TM) system (copyright 1988, Gaussian, Inc.),
 the Gaussian 86(TM) system (copyright 1986, Carnegie Mellon
 University), and the Gaussian 82(TM) system (copyright 1983,
 Carnegie Mellon University). Gaussian is a federally registered
 trademark of Gaussian, Inc.
  
 This software contains proprietary and confidential information,
 including trade secrets, belonging to Gaussian, Inc.
  
 This software is provided under written license and may be
 used, copied, transmitted, or stored only in accord with that
 written license.
  
 The following legend is applicable only to US Government
 contracts under FAR:
  
                    RESTRICTED RIGHTS LEGEND
  
 Use, reproduction and disclosure by the US Government is
 subject to restrictions as set forth in subparagraphs (a)
 and (c) of the Commercial Computer Software - Restricted
 Rights clause in FAR 52.227-19.
  
 Gaussian, Inc.
 340 Quinnipiac St., Bldg. 40, Wallingford CT 06492
  
  
 ---------------------------------------------------------------
 Warning -- This program may not be used in any manner that
 competes with the business of Gaussian, Inc. or will provide
 assistance to any competitor of Gaussian, Inc.  The licensee
 of this program is prohibited from giving any competitor of
 Gaussian, Inc. access to this program.  By using this program,
 the user acknowledges that Gaussian, Inc. is engaged in the
 business of creating and licensing software in the field of
 computational chemistry and represents and warrants to the
 licensee that it is not a competitor of Gaussian, Inc. and that
 it will not use this program in any manner prohibited above.
 ---------------------------------------------------------------
  

 Cite this work as:
 Gaussian 16, Revision B.01,
 M. J. Frisch, G. W. Trucks, H. B. Schlegel, G. E. Scuseria, 
 M. A. Robb, J. R. Cheeseman, G. Scalmani, V. Barone, 
 G. A. Petersson, H. Nakatsuji, X. Li, M. Caricato, A. V. Marenich, 
 J. Bloino, B. G. Janesko, R. Gomperts, B. Mennucci, H. P. Hratchian, 
 J. V. Ortiz, A. F. Izmaylov, J. L. Sonnenberg, D. Williams-Young, 
 F. Ding, F. Lipparini, F. Egidi, J. Goings, B. Peng, A. Petrone, 
 T. Henderson, D. Ranasinghe, V. G. Zakrzewski, J. Gao, N. Rega, 
 G. Zheng, W. Liang, M. Hada, M. Ehara, K. Toyota, R. Fukuda, 
 J. Hasegawa, M. Ishida, T. Nakajima, Y. Honda, O. Kitao, H. Nakai, 
 T. Vreven, K. Throssell, J. A. Montgomery, Jr., J. E. Peralta, 
 F. Ogliaro, M. J. Bearpark, J. J. Heyd, E. N. Brothers, K. N. Kudin, 
 V. N. Staroverov, T. A. Keith, R. Kobayashi, J. Normand, 
 K. Raghavachari, A. P. Rendell, J. C. Burant, S. S. Iyengar, 
 J. Tomasi, M. Cossi, J. M. Millam, M. Klene, C. Adamo, R. Cammi, 
 J. W. Ochterski, R. L. Martin, K. Morokuma, O. Farkas, 
 J. B. Foresman, and D. J. Fox, Gaussian, Inc., Wallingford CT, 2016.
 
 ******************************************
 Gaussian 16:  ES64L-G16RevB.01 20-Dec-2017
                 5-Jun-2019 
 ******************************************
 %mem=80GB
 %nproc=40
 Will use up to   40 processors via shared memory.
 ----------------------------------------------------------------------
 # opt=(calcfc,ts,noeigentest,maxcyc=500) freq=noraman uB2PLYPD3/cc-pvt
 z
 ----------------------------------------------------------------------
 1/5=1,6=500,10=4,11=1,18=20,38=1/1,3;
 2/9=110,12=2,17=6,18=5,40=1/2;
 3/5=16,6=1,11=2,25=1,30=1,71=2,74=-60,116=2,140=1/1,2,3;
 4//1;
 5/5=2,38=5/2;
 8/6=3,8=1,10=1,19=11,30=-1/1;
 9/15=3,16=-3/6;
 11/6=1,8=1,15=11,17=12,24=-1,27=1,28=-2,29=300,32=6,42=3/1,2,10;
 10/6=2,21=1/2;
 8/6=4,8=1,10=1,19=11,30=-1/11,4;
 10/5=1,20=4/2;
 11/12=2,14=11,16=1,17=2,28=-2,42=3,76=2/2,10,12;
 6/7=2,8=2,9=2,10=2/1;
 7/10=1,12=2,25=1,44=2/1,2,3,16;
 1/5=1,6=500,10=4,11=1,18=20/3(2);
 2/9=110/2;
 99//99;
 2/9=110/2;
 3/5=16,6=1,11=2,25=1,30=1,71=1,74=-60,116=2/1,2,3;
 4/5=5,16=3,69=1/1;
 5/5=2,38=5/2;
 8/6=4,10=1/1;
 9/15=2,16=-3/6;
 10/5=1/2;
 7/12=2/1,2,3,16;
 1/5=1,6=500,11=1,18=20/3(-8);
 2/9=110/2;
 6/7=2,8=2,9=2,10=2/1;
 99/9=10/99;
 -------------------
 Title Card Required
 -------------------
 Symbolic Z-matrix:
 Charge =  0 Multiplicity = 2
 C                    -0.58433   0.36479  -0.47747 
 H                    -0.58946   0.34299  -1.56643 
 C                     0.78402  -2.97349  -1.41156 
 H                    -0.15756  -2.76587  -1.92195 
 H                     1.5703   -3.15138  -2.14304 
 H                     0.67167  -3.84773  -0.77107 
 O                     1.22942  -1.85419  -0.67071 
 O                     0.22683  -1.63494   0.35905 
 H                    -0.15188  -0.62323   0.04866 
 C                    -1.98894   0.65607   0.08272 
 C                    -2.62998  -0.18486   0.88268 
 H                    -2.41666   1.61674  -0.23407 
 H                    -3.63171   0.02286   1.28217 
 H                    -2.20226  -1.14553   1.19947 
 C                     0.42692   1.44001  -0.0383 
 H                     1.32003   1.34867  -0.62047 
 H                     0.00223   2.41086  -0.18662 
 H                     0.66113   1.30759   0.99732 
 

 GradGradGradGradGradGradGradGradGradGradGradGradGradGradGradGradGradGrad
 Berny optimization.
 Initialization pass.
                           ----------------------------
                           !    Initial Parameters    !
                           ! (Angstroms and Degrees)  !
 --------------------------                            --------------------------
 ! Name  Definition              Value          Derivative Info.                !
 --------------------------------------------------------------------------------
 ! R1    R(1,2)                  1.0892         calculate D2E/DX2 analytically  !
 ! R2    R(1,9)                  1.2            calculate D2E/DX2 analytically  !
 ! R3    R(1,10)                 1.54           calculate D2E/DX2 analytically  !
 ! R4    R(1,15)                 1.54           calculate D2E/DX2 analytically  !
 ! R5    R(3,4)                  1.091          calculate D2E/DX2 analytically  !
 ! R6    R(3,5)                  1.0885         calculate D2E/DX2 analytically  !
 ! R7    R(3,6)                  1.0896         calculate D2E/DX2 analytically  !
 ! R8    R(3,7)                  1.4142         calculate D2E/DX2 analytically  !
 ! R9    R(7,8)                  1.4538         calculate D2E/DX2 analytically  !
 ! R10   R(8,9)                  1.124          calculate D2E/DX2 analytically  !
 ! R11   R(10,11)                1.3259         calculate D2E/DX2 analytically  !
 ! R12   R(10,12)                1.0983         calculate D2E/DX2 analytically  !
 ! R13   R(11,13)                1.0983         calculate D2E/DX2 analytically  !
 ! R14   R(11,14)                1.0983         calculate D2E/DX2 analytically  !
 ! R15   R(15,16)                1.07           calculate D2E/DX2 analytically  !
 ! R16   R(15,17)                1.07           calculate D2E/DX2 analytically  !
 ! R17   R(15,18)                1.07           calculate D2E/DX2 analytically  !
 ! A1    A(2,1,9)              115.0607         calculate D2E/DX2 analytically  !
 ! A2    A(2,1,10)             111.2949         calculate D2E/DX2 analytically  !
 ! A3    A(2,1,15)             107.5887         calculate D2E/DX2 analytically  !
 ! A4    A(9,1,10)             108.9617         calculate D2E/DX2 analytically  !
 ! A5    A(9,1,15)             102.309          calculate D2E/DX2 analytically  !
 ! A6    A(10,1,15)            111.2924         calculate D2E/DX2 analytically  !
 ! A7    A(4,3,5)              109.8854         calculate D2E/DX2 analytically  !
 ! A8    A(4,3,6)              109.7989         calculate D2E/DX2 analytically  !
 ! A9    A(4,3,7)              111.4858         calculate D2E/DX2 analytically  !
 ! A10   A(5,3,6)              109.7781         calculate D2E/DX2 analytically  !
 ! A11   A(5,3,7)              104.7067         calculate D2E/DX2 analytically  !
 ! A12   A(6,3,7)              111.0739         calculate D2E/DX2 analytically  !
 ! A13   A(3,7,8)              105.8563         calculate D2E/DX2 analytically  !
 ! A14   A(7,8,9)               99.9337         calculate D2E/DX2 analytically  !
 ! A15   A(1,10,11)            122.7159         calculate D2E/DX2 analytically  !
 ! A16   A(1,10,12)            114.5661         calculate D2E/DX2 analytically  !
 ! A17   A(11,10,12)           122.718          calculate D2E/DX2 analytically  !
 ! A18   A(10,11,13)           122.7159         calculate D2E/DX2 analytically  !
 ! A19   A(10,11,14)           122.718          calculate D2E/DX2 analytically  !
 ! A20   A(13,11,14)           114.5661         calculate D2E/DX2 analytically  !
 ! A21   A(1,15,16)            109.4712         calculate D2E/DX2 analytically  !
 ! A22   A(1,15,17)            109.4712         calculate D2E/DX2 analytically  !
 ! A23   A(1,15,18)            109.4712         calculate D2E/DX2 analytically  !
 ! A24   A(16,15,17)           109.4712         calculate D2E/DX2 analytically  !
 ! A25   A(16,15,18)           109.4712         calculate D2E/DX2 analytically  !
 ! A26   A(17,15,18)           109.4712         calculate D2E/DX2 analytically  !
 ! A27   L(1,9,8,11,-1)        182.566          calculate D2E/DX2 analytically  !
 ! A28   L(1,9,8,11,-2)        169.2244         calculate D2E/DX2 analytically  !
 ! D1    D(2,1,8,7)             36.6213         calculate D2E/DX2 analytically  !
 ! D2    D(10,1,8,7)           160.1133         calculate D2E/DX2 analytically  !
 ! D3    D(15,1,8,7)           -79.3423         calculate D2E/DX2 analytically  !
 ! D4    D(2,1,10,11)          119.9992         calculate D2E/DX2 analytically  !
 ! D5    D(2,1,10,12)          -59.9995         calculate D2E/DX2 analytically  !
 ! D6    D(9,1,10,11)           -7.9253         calculate D2E/DX2 analytically  !
 ! D7    D(9,1,10,12)          172.076          calculate D2E/DX2 analytically  !
 ! D8    D(15,1,10,11)        -120.0011         calculate D2E/DX2 analytically  !
 ! D9    D(15,1,10,12)          60.0002         calculate D2E/DX2 analytically  !
 ! D10   D(2,1,15,16)          -44.3687         calculate D2E/DX2 analytically  !
 ! D11   D(2,1,15,17)           75.6313         calculate D2E/DX2 analytically  !
 ! D12   D(2,1,15,18)         -164.3687         calculate D2E/DX2 analytically  !
 ! D13   D(9,1,15,16)           77.2306         calculate D2E/DX2 analytically  !
 ! D14   D(9,1,15,17)         -162.7694         calculate D2E/DX2 analytically  !
 ! D15   D(9,1,15,18)          -42.7694         calculate D2E/DX2 analytically  !
 ! D16   D(10,1,15,16)        -166.5388         calculate D2E/DX2 analytically  !
 ! D17   D(10,1,15,17)         -46.5388         calculate D2E/DX2 analytically  !
 ! D18   D(10,1,15,18)          73.4612         calculate D2E/DX2 analytically  !
 ! D19   D(4,3,7,8)             63.9852         calculate D2E/DX2 analytically  !
 ! D20   D(5,3,7,8)           -177.2485         calculate D2E/DX2 analytically  !
 ! D21   D(6,3,7,8)            -58.8202         calculate D2E/DX2 analytically  !
 ! D22   D(3,7,8,9)           -115.9407         calculate D2E/DX2 analytically  !
 ! D23   D(1,10,11,13)        -179.9988         calculate D2E/DX2 analytically  !
 ! D24   D(1,10,11,14)           0.0016         calculate D2E/DX2 analytically  !
 ! D25   D(12,10,11,13)         -0.0002         calculate D2E/DX2 analytically  !
 ! D26   D(12,10,11,14)       -179.9998         calculate D2E/DX2 analytically  !
 --------------------------------------------------------------------------------
 Trust Radius=3.00D-01 FncErr=1.00D-07 GrdErr=1.00D-07 EigMax=2.50D+02 EigMin=1.00D-04
 Number of steps in this run=    108 maximum allowed number of steps=    108.
 Search for a saddle point of order  1.
 GradGradGradGradGradGradGradGradGradGradGradGradGradGradGradGradGradGrad

                          Input orientation:                          
 ---------------------------------------------------------------------
 Center     Atomic      Atomic             Coordinates (Angstroms)
 Number     Number       Type             X           Y           Z
 ---------------------------------------------------------------------
      1          6           0       -0.584325    0.364787   -0.477473
      2          1           0       -0.589460    0.342994   -1.566431
      3          6           0        0.784023   -2.973491   -1.411563
      4          1           0       -0.157562   -2.765866   -1.921954
      5          1           0        1.570296   -3.151378   -2.143043
      6          1           0        0.671671   -3.847732   -0.771070
      7          8           0        1.229417   -1.854195   -0.670711
      8          8           0        0.226834   -1.634936    0.359049
      9          1           0       -0.151878   -0.623227    0.048662
     10          6           0       -1.988939    0.656072    0.082717
     11          6           0       -2.629985   -0.184864    0.882680
     12          1           0       -2.416663    1.616739   -0.234068
     13          1           0       -3.631707    0.022861    1.282170
     14          1           0       -2.202259   -1.145529    1.199468
     15          6           0        0.426921    1.440012   -0.038301
     16          1           0        1.320029    1.348668   -0.620465
     17          1           0        0.002226    2.410855   -0.186619
     18          1           0        0.661128    1.307585    0.997320
 ---------------------------------------------------------------------
                    Distance matrix (angstroms):
                    1          2          3          4          5
     1  C    0.000000
     2  H    1.089188   0.000000
     3  C    3.726795   3.592980   0.000000
     4  H    3.474139   3.158789   1.090958   0.000000
     5  H    4.447463   4.148211   1.088545   1.784094   0.000000
     6  H    4.405569   4.448060   1.089566   1.783983   1.781782
     7  O    2.872435   2.989693   1.414235   2.078573   1.991643
     8  O    2.314441   2.878544   2.288505   2.574827   3.219464
     9  H    1.200000   1.932249   2.920943   2.911059   3.763110
    10  C    1.540000   2.185463   4.805821   4.368331   5.667348
    11  C    2.517311   3.231179   4.969451   4.543173   5.966369
    12  H    2.232508   2.595437   5.718487   5.211500   6.501920
    13  H    3.535505   4.179986   5.977708   5.487540   6.990616
    14  H    2.776850   3.530867   4.367701   4.068114   5.424756
    15  C    1.540000   2.138144   4.635987   4.645340   5.178620
    16  H    2.148263   2.356348   4.426533   4.561419   4.757236
    17  H    2.148263   2.555391   5.576995   5.462176   6.101219
    18  H    2.148263   3.011183   4.913800   5.077935   5.529088
                    6          7          8          9         10
     6  H    0.000000
     7  O    2.072521   0.000000
     8  O    2.524186   1.453841   0.000000
     9  H    3.427481   1.985133   1.123974   0.000000
    10  C    5.300193   4.150532   3.199176   2.238875   0.000000
    11  C    5.201194   4.482708   3.246277   2.651182   1.325916
    12  H    6.299732   5.052914   4.232405   3.197912   1.098263
    13  H    6.141363   5.564855   4.299858   3.748091   2.130336
    14  H    4.409580   3.971924   2.616547   2.408572   2.130353
    15  C    5.343884   3.449021   3.106965   2.144651   2.542752
    16  H    5.238858   3.204539   3.325119   2.550022   3.453031
    17  H    6.321365   4.464414   4.088597   3.047091   2.667685
    18  H    5.450194   3.619687   3.042110   2.299775   2.878162
                   11         12         13         14         15
    11  C    0.000000
    12  H    2.130353   0.000000
    13  H    1.098267   2.513117   0.000000
    14  H    1.098263   3.119474   1.848052   0.000000
    15  C    3.582332   2.855789   4.497158   3.889690   0.000000
    16  H    4.495973   3.766169   5.467858   4.683982   1.070000
    17  H    3.848336   2.546350   4.589698   4.407818   1.070000
    18  H    3.615518   3.329367   4.489999   3.775926   1.070000
                   16         17         18
    16  H    0.000000
    17  H    1.747303   0.000000
    18  H    1.747303   1.747303   0.000000
 Stoichiometry    C5H11O2(2)
 Framework group  C1[X(C5H11O2)]
 Deg. of freedom    48
 Full point group                 C1      NOp   1
 Largest Abelian subgroup         C1      NOp   1
 Largest concise Abelian subgroup C1      NOp   1
                         Standard orientation:                         
 ---------------------------------------------------------------------
 Center     Atomic      Atomic             Coordinates (Angstroms)
 Number     Number       Type             X           Y           Z
 ---------------------------------------------------------------------
      1          6           0        0.841194    0.506803    0.444840
      2          1           0        0.503066    0.701845    1.461679
      3          6           0       -2.745102   -0.504665    0.511287
      4          1           0       -2.183437   -0.954546    1.331243
      5          1           0       -3.562878    0.094584    0.907613
      6          1           0       -3.140924   -1.285704   -0.137140
      7          8           0       -1.951587    0.409578   -0.219845
      8          8           0       -0.885538   -0.378486   -0.816627
      9          1           0        0.002925    0.070403   -0.294660
     10          6           0        2.059553   -0.435016    0.431559
     11          6           0        2.049923   -1.610604   -0.181592
     12          1           0        2.937032   -0.054090    0.971104
     13          1           0        2.918802   -2.282280   -0.191047
     14          1           0        1.172445   -1.991528   -0.721139
     15          6           0        1.175993    1.863430   -0.202517
     16          1           0        0.404070    2.568107    0.026534
     17          1           0        2.109543    2.220277    0.179642
     18          1           0        1.246988    1.744498   -1.263514
 ---------------------------------------------------------------------
 Rotational constants (GHZ):           3.5820920           1.3618997           1.1078136
 Standard basis: CC-pVTZ (5D, 7F)
 There are   410 symmetry adapted cartesian basis functions of A   symmetry.
 There are   364 symmetry adapted basis functions of A   symmetry.
   364 basis functions,   551 primitive gaussians,   410 cartesian basis functions
    29 alpha electrons       28 beta electrons
       nuclear repulsion energy       307.8342300120 Hartrees.
 NAtoms=   18 NActive=   18 NUniq=   18 SFac= 1.00D+00 NAtFMM=   60 NAOKFM=F Big=F
 Integral buffers will be    131072 words long.
 Raffenetti 2 integral format.
 Two-electron integral symmetry is turned on.
 Nuclear repulsion after empirical dispersion term =      307.8247706606 Hartrees.
 One-electron integrals computed using PRISM.
 NBasis=   364 RedAO= T EigKep=  3.47D-04  NBF=   364
 NBsUse=   364 1.00D-06 EigRej= -1.00D+00 NBFU=   364
 ExpMin= 1.03D-01 ExpMax= 1.53D+04 ExpMxC= 5.22D+02 IAcc=3 IRadAn=         5 AccDes= 0.00D+00
 Harris functional with IExCor=  419 and IRadAn=       5 diagonalized for initial guess.
 HarFok:  IExCor=  419 AccDes= 0.00D+00 IRadAn=         5 IDoV= 1 UseB2=F ITyADJ=14
 ICtDFT=  3500011 ScaDFX=  1.000000  1.000000  1.000000  1.000000
 FoFCou: FMM=F IPFlag=           0 FMFlag=      100000 FMFlg1=           0
         NFxFlg=           0 DoJE=T BraDBF=F KetDBF=T FulRan=T
         wScrn=  0.000000 ICntrl=       500 IOpCl=  0 I1Cent=   200000004 NGrid=           0
         NMat0=    1 NMatS0=      1 NMatT0=    0 NMatD0=    1 NMtDS0=    0 NMtDT0=    0
 Petite list used in FoFCou.
 Initial guess <Sx>= 0.0000 <Sy>= 0.0000 <Sz>= 0.5000 <S**2>= 0.7500 S= 0.5000
 Requested convergence on RMS density matrix=1.00D-08 within 128 cycles.
 Requested convergence on MAX density matrix=1.00D-06.
 Requested convergence on             energy=1.00D-06.
 No special actions if energy rises.
 Integral accuracy reduced to 1.0D-05 until final iterations.
 Initial convergence to 1.0D-05 achieved.  Increase integral accuracy.
 SCF Done:  E(UB2PLYPD3) =  -346.788322560     A.U. after   24 cycles
            NFock= 24  Conv=0.45D-08     -V/T= 2.0041
 <Sx>= 0.0000 <Sy>= 0.0000 <Sz>= 0.5000 <S**2>= 0.7645 S= 0.5072
 <L.S>=  0.00000000000    
 Annihilation of the first spin contaminant:
 S**2 before annihilation     0.7645,   after     0.7501
 DoSCS=T DFT=T ScalE2(SS,OS)=  0.270000  0.270000
 ExpMin= 1.03D-01 ExpMax= 1.53D+04 ExpMxC= 5.22D+02 IAcc=3 IRadAn=         5 AccDes= 0.00D+00
 HarFok:  IExCor=  205 AccDes= 0.00D+00 IRadAn=         5 IDoV=-2 UseB2=F ITyADJ=14
 ICtDFT= 12500011 ScaDFX=  1.000000  1.000000  1.000000  1.000000
 Range of M.O.s used for correlation:     8   364
 NBasis=   364 NAE=    29 NBE=    28 NFC=     7 NFV=     0
 NROrb=    357 NOA=    22 NOB=    21 NVA=   335 NVB=   336

 **** Warning!!: The largest alpha MO coefficient is  0.11986691D+02


 **** Warning!!: The largest beta MO coefficient is  0.11986548D+02

 DoSCS=T DFT=T ScalE2(SS,OS)=  0.270000  0.270000
 Disk-based method using ON**2 memory for 22 occupieds at a time.
 Permanent disk used for amplitudes=   135386230 words.
 Estimated scratch disk usage=  2578447772 words.
 Actual    scratch disk usage=  2493129628 words.
 JobTyp=2 Pass  1:  I=   8 to  29 NPSUse= 40 ParTrn=T ParDer=T DoDerP=T.
 (rs|ai) integrals will be sorted in core.
 Actual    scratch disk usage=  2493129628 words.
 JobTyp=3 Pass  1:  I=   8 to  28 NPSUse= 40 ParTrn=T ParDer=T DoDerP=T.
 (rs|ai) integrals will be sorted in core.
 Spin components of T(2) and E(2):
     alpha-alpha T2 =       0.7532293396D-01 E2=     -0.5342296388D-01
     alpha-beta  T2 =       0.4673332220D+00 E2=     -0.3354794657D+00
     beta-beta   T2 =       0.8098083492D-01 E2=     -0.5220774153D-01
 (S**2,0)=  0.76450D+00           (S**2,1)=  0.74361D+00
 Scaling Projection term by:   0.270000
 E(PUHF)=      -0.34679408033D+03        E(PMP2)=      -0.34722987289D+03
 E2(B2PLYPD3) =    -0.4411101711D+00 E(B2PLYPD3) =    -0.34722943273138D+03
 G2DrvN: will do    19 centers at a time, making    1 passes.
 Calling FoFCou, ICntrl=  3107 FMM=F I1Cent=   0 AccDes= 0.00D+00.
 End of G2Drv F.D. properties file   721 does not exist.
 End of G2Drv F.D. properties file   722 does not exist.
 End of G2Drv F.D. properties file   788 does not exist.
          IDoAtm=111111111111111111
          Differentiating once with respect to electric field.
                with respect to dipole field.
          Differentiating once with respect to nuclear coordinates.
 Keep R1 and R2 ints in memory in canonical form, NReq=4459304645.
          There are    57 degrees of freedom in the 1st order CPHF.  IDoFFX=6 NUNeed=    57.
     54 vectors produced by pass  0 Test12= 3.35D-14 1.75D-09 XBig12= 7.48D+01 3.52D+00.
 AX will form    54 AO Fock derivatives at one time.
     54 vectors produced by pass  1 Test12= 3.35D-14 1.75D-09 XBig12= 8.56D+00 3.40D-01.
     54 vectors produced by pass  2 Test12= 3.35D-14 1.75D-09 XBig12= 2.91D-01 6.63D-02.
     54 vectors produced by pass  3 Test12= 3.35D-14 1.75D-09 XBig12= 4.81D-03 6.45D-03.
     54 vectors produced by pass  4 Test12= 3.35D-14 1.75D-09 XBig12= 5.36D-05 6.41D-04.
     54 vectors produced by pass  5 Test12= 3.35D-14 1.75D-09 XBig12= 7.15D-07 9.27D-05.
     54 vectors produced by pass  6 Test12= 3.35D-14 1.75D-09 XBig12= 6.89D-09 6.73D-06.
     24 vectors produced by pass  7 Test12= 3.35D-14 1.75D-09 XBig12= 4.57D-11 5.23D-07.
      3 vectors produced by pass  8 Test12= 3.35D-14 1.75D-09 XBig12= 2.58D-13 5.12D-08.
      2 vectors produced by pass  9 Test12= 3.35D-14 1.75D-09 XBig12= 2.14D-15 5.50D-09.
 InvSVY:  IOpt=1 It=  1 EMax= 7.11D-15
 Solved reduced A of dimension   407 with    57 vectors.
 End of Minotr F.D. properties file   721 does not exist.
 End of Minotr F.D. properties file   722 does not exist.
 End of Minotr F.D. properties file   788 does not exist.
 MDV= 10737418240.
 DoSCS=T DFT=T ScalE2(SS,OS)=  0.270000  0.270000
 Form MO integral derivatives with frozen-active canonical formalism.
 Discarding MO integrals.
 Reordered first order wavefunction length =    545006183
 In DefCFB: NBatch=  1 ICI= 29 ICA=336 LFMax= 68
            Large arrays: LIAPS= 11415666080 LIARS=  1957569600 words.
 In DefCFB: NBatch=  1 ICI= 29 ICA=336 LFMax= 68
            Large arrays: LIAPS= 11415666080 LIARS=  1957569600 words.
 Semi-Direct transformation.
 ModeAB=           4 MOrb=            29 LenV=   10733554187
 LASXX=    664627481 LTotXX=   664627481 LenRXX=  1338891981
 LTotAB=   674264500 MaxLAS=   792723932 LenRXY=           0
 NonZer=  2003519462 LenScr=  3017065472 LnRSAI=   792723932
 LnScr1=  1193749504 LExtra=           0 Total=   6342430889
 MaxDsk=          -1 SrtSym=           T ITran=            4
 JobTyp=1 Pass  1:  I=   1 to  29.
 (rs|ai) integrals will be sorted in core.
 ModeAB=           4 MOrb=            28 LenV=   10733554187
 LASXX=    642894399 LTotXX=   642894399 LenRXX=  1195226319
 LTotAB=   552331920 MaxLAS=   765388624 LenRXY=           0
 NonZer=  1838120718 LenScr=  2767993856 LnRSAI=   765388624
 LnScr1=  1152585728 LExtra=           0 Total=   5881194527
 MaxDsk=          -1 SrtSym=           T ITran=            4
 JobTyp=2 Pass  1:  I=   1 to  28.
 (rs|ai) integrals will be sorted in core.
 SymMOI:  orbitals are not symmetric.
 DoSCS=T DFT=T ScalE2(SS,OS)=  0.270000  0.270000
 Spin components of T(2) and E(2):
     alpha-alpha T2 =       0.7532293396D-01 E2=     -0.5342296388D-01
     alpha-beta  T2 =       0.4673332220D+00 E2=     -0.3354794657D+00
     beta-beta   T2 =       0.8098083492D-01 E2=     -0.5220774153D-01
 E2(B2PLYPD3) =    -0.4411101711D+00 E(B2PLYPD3) =    -0.34722943273138D+03
 (S**2,0)=  0.76450D+00           (S**2,1)=  0.74361D+00
 Scaling Projection term by:   0.270000
 E(PUHF)=      -0.34679408033D+03        E(PMP2)=      -0.34722987289D+03
          IDoAtm=111111111111111111
          Differentiating once with respect to electric field.
                with respect to dipole field.
          Differentiating once with respect to nuclear coordinates.
 Keep R1 and R2 ints in memory in canonical form, NReq=4459439664.
          There are     1 degrees of freedom in the 1st order CPHF.  IDoFFX=0 NUNeed=     1.
 LinEq1:  Iter=  0 NonCon=     1 RMS=7.72D-04 Max=4.81D-02 NDo=     1
 AX will form     1 AO Fock derivatives at one time.
 LinEq1:  Iter=  1 NonCon=     1 RMS=2.37D-04 Max=9.76D-03 NDo=     1
 LinEq1:  Iter=  2 NonCon=     1 RMS=1.42D-04 Max=9.01D-03 NDo=     1
 LinEq1:  Iter=  3 NonCon=     1 RMS=7.54D-05 Max=2.98D-03 NDo=     1
 LinEq1:  Iter=  4 NonCon=     1 RMS=5.07D-05 Max=2.81D-03 NDo=     1
 LinEq1:  Iter=  5 NonCon=     1 RMS=3.03D-05 Max=1.30D-03 NDo=     1
 LinEq1:  Iter=  6 NonCon=     1 RMS=1.99D-05 Max=6.31D-04 NDo=     1
 LinEq1:  Iter=  7 NonCon=     1 RMS=8.53D-06 Max=3.86D-04 NDo=     1
 LinEq1:  Iter=  8 NonCon=     1 RMS=5.61D-06 Max=3.62D-04 NDo=     1
 LinEq1:  Iter=  9 NonCon=     1 RMS=2.64D-06 Max=1.20D-04 NDo=     1
 LinEq1:  Iter= 10 NonCon=     1 RMS=1.10D-06 Max=3.99D-05 NDo=     1
 LinEq1:  Iter= 11 NonCon=     1 RMS=4.85D-07 Max=1.56D-05 NDo=     1
 LinEq1:  Iter= 12 NonCon=     1 RMS=2.11D-07 Max=5.79D-06 NDo=     1
 LinEq1:  Iter= 13 NonCon=     1 RMS=1.03D-07 Max=2.90D-06 NDo=     1
 LinEq1:  Iter= 14 NonCon=     1 RMS=3.80D-08 Max=1.33D-06 NDo=     1
 LinEq1:  Iter= 15 NonCon=     1 RMS=1.44D-08 Max=4.32D-07 NDo=     1
 LinEq1:  Iter= 16 NonCon=     1 RMS=7.34D-09 Max=2.37D-07 NDo=     1
 LinEq1:  Iter= 17 NonCon=     1 RMS=2.74D-09 Max=4.88D-08 NDo=     1
 LinEq1:  Iter= 18 NonCon=     1 RMS=8.70D-10 Max=1.93D-08 NDo=     1
 LinEq1:  Iter= 19 NonCon=     1 RMS=3.08D-10 Max=8.35D-09 NDo=     1
 LinEq1:  Iter= 20 NonCon=     1 RMS=1.34D-10 Max=3.59D-09 NDo=     1
 LinEq1:  Iter= 21 NonCon=     1 RMS=6.28D-11 Max=1.47D-09 NDo=     1
 LinEq1:  Iter= 22 NonCon=     0 RMS=2.04D-11 Max=6.11D-10 NDo=     1
 Linear equations converged to 1.000D-10 1.000D-09 after    22 iterations.
 End of Minotr F.D. properties file   721 does not exist.
 End of Minotr F.D. properties file   722 does not exist.
 End of Minotr F.D. properties file   788 does not exist.
 Symmetrizing basis deriv contribution to polar:
 IMax=3 JMax=2 DiffMx= 0.00D+00
 G2DrvN: will do    19 centers at a time, making    1 passes.
 Calling FoFCou, ICntrl=  3107 FMM=F I1Cent=   0 AccDes= 0.00D+00.
 End of G2Drv F.D. properties file   721 does not exist.
 End of G2Drv F.D. properties file   722 does not exist.
 End of G2Drv F.D. properties file   788 does not exist.
 DoSCS=T DFT=T ScalE2(SS,OS)=  0.270000  0.270000
 R2 and R3 integrals will be kept in memory, NReq=  7133702340.
 DD1Dir will call FoFMem   1 times, MxPair=      2408
 NAB=   812 NAA=   406 NBB=   378.
 Discarding MO integrals.

 **********************************************************************

            Population analysis using the SCF Density.

 **********************************************************************

 Orbital symmetries:
 Alpha Orbitals:
       Occupied  (A) (A) (A) (A) (A) (A) (A) (A) (A) (A) (A) (A)
                 (A) (A) (A) (A) (A) (A) (A) (A) (A) (A) (A) (A)
                 (A) (A) (A) (A) (A)
       Virtual   (A) (A) (A) (A) (A) (A) (A) (A) (A) (A) (A) (A)
                 (A) (A) (A) (A) (A) (A) (A) (A) (A) (A) (A) (A)
                 (A) (A) (A) (A) (A) (A) (A) (A) (A) (A) (A) (A)
                 (A) (A) (A) (A) (A) (A) (A) (A) (A) (A) (A) (A)
                 (A) (A) (A) (A) (A) (A) (A) (A) (A) (A) (A) (A)
                 (A) (A) (A) (A) (A) (A) (A) (A) (A) (A) (A) (A)
                 (A) (A) (A) (A) (A) (A) (A) (A) (A) (A) (A) (A)
                 (A) (A) (A) (A) (A) (A) (A) (A) (A) (A) (A) (A)
                 (A) (A) (A) (A) (A) (A) (A) (A) (A) (A) (A) (A)
                 (A) (A) (A) (A) (A) (A) (A) (A) (A) (A) (A) (A)
                 (A) (A) (A) (A) (A) (A) (A) (A) (A) (A) (A) (A)
                 (A) (A) (A) (A) (A) (A) (A) (A) (A) (A) (A) (A)
                 (A) (A) (A) (A) (A) (A) (A) (A) (A) (A) (A) (A)
                 (A) (A) (A) (A) (A) (A) (A) (A) (A) (A) (A) (A)
                 (A) (A) (A) (A) (A) (A) (A) (A) (A) (A) (A) (A)
                 (A) (A) (A) (A) (A) (A) (A) (A) (A) (A) (A) (A)
                 (A) (A) (A) (A) (A) (A) (A) (A) (A) (A) (A) (A)
                 (A) (A) (A) (A) (A) (A) (A) (A) (A) (A) (A) (A)
                 (A) (A) (A) (A) (A) (A) (A) (A) (A) (A) (A) (A)
                 (A) (A) (A) (A) (A) (A) (A) (A) (A) (A) (A) (A)
                 (A) (A) (A) (A) (A) (A) (A) (A) (A) (A) (A) (A)
                 (A) (A) (A) (A) (A) (A) (A) (A) (A) (A) (A) (A)
                 (A) (A) (A) (A) (A) (A) (A) (A) (A) (A) (A) (A)
                 (A) (A) (A) (A) (A) (A) (A) (A) (A) (A) (A) (A)
                 (A) (A) (A) (A) (A) (A) (A) (A) (A) (A) (A) (A)
                 (A) (A) (A) (A) (A) (A) (A) (A) (A) (A) (A) (A)
                 (A) (A) (A) (A) (A) (A) (A) (A) (A) (A) (A) (A)
                 (A) (A) (A) (A) (A) (A) (A) (A) (A) (A) (A)
 Beta  Orbitals:
       Occupied  (A) (A) (A) (A) (A) (A) (A) (A) (A) (A) (A) (A)
                 (A) (A) (A) (A) (A) (A) (A) (A) (A) (A) (A) (A)
                 (A) (A) (A) (A)
       Virtual   (A) (A) (A) (A) (A) (A) (A) (A) (A) (A) (A) (A)
                 (A) (A) (A) (A) (A) (A) (A) (A) (A) (A) (A) (A)
                 (A) (A) (A) (A) (A) (A) (A) (A) (A) (A) (A) (A)
                 (A) (A) (A) (A) (A) (A) (A) (A) (A) (A) (A) (A)
                 (A) (A) (A) (A) (A) (A) (A) (A) (A) (A) (A) (A)
                 (A) (A) (A) (A) (A) (A) (A) (A) (A) (A) (A) (A)
                 (A) (A) (A) (A) (A) (A) (A) (A) (A) (A) (A) (A)
                 (A) (A) (A) (A) (A) (A) (A) (A) (A) (A) (A) (A)
                 (A) (A) (A) (A) (A) (A) (A) (A) (A) (A) (A) (A)
                 (A) (A) (A) (A) (A) (A) (A) (A) (A) (A) (A) (A)
                 (A) (A) (A) (A) (A) (A) (A) (A) (A) (A) (A) (A)
                 (A) (A) (A) (A) (A) (A) (A) (A) (A) (A) (A) (A)
                 (A) (A) (A) (A) (A) (A) (A) (A) (A) (A) (A) (A)
                 (A) (A) (A) (A) (A) (A) (A) (A) (A) (A) (A) (A)
                 (A) (A) (A) (A) (A) (A) (A) (A) (A) (A) (A) (A)
                 (A) (A) (A) (A) (A) (A) (A) (A) (A) (A) (A) (A)
                 (A) (A) (A) (A) (A) (A) (A) (A) (A) (A) (A) (A)
                 (A) (A) (A) (A) (A) (A) (A) (A) (A) (A) (A) (A)
                 (A) (A) (A) (A) (A) (A) (A) (A) (A) (A) (A) (A)
                 (A) (A) (A) (A) (A) (A) (A) (A) (A) (A) (A) (A)
                 (A) (A) (A) (A) (A) (A) (A) (A) (A) (A) (A) (A)
                 (A) (A) (A) (A) (A) (A) (A) (A) (A) (A) (A) (A)
                 (A) (A) (A) (A) (A) (A) (A) (A) (A) (A) (A) (A)
                 (A) (A) (A) (A) (A) (A) (A) (A) (A) (A) (A) (A)
                 (A) (A) (A) (A) (A) (A) (A) (A) (A) (A) (A) (A)
                 (A) (A) (A) (A) (A) (A) (A) (A) (A) (A) (A) (A)
                 (A) (A) (A) (A) (A) (A) (A) (A) (A) (A) (A) (A)
                 (A) (A) (A) (A) (A) (A) (A) (A) (A) (A) (A) (A)
 The electronic state is 2-A.
 Alpha  occ. eigenvalues --  -19.79576 -19.79125 -10.66244 -10.63794 -10.62868
 Alpha  occ. eigenvalues --  -10.61262 -10.60296  -1.26785  -1.04461  -0.92480
 Alpha  occ. eigenvalues --   -0.84843  -0.77773  -0.73278  -0.66504  -0.60248
 Alpha  occ. eigenvalues --   -0.56130  -0.54609  -0.54421  -0.51650  -0.50841
 Alpha  occ. eigenvalues --   -0.48367  -0.45784  -0.44206  -0.43691  -0.40216
 Alpha  occ. eigenvalues --   -0.39182  -0.36023  -0.31231  -0.31039
 Alpha virt. eigenvalues --    0.06328   0.08481   0.09159   0.09728   0.11792
 Alpha virt. eigenvalues --    0.12824   0.13349   0.15057   0.16460   0.17004
 Alpha virt. eigenvalues --    0.17505   0.18144   0.19632   0.22634   0.25855
 Alpha virt. eigenvalues --    0.27368   0.30462   0.31328   0.32205   0.32673
 Alpha virt. eigenvalues --    0.34838   0.35425   0.37002   0.39284   0.41689
 Alpha virt. eigenvalues --    0.43652   0.45099   0.46393   0.47739   0.49062
 Alpha virt. eigenvalues --    0.49519   0.51163   0.51338   0.51911   0.52276
 Alpha virt. eigenvalues --    0.52461   0.53180   0.54561   0.55699   0.57216
 Alpha virt. eigenvalues --    0.57712   0.59568   0.59852   0.61764   0.62182
 Alpha virt. eigenvalues --    0.65157   0.66303   0.68141   0.70306   0.72699
 Alpha virt. eigenvalues --    0.74621   0.75550   0.76819   0.77688   0.80184
 Alpha virt. eigenvalues --    0.81926   0.85652   0.86248   0.88491   0.92644
 Alpha virt. eigenvalues --    0.93946   0.96062   0.97600   0.99629   1.01317
 Alpha virt. eigenvalues --    1.02667   1.03538   1.04474   1.05880   1.06415
 Alpha virt. eigenvalues --    1.06923   1.08889   1.11279   1.13120   1.14758
 Alpha virt. eigenvalues --    1.15392   1.17398   1.17846   1.18669   1.19624
 Alpha virt. eigenvalues --    1.20620   1.21772   1.23712   1.25136   1.26794
 Alpha virt. eigenvalues --    1.28536   1.29700   1.30916   1.32214   1.33640
 Alpha virt. eigenvalues --    1.35878   1.37341   1.39058   1.39410   1.41117
 Alpha virt. eigenvalues --    1.41942   1.42709   1.42978   1.47192   1.48081
 Alpha virt. eigenvalues --    1.49927   1.52766   1.53947   1.55039   1.58311
 Alpha virt. eigenvalues --    1.60846   1.62991   1.65749   1.67637   1.68485
 Alpha virt. eigenvalues --    1.71204   1.71986   1.79134   1.87379   1.90758
 Alpha virt. eigenvalues --    1.93499   2.01458   2.03109   2.08802   2.12584
 Alpha virt. eigenvalues --    2.19840   2.20541   2.24077   2.25362   2.27959
 Alpha virt. eigenvalues --    2.32791   2.35262   2.37281   2.38587   2.40779
 Alpha virt. eigenvalues --    2.42546   2.46710   2.49522   2.49923   2.55602
 Alpha virt. eigenvalues --    2.56238   2.58777   2.60999   2.62555   2.64445
 Alpha virt. eigenvalues --    2.66345   2.68541   2.72490   2.75377   2.75751
 Alpha virt. eigenvalues --    2.79439   2.83730   2.85040   2.86126   2.89568
 Alpha virt. eigenvalues --    2.90618   2.92035   2.93021   2.93286   2.94482
 Alpha virt. eigenvalues --    2.94993   2.96700   2.99658   3.00648   3.01195
 Alpha virt. eigenvalues --    3.03109   3.05125   3.05690   3.07861   3.10924
 Alpha virt. eigenvalues --    3.11825   3.12062   3.13779   3.14154   3.15308
 Alpha virt. eigenvalues --    3.16139   3.16247   3.17341   3.18384   3.20573
 Alpha virt. eigenvalues --    3.21295   3.22840   3.25024   3.27172   3.30154
 Alpha virt. eigenvalues --    3.31906   3.33596   3.35155   3.36838   3.39241
 Alpha virt. eigenvalues --    3.40837   3.41967   3.42434   3.44748   3.48565
 Alpha virt. eigenvalues --    3.48747   3.50747   3.52580   3.53229   3.56486
 Alpha virt. eigenvalues --    3.56914   3.58083   3.59001   3.61022   3.62129
 Alpha virt. eigenvalues --    3.62624   3.64229   3.67273   3.69295   3.72341
 Alpha virt. eigenvalues --    3.73861   3.77179   3.78949   3.81173   3.82235
 Alpha virt. eigenvalues --    3.82948   3.85862   3.86484   3.87776   3.89788
 Alpha virt. eigenvalues --    3.92972   3.93974   3.94387   3.96537   3.97116
 Alpha virt. eigenvalues --    3.97853   3.99614   4.01448   4.05295   4.05783
 Alpha virt. eigenvalues --    4.06987   4.07035   4.09130   4.11192   4.11910
 Alpha virt. eigenvalues --    4.12858   4.14579   4.16503   4.17565   4.18519
 Alpha virt. eigenvalues --    4.19108   4.20418   4.23230   4.26350   4.27967
 Alpha virt. eigenvalues --    4.29183   4.32319   4.33466   4.34252   4.36745
 Alpha virt. eigenvalues --    4.37536   4.39784   4.43682   4.45340   4.47036
 Alpha virt. eigenvalues --    4.50149   4.51421   4.54598   4.60973   4.62977
 Alpha virt. eigenvalues --    4.67296   4.67916   4.68420   4.73299   4.76437
 Alpha virt. eigenvalues --    4.77767   4.81444   4.83099   4.85285   4.87685
 Alpha virt. eigenvalues --    4.93120   4.93505   4.94933   4.96569   4.99863
 Alpha virt. eigenvalues --    5.01082   5.03302   5.04872   5.06151   5.07549
 Alpha virt. eigenvalues --    5.09729   5.10792   5.14593   5.16831   5.20913
 Alpha virt. eigenvalues --    5.23734   5.28600   5.31154   5.32359   5.33754
 Alpha virt. eigenvalues --    5.35820   5.36960   5.39047   5.40233   5.42439
 Alpha virt. eigenvalues --    5.43654   5.45477   5.47842   5.50190   5.52702
 Alpha virt. eigenvalues --    5.54889   5.57743   5.60980   5.64459   5.68781
 Alpha virt. eigenvalues --    5.73986   5.85856   5.91084   5.92401   5.95629
 Alpha virt. eigenvalues --    6.05052   6.05831   6.06495   6.09710   6.10529
 Alpha virt. eigenvalues --    6.11607   6.21670   6.36127   6.36671   6.45565
 Alpha virt. eigenvalues --    6.58516   6.64584   6.73969   6.82263   6.87668
 Alpha virt. eigenvalues --    6.98559   7.03276   7.10653   7.23164   7.36057
 Alpha virt. eigenvalues --    7.44460   7.58567   7.87766  10.09409  10.70303
 Alpha virt. eigenvalues --   10.93288  12.65084  13.43063  13.98869  14.26429
  Beta  occ. eigenvalues --  -19.79118 -19.77582 -10.66243 -10.62910 -10.62530
  Beta  occ. eigenvalues --  -10.61235 -10.60322  -1.24608  -1.01005  -0.91045
  Beta  occ. eigenvalues --   -0.84298  -0.77454  -0.71625  -0.63898  -0.57596
  Beta  occ. eigenvalues --   -0.54745  -0.54260  -0.53700  -0.50865  -0.50005
  Beta  occ. eigenvalues --   -0.45564  -0.45123  -0.43497  -0.42953  -0.39594
  Beta  occ. eigenvalues --   -0.37761  -0.33760  -0.31036
  Beta virt. eigenvalues --   -0.03985   0.06340   0.08655   0.09416   0.10277
  Beta virt. eigenvalues --    0.11951   0.13129   0.13487   0.15085   0.16522
  Beta virt. eigenvalues --    0.17152   0.17629   0.18312   0.20152   0.23051
  Beta virt. eigenvalues --    0.26246   0.27630   0.30725   0.31476   0.32355
  Beta virt. eigenvalues --    0.32890   0.35073   0.35787   0.37796   0.39523
  Beta virt. eigenvalues --    0.42048   0.44172   0.45272   0.46710   0.47934
  Beta virt. eigenvalues --    0.49379   0.49930   0.51400   0.51459   0.52125
  Beta virt. eigenvalues --    0.52604   0.53075   0.53521   0.54834   0.55823
  Beta virt. eigenvalues --    0.57395   0.58086   0.59960   0.60091   0.62282
  Beta virt. eigenvalues --    0.64011   0.65968   0.66584   0.68352   0.70548
  Beta virt. eigenvalues --    0.73448   0.74973   0.76057   0.77287   0.78118
  Beta virt. eigenvalues --    0.80491   0.82214   0.85770   0.87215   0.88717
  Beta virt. eigenvalues --    0.92876   0.93990   0.96353   0.97888   0.99780
  Beta virt. eigenvalues --    1.01574   1.02908   1.03701   1.04725   1.06056
  Beta virt. eigenvalues --    1.06529   1.07144   1.09051   1.11450   1.13287
  Beta virt. eigenvalues --    1.14889   1.15473   1.17638   1.18053   1.19425
  Beta virt. eigenvalues --    1.19841   1.20968   1.22103   1.24151   1.25556
  Beta virt. eigenvalues --    1.27079   1.29075   1.30262   1.31168   1.32386
  Beta virt. eigenvalues --    1.33828   1.36051   1.37412   1.39161   1.39660
  Beta virt. eigenvalues --    1.41397   1.42153   1.42867   1.43155   1.47509
  Beta virt. eigenvalues --    1.48662   1.50316   1.53039   1.54730   1.55429
  Beta virt. eigenvalues --    1.58517   1.61119   1.63400   1.66038   1.68054
  Beta virt. eigenvalues --    1.68892   1.71564   1.72337   1.79597   1.88184
  Beta virt. eigenvalues --    1.91277   1.93966   2.01929   2.04347   2.11149
  Beta virt. eigenvalues --    2.12796   2.20153   2.22142   2.25016   2.26045
  Beta virt. eigenvalues --    2.28651   2.33118   2.35692   2.37540   2.38965
  Beta virt. eigenvalues --    2.40983   2.43354   2.47113   2.49651   2.50254
  Beta virt. eigenvalues --    2.55843   2.56819   2.59375   2.61236   2.62805
  Beta virt. eigenvalues --    2.64861   2.67024   2.69095   2.72653   2.75690
  Beta virt. eigenvalues --    2.76053   2.79959   2.83845   2.85172   2.86223
  Beta virt. eigenvalues --    2.90001   2.90727   2.92072   2.93430   2.93685
  Beta virt. eigenvalues --    2.94933   2.95553   2.96934   2.99982   3.00733
  Beta virt. eigenvalues --    3.01623   3.03370   3.05331   3.06080   3.08176
  Beta virt. eigenvalues --    3.11120   3.11859   3.12476   3.13925   3.14483
  Beta virt. eigenvalues --    3.15426   3.16423   3.16623   3.17650   3.19098
  Beta virt. eigenvalues --    3.20599   3.21575   3.23174   3.25326   3.27752
  Beta virt. eigenvalues --    3.30503   3.32213   3.34487   3.35856   3.37121
  Beta virt. eigenvalues --    3.40010   3.41277   3.42149   3.42540   3.45168
  Beta virt. eigenvalues --    3.48988   3.49176   3.51020   3.52810   3.53302
  Beta virt. eigenvalues --    3.56659   3.57076   3.58386   3.59289   3.61162
  Beta virt. eigenvalues --    3.62434   3.62694   3.64606   3.67635   3.69711
  Beta virt. eigenvalues --    3.72404   3.74018   3.77588   3.79316   3.81316
  Beta virt. eigenvalues --    3.82569   3.83123   3.85956   3.86698   3.87980
  Beta virt. eigenvalues --    3.90232   3.93307   3.94300   3.94496   3.96791
  Beta virt. eigenvalues --    3.97270   3.98138   3.99829   4.01625   4.05358
  Beta virt. eigenvalues --    4.05938   4.07195   4.07271   4.09382   4.11362
  Beta virt. eigenvalues --    4.12181   4.13181   4.14838   4.16795   4.17816
  Beta virt. eigenvalues --    4.18615   4.19271   4.20665   4.23544   4.26543
  Beta virt. eigenvalues --    4.28212   4.29525   4.32701   4.33708   4.34577
  Beta virt. eigenvalues --    4.36822   4.37820   4.39990   4.43996   4.45684
  Beta virt. eigenvalues --    4.47573   4.50342   4.51666   4.54818   4.61709
  Beta virt. eigenvalues --    4.63862   4.67531   4.68138   4.68785   4.73800
  Beta virt. eigenvalues --    4.77781   4.78157   4.81612   4.83553   4.85563
  Beta virt. eigenvalues --    4.88274   4.93416   4.94346   4.95256   4.96773
  Beta virt. eigenvalues --    5.00033   5.01268   5.03601   5.05172   5.06414
  Beta virt. eigenvalues --    5.07809   5.09982   5.11086   5.15199   5.17275
  Beta virt. eigenvalues --    5.21497   5.24049   5.29121   5.31364   5.32608
  Beta virt. eigenvalues --    5.33945   5.35981   5.37255   5.39473   5.40801
  Beta virt. eigenvalues --    5.42621   5.44147   5.46216   5.48028   5.50876
  Beta virt. eigenvalues --    5.52948   5.55059   5.58318   5.61611   5.65001
  Beta virt. eigenvalues --    5.69259   5.75671   5.86185   5.91268   5.93181
  Beta virt. eigenvalues --    5.95868   6.05222   6.06054   6.07318   6.10031
  Beta virt. eigenvalues --    6.10757   6.12064   6.22107   6.36340   6.36866
  Beta virt. eigenvalues --    6.46628   6.61187   6.67262   6.75174   6.84825
  Beta virt. eigenvalues --    6.89316   7.00345   7.04368   7.11937   7.25734
  Beta virt. eigenvalues --    7.36879   7.46483   7.61877   7.88375  10.09660
  Beta virt. eigenvalues --   10.72138  10.93342  12.66051  13.43065  13.98951
  Beta virt. eigenvalues --   14.26477
          Condensed to atoms (all electrons):
               1          2          3          4          5          6
     1  C    5.131881   0.406466  -0.004034   0.000032   0.000548   0.000132
     2  H    0.406466   0.566200   0.000180  -0.001603  -0.000183   0.000115
     3  C   -0.004034   0.000180   4.576167   0.396636   0.395761   0.411169
     4  H    0.000032  -0.001603   0.396636   0.665545  -0.031069  -0.059330
     5  H    0.000548  -0.000183   0.395761  -0.031069   0.595956  -0.033060
     6  H    0.000132   0.000115   0.411169  -0.059330  -0.033060   0.633857
     7  O    0.010674   0.001953   0.304304  -0.048622  -0.027625  -0.038703
     8  O   -0.125085  -0.001179  -0.038627   0.001307   0.006795  -0.000835
     9  H    0.254802  -0.001720   0.004541   0.002703  -0.000956   0.000320
    10  C    0.327625  -0.033161   0.000181  -0.000536  -0.000028   0.000154
    11  C   -0.055937  -0.000655  -0.000185   0.000286   0.000009  -0.000110
    12  H   -0.037410  -0.001091  -0.000000   0.000017   0.000000   0.000000
    13  H    0.006342  -0.000381   0.000001   0.000004   0.000000  -0.000000
    14  H   -0.006189   0.000115   0.000136  -0.000041   0.000012   0.000199
    15  C    0.318635  -0.045423  -0.000008   0.000087   0.000038  -0.000057
    16  H   -0.035221  -0.005947  -0.000073  -0.000053  -0.000004   0.000042
    17  H   -0.032988  -0.001225  -0.000006   0.000006  -0.000002  -0.000000
    18  H   -0.036291   0.007356   0.000007  -0.000021  -0.000011  -0.000002
               7          8          9         10         11         12
     1  C    0.010674  -0.125085   0.254802   0.327625  -0.055937  -0.037410
     2  H    0.001953  -0.001179  -0.001720  -0.033161  -0.000655  -0.001091
     3  C    0.304304  -0.038627   0.004541   0.000181  -0.000185  -0.000000
     4  H   -0.048622   0.001307   0.002703  -0.000536   0.000286   0.000017
     5  H   -0.027625   0.006795  -0.000956  -0.000028   0.000009   0.000000
     6  H   -0.038703  -0.000835   0.000320   0.000154  -0.000110   0.000000
     7  O    7.942642   0.076555  -0.025507   0.001400   0.000187  -0.000014
     8  O    0.076555   8.084886   0.182908  -0.001367  -0.001190  -0.000216
     9  H   -0.025507   0.182908   0.416374  -0.008242  -0.006085   0.001235
    10  C    0.001400  -0.001367  -0.008242   4.937382   0.622866   0.405099
    11  C    0.000187  -0.001190  -0.006085   0.622866   4.957649  -0.039653
    12  H   -0.000014  -0.000216   0.001235   0.405099  -0.039653   0.542448
    13  H   -0.000003   0.000095   0.000117  -0.045630   0.411943  -0.007753
    14  H   -0.000309   0.007164  -0.001348  -0.042789   0.405916   0.005642
    15  C   -0.003618   0.002728  -0.015701  -0.056533   0.003657  -0.001858
    16  H    0.004191  -0.001193  -0.001787   0.008575  -0.000188  -0.000319
    17  H   -0.000034  -0.000112   0.003027  -0.006027   0.000249   0.003684
    18  H   -0.000523   0.003945  -0.001278   0.001463   0.001528   0.000045
              13         14         15         16         17         18
     1  C    0.006342  -0.006189   0.318635  -0.035221  -0.032988  -0.036291
     2  H   -0.000381   0.000115  -0.045423  -0.005947  -0.001225   0.007356
     3  C    0.000001   0.000136  -0.000008  -0.000073  -0.000006   0.000007
     4  H    0.000004  -0.000041   0.000087  -0.000053   0.000006  -0.000021
     5  H    0.000000   0.000012   0.000038  -0.000004  -0.000002  -0.000011
     6  H   -0.000000   0.000199  -0.000057   0.000042  -0.000000  -0.000002
     7  O   -0.000003  -0.000309  -0.003618   0.004191  -0.000034  -0.000523
     8  O    0.000095   0.007164   0.002728  -0.001193  -0.000112   0.003945
     9  H    0.000117  -0.001348  -0.015701  -0.001787   0.003027  -0.001278
    10  C   -0.045630  -0.042789  -0.056533   0.008575  -0.006027   0.001463
    11  C    0.411943   0.405916   0.003657  -0.000188   0.000249   0.001528
    12  H   -0.007753   0.005642  -0.001858  -0.000319   0.003684   0.000045
    13  H    0.552087  -0.036129  -0.000325   0.000029  -0.000053  -0.000063
    14  H   -0.036129   0.536324   0.000632  -0.000005  -0.000031  -0.000005
    15  C   -0.000325   0.000632   4.874137   0.408363   0.402793   0.402563
    16  H    0.000029  -0.000005   0.408363   0.567256  -0.032904  -0.023832
    17  H   -0.000053  -0.000031   0.402793  -0.032904   0.595216  -0.030909
    18  H   -0.000063  -0.000005   0.402563  -0.023832  -0.030909   0.565871
          Atomic-Atomic Spin Densities.
               1          2          3          4          5          6
     1  C    0.656762   0.006785   0.000883  -0.002946   0.000206   0.001044
     2  H    0.006785  -0.019793  -0.000149   0.000469  -0.000014  -0.000065
     3  C    0.000883  -0.000149  -0.000537   0.002497   0.000090  -0.003066
     4  H   -0.002946   0.000469   0.002497   0.001896  -0.001003  -0.001243
     5  H    0.000206  -0.000014   0.000090  -0.001003  -0.002421   0.001725
     6  H    0.001044  -0.000065  -0.003066  -0.001243   0.001725   0.002266
     7  O    0.014106  -0.001099   0.003191  -0.000246   0.000278  -0.000959
     8  O   -0.129766   0.003128  -0.003828   0.001730  -0.000173   0.001266
     9  H    0.068728   0.000578   0.000021  -0.001188   0.000151   0.000564
    10  C   -0.004640  -0.000325  -0.000085   0.000176  -0.000000  -0.000040
    11  C   -0.008837   0.000852   0.000037   0.000010  -0.000002  -0.000007
    12  H   -0.010439  -0.001354   0.000005  -0.000020   0.000000   0.000003
    13  H   -0.000171   0.000038   0.000000  -0.000001  -0.000000   0.000000
    14  H    0.005700  -0.000225  -0.000052  -0.000061   0.000000   0.000041
    15  C   -0.026998   0.005115  -0.000058   0.000128  -0.000021  -0.000048
    16  H   -0.001005   0.000104  -0.000007   0.000002  -0.000001  -0.000001
    17  H   -0.009619  -0.001574   0.000010  -0.000014   0.000002   0.000003
    18  H   -0.005960   0.000091  -0.000003   0.000016  -0.000001  -0.000009
               7          8          9         10         11         12
     1  C    0.014106  -0.129766   0.068728  -0.004640  -0.008837  -0.010439
     2  H   -0.001099   0.003128   0.000578  -0.000325   0.000852  -0.001354
     3  C    0.003191  -0.003828   0.000021  -0.000085   0.000037   0.000005
     4  H   -0.000246   0.001730  -0.001188   0.000176   0.000010  -0.000020
     5  H    0.000278  -0.000173   0.000151  -0.000000  -0.000002   0.000000
     6  H   -0.000959   0.001266   0.000564  -0.000040  -0.000007   0.000003
     7  O    0.001863  -0.033480   0.008539  -0.000129  -0.000102   0.000030
     8  O   -0.033480   0.724405  -0.066643   0.003600   0.003289  -0.000571
     9  H    0.008539  -0.066643  -0.080497   0.003826  -0.002702   0.000436
    10  C   -0.000129   0.003600   0.003826  -0.043044   0.010950   0.006415
    11  C   -0.000102   0.003289  -0.002702   0.010950   0.011312  -0.005291
    12  H    0.000030  -0.000571   0.000436   0.006415  -0.005291   0.030504
    13  H   -0.000000   0.000021  -0.000034   0.000327   0.000847  -0.000059
    14  H    0.000143  -0.003320   0.002180  -0.001988  -0.002992   0.000816
    15  C   -0.001589   0.010750  -0.004452   0.002722   0.000809  -0.001162
    16  H   -0.000025   0.000004   0.000329  -0.000190   0.000015   0.000010
    17  H    0.000109  -0.000874   0.000456   0.000529  -0.000501   0.003257
    18  H   -0.000174   0.001860  -0.000951   0.000234   0.000417  -0.000525
              13         14         15         16         17         18
     1  C   -0.000171   0.005700  -0.026998  -0.001005  -0.009619  -0.005960
     2  H    0.000038  -0.000225   0.005115   0.000104  -0.001574   0.000091
     3  C    0.000000  -0.000052  -0.000058  -0.000007   0.000010  -0.000003
     4  H   -0.000001  -0.000061   0.000128   0.000002  -0.000014   0.000016
     5  H   -0.000000   0.000000  -0.000021  -0.000001   0.000002  -0.000001
     6  H    0.000000   0.000041  -0.000048  -0.000001   0.000003  -0.000009
     7  O   -0.000000   0.000143  -0.001589  -0.000025   0.000109  -0.000174
     8  O    0.000021  -0.003320   0.010750   0.000004  -0.000874   0.001860
     9  H   -0.000034   0.002180  -0.004452   0.000329   0.000456  -0.000951
    10  C    0.000327  -0.001988   0.002722  -0.000190   0.000529   0.000234
    11  C    0.000847  -0.002992   0.000809   0.000015  -0.000501   0.000417
    12  H   -0.000059   0.000816  -0.001162   0.000010   0.003257  -0.000525
    13  H   -0.003278   0.000266   0.000013  -0.000000  -0.000010   0.000011
    14  H    0.000266   0.001547  -0.000484  -0.000006   0.000129  -0.000148
    15  C    0.000013  -0.000484  -0.009753   0.000751   0.000166   0.006788
    16  H   -0.000000  -0.000006   0.000751   0.000010   0.000116  -0.000191
    17  H   -0.000010   0.000129   0.000166   0.000116   0.038860  -0.004491
    18  H    0.000011  -0.000148   0.006788  -0.000191  -0.004491   0.008837
 Mulliken charges and spin densities:
               1          2
     1  C   -0.123982   0.553833
     2  H    0.110185  -0.007438
     3  C   -0.046147  -0.001050
     4  H    0.074653   0.000204
     5  H    0.093821  -0.001182
     6  H    0.086110   0.001473
     7  O   -0.196947  -0.009542
     8  O   -0.196580   0.511400
     9  H    0.196598  -0.070658
    10  C   -0.110432  -0.021662
    11  C   -0.300287   0.008103
    12  H    0.130145   0.022055
    13  H    0.119719  -0.002030
    14  H    0.130707   0.001546
    15  C   -0.290110  -0.017323
    16  H    0.113070  -0.000083
    17  H    0.099317   0.026553
    18  H    0.110158   0.005803
 Sum of Mulliken charges =  -0.00000   1.00000
 Mulliken charges and spin densities with hydrogens summed into heavy atoms:
               1          2
     1  C   -0.013796   0.546395
     3  C    0.208438  -0.000556
     7  O   -0.196947  -0.009542
     8  O    0.000018   0.440742
    10  C    0.019712   0.000393
    11  C   -0.049861   0.007619
    15  C    0.032435   0.014949
 APT charges:
               1
     1  C    0.410115
     2  H   -0.068835
     3  C    0.465525
     4  H   -0.037174
     5  H   -0.010203
     6  H   -0.032922
     7  O   -0.411699
     8  O    0.098481
     9  H   -0.277121
    10  C   -0.030285
    11  C   -0.098112
    12  H   -0.009017
    13  H    0.021010
    14  H    0.046524
    15  C   -0.064936
    16  H   -0.008101
    17  H   -0.007934
    18  H    0.014686
 Sum of APT charges =  -0.00000
 APT charges with hydrogens summed into heavy atoms:
               1
     1  C    0.341280
     3  C    0.385225
     7  O   -0.411699
     8  O   -0.178640
    10  C   -0.039302
    11  C   -0.030579
    15  C   -0.066286
 Electronic spatial extent (au):  <R**2>=           1114.8898
 Charge=             -0.0000 electrons
 Dipole moment (field-independent basis, Debye):
    X=              0.1353    Y=             -0.0529    Z=              1.7271  Tot=              1.7332
 Quadrupole moment (field-independent basis, Debye-Ang):
   XX=            -39.3685   YY=            -43.9880   ZZ=            -45.6335
   XY=              2.3664   XZ=             -1.9020   YZ=              1.2829
 Traceless Quadrupole moment (field-independent basis, Debye-Ang):
   XX=              3.6282   YY=             -0.9913   ZZ=             -2.6368
   XY=              2.3664   XZ=             -1.9020   YZ=              1.2829
 Octapole moment (field-independent basis, Debye-Ang**2):
  XXX=            -27.9260  YYY=             -0.9361  ZZZ=             -1.8146  XYY=             -2.8228
  XXY=             -5.7087  XXZ=              9.1878  XZZ=             -6.0228  YZZ=              2.1270
  YYZ=             -3.0930  XYZ=              1.5747
 Hexadecapole moment (field-independent basis, Debye-Ang**3):
 XXXX=           -902.9515 YYYY=           -386.7076 ZZZZ=           -127.0974 XXXY=              6.2378
 XXXZ=              1.3411 YYYX=             -6.3191 YYYZ=              8.8161 ZZZX=              2.1198
 ZZZY=              1.6602 XXYY=           -216.8635 XXZZ=           -186.7586 YYZZ=            -87.6147
 XXYZ=              7.0849 YYXZ=             -2.5124 ZZXY=              4.9376
 N-N= 3.078247706606D+02 E-N=-1.426827038175D+03  KE= 3.453610462864D+02
  Exact polarizability: 102.394   1.993  80.195   2.905   6.901  60.071
 Approx polarizability:  89.281  -0.364  88.240   2.731  11.726  74.300
                          Isotropic Fermi Contact Couplings
        Atom                 a.u.       MegaHertz       Gauss      10(-4) cm-1
     1  C(13)              0.16680     187.51822      66.91116      62.54935
     2  H(1)              -0.00153      -6.83976      -2.44060      -2.28150
     3  C(13)             -0.00095      -1.06503      -0.38003      -0.35526
     4  H(1)               0.00137       6.13988       2.19086       2.04804
     5  H(1)              -0.00006      -0.25091      -0.08953      -0.08369
     6  H(1)              -0.00009      -0.40716      -0.14528      -0.13581
     7  O(17)              0.01149      -6.96238      -2.48435      -2.32240
     8  O(17)              0.08905     -53.98039     -19.26155     -18.00592
     9  H(1)              -0.01586     -70.90364     -25.30018     -23.65091
    10  C(13)             -0.00554      -6.22869      -2.22255      -2.07767
    11  C(13)              0.00757       8.50936       3.03635       2.83842
    12  H(1)               0.01035      46.28189      16.51453      15.43798
    13  H(1)              -0.00042      -1.88267      -0.67179      -0.62799
    14  H(1)              -0.00007      -0.29658      -0.10583      -0.09893
    15  C(13)             -0.00407      -4.57786      -1.63349      -1.52701
    16  H(1)               0.00030       1.32138       0.47150       0.44076
    17  H(1)               0.01359      60.74533      21.67545      20.26246
    18  H(1)               0.00413      18.48270       6.59509       6.16517
 --------------------------------------------------------
       Center         ----  Spin Dipole Couplings  ----
                      3XX-RR        3YY-RR        3ZZ-RR
 --------------------------------------------------------
     1   Atom        0.225192     -0.155004     -0.070188
     2   Atom       -0.004748     -0.032707      0.037455
     3   Atom        0.006651     -0.005648     -0.001002
     4   Atom        0.000862     -0.003905      0.003043
     5   Atom        0.004430     -0.003419     -0.001011
     6   Atom        0.006916     -0.002716     -0.004200
     7   Atom        0.100831     -0.141743      0.040912
     8   Atom        0.360502     -0.668232      0.307730
     9   Atom        0.105835     -0.091035     -0.014800
    10   Atom        0.020027     -0.007471     -0.012556
    11   Atom        0.000812      0.008024     -0.008836
    12   Atom        0.007295     -0.002999     -0.004296
    13   Atom        0.001054      0.001359     -0.002413
    14   Atom       -0.000337      0.005844     -0.005508
    15   Atom       -0.004344      0.021433     -0.017089
    16   Atom       -0.005137      0.012787     -0.007651
    17   Atom        0.002828      0.002745     -0.005574
    18   Atom       -0.003741     -0.000126      0.003867
 --------------------------------------------------------
                        XY            XZ            YZ
 --------------------------------------------------------
     1   Atom        0.326072      0.390191      0.225917
     2   Atom        0.007827     -0.015198      0.018136
     3   Atom        0.001893     -0.008350     -0.002073
     4   Atom        0.003683     -0.005964     -0.003507
     5   Atom        0.000064     -0.003692      0.000253
     6   Atom        0.005435     -0.003478     -0.001436
     7   Atom        0.046759      0.206891     -0.000797
     8   Atom        0.762562      1.404758      0.754958
     9   Atom        0.129113      0.183438      0.094151
    10   Atom       -0.013146      0.007840     -0.001685
    11   Atom       -0.008748      0.000122      0.004482
    12   Atom       -0.002128      0.004250      0.000438
    13   Atom       -0.003208     -0.000055      0.000788
    14   Atom       -0.006804     -0.000454      0.003906
    15   Atom        0.026210      0.000277     -0.002191
    16   Atom       -0.000775      0.001401     -0.001128
    17   Atom        0.006381      0.002244     -0.002011
    18   Atom        0.005947     -0.004675     -0.009409
 --------------------------------------------------------


 ---------------------------------------------------------------------------------
              Anisotropic Spin Dipole Couplings in Principal Axis System
 ---------------------------------------------------------------------------------

       Atom             a.u.   MegaHertz   Gauss  10(-4) cm-1        Axes

              Baa    -0.3430   -46.022   -16.422   -15.351 -0.2594  0.8928 -0.3683
     1 C(13)  Bbb    -0.3396   -45.574   -16.262   -15.202 -0.6164  0.1406  0.7748
              Bcc     0.6826    91.596    32.684    30.553  0.7435  0.4280  0.5138
 
              Baa    -0.0408   -21.769    -7.768    -7.262 -0.3121  0.9104 -0.2716
     2 H(1)   Bbb    -0.0045    -2.402    -0.857    -0.801  0.9146  0.3653  0.1734
              Bcc     0.0453    24.172     8.625     8.063 -0.2571  0.1943  0.9467
 
              Baa    -0.0069    -0.931    -0.332    -0.311  0.3449  0.6226  0.7025
     3 C(13)  Bbb    -0.0055    -0.735    -0.262    -0.245 -0.4400  0.7683 -0.4649
              Bcc     0.0124     1.666     0.595     0.556  0.8291  0.1487 -0.5389
 
              Baa    -0.0059    -3.161    -1.128    -1.054 -0.4311  0.9000  0.0653
     4 H(1)   Bbb    -0.0039    -2.106    -0.752    -0.703  0.6630  0.2668  0.6995
              Bcc     0.0099     5.267     1.879     1.757 -0.6121 -0.3448  0.7117
 
              Baa    -0.0035    -1.878    -0.670    -0.626 -0.1612  0.9297 -0.3311
     5 H(1)   Bbb    -0.0028    -1.481    -0.528    -0.494  0.4214  0.3683  0.8288
              Bcc     0.0063     3.359     1.199     1.120  0.8924 -0.0059 -0.4511
 
              Baa    -0.0053    -2.818    -1.006    -0.940  0.4470 -0.5535  0.7027
     6 H(1)   Bbb    -0.0051    -2.696    -0.962    -0.899 -0.1393  0.7329  0.6659
              Bcc     0.0103     5.514     1.968     1.839  0.8836  0.3955 -0.2505
 
              Baa    -0.1727    12.494     4.458     4.167 -0.4815  0.7403  0.4692
     7 O(17)  Bbb    -0.1101     7.969     2.844     2.658  0.4409  0.6673 -0.6003
              Bcc     0.2828   -20.463    -7.302    -6.826  0.7575  0.0822  0.6476
 
              Baa    -1.0794    78.102    27.869    26.052  0.0967  0.8298 -0.5496
     8 O(17)  Bbb    -1.0686    77.324    27.591    25.793  0.7391 -0.4296 -0.5187
              Bcc     2.1480  -155.427   -55.460   -51.845  0.6666  0.3561  0.6549
 
              Baa    -0.1558   -83.133   -29.664   -27.730 -0.2666  0.9250 -0.2707
     9 H(1)   Bbb    -0.1476   -78.726   -28.091   -26.260 -0.6047  0.0582  0.7943
              Bcc     0.3034   161.859    57.755    53.990  0.7505  0.3755  0.5438
 
              Baa    -0.0149    -2.005    -0.716    -0.669 -0.3457 -0.4189  0.8396
    10 C(13)  Bbb    -0.0119    -1.603    -0.572    -0.535  0.2189  0.8341  0.5063
              Bcc     0.0269     3.608     1.287     1.203  0.9125 -0.3588  0.1967
 
              Baa    -0.0106    -1.422    -0.507    -0.474 -0.2741 -0.3449  0.8978
    11 C(13)  Bbb    -0.0039    -0.519    -0.185    -0.173  0.8013  0.4344  0.4115
              Bcc     0.0145     1.941     0.692     0.647 -0.5318  0.8321  0.1573
 
              Baa    -0.0061    -3.252    -1.160    -1.085 -0.3336 -0.3529  0.8742
    12 H(1)   Bbb    -0.0029    -1.542    -0.550    -0.515  0.0321  0.9225  0.3847
              Bcc     0.0090     4.794     1.711     1.599  0.9422 -0.1564  0.2964
 
              Baa    -0.0028    -1.488    -0.531    -0.496 -0.3417 -0.4237  0.8389
    13 H(1)   Bbb    -0.0017    -0.898    -0.321    -0.300  0.6462  0.5422  0.5371
              Bcc     0.0045     2.386     0.851     0.796 -0.6824  0.7256  0.0886
 
              Baa    -0.0074    -3.925    -1.401    -1.309 -0.3660 -0.4325  0.8240
    14 H(1)   Bbb    -0.0036    -1.939    -0.692    -0.647  0.7788  0.3424  0.5256
              Bcc     0.0110     5.864     2.093     1.956 -0.5095  0.8341  0.2115
 
              Baa    -0.0211    -2.838    -1.013    -0.947  0.7968 -0.5073 -0.3283
    15 C(13)  Bbb    -0.0167    -2.235    -0.798    -0.746  0.2946 -0.1484  0.9440
              Bcc     0.0378     5.073     1.810     1.692  0.5277  0.8489 -0.0312
 
              Baa    -0.0083    -4.429    -1.580    -1.477 -0.3976  0.0344  0.9169
    16 H(1)   Bbb    -0.0046    -2.449    -0.874    -0.817  0.9163  0.0665  0.3948
              Bcc     0.0129     6.877     2.454     2.294 -0.0474  0.9972 -0.0580
 
              Baa    -0.0078    -4.136    -1.476    -1.380 -0.4191  0.4099  0.8101
    17 H(1)   Bbb    -0.0014    -0.756    -0.270    -0.252  0.5642 -0.5816  0.5861
              Bcc     0.0092     4.892     1.746     1.632  0.7114  0.7027  0.0124
 
              Baa    -0.0089    -4.741    -1.692    -1.581 -0.5501  0.7556  0.3558
    18 H(1)   Bbb    -0.0056    -2.992    -1.068    -0.998  0.7451  0.2517  0.6176
              Bcc     0.0145     7.733     2.759     2.580 -0.3771 -0.6048  0.7014
 

 ---------------------------------------------------------------------------------

 Calling FoFJK, ICntrl=  10100127 FMM=F ISym2X=0 I1Cent= 0 IOpClX= 1 NMat=1 NMatS=1 NMatT=0.
 ***** Axes restored to original set *****
 -------------------------------------------------------------------
 Center     Atomic                   Forces (Hartrees/Bohr)
 Number     Number              X              Y              Z
 -------------------------------------------------------------------
      1        6          -0.034049903    0.073580564   -0.003906452
      2        1          -0.000567456   -0.013628243    0.000361202
      3        6          -0.000821106   -0.001746214   -0.003129558
      4        1           0.000262797    0.000511270    0.000381570
      5        1           0.000103251   -0.000230855   -0.000328271
      6        1           0.000208085    0.000488453   -0.000192047
      7        8          -0.010973363   -0.000632283    0.016701439
      8        8           0.030761688   -0.037600911    0.000521550
      9        1          -0.005701060   -0.000263448   -0.005060249
     10        6           0.023820009   -0.009360468   -0.012163072
     11        6          -0.013889901   -0.007976627    0.012085666
     12        1           0.001063881   -0.007819957    0.004044873
     13        1           0.010172900    0.000922754   -0.005031211
     14        1          -0.001462263    0.010328079   -0.005728299
     15        6          -0.009538622   -0.022621068   -0.004918497
     16        1           0.011594909    0.000538073   -0.004731043
     17        1          -0.004553970    0.013671956   -0.001576773
     18        1           0.003570126    0.001838925    0.012669173
 -------------------------------------------------------------------
 Cartesian Forces:  Max     0.073580564 RMS     0.015113159
 FormGI is forming the generalized inverse of G from B-inverse, IUseBI=4.

 GradGradGradGradGradGradGradGradGradGradGradGradGradGradGradGradGradGrad
 Berny optimization.
 Internal  Forces:  Max     0.045702267 RMS     0.009279067
 Search for a saddle point.
 Step number   1 out of a maximum of  108
 All quantities printed in internal units (Hartrees-Bohrs-Radians)
 Swapping is turned off.
 Second derivative matrix not updated -- analytic derivatives used.
 ITU=  0
     Eigenvalues ---   -0.01643  -0.00017   0.00027   0.00146   0.00662
     Eigenvalues ---    0.01328   0.01807   0.02412   0.03153   0.03535
     Eigenvalues ---    0.03847   0.04251   0.04475   0.04658   0.04667
     Eigenvalues ---    0.04853   0.08508   0.08549   0.08785   0.10430
     Eigenvalues ---    0.10735   0.12221   0.12374   0.12699   0.13132
     Eigenvalues ---    0.14724   0.15005   0.15776   0.16761   0.16880
     Eigenvalues ---    0.18491   0.22869   0.24939   0.28319   0.31420
     Eigenvalues ---    0.32529   0.32687   0.32757   0.33045   0.33452
     Eigenvalues ---    0.34005   0.34359   0.35173   0.37809   0.37968
     Eigenvalues ---    0.38591   0.39859   0.63120
 Eigenvectors required to have negative eigenvalues:
                          R10       R2        D22       R9        A5
   1                    0.62119  -0.53865   0.38149  -0.21811   0.13030
                          A14       D9        D8        D18       D17
   1                    0.11753  -0.09518  -0.09127   0.08868   0.07600
 RFO step:  Lambda0=4.347184850D-03 Lambda=-2.49940839D-02.
 Linear search not attempted -- option 19 set.
 Maximum step size (   0.300) exceeded in Quadratic search.
    -- Step size scaled by   0.567
 Iteration  1 RMS(Cart)=  0.12083321 RMS(Int)=  0.00937333
 Iteration  2 RMS(Cart)=  0.01253290 RMS(Int)=  0.00088529
 Iteration  3 RMS(Cart)=  0.00013220 RMS(Int)=  0.00088155
 Iteration  4 RMS(Cart)=  0.00000008 RMS(Int)=  0.00088155
 Variable       Old X    -DE/DX   Delta X   Delta X   Delta X     New X
                                 (Linear)    (Quad)   (Total)
    R1        2.05827  -0.00009   0.00000  -0.00047  -0.00047   2.05779
    R2        2.26767   0.04151   0.00000   0.22031   0.22032   2.48799
    R3        2.91018  -0.02307   0.00000  -0.06505  -0.06505   2.84512
    R4        2.91018  -0.00347   0.00000  -0.03725  -0.03725   2.87293
    R5        2.06161  -0.00031   0.00000   0.00056   0.00056   2.06217
    R6        2.05705   0.00033   0.00000   0.00090   0.00090   2.05795
    R7        2.05898  -0.00053   0.00000   0.00063   0.00063   2.05961
    R8        2.67252   0.00256   0.00000  -0.00242  -0.00242   2.67010
    R9        2.74736  -0.01701   0.00000   0.00554   0.00554   2.75290
   R10        2.12400   0.04570   0.00000  -0.09541  -0.09542   2.02858
   R11        2.50562   0.00114   0.00000   0.00386   0.00385   2.50947
   R12        2.07542  -0.00842   0.00000  -0.00943  -0.00943   2.06599
   R13        2.07542  -0.01093   0.00000  -0.01934  -0.01934   2.05609
   R14        2.07542  -0.01126   0.00000  -0.01874  -0.01874   2.05668
   R15        2.02201   0.01221   0.00000   0.01619   0.01619   2.03820
   R16        2.02201   0.01443   0.00000   0.02350   0.02350   2.04551
   R17        2.02201   0.01282   0.00000   0.01854   0.01854   2.04055
    A1        2.00819  -0.00557   0.00000  -0.07436  -0.07371   1.93448
    A2        1.94246  -0.00083   0.00000   0.02979   0.02545   1.96791
    A3        1.87778   0.00421   0.00000   0.05621   0.05288   1.93066
    A4        1.90174  -0.00265   0.00000  -0.03983  -0.03911   1.86263
    A5        1.78563   0.00007   0.00000  -0.02321  -0.02192   1.76371
    A6        1.94242   0.00541   0.00000   0.05310   0.04991   1.99233
    A7        1.91786   0.00015   0.00000  -0.00051  -0.00051   1.91735
    A8        1.91635   0.00040   0.00000  -0.00129  -0.00129   1.91506
    A9        1.94579  -0.00099   0.00000   0.00096   0.00096   1.94676
   A10        1.91599   0.00000   0.00000  -0.00194  -0.00194   1.91405
   A11        1.82748   0.00058   0.00000   0.00158   0.00158   1.82906
   A12        1.93861  -0.00014   0.00000   0.00125   0.00125   1.93986
   A13        1.84754   0.00324   0.00000  -0.00317  -0.00317   1.84437
   A14        1.74417   0.00926   0.00000   0.00170   0.00170   1.74587
   A15        2.14180   0.00746   0.00000   0.03065   0.03065   2.17245
   A16        1.99956  -0.00085   0.00000  -0.00018  -0.00018   1.99938
   A17        2.14183  -0.00661   0.00000  -0.03047  -0.03047   2.11136
   A18        2.14180  -0.00168   0.00000  -0.01412  -0.01412   2.12768
   A19        2.14183  -0.00313   0.00000  -0.01313  -0.01313   2.12870
   A20        1.99956   0.00481   0.00000   0.02725   0.02725   2.02680
   A21        1.91063   0.00319   0.00000   0.01595   0.01582   1.92646
   A22        1.91063   0.00051   0.00000   0.00022   0.00022   1.91086
   A23        1.91063   0.00363   0.00000   0.01729   0.01718   1.92781
   A24        1.91063  -0.00185   0.00000  -0.00866  -0.00867   1.90196
   A25        1.91063  -0.00279   0.00000  -0.00814  -0.00837   1.90226
   A26        1.91063  -0.00269   0.00000  -0.01666  -0.01665   1.89399
   A27        3.18638  -0.00272   0.00000  -0.02281  -0.02275   3.16363
   A28        2.95352   0.00697   0.00000   0.05943   0.05964   3.01316
    D1        0.63916   0.00318   0.00000  -0.04204  -0.04144   0.59772
    D2        2.79450  -0.00245   0.00000  -0.06750  -0.06860   2.72590
    D3       -1.38478   0.00047   0.00000  -0.06077  -0.06026  -1.44505
    D4        2.09438  -0.00598   0.00000  -0.24474  -0.24489   1.84949
    D5       -1.04719  -0.00641   0.00000  -0.24463  -0.24477  -1.29196
    D6       -0.13832   0.00392   0.00000  -0.13951  -0.14012  -0.27844
    D7        3.00329   0.00349   0.00000  -0.13939  -0.14000   2.86329
    D8       -2.09441   0.00245   0.00000  -0.11752  -0.11677  -2.21118
    D9        1.04720   0.00202   0.00000  -0.11740  -0.11665   0.93055
   D10       -0.77438   0.00291   0.00000   0.06035   0.06166  -0.71272
   D11        1.32002   0.00291   0.00000   0.05965   0.06090   1.38092
   D12       -2.86877   0.00215   0.00000   0.04996   0.05115  -2.81763
   D13        1.34793  -0.00152   0.00000  -0.01096  -0.01102   1.33691
   D14       -2.84086  -0.00152   0.00000  -0.01166  -0.01178  -2.85264
   D15       -0.74647  -0.00228   0.00000  -0.02134  -0.02153  -0.76800
   D16       -2.90665  -0.00220   0.00000  -0.04656  -0.04763  -2.95427
   D17       -0.81225  -0.00220   0.00000  -0.04726  -0.04838  -0.86063
   D18        1.28214  -0.00295   0.00000  -0.05694  -0.05814   1.22401
   D19        1.11675  -0.00019   0.00000   0.00016   0.00016   1.11691
   D20       -3.09357  -0.00017   0.00000   0.00099   0.00099  -3.09258
   D21       -1.02661   0.00010   0.00000   0.00024   0.00024  -1.02637
   D22       -2.02355   0.00470   0.00000  -0.04269  -0.04269  -2.06623
   D23       -3.14157  -0.00073   0.00000   0.00550   0.00550  -3.13607
   D24        0.00003  -0.00073   0.00000   0.00743   0.00743   0.00746
   D25       -0.00000  -0.00027   0.00000   0.00538   0.00538   0.00538
   D26       -3.14159  -0.00026   0.00000   0.00731   0.00731  -3.13428
         Item               Value     Threshold  Converged?
 Maximum Force            0.045702     0.000450     NO 
 RMS     Force            0.009279     0.000300     NO 
 Maximum Displacement     0.526907     0.001800     NO 
 RMS     Displacement     0.128401     0.001200     NO 
 Predicted change in Energy=-9.342329D-03
 GradGradGradGradGradGradGradGradGradGradGradGradGradGradGradGradGradGrad

                          Input orientation:                          
 ---------------------------------------------------------------------
 Center     Atomic      Atomic             Coordinates (Angstroms)
 Number     Number       Type             X           Y           Z
 ---------------------------------------------------------------------
      1          6           0       -0.597157    0.476642   -0.485299
      2          1           0       -0.630519    0.407627   -1.571535
      3          6           0        0.745342   -3.026385   -1.358371
      4          1           0       -0.241565   -2.884951   -1.802051
      5          1           0        1.474410   -3.240371   -2.138521
      6          1           0        0.714505   -3.852810   -0.648474
      7          8           0        1.211968   -1.843093   -0.743125
      8          8           0        0.286253   -1.576211    0.349582
      9          1           0       -0.100267   -0.624148    0.038880
     10          6           0       -1.958247    0.672294    0.127813
     11          6           0       -2.632046   -0.269241    0.778176
     12          1           0       -2.374224    1.675226    0.000003
     13          1           0       -3.617105   -0.083237    1.201119
     14          1           0       -2.230616   -1.270769    0.920641
     15          6           0        0.436329    1.501202   -0.045447
     16          1           0        1.324159    1.423729   -0.652952
     17          1           0        0.024579    2.496861   -0.149315
     18          1           0        0.703968    1.346991    0.989243
 ---------------------------------------------------------------------
                    Distance matrix (angstroms):
                    1          2          3          4          5
     1  C    0.000000
     2  H    1.088937   0.000000
     3  C    3.851721   3.705518   0.000000
     4  H    3.627753   3.323476   1.091256   0.000000
     5  H    4.565163   4.249716   1.089020   1.784406   0.000000
     6  H    4.526725   4.562067   1.089901   1.783692   1.781229
     7  O    2.953062   3.024361   1.412956   2.078352   1.992081
     8  O    2.385718   2.909773   2.287109   2.573114   3.220527
     9  H    1.316588   1.984733   2.904842   2.918942   3.750374
    10  C    1.505574   2.172716   4.816468   4.396063   5.677002
    11  C    2.508682   3.159969   4.855247   4.383368   5.847881
    12  H    2.197747   2.667780   5.803621   5.347042   6.599118
    13  H    3.503935   4.104663   5.851842   5.316287   6.858878
    14  H    2.774582   3.404154   4.139131   3.738310   5.192785
    15  C    1.520291   2.159401   4.724224   4.773210   5.285932
    16  H    2.148612   2.386844   4.542704   4.726166   4.897277
    17  H    2.140262   2.610893   5.699786   5.636157   6.242978
    18  H    2.150514   3.036585   4.963811   5.157004   5.605388
                    6          7          8          9         10
     6  H    0.000000
     7  O    2.072532   0.000000
     8  O    2.522383   1.456771   0.000000
     9  H    3.400083   1.954308   1.073479   0.000000
    10  C    5.312513   4.139562   3.184767   2.267325   0.000000
    11  C    5.106535   4.423552   3.226195   2.661283   1.327955
    12  H    6.365529   5.078542   4.215708   3.234118   1.093272
    13  H    6.032704   5.495191   4.265008   3.743199   2.115331
    14  H    4.219336   3.866142   2.598852   2.394579   2.116189
    15  C    5.395041   3.503238   3.106291   2.193663   2.539902
    16  H    5.311644   3.269992   3.328959   2.588711   3.456652
    17  H    6.406518   4.538470   4.111848   3.129169   2.708771
    18  H    5.451620   3.665488   3.021385   2.331389   2.878311
                   11         12         13         14         15
    11  C    0.000000
    12  H    2.110208   0.000000
    13  H    1.088035   2.465690   0.000000
    14  H    1.088348   3.089836   1.846958   0.000000
    15  C    3.636997   2.816303   4.527108   3.966074   0.000000
    16  H    4.534957   3.763993   5.488590   4.730004   1.078567
[...]
 0.0384784,-0.0306027,0.0919266,-0.0757505,0.0076845,0.0755523,-0.09641
 32,-0.0149489,0.0381232,-0.1633287,-0.0278406,0.0523878,0.0419929,0.00
 32258,-1.1315349,0.8702744,0.0524357,0.0439441,-0.3455305,-0.0526083,0
 .6700021,-0.7492923,-0.4077236,1.0987076,-1.2510626,-0.0951619,-0.4494
 055,0.2761527,-0.0370596,-0.3391418,0.196264,-0.1897429,-0.5447508,0.6
 615477,0.0632566,0.9787738,-0.9811103,-0.0496913,-0.3572423,0.4776432,
 0.1000592,-0.4339174,0.4760246,0.097169,-0.0116797,-0.232863,0.1255539
 ,-0.0220821,0.116006,0.0509082,0.0718335,-0.1230173,-0.0474197,0.17263
 94,-0.3018392,0.1241316,0.0833385,0.0681272,0.0252239,0.0141774,-0.033
 1589,-0.0415072,-0.0146141,0.0673557,-0.0904584,-0.0035028,-0.1061721,
 -0.0306155,-0.0063818,-0.0033411,0.0490129,-0.0284029,0.1543376,-0.050
 855,0.108369,-0.0784079,-0.0069085,0.0352664,-0.0095553,0.0088981,-0.0
 16444,0.0636236,-0.0851474,-0.0667048,-0.0742879,-0.0332358,-0.0902906
 ,0.1398173,0.0292885,0.0549314,-0.133465,0.0112478,0.0195218,0.1283731
 ,0.0537275,-0.028829,-0.0095601,0.0679618,0.0523172,0.0477255,-0.05496
 7,0.0425985,-0.0376989,0.018532,0.0809022,-0.0445796,-0.0248532,0.0172
 549,-0.1326902,0.0853471,-0.0250591,0.0706448,0.0333891,0.0364354,-0.0
 371311,-0.0238243,-0.0242122,0.0455191,-0.0171096,-0.06389,-0.0699823,
 -0.0874363\Polar=120.7524972,-31.9506908,95.4311281,-13.7896392,8.0245
 801,65.70602\PG=C01 [X(C5H11O2)]\NImag=1\\0.45232469,0.12585814,0.2666
 5258,-0.01565644,0.11120580,0.54469225,-0.09142890,-0.04450467,-0.0906
 6144,0.09764134,-0.03964943,-0.05648175,-0.06869205,0.04281806,0.06686
 351,-0.08462751,-0.08089316,-0.24840248,0.09384116,0.08411743,0.265451
 63,0.00136160,-0.00026827,0.00118544,-0.00022241,-0.00028854,-0.000273
 16,0.62053676,0.00332557,-0.00697356,0.00107631,-0.00037473,0.00110225
 ,-0.00037054,0.00317448,0.54077769,0.00786131,-0.01023710,0.00518472,-
 0.00099955,0.00093032,-0.00100875,-0.02175465,-0.07018555,0.48067621,-
 0.00093814,0.00159403,-0.00076877,0.00003226,0.00024225,0.00017597,-0.
 16452217,0.07772417,-0.10082889,0.17251535,-0.00023986,0.00084465,0.00
 029621,0.00029936,-0.00052241,-0.00009191,0.08103087,-0.10710315,0.074
 19753,-0.08243022,0.10914307,-0.00160214,0.00260227,-0.00075745,0.0004
 6050,-0.00056690,0.00039122,-0.09604285,0.07251686,-0.13661700,0.11650
 548,-0.07115879,0.15924921,0.00014923,-0.00038423,0.00007687,0.0000787
 9,-0.00004895,0.00005160,-0.27416870,0.01047640,0.10429398,-0.01616730
 ,-0.00058994,0.00906199,0.29033364,-0.00021414,0.00043591,-0.00008779,
 -0.00002638,-0.00004293,0.00000264,0.00397107,-0.05185747,-0.00174294,
 0.01314311,-0.00008779,-0.00609186,-0.01177917,0.05078163,-0.00070597,
 0.00082758,-0.00023057,0.00014688,-0.00020578,0.00012253,0.09414185,-0
 .00448201,-0.09473751,-0.01739107,0.00070740,0.01086881,-0.11415644,0.
 01104093,0.10907483,-0.00081589,0.00082230,-0.00056632,0.00009500,0.00
 000343,0.00007347,-0.07815646,-0.07470071,0.02350164,0.00744913,0.0205
 9913,-0.00695858,-0.00667522,-0.02597824,0.00752941,0.07709973,-0.0010
 3953,0.00157505,-0.00045362,0.00007018,-0.00026221,0.00006873,-0.07206
 398,-0.26425715,0.07302586,-0.00501195,-0.01141454,0.00573539,0.001460
 06,0.00470390,-0.00006775,0.08502953,0.29149144,-0.00044523,0.00062781
 ,-0.00041180,0.00014147,-0.00004798,0.00008696,0.02827752,0.08003212,-
 0.07302905,0.00680345,0.01705843,-0.00355261,0.00221528,0.01203935,-0.
 00258048,-0.02310522,-0.07034912,0.07949593,0.02042926,-0.03709250,0.0
 0920134,-0.00215239,0.00504025,-0.00185623,-0.08882061,-0.02688917,-0.
 02697254,-0.00171872,-0.01574752,-0.01853244,0.00258695,0.01968911,0.0
 2885728,-0.00107879,-0.00729494,-0.00976463,0.29609411,0.00064409,0.00
 000771,0.00159779,0.00025104,-0.00035515,0.00028584,-0.04371927,-0.118
 85747,-0.06344656,-0.00216989,0.00897600,-0.00162007,0.00018039,-0.001
 93693,-0.00228151,-0.00709424,-0.02333245,-0.04016500,0.03599749,0.173
 29077,-0.01715238,0.02781326,-0.00855564,0.00147145,-0.00333427,0.0014
 8360,-0.05429482,-0.07192584,-0.14346833,-0.00623918,-0.02369354,-0.03
 532848,-0.00028682,-0.01056808,-0.01636830,-0.00023222,-0.01191104,-0.
 00424661,-0.03999164,0.12937350,0.28203427,-0.05588737,0.10150659,-0.0
 2928961,0.00369752,-0.00901089,0.00342736,-0.01599561,0.01442358,0.027
 68697,0.00156836,-0.00364199,-0.00587105,0.00413686,0.00094832,0.00105
 263,0.00128219,-0.00314167,-0.00516718,-0.16716362,0.00109007,0.087308
 51,0.15902644,0.05674479,-0.09751688,0.02796154,-0.00198804,0.00626431
 ,-0.00135745,0.02777895,-0.00125804,-0.01975548,-0.00080586,0.00130556
 ,0.00302851,0.00021943,-0.00174417,-0.00473217,0.00276439,0.00417000,0
 .00183943,-0.03732488,-0.04248974,0.01432373,0.01878065,0.07004501,-0.
 01415955,0.02207599,-0.00344116,0.00031693,0.00052482,0.00039094,0.045
 97823,-0.00239775,-0.03291195,0.00160454,0.00182287,0.00455235,-0.0009
 4387,-0.00460112,-0.00580045,-0.00057430,0.00306786,0.00402969,0.07197
 000,-0.01158724,-0.09292751,-0.11659242,-0.01778419,0.15390050,0.01360
 422,-0.05667395,0.00971639,-0.00579638,0.01217798,-0.00566058,0.000432
 28,-0.00487520,-0.00862017,0.00136141,0.00064786,0.00220893,-0.0001139
 5,0.00004939,0.00012647,0.00047389,0.00134809,0.00081207,-0.04813462,0
 .01261479,0.02221266,0.04762329,-0.05032506,0.00979115,0.01913180,-0.0
 5797668,0.06888343,-0.01441133,0.00246027,-0.00866998,0.00180028,-0.00
 035904,0.00667502,0.01347926,-0.00144074,-0.00085614,-0.00362899,0.000
 24122,0.00004276,-0.00039052,-0.00101352,-0.00228213,-0.00090558,0.050
 19737,0.00491061,-0.04031660,-0.09510731,0.04169729,0.01024299,0.06845
 093,-0.05406760,0.02620051,-0.04064352,-0.02391324,-0.00890116,0.01637
 769,-0.00886093,0.00333038,-0.00443718,-0.00351423,0.00012462,0.000817
 47,0.00103003,-0.00039213,0.00000924,-0.00051082,0.00022376,0.00092330
 ,0.00018147,-0.01269872,-0.01133435,0.01659585,0.03972505,-0.00889174,
 -0.02503205,-0.04049308,0.03587223,0.03764802,-0.12362345,-0.02192415,
 0.07426739,0.00894531,0.00021994,-0.01245204,-0.00080391,-0.00247417,-
 0.00489469,0.00059453,0.00034607,0.00114042,-0.00011321,0.00017225,0.0
 0048265,0.00046116,0.00072471,0.00029265,-0.01393674,0.00194760,0.0097
 0504,0.02759756,-0.02349288,0.00489361,-0.03356442,0.04691203,-0.01449
 441,0.76769892,0.01722642,-0.07391543,-0.05170203,0.00772961,-0.002830
 77,-0.00668426,0.00013419,0.00048247,0.00110520,-0.00028147,0.00000485
 ,-0.00014479,0.00009707,-0.00009251,-0.00005803,-0.00009872,-0.0001232
 7,-0.00007812,0.00347059,-0.00017492,-0.00239605,-0.00695678,0.0066128
 1,-0.00138826,0.01821483,-0.01779325,-0.00422148,0.13292404,0.26632861
 ,0.06330690,-0.02929646,-0.16990311,0.02109155,-0.01159486,-0.01834075
 ,0.00000348,-0.00030530,-0.00059832,0.00006759,-0.00000786,0.00008725,
 -0.00000443,0.00003114,0.00008106,0.00004367,0.00004192,0.00009364,-0.
 00045679,-0.00010658,0.00024930,-0.00448461,0.00749028,-0.00359472,0.0
 0498725,-0.01151434,0.00999799,0.02961587,0.19331215,0.51727471,-0.050
 65649,0.01334002,0.01252200,0.00135510,-0.00178308,-0.00032527,0.00036
 708,0.00072128,0.00151263,-0.00022340,-0.00010181,-0.00036666,0.000044
 31,-0.00007304,-0.00017116,-0.00015189,-0.00022723,-0.00008151,0.00461
 955,-0.00096051,-0.00302424,-0.00843014,0.00831231,-0.00268107,0.00718
 512,-0.01536899,0.00925296,-0.49258079,-0.10381877,-0.04562980,0.80914
 846,0.00211821,0.01557320,0.00178267,0.00119028,-0.00142167,0.00057846
 ,0.00012371,0.00070132,0.00111454,-0.00014811,-0.00009510,-0.00023558,
 0.00004690,-0.00006469,-0.00012805,-0.00010259,-0.00017412,-0.00006233
 ,0.00315631,-0.00049978,-0.00218734,-0.00561666,0.00445333,-0.00072177
 ,0.00415785,-0.00697924,0.00355999,-0.09153515,-0.08751576,-0.03552179
 ,0.10971500,0.23151437,0.02516998,0.00707178,0.00431343,0.00074156,0.0
 0111721,0.00135634,0.00001170,0.00067479,0.00094208,-0.00008411,-0.000
 02172,-0.00020997,0.00001923,-0.00004197,-0.00009096,-0.00004942,-0.00
 017817,-0.00005133,0.00254266,-0.00025928,-0.00182235,-0.00335858,0.00
 091294,0.00097625,0.00285179,-0.00261267,0.00044247,-0.02747493,-0.033
 09722,-0.10494844,-0.03152020,0.21243642,0.54745366,0.00805574,0.00872
 001,0.01916291,-0.00261530,0.00086997,0.00320258,0.00004295,-0.0000317
 5,0.00005830,0.00000759,-0.00002488,-0.00003444,-0.00001498,0.00000809
 ,-0.00001752,-0.00001407,0.00000789,-0.00001407,-0.00020337,0.00001565
 ,0.00008526,0.00023142,-0.00021866,-0.00005352,0.00024819,0.00018983,-
 0.00054084,-0.08676267,-0.04200497,-0.07185870,-0.00899933,-0.01655208
 ,-0.02798529,0.09239244,-0.00347303,-0.00129606,-0.00842709,0.00068723
 ,0.00209850,-0.00132269,-0.00004096,0.00007157,0.00005593,-0.00003038,
 0.00003423,-0.00000065,0.00000405,0.00000933,0.00001740,0.00000163,-0.
 00001036,-0.00000094,0.00036506,-0.00000387,-0.00010104,-0.00022926,-0
 .00031190,0.00033081,-0.00064637,0.00075630,0.00003669,-0.04434259,-0.
 10398033,-0.10707311,-0.00173634,0.00211586,-0.00769645,0.04967174,0.0
 9693613,-0.00882251,-0.00915471,-0.01636180,0.00343810,-0.00228119,-0.
 00126858,-0.00010961,0.00015817,0.00004020,-0.00000653,-0.00002972,0.0
 0001915,0.00003233,-0.00001857,0.00000465,0.00000301,-0.00003783,0.000
 00289,0.00072794,-0.00000894,-0.00041774,-0.00095470,0.00056533,0.0002
 7144,0.00062537,-0.00132125,0.00009719,-0.07356886,-0.10962746,-0.2386
 3774,0.00124078,-0.00206166,0.00119752,0.07802544,0.12354145,0.2506706
 0,-0.00311218,-0.00454385,-0.00151572,0.00014279,0.00006115,0.00014242
 ,0.00001816,-0.00006053,-0.00003496,-0.00000843,-0.00000870,-0.0000017
 6,-0.00000055,0.,0.00000332,-0.00000147,0.00001988,-0.00000155,-0.0000
 7323,0.00003386,0.00004853,0.00007043,0.00005925,-0.00006539,0.0001171
 6,-0.00005991,-0.00005486,-0.01620964,0.00927298,0.02517245,-0.1708785
 2,0.04102947,0.13248527,0.00098602,0.00117302,-0.00074882,0.18079294,-
 0.00224689,0.00867918,-0.00313935,-0.00017755,-0.00035319,-0.00000051,
 -0.00005689,-0.00024490,-0.00044928,0.00006705,0.00001693,0.00009089,-
 0.00001816,0.00002804,0.00005024,0.00003493,0.00005718,0.00002936,-0.0
 0113432,0.00010246,0.00085266,0.00148699,-0.00067446,-0.00027081,-0.00
 173453,0.00164667,0.00000244,-0.00641501,0.00594441,0.00411622,0.04305
 353,-0.05687182,-0.06268772,0.00136498,-0.00541426,0.00327475,-0.04434
 256,0.04765752,-0.00042665,-0.00356430,0.00197077,-0.00013852,0.000270
 98,0.00059033,-0.00000919,0.00014557,0.00019120,-0.00003224,-0.0000231
 4,-0.00003220,0.00001831,-0.00001417,-0.00001916,-0.00001948,-0.000031
 18,-0.00001543,0.00062965,-0.00005346,-0.00042882,-0.00086546,0.000499
 91,0.00009872,0.00101745,-0.00114045,0.00016884,-0.00477747,-0.0002882
 3,0.00559189,0.13747241,-0.06242720,-0.20935346,-0.00028985,0.00336952
 ,-0.00043751,-0.14715185,0.06763603,0.21277393,0.00162483,0.00077334,-
 0.00223101,-0.00006271,0.00015720,0.00095379,-0.00005252,-0.00002439,-
 0.00011306,0.00000758,-0.00001387,0.00003618,0.00001112,0.00000303,0.0
 0001579,0.00000246,0.00001234,0.00000480,-0.00011602,0.00003880,0.0001
 4818,0.00024428,-0.00001561,-0.00001605,-0.00032013,0.00010574,-0.0000
 8621,-0.00822427,-0.01603329,-0.02736296,-0.09347291,-0.04902403,-0.07
 714738,-0.00474197,-0.00244437,0.00083303,0.00926656,0.00882248,0.0152
 1635,0.09554369,0.00186425,-0.00523644,0.00193268,-0.00020223,0.000543
 23,0.00071258,0.00002520,0.00015483,0.00025010,-0.00003366,-0.00000063
 ,-0.00005951,0.00000213,-0.00001251,-0.00002364,-0.00000974,-0.0000433
 3,-0.00001293,0.00069483,-0.00007489,-0.00050998,-0.00094414,0.0003269
 2,0.00024362,0.00107297,-0.00104210,0.00022076,-0.00312615,0.00156601,
 -0.00713845,-0.05025607,-0.10074270,-0.11391889,-0.00261420,0.00889131
 ,-0.00380270,-0.00342816,0.00003299,-0.00447643,0.05752299,0.09546342,
 0.00115744,0.00301490,0.00027022,-0.00078993,-0.00001526,0.00026204,-0
 .00002224,-0.00013297,-0.00018800,0.00001889,-0.00000497,0.00004157,-0
 .00000142,0.00001161,0.00001853,0.00000283,0.00004179,0.00000600,-0.00
 048633,0.00008689,0.00037879,0.00075870,-0.00035951,-0.00007193,-0.000
 77681,0.00082598,-0.00031581,0.00029940,-0.00240428,0.00027735,-0.0813
 4642,-0.11452337,-0.23791412,0.00067812,-0.00389431,0.00336327,-0.0092
 7441,-0.00908107,-0.01180299,0.08933584,0.12634428,0.24567137,-0.14483
 178,-0.06957985,0.01042438,-0.00777773,-0.00803189,0.00277860,-0.00036
 386,-0.00077423,-0.00194011,0.00040792,0.00023557,0.00039277,-0.000156
 49,0.00018155,0.00019968,0.00020408,0.00021184,0.00022924,-0.00430541,
 -0.00027359,0.00415269,0.00750127,-0.00149423,-0.00200257,-0.00277245,
 0.00737728,-0.00312349,-0.02915249,-0.01568278,0.01016208,0.00338419,0
 .00042752,0.00252634,0.00156107,0.00069603,-0.00180441,-0.00072501,0.0
 0114918,-0.00056684,0.00003500,-0.00041032,0.00024653,0.51000225,-0.07
 775551,-0.10602587,-0.00307704,-0.00524177,-0.00558312,0.00315077,0.00
 052151,0.00078539,0.00180086,-0.00032966,-0.00021613,-0.00043567,0.000
 08429,-0.00013751,-0.00026393,-0.00025578,-0.00015942,-0.00007478,0.00
 494181,0.00093236,-0.00427927,-0.01229569,0.00783805,-0.00052166,-0.00
 167377,-0.03234760,0.01149709,0.00968528,0.00819985,-0.00043917,0.0012
 3242,-0.00032208,-0.00286460,0.00077772,-0.00014514,0.00005133,0.00118
 938,-0.00076083,0.00015592,-0.00005151,0.00024143,0.00004914,-0.041377
 97,0.51458997,0.01497451,-0.00572944,-0.08334879,-0.02165094,-0.018170
 43,0.00618835,-0.00037351,-0.00070364,-0.00132737,0.00004587,0.0001087
 2,0.00027629,0.00001545,0.00001708,0.00020002,0.00016959,0.00018523,0.
 00002819,-0.00260554,0.00029717,0.00234101,0.00630417,-0.00372062,-0.0
 0004502,-0.00027357,0.01493400,-0.00494300,0.01621339,0.01718473,-0.00
 022842,0.00192168,-0.00187424,-0.00269629,0.00051816,0.00083708,0.0008
 5244,0.00096023,-0.00049422,0.00077460,0.00022528,0.00031593,0.0000920
 6,0.00254284,0.01859422,0.57072042,-0.01795981,0.01075517,0.01513282,0
 .00059101,-0.00008322,-0.00053278,0.00025751,-0.00002229,0.00051306,-0
 .00017478,-0.00017452,-0.00019446,-0.00000132,0.00000140,-0.00002410,-
 0.00009151,-0.00002174,-0.00012492,0.00097138,0.00070000,-0.00125811,-
 0.00111740,-0.00041505,0.00095348,-0.00015415,0.00060409,-0.00004351,-
 0.00317912,-0.00386781,-0.00151231,-0.00034325,0.00033265,0.00124431,0
 .00010397,0.00005323,-0.00000103,-0.00044840,0.00030385,-0.00020518,0.
 00003956,-0.00019013,0.00004233,-0.18698280,0.08709656,0.10036910,0.20
 507153,-0.01580912,0.01000814,0.01406797,0.00083917,0.00050672,-0.0004
 7006,0.00010278,-0.00059277,-0.00042327,-0.00007782,-0.00005665,-0.000
 05963,-0.00001279,-0.00000398,0.00001127,0.00000884,0.00013021,0.00004
 623,0.00047709,-0.00021817,-0.00022820,-0.00013840,0.00015513,0.000273
 60,-0.00076121,0.00091028,0.00025433,-0.00340598,-0.00310896,0.0000014
 4,-0.00062052,0.00037865,0.00089270,0.00006455,-0.00004360,0.00014348,
 -0.00038751,0.00026731,-0.00014836,0.00003489,-0.00016157,0.00002967,0
 .08822325,-0.10150836,-0.06599033,-0.09297216,0.10993436,0.00296815,-0
 .00057740,-0.00306118,0.00004917,0.00064089,0.00022554,0.00001797,0.00
 010829,0.00047554,-0.00007153,0.00000514,-0.00005983,0.00001057,0.0000
 0678,-0.00000596,-0.00006044,-0.00005703,-0.00012049,-0.00093931,-0.00
 065532,0.00064698,0.00102963,-0.00030142,-0.00071523,0.00016326,0.0002
 5939,-0.00024815,0.00028810,0.00034355,0.00122135,0.00079769,0.0002514
 5,0.00000371,-0.00027616,0.00008964,0.00050567,0.00007615,0.00002991,0
 .00000138,0.00006294,-0.00002718,0.00003210,0.09893892,-0.06415866,-0.
 12026700,-0.11234762,0.06968530,0.12712047,0.00239079,-0.02111293,0.01
 380347,0.00085778,0.00088730,-0.00032319,0.00013526,0.00034463,0.00067
 445,-0.00011796,-0.00010463,-0.00017783,0.00004226,-0.00007462,-0.0001
 0545,-0.00006411,-0.00007027,-0.00002623,0.00268822,0.00074387,-0.0023
 3680,-0.00421360,0.00136183,0.00125531,0.00056572,-0.00549380,0.002125
 65,0.00187791,-0.00040103,-0.00132998,-0.00061878,0.00051808,-0.000300
 74,0.00001149,-0.00008730,0.00016404,0.00003860,-0.00018991,0.00003913
 ,0.00000644,-0.00001479,-0.00000205,-0.06297570,0.05775885,-0.03399385
 ,-0.00652297,0.01899237,-0.01259146,0.06987310,-0.00039074,-0.01683630
 ,0.01000996,-0.00009375,0.00068276,-0.00045837,0.00005543,0.00037233,0
 .00056623,-0.00006740,-0.00002460,-0.00007038,0.00002134,-0.00003594,-
 0.00006154,-0.00005267,-0.00008680,-0.00004124,0.00115047,-0.00018193,
 -0.00091272,-0.00142397,0.00096651,0.00010928,-0.00150755,-0.00232401,
 0.00098315,0.00232589,-0.00002751,-0.00181522,-0.00145392,0.00006708,0
 .00014136,-0.00004121,-0.00014048,0.00015184,-0.00001708,-0.00016041,0
 .00003689,-0.00001293,0.00006132,-0.00001831,0.06265312,-0.22212485,0.
 10400302,0.00396390,-0.01222765,0.00737273,-0.06286323,0.24418040,0.00
 092750,0.00368119,-0.00234557,0.00030305,0.00002010,0.00030004,-0.0000
 0358,0.00006884,-0.00007604,0.00001369,-0.00001323,0.00001564,-0.00000
 884,0.00000735,-0.00001034,0.00000091,0.00001378,0.00003715,-0.0000809
 4,0.00000710,0.00004482,-0.00028062,0.00022113,-0.00000604,0.00118595,
 -0.00069625,0.00089323,-0.00051364,0.00000813,0.00051385,0.00045529,-0
 .00017167,0.00002532,-0.00006580,0.00016567,-0.00018426,0.00004066,0.0
 0000933,-0.00001616,-0.00000945,0.00003314,-0.00002524,-0.03636102,0.1
 0237067,-0.10683612,0.00441898,-0.01510269,0.00869051,0.03776974,-0.11
 562079,0.11257581,-0.01068637,-0.00728521,-0.02480370,-0.00338108,-0.0
 0358154,0.00140381,-0.00004536,0.00003705,0.00005627,-0.00007324,-0.00
 008089,-0.00002405,0.00002856,-0.00002174,0.00001574,-0.00001823,-0.00
 001321,-0.00004594,0.00031403,-0.00004013,-0.00031610,-0.00017187,0.00
 005867,0.00032548,0.00011301,0.00028122,-0.00015454,0.00097531,0.00007
 588,-0.00181128,0.00025168,0.00016264,0.00032781,-0.00028918,0.0003786
 0,0.00092642,0.00002479,0.00003286,0.00008944,0.00020902,0.00004721,0.
 00015952,-0.08305204,-0.02430617,-0.08536288,0.00994055,0.00544257,0.0
 2188400,-0.00397446,-0.00224569,-0.00779189,0.08983488,-0.00898654,-0.
 00837755,-0.01994061,-0.00373606,-0.00153810,0.00093221,-0.00012126,0.
 00002164,-0.00028564,0.00005654,0.00005184,0.00009888,-0.00000002,0.00
 001486,0.00004011,0.00004205,0.00001801,0.00006529,0.00030297,-0.00009
 460,0.00000083,0.00027055,0.00016025,0.00058096,-0.00053704,0.00083968
 ,-0.00102612,0.00145825,0.00042374,-0.00018002,0.00002569,-0.00011686,
 0.00013148,-0.00020269,0.00043276,0.00045768,0.00000930,0.00004719,0.0
 0005211,0.00014918,0.00003270,0.00002979,-0.02353047,-0.06325614,-0.05
 979427,-0.00606392,-0.00436910,-0.01301604,0.00980558,0.00784007,0.024
 99820,0.03105789,0.06786962,0.00103207,0.00117550,0.00430139,0.0011397
 0,0.00090929,0.00103195,-0.00006294,0.00015982,-0.00003340,0.00006221,
 0.00003109,0.00002601,-0.00000165,0.00000040,-0.00001590,0.00001767,-0
 .00001813,0.00004589,0.00045624,-0.00012998,-0.00021084,-0.00042880,0.
 00005979,0.00032616,0.00012547,-0.00047616,0.00028314,0.00097751,0.000
 13645,0.00086310,-0.00002912,0.00019147,0.00037614,-0.00059456,0.00007
 209,0.00028261,-0.00007972,0.00003114,-0.00005594,0.00013394,-0.000083
 39,-0.00009520,-0.08679561,-0.06155522,-0.26178137,-0.00643006,-0.0029
 8345,-0.01444543,-0.00464422,-0.00437587,-0.01359659,0.09512189,0.0668
 5516,0.28269826\\-0.00000170,0.00000067,-0.00000502,0.00000157,-0.0000
 0320,-0.00000085,0.00000053,-0.00000009,-0.00000051,0.00000002,0.00000
 002,0.00000011,-0.00000004,0.00000022,-0.00000025,0.00000016,0.0000001
 2,0.00000019,0.00000037,-0.00000179,-0.00000009,-0.00000059,0.00000371
 ,0.00000097,-0.00000144,0.00000097,-0.00000243,-0.00000073,-0.00000036
 ,0.00000581,-0.00000172,0.00000037,0.00000022,-0.00000079,-0.00000030,
 0.00000035,0.00000068,-0.00000071,0.00000010,0.00000028,0.00000045,0.0
 0000027,0.00000306,-0.00000026,0.00000089,0.00000035,-0.00000012,0.000
 00009,-0.00000028,-0.00000037,0.,0.00000028,0.00000066,0.00000015\\\@


 THE FIRST MORNING OF CREATION WROTE WHAT THE LAST DAWN OF
 RECKONING SHALL READ. -- OMAR KHAYYAM
 Job cpu time:       3 days  4 hours 35 minutes 22.8 seconds.
 Elapsed time:       0 days  1 hours 58 minutes 50.3 seconds.
 File lengths (MBytes):  RWF= 108510 Int=      0 D2E=      0 Chk=     21 Scr=      1
 Normal termination of Gaussian 16 at Wed Jun  5 12:30:09 2019.
