 Entering Gaussian System, Link 0=g16
 Initial command:
 /ichec/packages/gaussian/16b01/l1.exe "/localscratch/353443/Gau-47613.inp" -scrdir="/localscratch/353443/"
 Entering Link 1 = /ichec/packages/gaussian/16b01/l1.exe PID=     48128.
  
 Copyright (c) 1988-2017, Gaussian, Inc.  All Rights Reserved.
  
 This is part of the Gaussian(R) 16 program.  It is based on
 the Gaussian(R) 09 system (copyright 2009, Gaussian, Inc.),
 the Gaussian(R) 03 system (copyright 2003, Gaussian, Inc.),
 the Gaussian(R) 98 system (copyright 1998, Gaussian, Inc.),
 the Gaussian(R) 94 system (copyright 1995, Gaussian, Inc.),
 the Gaussian 92(TM) system (copyright 1992, Gaussian, Inc.),
 the Gaussian 90(TM) system (copyright 1990, Gaussian, Inc.),
 the Gaussian 88(TM) system (copyright 1988, Gaussian, Inc.),
 the Gaussian 86(TM) system (copyright 1986, Carnegie Mellon
 University), and the Gaussian 82(TM) system (copyright 1983,
 Carnegie Mellon University). Gaussian is a federally registered
 trademark of Gaussian, Inc.
  
 This software contains proprietary and confidential information,
 including trade secrets, belonging to Gaussian, Inc.
  
 This software is provided under written license and may be
 used, copied, transmitted, or stored only in accord with that
 written license.
  
 The following legend is applicable only to US Government
 contracts under FAR:
  
                    RESTRICTED RIGHTS LEGEND
  
 Use, reproduction and disclosure by the US Government is
 subject to restrictions as set forth in subparagraphs (a)
 and (c) of the Commercial Computer Software - Restricted
 Rights clause in FAR 52.227-19.
  
 Gaussian, Inc.
 340 Quinnipiac St., Bldg. 40, Wallingford CT 06492
  
  
 ---------------------------------------------------------------
 Warning -- This program may not be used in any manner that
 competes with the business of Gaussian, Inc. or will provide
 assistance to any competitor of Gaussian, Inc.  The licensee
 of this program is prohibited from giving any competitor of
 Gaussian, Inc. access to this program.  By using this program,
 the user acknowledges that Gaussian, Inc. is engaged in the
 business of creating and licensing software in the field of
 computational chemistry and represents and warrants to the
 licensee that it is not a competitor of Gaussian, Inc. and that
 it will not use this program in any manner prohibited above.
 ---------------------------------------------------------------
  

 Cite this work as:
 Gaussian 16, Revision B.01,
 M. J. Frisch, G. W. Trucks, H. B. Schlegel, G. E. Scuseria, 
 M. A. Robb, J. R. Cheeseman, G. Scalmani, V. Barone, 
 G. A. Petersson, H. Nakatsuji, X. Li, M. Caricato, A. V. Marenich, 
 J. Bloino, B. G. Janesko, R. Gomperts, B. Mennucci, H. P. Hratchian, 
 J. V. Ortiz, A. F. Izmaylov, J. L. Sonnenberg, D. Williams-Young, 
 F. Ding, F. Lipparini, F. Egidi, J. Goings, B. Peng, A. Petrone, 
 T. Henderson, D. Ranasinghe, V. G. Zakrzewski, J. Gao, N. Rega, 
 G. Zheng, W. Liang, M. Hada, M. Ehara, K. Toyota, R. Fukuda, 
 J. Hasegawa, M. Ishida, T. Nakajima, Y. Honda, O. Kitao, H. Nakai, 
 T. Vreven, K. Throssell, J. A. Montgomery, Jr., J. E. Peralta, 
 F. Ogliaro, M. J. Bearpark, J. J. Heyd, E. N. Brothers, K. N. Kudin, 
 V. N. Staroverov, T. A. Keith, R. Kobayashi, J. Normand, 
 K. Raghavachari, A. P. Rendell, J. C. Burant, S. S. Iyengar, 
 J. Tomasi, M. Cossi, J. M. Millam, M. Klene, C. Adamo, R. Cammi, 
 J. W. Ochterski, R. L. Martin, K. Morokuma, O. Farkas, 
 J. B. Foresman, and D. J. Fox, Gaussian, Inc., Wallingford CT, 2016.
 
 ******************************************
 Gaussian 16:  ES64L-G16RevB.01 20-Dec-2017
                24-Jun-2019 
 ******************************************
 %mem=80GB
 %nproc=40
 Will use up to   40 processors via shared memory.
 ----------------------------------------------------------------------
 # opt=(calcfc,ts,noeigentest,maxcyc=500) freq=noraman uB2PLYPD3/cc-pvt
 z
 ----------------------------------------------------------------------
 1/5=1,6=500,10=4,11=1,18=20,38=1/1,3;
 2/9=110,12=2,17=6,18=5,40=1/2;
 3/5=16,6=1,11=2,25=1,30=1,71=2,74=-60,116=2,140=1/1,2,3;
 4//1;
 5/5=2,38=5/2;
 8/6=3,8=1,10=1,19=11,30=-1/1;
 9/15=3,16=-3/6;
 11/6=1,8=1,15=11,17=12,24=-1,27=1,28=-2,29=300,32=6,42=3/1,2,10;
 10/6=2,21=1/2;
 8/6=4,8=1,10=1,19=11,30=-1/11,4;
 10/5=1,20=4/2;
 11/12=2,14=11,16=1,17=2,28=-2,42=3,76=2/2,10,12;
 6/7=2,8=2,9=2,10=2/1;
 7/10=1,12=2,25=1,44=2/1,2,3,16;
 1/5=1,6=500,10=4,11=1,18=20/3(2);
 2/9=110/2;
 99//99;
 2/9=110/2;
 3/5=16,6=1,11=2,25=1,30=1,71=1,74=-60,116=2/1,2,3;
 4/5=5,16=3,69=1/1;
 5/5=2,38=5/2;
 8/6=4,10=1/1;
 9/15=2,16=-3/6;
 10/5=1/2;
 7/12=2/1,2,3,16;
 1/5=1,6=500,11=1,18=20/3(-8);
 2/9=110/2;
 6/7=2,8=2,9=2,10=2/1;
 99/9=10/99;
 -------------------
 Title Card Required
 -------------------
 Symbolic Z-matrix:
 Charge =  0 Multiplicity = 2
 C                    -1.50464  -0.99323  -0.57772 
 H                    -1.42886  -1.29198  -1.62608 
 H                    -2.36974  -1.52665  -0.16719 
 C                    -0.26201  -1.4324    0.15254 
 H                    -0.17937  -1.10489   1.1849 
 H                     0.04391  -2.46265   0.00078 
 C                     1.9268    1.57782   0.60649 
 H                     0.89822   1.51846   0.96572 
 H                     2.58306   1.90005   1.41232 
 H                     1.98761   2.27428  -0.22843 
 O                     2.40693   0.29621   0.22658 
 O                     1.64763  -0.13863  -0.87825 
 H                     0.78935  -0.75912  -0.40561 
 C                    -1.74381   0.48445  -0.48828 
 C                    -2.78247   1.04658   0.12164 
 H                    -0.99149   1.11125  -0.9526 
 H                    -2.90091   2.11946   0.16126 
 H                    -3.54898   0.44816   0.59642 
 
 Add virtual bond connecting atoms H13        and O12        Dist= 2.19D+00.
 Add virtual bond connecting atoms H13        and C4         Dist= 2.58D+00.

 GradGradGradGradGradGradGradGradGradGradGradGradGradGradGradGradGradGrad
 Berny optimization.
 Initialization pass.
                           ----------------------------
                           !    Initial Parameters    !
                           ! (Angstroms and Degrees)  !
 --------------------------                            --------------------------
 ! Name  Definition              Value          Derivative Info.                !
 --------------------------------------------------------------------------------
 ! R1    R(1,2)                  1.0927         calculate D2E/DX2 analytically  !
 ! R2    R(1,3)                  1.0961         calculate D2E/DX2 analytically  !
 ! R3    R(1,4)                  1.5068         calculate D2E/DX2 analytically  !
 ! R4    R(1,14)                 1.4996         calculate D2E/DX2 analytically  !
 ! R5    R(4,5)                  1.0862         calculate D2E/DX2 analytically  !
 ! R6    R(4,6)                  1.0854         calculate D2E/DX2 analytically  !
 ! R7    R(4,13)                 1.3675         calculate D2E/DX2 analytically  !
 ! R8    R(7,8)                  1.0911         calculate D2E/DX2 analytically  !
 ! R9    R(7,9)                  1.0881         calculate D2E/DX2 analytically  !
 ! R10   R(7,10)                 1.089          calculate D2E/DX2 analytically  !
 ! R11   R(7,11)                 1.4203         calculate D2E/DX2 analytically  !
 ! R12   R(11,12)                1.4093         calculate D2E/DX2 analytically  !
 ! R13   R(12,13)                1.1598         calculate D2E/DX2 analytically  !
 ! R14   R(14,15)                1.3292         calculate D2E/DX2 analytically  !
 ! R15   R(14,16)                1.0837         calculate D2E/DX2 analytically  !
 ! R16   R(15,17)                1.0801         calculate D2E/DX2 analytically  !
 ! R17   R(15,18)                1.0821         calculate D2E/DX2 analytically  !
 ! A1    A(2,1,3)              106.3207         calculate D2E/DX2 analytically  !
 ! A2    A(2,1,4)              109.1532         calculate D2E/DX2 analytically  !
 ! A3    A(2,1,14)             109.7357         calculate D2E/DX2 analytically  !
 ! A4    A(3,1,4)              109.1193         calculate D2E/DX2 analytically  !
 ! A5    A(3,1,14)             109.3496         calculate D2E/DX2 analytically  !
 ! A6    A(4,1,14)             112.9446         calculate D2E/DX2 analytically  !
 ! A7    A(1,4,5)              115.8164         calculate D2E/DX2 analytically  !
 ! A8    A(1,4,6)              116.1896         calculate D2E/DX2 analytically  !
 ! A9    A(1,4,13)             107.0212         calculate D2E/DX2 analytically  !
 ! A10   A(5,4,6)              113.4318         calculate D2E/DX2 analytically  !
 ! A11   A(5,4,13)             100.4264         calculate D2E/DX2 analytically  !
 ! A12   A(6,4,13)             101.1611         calculate D2E/DX2 analytically  !
 ! A13   A(8,7,9)              109.9288         calculate D2E/DX2 analytically  !
 ! A14   A(8,7,10)             109.8678         calculate D2E/DX2 analytically  !
 ! A15   A(8,7,11)             110.955          calculate D2E/DX2 analytically  !
 ! A16   A(9,7,10)             110.1662         calculate D2E/DX2 analytically  !
 ! A17   A(9,7,11)             105.1556         calculate D2E/DX2 analytically  !
 ! A18   A(10,7,11)            110.6797         calculate D2E/DX2 analytically  !
 ! A19   A(7,11,12)            107.8162         calculate D2E/DX2 analytically  !
 ! A20   A(11,12,13)           104.1405         calculate D2E/DX2 analytically  !
 ! A21   A(1,14,15)            124.6609         calculate D2E/DX2 analytically  !
 ! A22   A(1,14,16)            115.7001         calculate D2E/DX2 analytically  !
 ! A23   A(15,14,16)           119.6339         calculate D2E/DX2 analytically  !
 ! A24   A(14,15,17)           121.505          calculate D2E/DX2 analytically  !
 ! A25   A(14,15,18)           121.3955         calculate D2E/DX2 analytically  !
 ! A26   A(17,15,18)           117.0989         calculate D2E/DX2 analytically  !
 ! A27   L(4,13,12,8,-1)       177.8826         calculate D2E/DX2 analytically  !
 ! A28   L(4,13,12,8,-2)       182.1267         calculate D2E/DX2 analytically  !
 ! D1    D(2,1,4,5)            174.2649         calculate D2E/DX2 analytically  !
 ! D2    D(2,1,4,6)            -48.8301         calculate D2E/DX2 analytically  !
 ! D3    D(2,1,4,13)            63.2662         calculate D2E/DX2 analytically  !
 ! D4    D(3,1,4,5)            -69.934          calculate D2E/DX2 analytically  !
 ! D5    D(3,1,4,6)             66.971          calculate D2E/DX2 analytically  !
 ! D6    D(3,1,4,13)           179.0673         calculate D2E/DX2 analytically  !
 ! D7    D(14,1,4,5)            51.9065         calculate D2E/DX2 analytically  !
 ! D8    D(14,1,4,6)          -171.1885         calculate D2E/DX2 analytically  !
 ! D9    D(14,1,4,13)          -59.0922         calculate D2E/DX2 analytically  !
 ! D10   D(2,1,14,15)          122.6769         calculate D2E/DX2 analytically  !
 ! D11   D(2,1,14,16)          -58.1545         calculate D2E/DX2 analytically  !
 ! D12   D(3,1,14,15)            6.4194         calculate D2E/DX2 analytically  !
 ! D13   D(3,1,14,16)         -174.412          calculate D2E/DX2 analytically  !
 ! D14   D(4,1,14,15)         -115.2913         calculate D2E/DX2 analytically  !
 ! D15   D(4,1,14,16)           63.8773         calculate D2E/DX2 analytically  !
 ! D16   D(1,4,12,11)          135.6759         calculate D2E/DX2 analytically  !
 ! D17   D(5,4,12,11)           14.8998         calculate D2E/DX2 analytically  !
 ! D18   D(6,4,12,11)         -102.0518         calculate D2E/DX2 analytically  !
 ! D19   D(8,7,11,12)           64.9819         calculate D2E/DX2 analytically  !
 ! D20   D(9,7,11,12)         -176.2102         calculate D2E/DX2 analytically  !
 ! D21   D(10,7,11,12)         -57.2629         calculate D2E/DX2 analytically  !
 ! D22   D(7,11,12,13)         -93.0328         calculate D2E/DX2 analytically  !
 ! D23   D(1,14,15,17)         179.5624         calculate D2E/DX2 analytically  !
 ! D24   D(1,14,15,18)          -0.724          calculate D2E/DX2 analytically  !
 ! D25   D(16,14,15,17)          0.4243         calculate D2E/DX2 analytically  !
 ! D26   D(16,14,15,18)       -179.8622         calculate D2E/DX2 analytically  !
 --------------------------------------------------------------------------------
 Trust Radius=3.00D-01 FncErr=1.00D-07 GrdErr=1.00D-07 EigMax=2.50D+02 EigMin=1.00D-04
 Number of steps in this run=    108 maximum allowed number of steps=    108.
 Search for a saddle point of order  1.
 GradGradGradGradGradGradGradGradGradGradGradGradGradGradGradGradGradGrad

                          Input orientation:                          
 ---------------------------------------------------------------------
 Center     Atomic      Atomic             Coordinates (Angstroms)
 Number     Number       Type             X           Y           Z
 ---------------------------------------------------------------------
      1          6           0       -1.504644   -0.993230   -0.577715
      2          1           0       -1.428856   -1.291978   -1.626082
      3          1           0       -2.369735   -1.526650   -0.167192
      4          6           0       -0.262006   -1.432400    0.152544
      5          1           0       -0.179370   -1.104892    1.184897
      6          1           0        0.043907   -2.462647    0.000778
      7          6           0        1.926804    1.577818    0.606486
      8          1           0        0.898224    1.518462    0.965715
      9          1           0        2.583063    1.900053    1.412320
     10          1           0        1.987609    2.274281   -0.228429
     11          8           0        2.406928    0.296210    0.226576
     12          8           0        1.647628   -0.138627   -0.878251
     13          1           0        0.789350   -0.759121   -0.405605
     14          6           0       -1.743811    0.484454   -0.488282
     15          6           0       -2.782473    1.046582    0.121644
     16          1           0       -0.991487    1.111253   -0.952595
     17          1           0       -2.900905    2.119457    0.161257
     18          1           0       -3.548975    0.448164    0.596422
 ---------------------------------------------------------------------
                    Distance matrix (angstroms):
                    1          2          3          4          5
     1  C    0.000000
     2  H    1.092734   0.000000
     3  H    1.096106   1.751766   0.000000
     4  C    1.506751   2.131846   2.133925   0.000000
     5  H    2.208081   3.081853   2.608395   1.086206   0.000000
     6  H    2.211753   2.487201   2.594219   1.085368   1.815348
     7  C    4.448309   4.947782   5.356916   3.749449   3.459402
     8  H    3.803229   4.475632   4.608225   3.273372   2.844510
     9  H    5.388940   5.959567   6.226344   4.559243   4.088087
    10  H    4.795254   5.132628   5.782497   4.352630   4.255831
    11  O    4.196419   4.546199   5.127805   3.180689   3.093607
    12  O    3.279861   3.369603   4.309457   2.526478   2.920303
    13  H    2.312323   2.587265   3.259718   1.367547   1.894115
    14  C    1.499583   2.132955   2.130591   2.506139   2.788014
    15  C    2.506548   3.218025   2.622080   3.535401   3.540550
    16  H    2.198343   2.533850   3.078142   2.867690   3.184290
    17  H    3.490622   4.123033   3.699205   4.424879   4.341776
    18  H    2.763242   3.530230   2.423552   3.812835   3.756664
                    6          7          8          9         10
     6  H    0.000000
     7  C    4.498615   0.000000
     8  H    4.184518   1.091121   0.000000
     9  H    5.241461   1.088062   1.784307   0.000000
    10  H    5.125329   1.088963   1.784377   1.785124   0.000000
    11  O    3.639525   1.420341   2.077598   2.002330   2.072588
    12  O    2.957310   2.286606   2.589935   3.205927   2.521900
    13  H    1.903374   2.789160   2.660781   3.686932   3.266304
    14  C    3.481454   3.983388   3.188045   4.933361   4.146625
    15  C    4.507518   4.763882   3.805609   5.584195   4.937963
    16  H    3.841057   3.341383   2.723369   4.358031   3.279034
    17  H    5.449160   4.878358   3.929597   5.629139   4.906465
    18  H    4.662233   5.591098   4.589062   6.354177   5.888026
                   11         12         13         14         15
    11  O    0.000000
    12  O    1.409348   0.000000
    13  H    2.032224   1.159762   0.000000
    14  C    4.216052   3.470182   2.823158   0.000000
    15  C    5.244421   4.693645   4.036889   1.329216   0.000000
    16  H    3.688355   2.921071   2.639863   1.083723   2.089450
    17  H    5.612627   5.183500   4.714396   2.105707   1.080119
    18  H    5.969310   5.433569   4.613313   2.106304   1.082148
                   16         17         18
    16  H    0.000000
    17  H    2.429613   0.000000
    18  H    3.062660   1.844609   0.000000
 Stoichiometry    C5H11O2(2)
 Framework group  C1[X(C5H11O2)]
 Deg. of freedom    48
 Full point group                 C1      NOp   1
 Largest Abelian subgroup         C1      NOp   1
 Largest concise Abelian subgroup C1      NOp   1
                         Standard orientation:                         
 ---------------------------------------------------------------------
 Center     Atomic      Atomic             Coordinates (Angstroms)
 Number     Number       Type             X           Y           Z
 ---------------------------------------------------------------------
      1          6           0       -1.686960   -0.980595   -0.135467
      2          1           0       -1.727132   -1.522509   -1.083509
      3          1           0       -2.580540   -1.276107    0.426347
      4          6           0       -0.460272   -1.409161    0.627335
      5          1           0       -0.260909   -0.865700    1.546436
      6          1           0       -0.300322   -2.479077    0.715202
      7          6           0        2.122185    1.283452    0.254356
      8          1           0        1.123630    1.455312    0.659198
      9          1           0        2.871607    1.688055    0.931514
     10          1           0        2.209881    1.750936   -0.725240
     11          8           0        2.405611   -0.106015    0.174228
     12          8           0        1.517939   -0.673909   -0.761612
     13          1           0        0.624548   -1.039730   -0.118903
     14          6           0       -1.728369    0.495943   -0.394057
     15          6           0       -2.639168    1.325543    0.104968
     16          1           0       -0.938360    0.884753   -1.025854
     17          1           0       -2.616480    2.383891   -0.109602
     18          1           0       -3.438810    0.968481    0.740676
 ---------------------------------------------------------------------
 Rotational constants (GHZ):           3.6297531           1.2351543           1.0148435
 Standard basis: CC-pVTZ (5D, 7F)
 There are   410 symmetry adapted cartesian basis functions of A   symmetry.
 There are   364 symmetry adapted basis functions of A   symmetry.
   364 basis functions,   551 primitive gaussians,   410 cartesian basis functions
    29 alpha electrons       28 beta electrons
       nuclear repulsion energy       302.8551045517 Hartrees.
 NAtoms=   18 NActive=   18 NUniq=   18 SFac= 1.00D+00 NAtFMM=   60 NAOKFM=F Big=F
 Integral buffers will be    131072 words long.
 Raffenetti 2 integral format.
 Two-electron integral symmetry is turned on.
 Nuclear repulsion after empirical dispersion term =      302.8455579618 Hartrees.
 One-electron integrals computed using PRISM.
 NBasis=   364 RedAO= T EigKep=  4.24D-04  NBF=   364
 NBsUse=   364 1.00D-06 EigRej= -1.00D+00 NBFU=   364
 ExpMin= 1.03D-01 ExpMax= 1.53D+04 ExpMxC= 5.22D+02 IAcc=3 IRadAn=         5 AccDes= 0.00D+00
 Harris functional with IExCor=  419 and IRadAn=       5 diagonalized for initial guess.
 HarFok:  IExCor=  419 AccDes= 0.00D+00 IRadAn=         5 IDoV= 1 UseB2=F ITyADJ=14
 ICtDFT=  3500011 ScaDFX=  1.000000  1.000000  1.000000  1.000000
 FoFCou: FMM=F IPFlag=           0 FMFlag=      100000 FMFlg1=           0
         NFxFlg=           0 DoJE=T BraDBF=F KetDBF=T FulRan=T
         wScrn=  0.000000 ICntrl=       500 IOpCl=  0 I1Cent=   200000004 NGrid=           0
         NMat0=    1 NMatS0=      1 NMatT0=    0 NMatD0=    1 NMtDS0=    0 NMtDT0=    0
 Petite list used in FoFCou.
 Initial guess <Sx>= 0.0000 <Sy>= 0.0000 <Sz>= 0.5000 <S**2>= 0.7500 S= 0.5000
 Requested convergence on RMS density matrix=1.00D-08 within 128 cycles.
 Requested convergence on MAX density matrix=1.00D-06.
 Requested convergence on             energy=1.00D-06.
 No special actions if energy rises.
 Integral accuracy reduced to 1.0D-05 until final iterations.
 Initial convergence to 1.0D-05 achieved.  Increase integral accuracy.
 SCF Done:  E(UB2PLYPD3) =  -346.804989298     A.U. after   21 cycles
            NFock= 21  Conv=0.83D-08     -V/T= 2.0044
 <Sx>= 0.0000 <Sy>= 0.0000 <Sz>= 0.5000 <S**2>= 0.7685 S= 0.5092
 <L.S>=  0.00000000000    
 Annihilation of the first spin contaminant:
 S**2 before annihilation     0.7685,   after     0.7502
 DoSCS=T DFT=T ScalE2(SS,OS)=  0.270000  0.270000
 ExpMin= 1.03D-01 ExpMax= 1.53D+04 ExpMxC= 5.22D+02 IAcc=3 IRadAn=         5 AccDes= 0.00D+00
 HarFok:  IExCor=  205 AccDes= 0.00D+00 IRadAn=         5 IDoV=-2 UseB2=F ITyADJ=14
 ICtDFT= 12500011 ScaDFX=  1.000000  1.000000  1.000000  1.000000
 Range of M.O.s used for correlation:     8   364
 NBasis=   364 NAE=    29 NBE=    28 NFC=     7 NFV=     0
 NROrb=    357 NOA=    22 NOB=    21 NVA=   335 NVB=   336

 **** Warning!!: The largest alpha MO coefficient is  0.11997479D+02


 **** Warning!!: The largest beta MO coefficient is  0.11996561D+02

 DoSCS=T DFT=T ScalE2(SS,OS)=  0.270000  0.270000
 Disk-based method using ON**2 memory for 22 occupieds at a time.
 Permanent disk used for amplitudes=   135386230 words.
 Estimated scratch disk usage=  2573609400 words.
 Actual    scratch disk usage=  2488534456 words.
 JobTyp=2 Pass  1:  I=   8 to  29 NPSUse= 40 ParTrn=T ParDer=T DoDerP=T.
 (rs|ai) integrals will be sorted in core.
 Actual    scratch disk usage=  2488534456 words.
 JobTyp=3 Pass  1:  I=   8 to  28 NPSUse= 40 ParTrn=T ParDer=T DoDerP=T.
 (rs|ai) integrals will be sorted in core.
 Spin components of T(2) and E(2):
     alpha-alpha T2 =       0.7530170625D-01 E2=     -0.5342143630D-01
     alpha-beta  T2 =       0.4622175658D+00 E2=     -0.3340252982D+00
     beta-beta   T2 =       0.7937011984D-01 E2=     -0.5175882419D-01
 (S**2,0)=  0.76845D+00           (S**2,1)=  0.74281D+00
 Scaling Projection term by:   0.270000
 E(PUHF)=      -0.34681115580D+03        E(PMP2)=      -0.34724470866D+03
 E2(B2PLYPD3) =    -0.4392055587D+00 E(B2PLYPD3) =    -0.34724419485670D+03
 G2DrvN: will do    19 centers at a time, making    1 passes.
 Calling FoFCou, ICntrl=  3107 FMM=F I1Cent=   0 AccDes= 0.00D+00.
 End of G2Drv F.D. properties file   721 does not exist.
 End of G2Drv F.D. properties file   722 does not exist.
 End of G2Drv F.D. properties file   788 does not exist.
          IDoAtm=111111111111111111
          Differentiating once with respect to electric field.
                with respect to dipole field.
          Differentiating once with respect to nuclear coordinates.
 Keep R1 and R2 ints in memory in canonical form, NReq=4459304645.
          There are    57 degrees of freedom in the 1st order CPHF.  IDoFFX=6 NUNeed=    57.
     54 vectors produced by pass  0 Test12= 3.35D-14 1.75D-09 XBig12= 8.92D+01 4.69D+00.
 AX will form    54 AO Fock derivatives at one time.
     54 vectors produced by pass  1 Test12= 3.35D-14 1.75D-09 XBig12= 7.03D+00 3.41D-01.
     54 vectors produced by pass  2 Test12= 3.35D-14 1.75D-09 XBig12= 3.34D-01 9.16D-02.
     54 vectors produced by pass  3 Test12= 3.35D-14 1.75D-09 XBig12= 5.21D-03 6.26D-03.
     54 vectors produced by pass  4 Test12= 3.35D-14 1.75D-09 XBig12= 4.54D-05 6.92D-04.
     54 vectors produced by pass  5 Test12= 3.35D-14 1.75D-09 XBig12= 5.58D-07 7.34D-05.
     54 vectors produced by pass  6 Test12= 3.35D-14 1.75D-09 XBig12= 5.01D-09 6.20D-06.
     22 vectors produced by pass  7 Test12= 3.35D-14 1.75D-09 XBig12= 2.88D-11 3.90D-07.
      3 vectors produced by pass  8 Test12= 3.35D-14 1.75D-09 XBig12= 1.93D-13 2.95D-08.
      2 vectors produced by pass  9 Test12= 3.35D-14 1.75D-09 XBig12= 1.78D-15 3.31D-09.
 InvSVY:  IOpt=1 It=  1 EMax= 7.11D-15
 Solved reduced A of dimension   405 with    57 vectors.
 End of Minotr F.D. properties file   721 does not exist.
 End of Minotr F.D. properties file   722 does not exist.
 End of Minotr F.D. properties file   788 does not exist.
 MDV= 10737418240.
 DoSCS=T DFT=T ScalE2(SS,OS)=  0.270000  0.270000
 Form MO integral derivatives with frozen-active canonical formalism.
 Discarding MO integrals.
 Reordered first order wavefunction length =    545006183
 In DefCFB: NBatch=  1 ICI= 29 ICA=336 LFMax= 68
            Large arrays: LIAPS= 11415666080 LIARS=  1957569600 words.
 In DefCFB: NBatch=  1 ICI= 29 ICA=336 LFMax= 68
            Large arrays: LIAPS= 11415666080 LIARS=  1957569600 words.
 Semi-Direct transformation.
 ModeAB=           4 MOrb=            29 LenV=   10733553763
 LASXX=    664627481 LTotXX=   664627481 LenRXX=  1338891981
 LTotAB=   674264500 MaxLAS=   793652860 LenRXY=           0
 NonZer=  2003519462 LenScr=  3017065472 LnRSAI=   793652860
 LnScr1=  1195148288 LExtra=           0 Total=   6344758601
 MaxDsk=          -1 SrtSym=           T ITran=            4
 JobTyp=1 Pass  1:  I=   1 to  29.
 (rs|ai) integrals will be sorted in core.
 ModeAB=           4 MOrb=            28 LenV=   10733553763
 LASXX=    642894399 LTotXX=   642894399 LenRXX=  1195226319
 LTotAB=   552331920 MaxLAS=   766285520 LenRXY=           0
 NonZer=  1838120718 LenScr=  2767993856 LnRSAI=   766285520
 LnScr1=  1153936384 LExtra=           0 Total=   5883442079
 MaxDsk=          -1 SrtSym=           T ITran=            4
 JobTyp=2 Pass  1:  I=   1 to  28.
 (rs|ai) integrals will be sorted in core.
 SymMOI:  orbitals are not symmetric.
 DoSCS=T DFT=T ScalE2(SS,OS)=  0.270000  0.270000
 Spin components of T(2) and E(2):
     alpha-alpha T2 =       0.7530170625D-01 E2=     -0.5342143630D-01
     alpha-beta  T2 =       0.4622175658D+00 E2=     -0.3340252982D+00
     beta-beta   T2 =       0.7937011984D-01 E2=     -0.5175882419D-01
 E2(B2PLYPD3) =    -0.4392055587D+00 E(B2PLYPD3) =    -0.34724419485670D+03
 (S**2,0)=  0.76845D+00           (S**2,1)=  0.74281D+00
 Scaling Projection term by:   0.270000
 E(PUHF)=      -0.34681115580D+03        E(PMP2)=      -0.34724470866D+03
          IDoAtm=111111111111111111
          Differentiating once with respect to electric field.
                with respect to dipole field.
          Differentiating once with respect to nuclear coordinates.
 Keep R1 and R2 ints in memory in canonical form, NReq=4459439664.
          There are     1 degrees of freedom in the 1st order CPHF.  IDoFFX=0 NUNeed=     1.
 LinEq1:  Iter=  0 NonCon=     1 RMS=8.26D-04 Max=6.79D-02 NDo=     1
 AX will form     1 AO Fock derivatives at one time.
 LinEq1:  Iter=  1 NonCon=     1 RMS=2.67D-04 Max=7.90D-03 NDo=     1
 LinEq1:  Iter=  2 NonCon=     1 RMS=1.49D-04 Max=9.55D-03 NDo=     1
 LinEq1:  Iter=  3 NonCon=     1 RMS=7.07D-05 Max=2.98D-03 NDo=     1
 LinEq1:  Iter=  4 NonCon=     1 RMS=3.33D-05 Max=1.11D-03 NDo=     1
 LinEq1:  Iter=  5 NonCon=     1 RMS=2.25D-05 Max=7.27D-04 NDo=     1
 LinEq1:  Iter=  6 NonCon=     1 RMS=1.63D-05 Max=5.64D-04 NDo=     1
 LinEq1:  Iter=  7 NonCon=     1 RMS=6.65D-06 Max=4.16D-04 NDo=     1
 LinEq1:  Iter=  8 NonCon=     1 RMS=4.48D-06 Max=3.35D-04 NDo=     1
 LinEq1:  Iter=  9 NonCon=     1 RMS=2.46D-06 Max=1.49D-04 NDo=     1
 LinEq1:  Iter= 10 NonCon=     1 RMS=1.10D-06 Max=3.75D-05 NDo=     1
 LinEq1:  Iter= 11 NonCon=     1 RMS=4.86D-07 Max=1.09D-05 NDo=     1
 LinEq1:  Iter= 12 NonCon=     1 RMS=2.04D-07 Max=3.67D-06 NDo=     1
 LinEq1:  Iter= 13 NonCon=     1 RMS=8.97D-08 Max=2.20D-06 NDo=     1
 LinEq1:  Iter= 14 NonCon=     1 RMS=2.89D-08 Max=7.59D-07 NDo=     1
 LinEq1:  Iter= 15 NonCon=     1 RMS=1.09D-08 Max=2.39D-07 NDo=     1
 LinEq1:  Iter= 16 NonCon=     1 RMS=4.91D-09 Max=1.30D-07 NDo=     1
 LinEq1:  Iter= 17 NonCon=     1 RMS=1.79D-09 Max=4.42D-08 NDo=     1
 LinEq1:  Iter= 18 NonCon=     1 RMS=5.33D-10 Max=2.34D-08 NDo=     1
 LinEq1:  Iter= 19 NonCon=     1 RMS=1.82D-10 Max=1.03D-08 NDo=     1
 LinEq1:  Iter= 20 NonCon=     1 RMS=9.13D-11 Max=5.08D-09 NDo=     1
 LinEq1:  Iter= 21 NonCon=     1 RMS=4.12D-11 Max=1.92D-09 NDo=     1
 LinEq1:  Iter= 22 NonCon=     0 RMS=1.26D-11 Max=3.33D-10 NDo=     1
 Linear equations converged to 1.000D-10 1.000D-09 after    22 iterations.
 End of Minotr F.D. properties file   721 does not exist.
 End of Minotr F.D. properties file   722 does not exist.
 End of Minotr F.D. properties file   788 does not exist.
 Symmetrizing basis deriv contribution to polar:
 IMax=3 JMax=2 DiffMx= 0.00D+00
 G2DrvN: will do    19 centers at a time, making    1 passes.
 Calling FoFCou, ICntrl=  3107 FMM=F I1Cent=   0 AccDes= 0.00D+00.
 End of G2Drv F.D. properties file   721 does not exist.
 End of G2Drv F.D. properties file   722 does not exist.
 End of G2Drv F.D. properties file   788 does not exist.
 DoSCS=T DFT=T ScalE2(SS,OS)=  0.270000  0.270000
 R2 and R3 integrals will be kept in memory, NReq=  7133702340.
 DD1Dir will call FoFMem   1 times, MxPair=      2408
 NAB=   812 NAA=   406 NBB=   378.
 Discarding MO integrals.

 **********************************************************************

            Population analysis using the SCF Density.

 **********************************************************************

 Orbital symmetries:
 Alpha Orbitals:
       Occupied  (A) (A) (A) (A) (A) (A) (A) (A) (A) (A) (A) (A)
                 (A) (A) (A) (A) (A) (A) (A) (A) (A) (A) (A) (A)
                 (A) (A) (A) (A) (A)
       Virtual   (A) (A) (A) (A) (A) (A) (A) (A) (A) (A) (A) (A)
                 (A) (A) (A) (A) (A) (A) (A) (A) (A) (A) (A) (A)
                 (A) (A) (A) (A) (A) (A) (A) (A) (A) (A) (A) (A)
                 (A) (A) (A) (A) (A) (A) (A) (A) (A) (A) (A) (A)
                 (A) (A) (A) (A) (A) (A) (A) (A) (A) (A) (A) (A)
                 (A) (A) (A) (A) (A) (A) (A) (A) (A) (A) (A) (A)
                 (A) (A) (A) (A) (A) (A) (A) (A) (A) (A) (A) (A)
                 (A) (A) (A) (A) (A) (A) (A) (A) (A) (A) (A) (A)
                 (A) (A) (A) (A) (A) (A) (A) (A) (A) (A) (A) (A)
                 (A) (A) (A) (A) (A) (A) (A) (A) (A) (A) (A) (A)
                 (A) (A) (A) (A) (A) (A) (A) (A) (A) (A) (A) (A)
                 (A) (A) (A) (A) (A) (A) (A) (A) (A) (A) (A) (A)
                 (A) (A) (A) (A) (A) (A) (A) (A) (A) (A) (A) (A)
                 (A) (A) (A) (A) (A) (A) (A) (A) (A) (A) (A) (A)
                 (A) (A) (A) (A) (A) (A) (A) (A) (A) (A) (A) (A)
                 (A) (A) (A) (A) (A) (A) (A) (A) (A) (A) (A) (A)
                 (A) (A) (A) (A) (A) (A) (A) (A) (A) (A) (A) (A)
                 (A) (A) (A) (A) (A) (A) (A) (A) (A) (A) (A) (A)
                 (A) (A) (A) (A) (A) (A) (A) (A) (A) (A) (A) (A)
                 (A) (A) (A) (A) (A) (A) (A) (A) (A) (A) (A) (A)
                 (A) (A) (A) (A) (A) (A) (A) (A) (A) (A) (A) (A)
                 (A) (A) (A) (A) (A) (A) (A) (A) (A) (A) (A) (A)
                 (A) (A) (A) (A) (A) (A) (A) (A) (A) (A) (A) (A)
                 (A) (A) (A) (A) (A) (A) (A) (A) (A) (A) (A) (A)
                 (A) (A) (A) (A) (A) (A) (A) (A) (A) (A) (A) (A)
                 (A) (A) (A) (A) (A) (A) (A) (A) (A) (A) (A) (A)
                 (A) (A) (A) (A) (A) (A) (A) (A) (A) (A) (A) (A)
                 (A) (A) (A) (A) (A) (A) (A) (A) (A) (A) (A)
 Beta  Orbitals:
       Occupied  (A) (A) (A) (A) (A) (A) (A) (A) (A) (A) (A) (A)
                 (A) (A) (A) (A) (A) (A) (A) (A) (A) (A) (A) (A)
                 (A) (A) (A) (A)
       Virtual   (A) (A) (A) (A) (A) (A) (A) (A) (A) (A) (A) (A)
                 (A) (A) (A) (A) (A) (A) (A) (A) (A) (A) (A) (A)
                 (A) (A) (A) (A) (A) (A) (A) (A) (A) (A) (A) (A)
                 (A) (A) (A) (A) (A) (A) (A) (A) (A) (A) (A) (A)
                 (A) (A) (A) (A) (A) (A) (A) (A) (A) (A) (A) (A)
                 (A) (A) (A) (A) (A) (A) (A) (A) (A) (A) (A) (A)
                 (A) (A) (A) (A) (A) (A) (A) (A) (A) (A) (A) (A)
                 (A) (A) (A) (A) (A) (A) (A) (A) (A) (A) (A) (A)
                 (A) (A) (A) (A) (A) (A) (A) (A) (A) (A) (A) (A)
                 (A) (A) (A) (A) (A) (A) (A) (A) (A) (A) (A) (A)
                 (A) (A) (A) (A) (A) (A) (A) (A) (A) (A) (A) (A)
                 (A) (A) (A) (A) (A) (A) (A) (A) (A) (A) (A) (A)
                 (A) (A) (A) (A) (A) (A) (A) (A) (A) (A) (A) (A)
                 (A) (A) (A) (A) (A) (A) (A) (A) (A) (A) (A) (A)
                 (A) (A) (A) (A) (A) (A) (A) (A) (A) (A) (A) (A)
                 (A) (A) (A) (A) (A) (A) (A) (A) (A) (A) (A) (A)
                 (A) (A) (A) (A) (A) (A) (A) (A) (A) (A) (A) (A)
                 (A) (A) (A) (A) (A) (A) (A) (A) (A) (A) (A) (A)
                 (A) (A) (A) (A) (A) (A) (A) (A) (A) (A) (A) (A)
                 (A) (A) (A) (A) (A) (A) (A) (A) (A) (A) (A) (A)
                 (A) (A) (A) (A) (A) (A) (A) (A) (A) (A) (A) (A)
                 (A) (A) (A) (A) (A) (A) (A) (A) (A) (A) (A) (A)
                 (A) (A) (A) (A) (A) (A) (A) (A) (A) (A) (A) (A)
                 (A) (A) (A) (A) (A) (A) (A) (A) (A) (A) (A) (A)
                 (A) (A) (A) (A) (A) (A) (A) (A) (A) (A) (A) (A)
                 (A) (A) (A) (A) (A) (A) (A) (A) (A) (A) (A) (A)
                 (A) (A) (A) (A) (A) (A) (A) (A) (A) (A) (A) (A)
                 (A) (A) (A) (A) (A) (A) (A) (A) (A) (A) (A) (A)
 The electronic state is 2-A.
 Alpha  occ. eigenvalues --  -19.78515 -19.78493 -10.65917 -10.64206 -10.63094
 Alpha  occ. eigenvalues --  -10.62565 -10.61310  -1.27303  -1.02120  -0.93579
 Alpha  occ. eigenvalues --   -0.85608  -0.77667  -0.74044  -0.65306  -0.60556
 Alpha  occ. eigenvalues --   -0.56173  -0.55511  -0.54424  -0.52539  -0.51028
 Alpha  occ. eigenvalues --   -0.48814  -0.46923  -0.44434  -0.43989  -0.41249
 Alpha  occ. eigenvalues --   -0.36868  -0.36614  -0.31472  -0.30231
 Alpha virt. eigenvalues --    0.05812   0.08242   0.09208   0.10987   0.11235
 Alpha virt. eigenvalues --    0.12976   0.13656   0.15173   0.15318   0.16222
 Alpha virt. eigenvalues --    0.16721   0.18106   0.20887   0.23647   0.24902
 Alpha virt. eigenvalues --    0.28342   0.30348   0.31575   0.31801   0.32612
 Alpha virt. eigenvalues --    0.33712   0.34927   0.36965   0.38044   0.40464
 Alpha virt. eigenvalues --    0.41703   0.45122   0.46879   0.47751   0.49091
 Alpha virt. eigenvalues --    0.50356   0.50722   0.51144   0.51579   0.51957
 Alpha virt. eigenvalues --    0.52934   0.54149   0.54204   0.55122   0.56340
 Alpha virt. eigenvalues --    0.56685   0.57623   0.59584   0.61147   0.63142
 Alpha virt. eigenvalues --    0.64090   0.66381   0.68778   0.69965   0.70299
 Alpha virt. eigenvalues --    0.73367   0.76160   0.77337   0.78129   0.79068
 Alpha virt. eigenvalues --    0.80269   0.82837   0.85926   0.88918   0.89431
 Alpha virt. eigenvalues --    0.91510   0.95106   0.95968   0.98227   0.99508
 Alpha virt. eigenvalues --    1.00063   1.01934   1.05252   1.05749   1.07742
 Alpha virt. eigenvalues --    1.08219   1.09672   1.10681   1.12725   1.13762
 Alpha virt. eigenvalues --    1.15659   1.16109   1.16520   1.17669   1.18414
 Alpha virt. eigenvalues --    1.19455   1.20330   1.21922   1.22995   1.23523
 Alpha virt. eigenvalues --    1.26928   1.28221   1.30214   1.31719   1.34789
 Alpha virt. eigenvalues --    1.34988   1.36910   1.39056   1.39898   1.41204
 Alpha virt. eigenvalues --    1.42238   1.43284   1.45352   1.47328   1.48458
 Alpha virt. eigenvalues --    1.51092   1.52360   1.55678   1.57116   1.57565
 Alpha virt. eigenvalues --    1.60163   1.61511   1.64265   1.65672   1.69645
 Alpha virt. eigenvalues --    1.72168   1.75606   1.79474   1.81101   1.87432
 Alpha virt. eigenvalues --    1.95272   1.99258   1.99659   2.05630   2.12836
 Alpha virt. eigenvalues --    2.17027   2.20869   2.23215   2.26466   2.29881
 Alpha virt. eigenvalues --    2.35721   2.36923   2.39071   2.40562   2.41654
 Alpha virt. eigenvalues --    2.43552   2.45777   2.47175   2.50993   2.54257
 Alpha virt. eigenvalues --    2.57399   2.58243   2.61452   2.62825   2.64727
 Alpha virt. eigenvalues --    2.67188   2.69405   2.70238   2.76697   2.77923
 Alpha virt. eigenvalues --    2.79019   2.81138   2.84520   2.85215   2.87320
 Alpha virt. eigenvalues --    2.89875   2.91603   2.93249   2.93597   2.94159
 Alpha virt. eigenvalues --    2.95045   2.98328   2.99120   3.00308   3.01360
 Alpha virt. eigenvalues --    3.03083   3.04294   3.06424   3.07957   3.07985
 Alpha virt. eigenvalues --    3.10228   3.10887   3.11791   3.13959   3.14698
 Alpha virt. eigenvalues --    3.16382   3.17146   3.18331   3.19031   3.19908
 Alpha virt. eigenvalues --    3.21592   3.23087   3.24468   3.26125   3.28053
 Alpha virt. eigenvalues --    3.30278   3.31948   3.36242   3.37087   3.38807
 Alpha virt. eigenvalues --    3.41383   3.41663   3.42373   3.43132   3.44669
 Alpha virt. eigenvalues --    3.47526   3.47882   3.51680   3.52024   3.53849
 Alpha virt. eigenvalues --    3.55325   3.56191   3.57489   3.59513   3.60944
 Alpha virt. eigenvalues --    3.61166   3.64025   3.65115   3.67441   3.72050
 Alpha virt. eigenvalues --    3.73207   3.76474   3.78136   3.81851   3.83008
 Alpha virt. eigenvalues --    3.83674   3.85557   3.86805   3.87379   3.88096
 Alpha virt. eigenvalues --    3.88285   3.91122   3.92395   3.93976   3.95456
 Alpha virt. eigenvalues --    3.97131   3.98444   4.00935   4.01091   4.04799
 Alpha virt. eigenvalues --    4.06503   4.07441   4.08220   4.10265   4.11079
 Alpha virt. eigenvalues --    4.12476   4.15199   4.15936   4.17829   4.17893
 Alpha virt. eigenvalues --    4.18977   4.21266   4.21821   4.23138   4.24306
 Alpha virt. eigenvalues --    4.27219   4.30332   4.32440   4.35015   4.36478
 Alpha virt. eigenvalues --    4.37507   4.39098   4.40840   4.41520   4.45018
 Alpha virt. eigenvalues --    4.46765   4.49147   4.51627   4.55818   4.57576
 Alpha virt. eigenvalues --    4.61378   4.64315   4.65740   4.67381   4.70529
 Alpha virt. eigenvalues --    4.74509   4.80138   4.81697   4.84412   4.87970
 Alpha virt. eigenvalues --    4.88995   4.93202   4.94244   4.94864   4.98445
 Alpha virt. eigenvalues --    4.99918   5.00456   5.04042   5.05757   5.07095
 Alpha virt. eigenvalues --    5.08637   5.11241   5.13636   5.15986   5.20408
 Alpha virt. eigenvalues --    5.22323   5.27230   5.27454   5.29645   5.31150
 Alpha virt. eigenvalues --    5.34035   5.35652   5.36128   5.37634   5.39250
 Alpha virt. eigenvalues --    5.40794   5.42822   5.47043   5.49551   5.50120
 Alpha virt. eigenvalues --    5.53357   5.59943   5.65190   5.67687   5.68377
 Alpha virt. eigenvalues --    5.75772   5.80152   5.88953   5.95706   5.97105
 Alpha virt. eigenvalues --    6.01617   6.05459   6.07790   6.09026   6.12126
 Alpha virt. eigenvalues --    6.18386   6.25582   6.33316   6.38024   6.41254
 Alpha virt. eigenvalues --    6.43670   6.63736   6.75127   6.76246   6.83372
 Alpha virt. eigenvalues --    6.96044   7.05286   7.06945   7.18977   7.42378
 Alpha virt. eigenvalues --    7.44183   7.58836   7.74154   9.95434  10.61875
 Alpha virt. eigenvalues --   11.33075  12.54220  13.26988  13.43929  14.40977
  Beta  occ. eigenvalues --  -19.78366 -19.76913 -10.65925 -10.63156 -10.62928
  Beta  occ. eigenvalues --  -10.62534 -10.61327  -1.25449  -0.99268  -0.92853
  Beta  occ. eigenvalues --   -0.84174  -0.77257  -0.72018  -0.64765  -0.57498
  Beta  occ. eigenvalues --   -0.55700  -0.54429  -0.54061  -0.51986  -0.49788
  Beta  occ. eigenvalues --   -0.46244  -0.46144  -0.43809  -0.42850  -0.41023
  Beta  occ. eigenvalues --   -0.35433  -0.33471  -0.31399
  Beta virt. eigenvalues --   -0.04697   0.05968   0.08346   0.09310   0.11175
  Beta virt. eigenvalues --    0.11347   0.13214   0.14244   0.15292   0.15467
  Beta virt. eigenvalues --    0.16379   0.16819   0.18130   0.21547   0.23949
  Beta virt. eigenvalues --    0.25186   0.29170   0.30566   0.31737   0.32798
  Beta virt. eigenvalues --    0.33371   0.33915   0.35196   0.37202   0.38547
  Beta virt. eigenvalues --    0.40926   0.41749   0.45207   0.46968   0.48176
  Beta virt. eigenvalues --    0.49251   0.50897   0.51174   0.51618   0.51965
  Beta virt. eigenvalues --    0.53045   0.53869   0.54421   0.54441   0.55614
  Beta virt. eigenvalues --    0.57122   0.57310   0.58301   0.60224   0.61301
  Beta virt. eigenvalues --    0.63521   0.64370   0.66554   0.68948   0.70162
  Beta virt. eigenvalues --    0.70431   0.74038   0.76355   0.77430   0.78713
  Beta virt. eigenvalues --    0.79304   0.80650   0.83235   0.86300   0.89347
  Beta virt. eigenvalues --    0.89787   0.91634   0.95297   0.96072   0.98361
  Beta virt. eigenvalues --    0.99652   1.00407   1.02218   1.05473   1.05816
  Beta virt. eigenvalues --    1.08018   1.08343   1.10146   1.11097   1.13009
  Beta virt. eigenvalues --    1.14237   1.15996   1.16395   1.16809   1.17866
  Beta virt. eigenvalues --    1.18673   1.19962   1.20669   1.22233   1.23365
  Beta virt. eigenvalues --    1.23646   1.27297   1.28548   1.30601   1.32008
  Beta virt. eigenvalues --    1.34951   1.35215   1.37215   1.39157   1.39971
  Beta virt. eigenvalues --    1.41400   1.42402   1.43494   1.45534   1.47809
  Beta virt. eigenvalues --    1.49067   1.51468   1.52584   1.56073   1.57425
  Beta virt. eigenvalues --    1.57953   1.60304   1.61897   1.64562   1.66428
  Beta virt. eigenvalues --    1.69921   1.72672   1.76031   1.79741   1.81291
  Beta virt. eigenvalues --    1.90343   1.95969   1.99492   2.00203   2.06608
  Beta virt. eigenvalues --    2.13154   2.17924   2.21653   2.23911   2.26928
  Beta virt. eigenvalues --    2.30304   2.35904   2.37267   2.39216   2.41107
  Beta virt. eigenvalues --    2.42075   2.44236   2.46041   2.47578   2.51390
  Beta virt. eigenvalues --    2.54484   2.57866   2.58469   2.61827   2.63296
  Beta virt. eigenvalues --    2.65038   2.68164   2.69600   2.70575   2.77160
  Beta virt. eigenvalues --    2.78434   2.79252   2.81645   2.84618   2.85535
  Beta virt. eigenvalues --    2.87789   2.90499   2.92478   2.93330   2.94011
  Beta virt. eigenvalues --    2.94291   2.95193   2.98508   2.99360   3.00980
  Beta virt. eigenvalues --    3.01524   3.03596   3.04431   3.06733   3.08211
  Beta virt. eigenvalues --    3.08371   3.10505   3.11110   3.12109   3.14287
  Beta virt. eigenvalues --    3.14909   3.16816   3.17536   3.18878   3.19584
  Beta virt. eigenvalues --    3.20288   3.21772   3.23626   3.24949   3.26653
  Beta virt. eigenvalues --    3.28707   3.30425   3.32631   3.36463   3.37435
  Beta virt. eigenvalues --    3.39131   3.41637   3.42424   3.42863   3.43750
  Beta virt. eigenvalues --    3.44869   3.47611   3.48463   3.51967   3.52232
  Beta virt. eigenvalues --    3.54112   3.55618   3.56398   3.57929   3.59970
  Beta virt. eigenvalues --    3.61268   3.61352   3.64271   3.65359   3.67523
  Beta virt. eigenvalues --    3.72318   3.73266   3.76913   3.78262   3.82124
  Beta virt. eigenvalues --    3.83168   3.83783   3.85675   3.86946   3.87492
  Beta virt. eigenvalues --    3.88430   3.88598   3.91155   3.92405   3.94059
  Beta virt. eigenvalues --    3.95509   3.97252   3.98516   4.01152   4.01250
  Beta virt. eigenvalues --    4.04734   4.06535   4.07741   4.08457   4.10355
  Beta virt. eigenvalues --    4.11005   4.12585   4.15392   4.16051   4.17914
  Beta virt. eigenvalues --    4.17951   4.19263   4.21349   4.21969   4.23415
  Beta virt. eigenvalues --    4.24517   4.27385   4.30564   4.32893   4.35333
  Beta virt. eigenvalues --    4.36732   4.37813   4.39334   4.41003   4.41829
  Beta virt. eigenvalues --    4.45330   4.47057   4.49655   4.51996   4.56367
  Beta virt. eigenvalues --    4.57984   4.61797   4.64825   4.66070   4.67870
  Beta virt. eigenvalues --    4.70743   4.74773   4.80536   4.81877   4.84591
  Beta virt. eigenvalues --    4.88529   4.89432   4.93385   4.94697   4.95011
  Beta virt. eigenvalues --    4.98847   5.00158   5.00710   5.04223   5.05977
  Beta virt. eigenvalues --    5.07614   5.08869   5.11371   5.14026   5.16574
  Beta virt. eigenvalues --    5.21110   5.22631   5.27488   5.27919   5.29960
  Beta virt. eigenvalues --    5.31361   5.34335   5.36129   5.36368   5.37770
  Beta virt. eigenvalues --    5.39681   5.41331   5.43462   5.47288   5.49869
  Beta virt. eigenvalues --    5.50374   5.53696   5.60284   5.65506   5.68217
  Beta virt. eigenvalues --    5.68925   5.76544   5.80400   5.90273   5.95814
  Beta virt. eigenvalues --    5.97434   6.02360   6.06132   6.08200   6.09386
  Beta virt. eigenvalues --    6.12332   6.18573   6.26004   6.35143   6.38745
  Beta virt. eigenvalues --    6.42404   6.44103   6.64730   6.77517   6.77999
  Beta virt. eigenvalues --    6.84821   6.97705   7.05899   7.08600   7.21211
  Beta virt. eigenvalues --    7.42545   7.46366   7.60750   7.74741   9.96281
  Beta virt. eigenvalues --   10.62937  11.33096  12.55041  13.27262  13.43930
  Beta virt. eigenvalues --   14.40975
          Condensed to atoms (all electrons):
               1          2          3          4          5          6
     1  C    4.814531   0.419957   0.408336   0.314783  -0.031666  -0.032419
     2  H    0.419957   0.582959  -0.033254  -0.041128   0.006816  -0.003561
     3  H    0.408336  -0.033254   0.597009  -0.034660  -0.003778  -0.003619
     4  C    0.314783  -0.041128  -0.034660   5.185208   0.388434   0.401403
     5  H   -0.031666   0.006816  -0.003778   0.388434   0.549243  -0.024857
     6  H   -0.032419  -0.003561  -0.003619   0.401403  -0.024857   0.533006
     7  C    0.000361  -0.000034  -0.000006  -0.002809  -0.000451   0.000013
     8  H   -0.000461   0.000131   0.000078   0.000058  -0.002132   0.000042
     9  H   -0.000074  -0.000002   0.000001   0.000429  -0.000075   0.000002
    10  H    0.000186  -0.000010  -0.000001  -0.000381   0.000277  -0.000004
    11  O    0.000375  -0.000022  -0.000026   0.005724   0.003412   0.000278
    12  O   -0.000274   0.000358  -0.000099  -0.082291  -0.001137   0.000828
    13  H   -0.007885  -0.001607   0.002152   0.205928  -0.007516  -0.007354
    14  C    0.352021  -0.038314  -0.041579  -0.052288  -0.000890   0.007260
    15  C   -0.062598   0.001457  -0.002366  -0.000278   0.002060  -0.000119
    16  H   -0.035193  -0.003862   0.005410  -0.001111   0.000222  -0.000166
    17  H    0.006358  -0.000358   0.000041  -0.000301  -0.000104   0.000023
    18  H   -0.005042   0.000233   0.004128  -0.000048   0.000218  -0.000048
               7          8          9         10         11         12
     1  C    0.000361  -0.000461  -0.000074   0.000186   0.000375  -0.000274
     2  H   -0.000034   0.000131  -0.000002  -0.000010  -0.000022   0.000358
     3  H   -0.000006   0.000078   0.000001  -0.000001  -0.000026  -0.000099
     4  C   -0.002809   0.000058   0.000429  -0.000381   0.005724  -0.082291
     5  H   -0.000451  -0.002132  -0.000075   0.000277   0.003412  -0.001137
     6  H    0.000013   0.000042   0.000002  -0.000004   0.000278   0.000828
     7  C    4.595995   0.390760   0.404317   0.407155   0.309090  -0.041743
     8  H    0.390760   0.684226  -0.032647  -0.064154  -0.048225  -0.005024
     9  H    0.404317  -0.032647   0.572959  -0.029471  -0.025218   0.005837
    10  H    0.407155  -0.064154  -0.029471   0.640853  -0.043141   0.004410
    11  O    0.309090  -0.048225  -0.025218  -0.043141   7.944168   0.070613
    12  O   -0.041743  -0.005024   0.005837   0.004410   0.070613   8.064811
    13  H    0.004038   0.004515  -0.001165   0.000696  -0.029270   0.203568
    14  C   -0.003265   0.002536   0.000117  -0.000689   0.000735  -0.000379
    15  C   -0.000637   0.002098   0.000037  -0.000010  -0.000030   0.000491
    16  H   -0.000107  -0.001599   0.000150   0.001246  -0.000801   0.009108
    17  H    0.000009   0.000127  -0.000002  -0.000019  -0.000001  -0.000005
    18  H   -0.000005  -0.000026   0.000001   0.000002   0.000001  -0.000003
              13         14         15         16         17         18
     1  C   -0.007885   0.352021  -0.062598  -0.035193   0.006358  -0.005042
     2  H   -0.001607  -0.038314   0.001457  -0.003862  -0.000358   0.000233
     3  H    0.002152  -0.041579  -0.002366   0.005410   0.000041   0.004128
     4  C    0.205928  -0.052288  -0.000278  -0.001111  -0.000301  -0.000048
     5  H   -0.007516  -0.000890   0.002060   0.000222  -0.000104   0.000218
     6  H   -0.007354   0.007260  -0.000119  -0.000166   0.000023  -0.000048
     7  C    0.004038  -0.003265  -0.000637  -0.000107   0.000009  -0.000005
     8  H    0.004515   0.002536   0.002098  -0.001599   0.000127  -0.000026
     9  H   -0.001165   0.000117   0.000037   0.000150  -0.000002   0.000001
    10  H    0.000696  -0.000689  -0.000010   0.001246  -0.000019   0.000002
    11  O   -0.029270   0.000735  -0.000030  -0.000801  -0.000001   0.000001
    12  O    0.203568  -0.000379   0.000491   0.009108  -0.000005  -0.000003
    13  H    0.425654  -0.003796  -0.000248  -0.000138  -0.000006  -0.000005
    14  C   -0.003796   4.970234   0.614144   0.405787  -0.047403  -0.050820
    15  C   -0.000248   0.614144   4.973534  -0.040614   0.421314   0.410649
    16  H   -0.000138   0.405787  -0.040614   0.508121  -0.007193   0.006005
    17  H   -0.000006  -0.047403   0.421314  -0.007193   0.533211  -0.034573
    18  H   -0.000005  -0.050820   0.410649   0.006005  -0.034573   0.546961
          Atomic-Atomic Spin Densities.
               1          2          3          4          5          6
     1  C   -0.033304   0.002135   0.011482  -0.024898   0.000522   0.000569
     2  H    0.002135   0.009930  -0.004978  -0.004572   0.000148   0.001108
     3  H    0.011482  -0.004978   0.055230  -0.016393  -0.001324  -0.001907
     4  C   -0.024898  -0.004572  -0.016393   0.718012   0.006032   0.003267
     5  H    0.000522   0.000148  -0.001324   0.006032  -0.027802   0.003063
     6  H    0.000569   0.001108  -0.001907   0.003267   0.003063  -0.022960
     7  C   -0.000078  -0.000001   0.000013   0.001023  -0.000358  -0.000046
     8  H    0.000497   0.000048  -0.000105  -0.004290   0.001093   0.000138
     9  H   -0.000000  -0.000000   0.000000   0.000091  -0.000009  -0.000003
    10  H   -0.000123  -0.000016   0.000011   0.001152  -0.000134  -0.000025
    11  O   -0.000373  -0.000039   0.000036   0.011140  -0.001336  -0.000448
    12  O    0.004931   0.000964  -0.000517  -0.088629   0.002903   0.002907
    13  H    0.001113  -0.000608   0.000322   0.057454   0.003712   0.001446
    14  C    0.004489   0.002130  -0.004115  -0.004167   0.000324   0.000203
    15  C    0.000897   0.000163  -0.001038   0.000035   0.000231   0.000027
    16  H   -0.000779  -0.000507   0.000710   0.002940  -0.000317  -0.000123
    17  H   -0.000034   0.000007  -0.000064  -0.000021   0.000017   0.000001
    18  H    0.000180  -0.000042   0.000554  -0.000108  -0.000055  -0.000008
               7          8          9         10         11         12
     1  C   -0.000078   0.000497  -0.000000  -0.000123  -0.000373   0.004931
     2  H   -0.000001   0.000048  -0.000000  -0.000016  -0.000039   0.000964
     3  H    0.000013  -0.000105   0.000000   0.000011   0.000036  -0.000517
     4  C    0.001023  -0.004290   0.000091   0.001152   0.011140  -0.088629
     5  H   -0.000358   0.001093  -0.000009  -0.000134  -0.001336   0.002903
     6  H   -0.000046   0.000138  -0.000003  -0.000025  -0.000448   0.002907
     7  C   -0.003851   0.003106  -0.000109  -0.003040   0.001371  -0.002712
     8  H    0.003106   0.003515  -0.000773  -0.001768  -0.001039   0.003925
     9  H   -0.000109  -0.000773  -0.001118   0.001164   0.000026  -0.000125
    10  H   -0.003040  -0.001768   0.001164   0.004815  -0.000842  -0.000177
    11  O    0.001371  -0.001039   0.000026  -0.000842   0.045955  -0.039910
    12  O   -0.002712   0.003925  -0.000125  -0.000177  -0.039910   0.572329
    13  H    0.001061  -0.003135   0.000083   0.001305   0.009459  -0.046696
    14  C    0.000037   0.000181   0.000002   0.000020  -0.000076   0.000698
    15  C    0.000006  -0.000072  -0.000002   0.000010   0.000006  -0.000067
    16  H   -0.000169  -0.000261  -0.000005   0.000130   0.000169  -0.001796
    17  H    0.000003   0.000002  -0.000000  -0.000001  -0.000000   0.000003
    18  H   -0.000000  -0.000008   0.000000   0.000001   0.000000  -0.000004
              13         14         15         16         17         18
     1  C    0.001113   0.004489   0.000897  -0.000779  -0.000034   0.000180
     2  H   -0.000608   0.002130   0.000163  -0.000507   0.000007  -0.000042
     3  H    0.000322  -0.004115  -0.001038   0.000710  -0.000064   0.000554
     4  C    0.057454  -0.004167   0.000035   0.002940  -0.000021  -0.000108
     5  H    0.003712   0.000324   0.000231  -0.000317   0.000017  -0.000055
     6  H    0.001446   0.000203   0.000027  -0.000123   0.000001  -0.000008
     7  C    0.001061   0.000037   0.000006  -0.000169   0.000003  -0.000000
     8  H   -0.003135   0.000181  -0.000072  -0.000261   0.000002  -0.000008
     9  H    0.000083   0.000002  -0.000002  -0.000005  -0.000000   0.000000
    10  H    0.001305   0.000020   0.000010   0.000130  -0.000001   0.000001
    11  O    0.009459  -0.000076   0.000006   0.000169  -0.000000   0.000000
    12  O   -0.046696   0.000698  -0.000067  -0.001796   0.000003  -0.000004
    13  H   -0.104301  -0.000683  -0.000057   0.001344  -0.000011   0.000014
    14  C   -0.000683   0.013440   0.002163  -0.001077   0.000083  -0.000281
    15  C   -0.000057   0.002163  -0.012511  -0.000123  -0.000060  -0.000249
    16  H    0.001344  -0.001077  -0.000123   0.000298  -0.000021   0.000043
    17  H   -0.000011   0.000083  -0.000060  -0.000021   0.000549  -0.000083
    18  H    0.000014  -0.000281  -0.000249   0.000043  -0.000083   0.000536
 Mulliken charges and spin densities:
               1          2
     1  C   -0.141295  -0.032776
     2  H    0.110242   0.005870
     3  H    0.102232   0.037919
     4  C   -0.286672   0.658066
     5  H    0.121923  -0.013290
     6  H    0.129293  -0.012791
     7  C   -0.062682  -0.003745
     8  H    0.069698   0.001054
     9  H    0.104804  -0.000779
    10  H    0.083054   0.002480
    11  O   -0.187662   0.024098
    12  O   -0.229070   0.408028
    13  H    0.212438  -0.078180
    14  C   -0.113409   0.013371
    15  C   -0.318884  -0.010642
    16  H    0.154736   0.000454
    17  H    0.128883   0.000371
    18  H    0.122372   0.000490
 Sum of Mulliken charges =  -0.00000   1.00000
 Mulliken charges and spin densities with hydrogens summed into heavy atoms:
               1          2
     1  C    0.071180   0.011013
     4  C   -0.035456   0.631985
     7  C    0.194874  -0.000990
    11  O   -0.187662   0.024098
    12  O   -0.016632   0.329848
    14  C    0.041326   0.013826
    15  C   -0.067629  -0.009780
 APT charges:
               1
     1  C   -0.033824
     2  H   -0.012027
     3  H   -0.026433
     4  C    0.439403
     5  H   -0.057117
     6  H   -0.053550
     7  C    0.415149
     8  H   -0.034732
     9  H   -0.006757
    10  H   -0.027151
    11  O   -0.452700
    12  O    0.190719
    13  H   -0.338050
    14  C    0.005101
    15  C   -0.098175
    16  H    0.029639
    17  H    0.030971
    18  H    0.029532
 Sum of APT charges =  -0.00000
 APT charges with hydrogens summed into heavy atoms:
               1
     1  C   -0.072284
     4  C    0.328737
     7  C    0.346509
    11  O   -0.452700
    12  O   -0.147331
    14  C    0.034740
    15  C   -0.037671
 Electronic spatial extent (au):  <R**2>=           1175.1512
 Charge=             -0.0000 electrons
 Dipole moment (field-independent basis, Debye):
    X=             -1.9050    Y=              0.8824    Z=              1.1225  Tot=              2.3807
 Quadrupole moment (field-independent basis, Debye-Ang):
   XX=            -48.0502   YY=            -40.8210   ZZ=            -45.6495
   XY=              5.5700   XZ=              0.3283   YZ=             -0.6662
 Traceless Quadrupole moment (field-independent basis, Debye-Ang):
   XX=             -3.2100   YY=              4.0192   ZZ=             -0.8093
   XY=              5.5700   XZ=              0.3283   YZ=             -0.6662
 Octapole moment (field-independent basis, Debye-Ang**2):
  XXX=              8.4884  YYY=             -2.4518  ZZZ=             -0.9580  XYY=              5.7893
  XXY=             10.0746  XXZ=              8.1712  XZZ=              6.9662  YZZ=             -1.0301
  YYZ=             -0.4040  XYZ=             -0.6480
 Hexadecapole moment (field-independent basis, Debye-Ang**3):
 XXXX=          -1063.2940 YYYY=           -364.0178 ZZZZ=           -120.6814 XXXY=             28.2604
 XXXZ=            -20.2578 YYYX=             -2.4674 YYYZ=             -2.2625 ZZZX=             -1.8290
 ZZZY=              2.7363 XXYY=           -225.0365 XXZZ=           -197.9100 YYZZ=            -85.0011
 XXYZ=              7.1646 YYXZ=              3.1020 ZZXY=              7.2106
 N-N= 3.028455579618D+02 E-N=-1.416736204286D+03  KE= 3.452922413207D+02
  Exact polarizability: 104.660   7.163  82.081  -8.760  -0.453  61.047
 Approx polarizability:  95.664   1.068  84.113  -8.457   3.447  75.433
                          Isotropic Fermi Contact Couplings
        Atom                 a.u.       MegaHertz       Gauss      10(-4) cm-1
     1  C(13)             -0.01324     -14.88826      -5.31250      -4.96619
     2  H(1)               0.00353      15.79855       5.63731       5.26983
     3  H(1)               0.02030      90.73613      32.37691      30.26631
     4  C(13)              0.09404     105.72281      37.72453      35.26533
     5  H(1)              -0.00395     -17.63763      -6.29354      -5.88328
     6  H(1)              -0.00435     -19.44910      -6.93992      -6.48752
     7  C(13)             -0.00330      -3.71477      -1.32552      -1.23911
     8  H(1)               0.00233      10.40380       3.71234       3.47034
     9  H(1)              -0.00008      -0.37075      -0.13229      -0.12367
    10  H(1)               0.00050       2.24453       0.80090       0.74869
    11  O(17)              0.01426      -8.64517      -3.08481      -2.88372
    12  O(17)              0.04387     -26.59554      -9.48995      -8.87132
    13  H(1)              -0.02398    -107.18306     -38.24558     -35.75242
    14  C(13)              0.00518       5.82536       2.07863       1.94313
    15  C(13)             -0.00029      -0.32463      -0.11584      -0.10829
    16  H(1)               0.00010       0.43529       0.15532       0.14520
    17  H(1)              -0.00004      -0.18986      -0.06775      -0.06333
    18  H(1)              -0.00004      -0.16914      -0.06035      -0.05642
 --------------------------------------------------------
       Center         ----  Spin Dipole Couplings  ----
                      3XX-RR        3YY-RR        3ZZ-RR
 --------------------------------------------------------
     1   Atom        0.030392     -0.016966     -0.013427
     2   Atom        0.003302     -0.007241      0.003939
     3   Atom        0.010001     -0.006561     -0.003439
     4   Atom        0.261266     -0.282633      0.021367
     5   Atom       -0.013127     -0.014923      0.028050
     6   Atom       -0.015867      0.045696     -0.029829
     7   Atom       -0.001297      0.007085     -0.005788
     8   Atom       -0.003472      0.006978     -0.003506
     9   Atom       -0.001284      0.002985     -0.001701
    10   Atom       -0.003147      0.007626     -0.004478
    11   Atom        0.195823     -0.133936     -0.061887
    12   Atom        0.357479     -0.785034      0.427555
    13   Atom        0.108519     -0.088113     -0.020406
    14   Atom       -0.001318      0.009181     -0.007863
    15   Atom        0.001099      0.001983     -0.003081
    16   Atom       -0.000420      0.002904     -0.002484
    17   Atom        0.000151      0.001203     -0.001355
    18   Atom        0.001318      0.000839     -0.002156
 --------------------------------------------------------
                        XY            XZ            YZ
 --------------------------------------------------------
     1   Atom       -0.003300     -0.001886     -0.002756
     2   Atom        0.002583      0.009444      0.001440
     3   Atom        0.000461     -0.000828     -0.003079
     4   Atom        0.236795     -0.498763     -0.185822
     5   Atom        0.023812     -0.002069      0.032156
     6   Atom       -0.009052     -0.020667     -0.009534
     7   Atom        0.002998      0.001018      0.004295
     8   Atom        0.000800     -0.001299      0.004474
     9   Atom        0.003462      0.001181      0.002984
    10   Atom        0.003428     -0.000251     -0.000884
    11   Atom        0.106734     -0.278546     -0.078301
    12   Atom        0.369546     -1.278806     -0.380421
    13   Atom        0.090707     -0.152404     -0.058511
    14   Atom       -0.005583      0.002339     -0.003994
    15   Atom       -0.003237     -0.000836     -0.001316
    16   Atom       -0.004474      0.001670     -0.005036
    17   Atom       -0.001714      0.000020     -0.000294
    18   Atom       -0.002575     -0.000419      0.000374
 --------------------------------------------------------


 ---------------------------------------------------------------------------------
              Anisotropic Spin Dipole Couplings in Principal Axis System
 ---------------------------------------------------------------------------------

       Atom             a.u.   MegaHertz   Gauss  10(-4) cm-1        Axes

              Baa    -0.0188    -2.518    -0.899    -0.840  0.0771  0.8746  0.4787
     1 C(13)  Bbb    -0.0119    -1.600    -0.571    -0.534  0.0016 -0.4803  0.8771
              Bcc     0.0307     4.118     1.469     1.374  0.9970 -0.0668 -0.0384
 
              Baa    -0.0080    -4.250    -1.516    -1.418 -0.3515  0.9211  0.1674
     2 H(1)   Bbb    -0.0055    -2.931    -1.046    -0.978 -0.6295 -0.3649  0.6860
              Bcc     0.0135     7.180     2.562     2.395  0.6930  0.1357  0.7081
 
              Baa    -0.0085    -4.510    -1.609    -1.504  0.0022  0.8520  0.5236
     3 H(1)   Bbb    -0.0016    -0.867    -0.309    -0.289  0.0812 -0.5220  0.8491
              Bcc     0.0101     5.377     1.919     1.794  0.9967  0.0406 -0.0703
 
              Baa    -0.3720   -49.920   -17.813   -16.651  0.6462 -0.4819  0.5917
     4 C(13)  Bbb    -0.3707   -49.739   -17.748   -16.591  0.1195  0.8297  0.5453
              Bcc     0.7427    99.659    35.561    33.243  0.7537  0.2817 -0.5938
 
              Baa    -0.0469   -24.997    -8.920    -8.338 -0.5561  0.7580 -0.3408
     5 H(1)   Bbb    -0.0000    -0.015    -0.005    -0.005  0.8132  0.4116 -0.4115
              Bcc     0.0469    25.012     8.925     8.343  0.1716  0.5060  0.8453
 
              Baa    -0.0465   -24.812    -8.853    -8.276  0.5818  0.1400  0.8012
     6 H(1)   Bbb    -0.0011    -0.586    -0.209    -0.195  0.8057  0.0354 -0.5913
              Bcc     0.0476    25.397     9.062     8.472 -0.1111  0.9895 -0.0922
 
              Baa    -0.0071    -0.952    -0.340    -0.317 -0.0204 -0.2859  0.9580
     7 C(13)  Bbb    -0.0022    -0.300    -0.107    -0.100  0.9582 -0.2792 -0.0629
              Bcc     0.0093     1.252     0.447     0.418  0.2855  0.9167  0.2797
 
              Baa    -0.0060    -3.218    -1.148    -1.074  0.5054 -0.3083  0.8059
     8 H(1)   Bbb    -0.0026    -1.389    -0.496    -0.463  0.8625  0.1532 -0.4823
              Bcc     0.0086     4.607     1.644     1.537  0.0252  0.9389  0.3433
 
              Baa    -0.0035    -1.873    -0.668    -0.625  0.5984 -0.5752  0.5578
     9 H(1)   Bbb    -0.0027    -1.435    -0.512    -0.479 -0.6713  0.0201  0.7409
              Bcc     0.0062     3.309     1.181     1.104  0.4373  0.8178  0.3741
 
              Baa    -0.0045    -2.424    -0.865    -0.808  0.0045  0.0711  0.9975
    10 H(1)   Bbb    -0.0041    -2.212    -0.789    -0.738  0.9603 -0.2785  0.0155
              Bcc     0.0087     4.635     1.654     1.546  0.2789  0.9578 -0.0696
 
              Baa    -0.2409    17.428     6.219     5.813  0.5159  0.1074  0.8499
    11 O(17)  Bbb    -0.1653    11.963     4.269     3.991 -0.2584  0.9654  0.0348
              Bcc     0.4062   -29.392   -10.488    -9.804  0.8168  0.2376 -0.5258
 
              Baa    -0.8947    64.737    23.100    21.594 -0.1031  0.9779  0.1817
    12 O(17)  Bbb    -0.8867    64.164    22.895    21.403  0.7232 -0.0517  0.6887
              Bcc     1.7814  -128.901   -45.995   -42.997 -0.6829 -0.2024  0.7019
 
              Baa    -0.1238   -66.060   -23.572   -22.035 -0.4866  0.8394 -0.2422
    13 H(1)   Bbb    -0.1207   -64.421   -22.987   -21.488  0.3655  0.4474  0.8162
              Bcc     0.2446   130.481    46.559    43.524  0.7935  0.3086 -0.5246
 
              Baa    -0.0090    -1.201    -0.429    -0.401 -0.1820  0.1578  0.9706
    14 C(13)  Bbb    -0.0037    -0.493    -0.176    -0.164  0.9009  0.4224  0.1003
              Bcc     0.0126     1.694     0.605     0.565 -0.3941  0.8926 -0.2190
 
              Baa    -0.0041    -0.545    -0.194    -0.182  0.3784  0.3858  0.8414
    15 C(13)  Bbb    -0.0008    -0.104    -0.037    -0.035  0.6626  0.5218 -0.5373
              Bcc     0.0048     0.649     0.231     0.216 -0.6464  0.7608 -0.0582
 
              Baa    -0.0057    -3.053    -1.089    -1.018  0.2454  0.5806  0.7764
    16 H(1)   Bbb    -0.0027    -1.445    -0.515    -0.482  0.8474  0.2605 -0.4626
              Bcc     0.0084     4.497     1.605     1.500 -0.4708  0.7714 -0.4281
 
              Baa    -0.0014    -0.772    -0.275    -0.257  0.3135  0.3027  0.9001
    17 H(1)   Bbb    -0.0010    -0.555    -0.198    -0.185  0.7434  0.5116 -0.4309
              Bcc     0.0025     1.327     0.473     0.442 -0.5909  0.8042 -0.0646
 
              Baa    -0.0022    -1.179    -0.421    -0.393  0.0758 -0.0582  0.9954
    18 H(1)   Bbb    -0.0015    -0.804    -0.287    -0.268  0.6729  0.7397 -0.0080
              Bcc     0.0037     1.984     0.708     0.662  0.7358 -0.6704 -0.0952
 

 ---------------------------------------------------------------------------------

 Calling FoFJK, ICntrl=  10100127 FMM=F ISym2X=0 I1Cent= 0 IOpClX= 1 NMat=1 NMatS=1 NMatT=0.
 ***** Axes restored to original set *****
 -------------------------------------------------------------------
 Center     Atomic                   Forces (Hartrees/Bohr)
 Number     Number              X              Y              Z
 -------------------------------------------------------------------
      1        6           0.000021152   -0.000109623   -0.000100542
      2        1          -0.000000867   -0.000000031   -0.000001171
      3        1          -0.000020184    0.000104349    0.000094494
      4        6           0.000009846   -0.000040635   -0.000035927
      5        1           0.000002846    0.000000267    0.000001658
      6        1          -0.000000478   -0.000000531    0.000000513
      7        6          -0.000000534    0.000001317    0.000001296
      8        1          -0.000000580   -0.000000947    0.000001993
      9        1          -0.000000226    0.000000388    0.000000102
     10        1           0.000001810    0.000001461    0.000000070
     11        8           0.000000976   -0.000002332   -0.000002461
     12        8          -0.000009350    0.000043129    0.000040424
     13        1          -0.000003104    0.000001331    0.000001075
     14        6          -0.000000965    0.000006676   -0.000001937
     15        6           0.000000207   -0.000003499    0.000002381
     16        1          -0.000000476   -0.000001750   -0.000000148
     17        1          -0.000000469    0.000000102   -0.000000963
     18        1           0.000000398    0.000000327   -0.000000858
 -------------------------------------------------------------------
 Cartesian Forces:  Max     0.000109623 RMS     0.000030290
 FormGI is forming the generalized inverse of G from B-inverse, IUseBI=4.

 GradGradGradGradGradGradGradGradGradGradGradGradGradGradGradGradGradGrad
 Berny optimization.
 Internal  Forces:  Max     0.000127889 RMS     0.000025455
 Search for a saddle point.
 Step number   1 out of a maximum of  108
 All quantities printed in internal units (Hartrees-Bohrs-Radians)
 Swapping is turned off.
 Second derivative matrix not updated -- analytic derivatives used.
 ITU=  0
     Eigenvalues ---   -0.07540   0.00173   0.00229   0.00342   0.00727
     Eigenvalues ---    0.01595   0.01924   0.02129   0.02884   0.03143
     Eigenvalues ---    0.03259   0.03875   0.03979   0.04113   0.04272
     Eigenvalues ---    0.06902   0.07601   0.08496   0.08572   0.08932
     Eigenvalues ---    0.10285   0.10595   0.11085   0.11796   0.13010
     Eigenvalues ---    0.13313   0.15260   0.16702   0.17107   0.17912
     Eigenvalues ---    0.18570   0.19551   0.25630   0.29439   0.31540
     Eigenvalues ---    0.31990   0.32408   0.33529   0.34154   0.34457
     Eigenvalues ---    0.34912   0.35201   0.35538   0.35659   0.35967
     Eigenvalues ---    0.36443   0.41085   0.62325
 Eigenvectors required to have negative eigenvalues:
                          R7        R13       R12       A20       D7
   1                    0.69007  -0.66054   0.15537  -0.08927  -0.08273
                          D4        D2        D1        A11       D5
   1                   -0.07963   0.07846  -0.06789  -0.06705   0.06672
 RFO step:  Lambda0=3.235874901D-10 Lambda=-5.58380136D-06.
 Linear search not attempted -- option 19 set.
 Iteration  1 RMS(Cart)=  0.01512249 RMS(Int)=  0.00006336
 Iteration  2 RMS(Cart)=  0.00010524 RMS(Int)=  0.00000140
 Iteration  3 RMS(Cart)=  0.00000001 RMS(Int)=  0.00000140
 Variable       Old X    -DE/DX   Delta X   Delta X   Delta X     New X
                                 (Linear)    (Quad)   (Total)
    R1        2.06497   0.00000   0.00000  -0.00019  -0.00019   2.06478
    R2        2.07134   0.00000   0.00000   0.00002   0.00002   2.07136
    R3        2.84735   0.00000   0.00000   0.00005   0.00005   2.84740
    R4        2.83380   0.00000   0.00000   0.00033   0.00033   2.83413
    R5        2.05263   0.00000   0.00000   0.00008   0.00008   2.05271
    R6        2.05105   0.00000   0.00000  -0.00004  -0.00004   2.05101
    R7        2.58429  -0.00000   0.00000   0.00035   0.00035   2.58464
    R8        2.06192   0.00000   0.00000  -0.00007  -0.00007   2.06185
    R9        2.05614  -0.00000   0.00000   0.00000   0.00000   2.05614
   R10        2.05784   0.00000   0.00000   0.00001   0.00001   2.05785
   R11        2.68406   0.00000   0.00000   0.00013   0.00013   2.68418
   R12        2.66328   0.00000   0.00000   0.00002   0.00002   2.66330
   R13        2.19163   0.00000   0.00000  -0.00002  -0.00002   2.19161
   R14        2.51186  -0.00000   0.00000   0.00002   0.00002   2.51187
   R15        2.04794  -0.00000   0.00000  -0.00007  -0.00007   2.04787
   R16        2.04113   0.00000   0.00000   0.00001   0.00001   2.04114
   R17        2.04496  -0.00000   0.00000   0.00001   0.00001   2.04497
    A1        1.85565   0.00003   0.00000   0.00113   0.00113   1.85678
    A2        1.90508   0.00002   0.00000   0.00065   0.00065   1.90573
    A3        1.91525  -0.00001   0.00000   0.00013   0.00013   1.91538
    A4        1.90449   0.00001   0.00000  -0.00041  -0.00041   1.90408
    A5        1.90851  -0.00004   0.00000  -0.00140  -0.00140   1.90711
    A6        1.97125  -0.00001   0.00000  -0.00003  -0.00003   1.97122
    A7        2.02138   0.00000   0.00000  -0.00050  -0.00050   2.02088
    A8        2.02789  -0.00000   0.00000   0.00046   0.00045   2.02834
    A9        1.86787  -0.00000   0.00000   0.00200   0.00200   1.86988
   A10        1.97976  -0.00000   0.00000  -0.00014  -0.00014   1.97962
   A11        1.75277  -0.00004   0.00000  -0.00325  -0.00325   1.74953
   A12        1.76559   0.00004   0.00000   0.00137   0.00137   1.76696
   A13        1.91862  -0.00000   0.00000   0.00014   0.00014   1.91875
   A14        1.91755   0.00000   0.00000   0.00001   0.00001   1.91757
   A15        1.93653  -0.00000   0.00000   0.00009   0.00009   1.93662
   A16        1.92276  -0.00000   0.00000  -0.00007  -0.00007   1.92270
   A17        1.83531  -0.00000   0.00000  -0.00012  -0.00012   1.83519
   A18        1.93172   0.00000   0.00000  -0.00005  -0.00005   1.93167
   A19        1.88175   0.00001   0.00000   0.00006   0.00006   1.88181
   A20        1.81760   0.00000   0.00000  -0.00007  -0.00007   1.81753
   A21        2.17574  -0.00000   0.00000  -0.00022  -0.00022   2.17552
   A22        2.01935   0.00000   0.00000   0.00013   0.00013   2.01947
   A23        2.08801   0.00000   0.00000   0.00009   0.00009   2.08809
   A24        2.12066  -0.00000   0.00000  -0.00002  -0.00002   2.12064
   A25        2.11875  -0.00000   0.00000   0.00003   0.00003   2.11878
   A26        2.04376   0.00000   0.00000  -0.00001  -0.00001   2.04375
   A27        3.10464  -0.00013   0.00000  -0.00471  -0.00471   3.09992
   A28        3.17871  -0.00001   0.00000  -0.00344  -0.00344   3.17527
    D1        3.04150  -0.00001   0.00000   0.01354   0.01354   3.05504
    D2       -0.85225  -0.00001   0.00000   0.01326   0.01326  -0.83899
    D3        1.10420   0.00005   0.00000   0.01650   0.01650   1.12070
    D4       -1.22058   0.00005   0.00000   0.01503   0.01503  -1.20555
    D5        1.16886   0.00005   0.00000   0.01475   0.01475   1.18361
    D6        3.12531   0.00010   0.00000   0.01799   0.01799  -3.13988
    D7        0.90594  -0.00000   0.00000   0.01293   0.01293   0.91887
    D8       -2.98780  -0.00000   0.00000   0.01264   0.01264  -2.97516
    D9       -1.03135   0.00005   0.00000   0.01589   0.01589  -1.01547
   D10        2.14111   0.00000   0.00000   0.00035   0.00035   2.14146
   D11       -1.01499   0.00000   0.00000   0.00006   0.00006  -1.01493
   D12        0.11204  -0.00001   0.00000  -0.00029  -0.00029   0.11175
   D13       -3.04406  -0.00001   0.00000  -0.00058  -0.00058  -3.04464
   D14       -2.01221   0.00001   0.00000   0.00126   0.00126  -2.01096
   D15        1.11487   0.00001   0.00000   0.00096   0.00096   1.11583
   D16        2.36799  -0.00002   0.00000  -0.00680  -0.00681   2.36119
   D17        0.26005   0.00002   0.00000  -0.00496  -0.00496   0.25510
   D18       -1.78114   0.00002   0.00000  -0.00363  -0.00362  -1.78476
   D19        1.13415   0.00000   0.00000  -0.00046  -0.00046   1.13369
   D20       -3.07545   0.00000   0.00000  -0.00033  -0.00033  -3.07578
   D21       -0.99943  -0.00000   0.00000  -0.00050  -0.00050  -0.99993
   D22       -1.62373   0.00000   0.00000  -0.00205  -0.00205  -1.62578
   D23        3.13396   0.00000   0.00000   0.00007   0.00007   3.13403
   D24       -0.01264  -0.00000   0.00000   0.00002   0.00002  -0.01262
   D25        0.00741   0.00000   0.00000   0.00037   0.00037   0.00778
   D26       -3.13919  -0.00000   0.00000   0.00032   0.00032  -3.13886
         Item               Value     Threshold  Converged?
 Maximum Force            0.000128     0.000450     YES
 RMS     Force            0.000025     0.000300     YES
 Maximum Displacement     0.039838     0.001800     NO 
 RMS     Displacement     0.015116     0.001200     NO 
 Predicted change in Energy=-2.797685D-06
 GradGradGradGradGradGradGradGradGradGradGradGradGradGradGradGradGradGrad

                          Input orientation:                          
 ---------------------------------------------------------------------
 Center     Atomic      Atomic             Coordinates (Angstroms)
 Number     Number       Type             X           Y           Z
 ---------------------------------------------------------------------
      1          6           0       -1.506658   -0.997925   -0.575204
      2          1           0       -1.443875   -1.305467   -1.621784
      3          1           0       -2.370121   -1.522462   -0.150042
      4          6           0       -0.258797   -1.437491    0.145909
      5          1           0       -0.170515   -1.112533    1.178643
      6          1           0        0.047746   -2.466881   -0.010208
      7          6           0        1.914032    1.579514    0.612028
      8          1           0        0.884079    1.515855    0.966445
      9          1           0        2.565867    1.900771    1.421836
     10          1           0        1.976504    2.279137   -0.220123
     11          8           0        2.399758    0.300680    0.229650
     12          8           0        1.646351   -0.132810   -0.879743
     13          1           0        0.789487   -0.759515   -0.412786
     14          6           0       -1.737729    0.481750   -0.494956
     15          6           0       -2.766781    1.053550    0.122249
     16          1           0       -0.987690    1.101233   -0.972510
     17          1           0       -2.879824    2.127254    0.154622
     18          1           0       -3.530583    0.462528    0.610462
 ---------------------------------------------------------------------
                    Distance matrix (angstroms):
                    1          2          3          4          5
     1  C    0.000000
     2  H    1.092636   0.000000
     3  H    1.096115   1.752439   0.000000
     4  C    1.506778   2.132271   2.133658   0.000000
     5  H    2.207803   3.082379   2.602251   1.086246   0.000000
     6  H    2.212063   2.484148   2.599530   1.085350   1.815285
     7  C    4.444530   4.958687   5.343873   3.747102   3.451595
     8  H    3.796235   4.480866   4.589960   3.271345   2.840004
     9  H    5.382943   5.968385   6.209131   4.555294   4.077613
    10  H    4.795586   5.149081   5.774965   4.352456   4.250843
    11  O    4.194551   4.558622   5.120523   3.177447   3.082866
    12  O    3.283693   3.387514   4.312266   2.526607   2.915100
    13  H    2.314196   2.597623   3.261019   1.367732   1.891791
    14  C    1.499758   2.133128   2.129731   2.506279   2.792639
    15  C    2.506572   3.218181   2.620557   3.534944   3.542384
    16  H    2.198556   2.534140   3.077555   2.868321   3.193117
    17  H    3.490699   4.123244   3.697709   4.424621   4.345710
    18  H    2.763151   3.530309   2.421823   3.811885   3.754159
                    6          7          8          9         10
     6  H    0.000000
     7  C    4.499279   0.000000
     8  H    4.185151   1.091085   0.000000
     9  H    5.240999   1.088064   1.784363   0.000000
    10  H    5.127266   1.088968   1.784358   1.785088   0.000000
    11  O    3.639902   1.420408   2.077691   2.002296   2.072615
    12  O    2.959648   2.286720   2.589896   3.205967   2.522219
    13  H    1.904560   2.790323   2.662431   3.687613   3.267956
    14  C    3.480995   3.970625   3.174736   4.920229   4.135416
    15  C    4.509162   4.735667   3.775603   5.553724   4.911012
    16  H    3.837915   3.340585   2.726716   4.358890   3.277193
    17  H    5.450129   4.846679   3.898696   5.595773   4.873133
    18  H    4.665951   5.558013   4.552524   6.316136   5.858153
                   11         12         13         14         15
    11  O    0.000000
    12  O    1.409357   0.000000
    13  H    2.032169   1.159751   0.000000
    14  C    4.204360   3.460888   2.816792   0.000000
    15  C    5.222210   4.678373   4.027470   1.329227   0.000000
    16  H    3.682510   2.910265   2.633256   1.083686   2.089482
[...]
 15865,-0.0041211,0.038611,-0.1275704,-0.0068267,0.0338361,0.0351701,0.
 0539771,0.2779125,-0.1124859,-0.0334253,0.2362331,0.6691312,0.0517088,
 0.0230557,0.0754121,0.2971956,-0.0795713,0.0555968,0.0853245,-0.105855
 4,-0.0477074,0.0015283,0.0592857,-0.0033254,0.0240118,-0.0019863,-0.02
 34058,-0.0834923,-0.0360596,-0.000257,-0.0436802,-0.093859,-0.0712363,
 -0.0181223,0.0657004,0.025053,0.0249452,-0.0459428,-0.0899557,0.022917
 6,0.0356485,0.1355172,-0.0573816,-0.6272316,-0.1514129,0.0872575,-0.23
 81538,-0.5341143,0.0305083,-0.6918367,-0.4794873,-0.1919672,0.684859,0
 .5893173,-0.0942574,0.5911257,0.0613496,-0.0803267,0.4725818,0.2200318
 ,-0.1787132,-0.7640393,-0.6160913,0.0691874,-0.6778561,-0.2792073,0.07
 35793,0.4134876,0.2713,0.0305382,-0.0010606,-0.0286614,-0.1544234,-0.1
 737664,0.1481756,0.0507771,-0.1918988,0.017768,-0.1334027,-0.1078037,0
 .097352,-0.1190585,0.1213106,0.0327345,-0.0606553,-0.1239198,-0.068902
 4,-0.2191802,0.0313494,-0.0481003,0.0858426,-0.0238673,-0.0249045,0.01
 63803,0.092377,0.0159737,0.0836363,0.0649642,-0.0027759,0.0424883,0.05
 00506,-0.0889666,-0.0090251,0.0541743,0.0094004,0.1172322,0.0154208,-0
 .0293794,0.072837,-0.0931983,-0.0157493,0.0568722,0.0771082,0.0195055,
 0.0887701\Polar=102.3967271,11.4324809,83.9450784,-4.2287891,4.5883505
 ,61.3131675\PG=C01 [X(C5H11O2)]\NImag=1\\0.48953790,0.02573804,0.49577
 652,-0.03928540,0.01540420,0.54492306,-0.04510411,0.00300659,0.0190613
 6,0.05287535,0.00323544,-0.06834436,-0.06824504,-0.00773335,0.07459358
 ,0.01719965,-0.06600671,-0.28133280,-0.01559229,0.07445322,0.30833985,
 -0.19545348,-0.09682043,0.08202294,-0.00185894,-0.00099804,0.00132717,
 0.21908989,-0.08793274,-0.09892287,0.04515186,0.00701036,0.00384014,-0
 .00319326,0.10042145,0.11333750,0.07541703,0.04485882,-0.08445531,0.02
 459799,0.01484406,-0.01258274,-0.08499325,-0.05199611,0.08963176,-0.14
 898071,0.03310462,-0.05736877,-0.00224352,-0.00202741,-0.00077538,-0.0
 2668841,0.00520594,-0.01267462,0.28745575,0.04429660,-0.08199919,0.010
 74070,-0.00875568,0.00315713,-0.00429332,-0.00858042,0.00347061,-0.005
 83054,-0.14219198,0.47812143,-0.06416621,0.00764561,-0.10383687,-0.030
 82357,0.00955879,-0.01664167,0.00555161,-0.00342997,0.00479266,0.10438
 245,0.11581514,0.48496284,0.00018945,-0.00727038,-0.02818120,-0.004419
 79,0.00245031,-0.00259887,0.00109788,-0.00024538,0.00106270,-0.0357685
 8,0.00971648,-0.01751389,0.03940975,0.00028130,0.00340840,0.00708093,0
 .00191113,0.00065262,0.00160604,0.00035238,0.00024149,0.00019025,0.007
 02049,-0.06888228,-0.08065579,-0.00364097,0.06931769,0.00182648,-0.003
 62907,-0.01034376,-0.00282508,0.00065422,0.00000565,-0.00034846,-0.000
 16546,0.00018643,-0.02968644,-0.08922488,-0.29839572,0.02816002,0.0908
 8380,0.31663598,-0.00339960,0.02795664,0.00377126,0.00107643,-0.000858
 43,-0.00000081,0.00079003,-0.00086176,0.00069478,-0.05363833,0.0732346
 8,-0.00047460,0.00281450,-0.00114257,-0.00018149,0.05974790,-0.0017637
 6,-0.00290098,-0.00202126,-0.00010082,0.00021033,0.00034360,0.00052863
 ,-0.00017359,0.00006429,0.08595555,-0.30038531,-0.04896165,0.00161352,
 -0.00457315,0.00167287,-0.08723172,0.31642846,-0.00288285,0.01406150,0
 .00349760,0.00126604,0.00012038,0.00077816,-0.00042680,0.00006377,0.00
 011323,-0.00104097,-0.04240113,-0.05308880,0.00673308,-0.02795179,-0.0
 0056412,-0.00247769,0.04794821,0.05040842,-0.00078394,-0.00084962,0.00
 037603,0.00014816,0.00017164,0.00004515,-0.00015328,0.00021918,-0.0002
 7802,0.00336575,0.00058144,-0.00201237,-0.00007091,-0.00036412,0.00048
 481,-0.00076211,0.00005564,0.00061281,0.58815871,0.00193397,0.00197088
 ,-0.00164303,-0.00013195,-0.00026503,0.00010575,0.00084221,-0.00076970
 ,0.00073394,-0.00840378,-0.00562081,0.00501918,0.00056314,0.00061629,-
 0.00051761,0.00129850,0.00047657,-0.00069518,0.03821257,0.46740443,0.0
 0078513,0.00081950,-0.00052718,-0.00003856,-0.00012132,0.00000115,0.00
 025961,-0.00020112,0.00025072,-0.00352048,-0.00154981,0.00246050,0.000
 13621,0.00026012,-0.00025517,0.00056401,0.00017389,-0.00040370,0.03673
 097,-0.04262280,0.59059379,0.00042160,0.00042852,-0.00035474,-0.000053
 88,-0.00002325,-0.00001416,0.00009514,-0.00007372,0.00013199,-0.001232
 10,-0.00084062,0.00121119,0.00001859,-0.00006567,-0.00019294,0.0002109
 6,0.00001822,-0.00018668,-0.27870342,-0.02650206,0.07737097,0.30373759
 ,-0.00054553,-0.00025769,0.00035935,0.00007510,0.00001151,0.00000731,-
 0.00013300,0.00010532,-0.00013016,0.00152464,0.00127759,-0.00085414,-0
 .00062452,-0.00070049,0.00041620,-0.00002113,-0.00001450,0.00024488,-0
 .03255711,-0.05212397,0.01064975,0.01899762,0.06110734,-0.00003399,-0.
 00027806,0.00000890,-0.00002393,0.00003194,-0.00000873,-0.00004914,0.0
 0011787,-0.00007560,0.00048250,0.00042466,-0.00029991,0.00002432,0.000
 01950,0.00011088,-0.00008613,0.00002608,0.00000920,0.07456888,0.011964
 09,-0.07901860,-0.08734076,-0.00638062,0.07774691,-0.00000526,0.000090
 74,0.00004344,-0.00000439,-0.00002139,-0.00000310,-0.00000105,-0.00004
 471,0.00002189,-0.00005037,-0.00007110,-0.00008511,0.00004766,0.000104
 07,-0.00008686,0.00000270,-0.00005688,-0.00002259,-0.15299101,-0.04737
 468,-0.12516068,-0.01506827,-0.00781221,-0.02278152,0.15667141,-0.0001
 6923,-0.00016354,0.00015032,0.00004245,0.00003939,0.00000144,-0.000084
 00,0.00010045,-0.00008186,0.00076143,0.00031460,-0.00019229,-0.0001853
 4,-0.00010623,0.00007115,-0.00014197,-0.00001447,0.00007438,-0.0393757
 0,-0.06929075,-0.04778111,-0.00237741,0.00022267,-0.00142324,0.0483361
 4,0.08033036,-0.00015307,-0.00012343,0.00008523,0.00002001,0.00003249,
 -0.00000645,-0.00004432,0.00003719,-0.00004492,0.00043453,0.00021718,-
 0.00010533,-0.00008973,-0.00009433,0.00005133,-0.00008408,0.00000444,0
 .00005692,-0.11972718,-0.05528309,-0.19700513,0.00658712,0.00428129,0.
 00957233,0.13290569,0.06674138,0.21233616,0.00019265,0.00008875,-0.000
 12495,-0.00004007,-0.00001359,-0.00001718,0.00003352,0.00002040,0.0000
 2088,-0.00048399,-0.00018568,0.00056090,0.00000558,0.00008187,-0.00014
 036,0.00007141,0.00001329,-0.00014973,-0.05442478,-0.01443010,0.017969
 28,-0.00121532,-0.01912056,0.02460887,0.00220756,0.01270746,-0.0149531
 1,0.05217773,-0.00023560,-0.00026908,0.00023639,0.00000916,0.00002557,
 -0.00002240,-0.00013480,0.00013110,-0.00011300,0.00133394,0.00081868,-
 0.00076816,-0.00008255,-0.00010159,0.00006349,-0.00017380,-0.00006435,
 0.00010492,-0.01525474,-0.14280450,0.12316580,-0.00096855,0.00042028,0
 .00374281,0.00102942,0.00840307,-0.00734456,0.00730415,0.16965733,0.00
 004180,0.00006599,-0.00002773,0.00000659,-0.00002667,0.00002069,0.0000
 3538,-0.00007757,0.00003768,-0.00073316,-0.00029663,0.00007428,0.00009
 423,0.00008060,0.00001505,0.00012949,0.00004660,-0.00003662,0.01468033
 ,0.13113366,-0.21686002,-0.00064473,0.00550838,-0.00664937,0.00341615,
 0.01394576,-0.01554611,-0.01722266,-0.13896384,0.22487359,-0.00293796,
 -0.00261793,0.00251724,0.00017760,0.00013327,-0.00018382,-0.00103904,0
 .00090717,-0.00102734,0.01237858,0.00961384,-0.00800367,-0.00111975,-0
 .00072287,0.00122835,-0.00161335,-0.00108456,0.00075823,-0.10504608,0.
 05664717,-0.00568551,-0.01114381,0.03901524,0.00915135,0.00670229,-0.0
 2023954,-0.00655072,0.00182619,0.00628959,-0.00169711,0.21850165,-0.00
 234215,-0.00256707,0.00209362,0.00015973,0.00020415,-0.00019850,-0.000
 84858,0.00082128,-0.00095386,0.01015875,0.00710575,-0.00591229,-0.0005
 0003,-0.00040851,0.00070854,-0.00155374,-0.00060317,0.00059789,0.08151
 952,-0.18684311,-0.00033986,0.01116207,-0.01277402,-0.00986323,0.00281
 399,-0.01244909,-0.00511461,0.01512723,-0.04064714,-0.01155638,-0.0631
 8481,0.32038246,-0.00541046,-0.00383548,0.00382574,0.00036144,0.000475
 61,-0.00027230,-0.00172190,0.00158866,-0.00175043,0.03149999,0.0175452
 2,-0.01387845,-0.00479154,-0.00344014,0.00284291,-0.00390559,-0.002059
 76,0.00252172,0.01175684,-0.02394389,-0.06662997,0.00542806,-0.0192821
 3,-0.00349578,0.00821531,-0.02702672,-0.01023703,-0.01138312,0.0155208
 4,0.01086100,0.09110508,0.09190134,0.21302884,0.01127742,0.00609775,-0
 .00485434,-0.00052376,-0.00048066,-0.00014098,0.00188417,-0.00230636,0
 .00208682,-0.10042474,-0.06612961,0.05415760,0.00729168,0.00582274,-0.
 00433551,0.00722312,0.00330240,-0.00464544,0.00197314,-0.01384079,-0.0
 0381204,0.00192412,0.00388251,0.00249453,0.00273616,0.00069964,0.00147
 059,-0.00040794,0.00302691,0.00110601,-0.07989556,-0.02852066,-0.07158
 155,0.08594217,0.00677485,0.00361049,-0.00311885,-0.00042754,-0.000236
 87,-0.00010376,0.00072377,-0.00133975,0.00119301,-0.06947434,-0.041544
 58,0.03528967,0.00493190,0.00359582,-0.00240390,0.00440368,0.00319213,
 -0.00263389,-0.02822005,-0.01990901,-0.04631969,-0.00117697,0.00449059
 ,0.00266659,0.00266434,-0.00708192,-0.00298362,-0.00195613,0.00584286,
 -0.00055118,-0.00361856,-0.05711981,-0.01315727,0.04203265,0.09139466,
 0.00186786,0.00188532,-0.00222449,0.00027083,-0.00024019,0.00048485,0.
 00165665,-0.00090436,0.00108822,0.01491989,0.01161767,-0.00599427,0.00
 196382,0.00162537,-0.00061057,0.00121288,0.00105165,-0.00095714,-0.015
 01322,-0.01943876,-0.03024658,-0.00177889,0.00408238,0.00165906,0.0031
 0580,-0.00409382,0.00101752,0.00086050,0.00365654,0.00379819,-0.070321
 07,-0.05096878,-0.16018443,0.04181169,0.03543710,0.24857317,-0.0264492
 0,-0.01141653,0.00864023,0.00114701,0.00049866,0.00021484,-0.00272524,
 0.00320242,-0.00347907,0.07356226,0.05702271,-0.04613329,-0.01040482,-
 0.00843707,0.00557048,-0.00797428,-0.00317131,0.00575245,-0.00119802,0
 .01126198,0.00517340,0.00163148,-0.00256005,-0.00083504,-0.00015772,0.
 00003832,0.00003610,0.00027797,-0.00198309,0.00065383,-0.03651803,-0.0
 2418863,-0.04979430,0.06212198,0.04331427,0.01922356,-0.05424218,-0.00
 779538,-0.00373447,0.00276217,0.00046619,0.00051207,0.00008212,0.00015
 530,0.00219930,-0.00141246,0.06568788,0.01990268,-0.03176062,-0.005183
 29,-0.00441809,0.00150185,-0.01534720,-0.01183390,0.00939683,-0.004276
 85,0.00654332,0.00405873,0.00157743,-0.00164208,-0.00103594,0.00038370
 ,-0.00022321,-0.00037756,0.00043386,-0.00128793,0.00059292,-0.02047369
 ,-0.01474816,-0.03368395,0.04458535,0.01417586,0.01648767,-0.06176384,
 -0.00406179,0.00116466,0.00010808,-0.00063727,-0.00103721,-0.00048482,
 -0.00006288,-0.00126739,-0.00082807,0.00104733,-0.04416208,-0.02692842
 ,-0.00199730,0.01428704,0.00962463,-0.01046813,0.00347663,0.00102019,-
 0.00232720,-0.00207014,-0.00485088,-0.00228130,0.00003579,0.00115239,0
 .00061795,0.00044677,-0.00037247,-0.00016023,-0.00003806,0.00073579,-0
 .00061413,-0.01124866,-0.01030588,0.02361959,-0.01390885,-0.00324358,-
 0.05673298,0.05483936,0.03340775,0.05001424,-0.08161898,0.01372455,0.0
 0729981,-0.00189609,0.00538950,0.00171242,0.00295893,-0.02701271,-0.00
 063026,-0.00964208,0.03378749,0.00272892,0.00121032,-0.00121146,0.0008
 3449,-0.00468693,0.00232610,-0.00319788,0.00061249,-0.00011761,-0.0005
 2782,-0.00025830,-0.00003381,-0.00013730,-0.00004502,0.00000099,0.0001
 0876,-0.00024786,-0.00012192,0.00013268,-0.00024470,0.00015993,0.00038
 070,-0.00011742,-0.00007386,0.00008299,0.00055741,0.00143830,-0.000572
 50,0.65150881,0.00682560,-0.21610461,-0.00375890,0.00305066,-0.0107341
 5,-0.00178078,0.00218529,-0.02020239,-0.00062700,0.01626078,-0.0116285
 1,0.00139288,-0.00200122,0.00108344,-0.00078956,-0.00158555,0.00018832
 ,0.00020003,-0.00058981,0.00139618,0.00046838,0.00007575,-0.00014997,-
 0.00040754,0.00020463,-0.00017574,-0.00006715,-0.00007226,-0.00025087,
 0.00011147,-0.00132510,-0.00153260,-0.00241718,0.00491737,0.00129714,0
 .00139113,-0.00451291,-0.00194493,0.00160458,-0.07067319,0.59827171,0.
 00734664,-0.00670813,-0.08014785,0.00543294,-0.03358166,0.00056207,-0.
 00116898,0.01478927,0.00003919,-0.00074577,0.01540383,0.00256084,0.000
 24513,0.00109769,0.00064141,-0.00286203,0.00052475,-0.00061403,0.00013
 280,0.00006145,-0.00026006,-0.00026810,-0.00017642,0.00030017,-0.00021
 153,0.00003994,-0.00000686,0.00021805,0.00001800,-0.00002148,-0.000101
 16,-0.00003397,-0.00020899,-0.00054778,0.00043853,0.00040568,0.0004949
 7,-0.00039740,0.00004833,-0.29994675,0.02603957,0.33770586,-0.00101964
 ,0.00617667,0.00467087,0.00038383,-0.00090595,-0.00100771,0.00081461,-
 0.00124102,-0.00086359,0.00099317,-0.00093074,0.00045080,-0.00008384,0
 .00003001,-0.00009818,0.00025617,-0.00019301,-0.00013036,0.00010307,0.
 00006373,0.00001603,-0.00014965,-0.00005551,0.00003907,-0.00001985,0.0
 0000549,-0.00001095,0.00006878,0.00001630,-0.00001231,-0.00008867,0.00
 003488,-0.00005684,-0.00018497,0.00025019,-0.00009036,0.00004381,-0.00
 025081,0.00011574,-0.36108237,0.14409728,0.18744939,0.61474357,0.02926
 751,-0.01689465,-0.01714406,0.00114968,-0.00422001,-0.00041034,0.00149
 296,0.00196184,-0.00080593,-0.00253430,-0.00415475,-0.00182459,0.00035
 693,0.00028474,0.00052662,0.00146694,-0.00015314,0.00097834,0.00043189
 ,-0.00063726,-0.00034868,-0.00008079,0.00004065,0.00025195,-0.00014356
 ,0.00009356,0.00003346,0.00001861,0.00011308,-0.00002739,0.00040791,0.
 00069212,0.00107114,-0.00173653,-0.00026995,-0.00078106,0.00131355,0.0
 0050663,-0.00051350,0.14425190,-0.19067294,-0.08394193,-0.07709958,0.6
 8917039,0.00393552,-0.00335665,0.00413072,-0.00023056,0.00087693,0.000
 50733,-0.00078571,0.00076789,-0.00000226,-0.00150971,0.00074285,-0.000
 41836,0.00061583,-0.00042782,0.00036267,-0.00012727,0.00043103,0.00042
 591,0.00044616,-0.00027535,-0.00033481,-0.00005861,0.00004439,0.000021
 14,-0.00005448,0.00001161,0.00004371,-0.00016183,-0.00001336,0.0000483
 4,0.00000313,0.00019115,0.00038164,-0.00006302,-0.00019834,-0.00002913
 ,0.00015083,0.00020786,-0.00021511,0.18750938,-0.08394889,-0.16203557,
 -0.30990561,0.02792943,0.29700321,0.00458780,0.00408239,-0.00194526,0.
 00023430,-0.00030940,0.00010474,0.00067892,0.00146057,0.00013534,0.000
 97504,-0.00057092,0.00009812,-0.00005549,-0.00000902,-0.00008640,0.000
 03875,-0.00015853,0.00013292,-0.00007022,-0.00010181,-0.00033647,-0.00
 027732,-0.00007589,-0.00010346,-0.00001986,-0.00000947,0.00006072,-0.0
 0007006,-0.00006037,0.00001185,-0.00001596,0.00007121,-0.00002879,-0.0
 0068938,-0.00017503,0.00028244,0.00023221,0.00044749,-0.00014374,-0.18
 279931,-0.10777839,0.09082835,-0.01379662,-0.01589713,0.01282372,0.191
 52743,-0.02047490,-0.01582937,0.01369283,-0.00007418,0.00093852,-0.000
 55872,0.00132091,-0.00566172,-0.00018230,-0.00224431,0.00060016,-0.000
 17705,0.00010407,-0.00005436,0.00020290,0.00044065,0.00022001,-0.00019
 870,0.00018125,0.00003187,-0.00027064,-0.00015665,0.00002128,0.0001138
 1,-0.00009345,-0.00001453,0.00003227,-0.00002063,-0.00000506,0.0000418
 9,0.00018313,0.00032235,0.00053207,-0.00112013,0.00006897,-0.00074763,
 0.00111417,-0.00014269,0.00001051,-0.11044579,-0.14830726,0.07145392,0
 .01236207,0.01041800,-0.00773977,0.11647420,0.15644309,-0.00079070,-0.
 00253095,0.00355261,-0.00028182,0.00092014,0.00036489,0.00021621,-0.00
 089095,0.00155622,0.00046453,-0.00017925,0.00006065,-0.00007588,0.0000
 5674,-0.00013365,-0.00009365,-0.00011294,-0.00003010,-0.00054584,0.000
 23394,0.00038827,0.00000108,0.00004055,-0.00046006,0.00022588,-0.00005
 809,-0.00004406,-0.00006524,-0.00002237,0.00004252,-0.00001176,-0.0001
 9795,-0.00035077,0.00064563,-0.00022166,-0.00004823,-0.00036837,0.0001
 2405,0.00016461,0.09011732,0.06946381,-0.09959386,0.01234788,0.0098340
 1,-0.00157043,-0.10453489,-0.07479721,0.09360680,0.00064497,0.00031504
 ,0.00824692,-0.00052486,0.00202364,0.00004969,0.00016135,0.00018488,-0
 .00019749,0.00068349,-0.00064444,-0.00020186,-0.00012356,-0.00007824,-
 0.00012296,0.00006926,-0.00008400,0.00001541,-0.00014367,0.00013257,0.
 00004156,0.00002895,0.00004931,-0.00002225,0.00000950,-0.00001963,-0.0
 0000272,-0.00001154,-0.00001993,0.00002338,0.00001150,-0.00016301,-0.0
 0017797,0.00016824,0.00009431,0.00008923,-0.00016538,-0.00013138,0.000
 10536,0.00045237,0.02734463,0.00055051,-0.05354553,0.02354043,0.010756
 25,-0.00120473,-0.00032793,-0.00415555,0.04895658,0.00174189,0.0013629
 2,-0.00078856,0.00031427,-0.00034903,-0.00004352,0.00010262,0.00054107
 ,0.00004475,-0.00031769,-0.00059028,-0.00024041,0.00003819,0.00002512,
 0.00002824,0.00016782,0.00000019,0.00011318,0.00010734,-0.00018307,-0.
 00006243,-0.00000431,-0.00000918,0.00001268,-0.00000345,0.00001989,0.0
 0001250,-0.00001006,0.00002325,-0.00001456,0.00011344,0.00018580,0.000
 30435,-0.00032805,-0.00016996,-0.00017493,0.00034314,0.00022522,-0.000
 15437,-0.00179362,-0.01003027,0.00161189,0.02796406,-0.34095970,-0.006
 69095,0.00011901,0.00119659,-0.00040295,-0.03200100,0.35964760,0.00749
 585,0.00085625,0.00937695,-0.00074596,0.00162670,-0.00000351,-0.000150
 11,-0.00005480,-0.00007021,0.00025834,-0.00278805,-0.00065541,-0.00004
 703,-0.00001984,-0.00009601,0.00073903,-0.00019620,0.00035523,-0.00005
 212,-0.00008376,0.00000772,-0.00000778,0.00003408,0.00003331,-0.000020
 28,0.00001229,0.00000295,0.00003305,0.00001940,-0.00001719,0.00011262,
 0.00006192,0.00010345,-0.00020727,-0.00001121,-0.00010679,0.00011050,0
 .00005489,-0.00006501,0.00187070,-0.01666195,0.00249346,0.01050423,-0.
 00367067,-0.04107751,-0.00406791,-0.00007899,-0.00539448,-0.01422350,0
 .00809831,0.03250644,-0.00109891,-0.00183541,-0.00453544,0.00062674,-0
 .00053098,-0.00031937,0.00031500,0.00108604,-0.00002579,-0.00026120,0.
 00064795,0.00027298,-0.00003869,0.00006800,0.00000005,-0.00022664,0.00
 003124,-0.00010996,-0.00001390,-0.00005304,0.00003438,0.00003365,-0.00
 000510,0.00004399,-0.00001449,0.00001038,-0.00000762,0.00004018,0.0000
 2589,-0.00002174,0.00006511,0.00009431,0.00010463,-0.00029844,-0.00006
 747,-0.00014460,0.00026073,0.00004695,-0.00002273,-0.01466126,-0.01642
 358,0.01315332,-0.18743586,-0.10620643,0.09665598,0.00072450,0.0027775
 2,0.00690518,0.00453307,0.00344640,-0.00160234,0.19745039,0.00116408,0
 .00185870,-0.00095267,0.00002820,-0.00003554,0.00001183,-0.00052625,0.
 00031994,0.00020410,0.00017980,0.00003709,0.00005569,-0.00004085,0.000
 01910,0.00000059,-0.00005103,0.00000056,-0.00002363,0.00000753,0.00000
 767,0.00002130,0.00001039,-0.00002535,0.00001667,-0.00000561,-0.000004
 51,-0.00000385,0.00001340,-0.00000468,-0.00001305,-0.00004368,-0.00002
 121,-0.00009271,0.00009547,0.00000335,0.00011470,-0.00007578,-0.000027
 83,0.00001806,0.01040520,0.00949746,-0.00663932,-0.11032405,-0.1453186
 0,0.07144799,0.00249110,-0.00024584,-0.00125892,-0.02021524,-0.0109361
 6,0.01280164,0.11688732,0.14487586,-0.00435793,0.00076321,-0.00586753,
 0.00058176,-0.00089476,-0.00015357,-0.00011350,-0.00077483,0.00023805,
 -0.00022483,0.00098478,0.00040033,-0.00002425,0.00006404,0.00001482,-0
 .00029474,0.00004421,-0.00014469,-0.00013589,0.00010235,0.00012037,0.0
 0008119,0.00000252,-0.00007181,0.00004522,-0.00001866,-0.00001003,-0.0
 0001529,-0.00001629,0.00000131,-0.00004519,-0.00010915,-0.00017674,0.0
 0032390,-0.00007796,0.00010793,-0.00025047,-0.00000893,0.00004949,0.01
 223434,0.00978711,-0.00186831,0.09658190,0.06884319,-0.09724150,0.0067
 6872,-0.00132920,0.00788908,-0.00077401,-0.00165321,0.00260661,-0.1103
 8093,-0.07570841,0.09410621\\0.00000271,0.00000028,-0.00000109,0.00000
 022,-0.00000040,0.00000035,-0.00000039,-0.00000085,0.00000057,-0.00000
 027,0.00000218,-0.00000003,-0.00000066,0.00000018,0.00000053,-0.000000
 71,-0.00000034,-0.00000022,0.00000023,-0.00000031,-0.00000013,-0.00000
 016,0.00000001,0.00000019,-0.00000013,0.00000013,-0.00000010,0.0000001
 3,0.00000005,-0.00000018,-0.00000038,0.00000018,0.00000005,0.00000085,
 0.00000121,-0.00000047,-0.00000225,-0.00000184,-0.00000012,0.00000117,
 0.00000019,0.00000128,-0.00000014,-0.00000007,0.00000025,-0.00000011,-
 0.00000074,-0.00000080,-0.00000004,-0.00000004,-0.00000015,-0.00000005
 ,0.00000018,0.00000007\\\@


 NATURE GIVES TO EVERY TIME AND SEASON SOME BEAUTY OF ITS OWN.

                                                    --DICKENS
 Job cpu time:       3 days  3 hours  9 minutes  7.1 seconds.
 Elapsed time:       0 days  1 hours 56 minutes 19.5 seconds.
 File lengths (MBytes):  RWF= 108510 Int=      0 D2E=      0 Chk=     21 Scr=      1
 Normal termination of Gaussian 16 at Mon Jun 24 20:49:03 2019.
