 Entering Gaussian System, Link 0=g16
 Initial command:
 /ichec/packages/gaussian/16b01/l1.exe "/localscratch/347861/Gau-67339.inp" -scrdir="/localscratch/347861/"
 Entering Link 1 = /ichec/packages/gaussian/16b01/l1.exe PID=     68259.
  
 Copyright (c) 1988-2017, Gaussian, Inc.  All Rights Reserved.
  
 This is part of the Gaussian(R) 16 program.  It is based on
 the Gaussian(R) 09 system (copyright 2009, Gaussian, Inc.),
 the Gaussian(R) 03 system (copyright 2003, Gaussian, Inc.),
 the Gaussian(R) 98 system (copyright 1998, Gaussian, Inc.),
 the Gaussian(R) 94 system (copyright 1995, Gaussian, Inc.),
 the Gaussian 92(TM) system (copyright 1992, Gaussian, Inc.),
 the Gaussian 90(TM) system (copyright 1990, Gaussian, Inc.),
 the Gaussian 88(TM) system (copyright 1988, Gaussian, Inc.),
 the Gaussian 86(TM) system (copyright 1986, Carnegie Mellon
 University), and the Gaussian 82(TM) system (copyright 1983,
 Carnegie Mellon University). Gaussian is a federally registered
 trademark of Gaussian, Inc.
  
 This software contains proprietary and confidential information,
 including trade secrets, belonging to Gaussian, Inc.
  
 This software is provided under written license and may be
 used, copied, transmitted, or stored only in accord with that
 written license.
  
 The following legend is applicable only to US Government
 contracts under FAR:
  
                    RESTRICTED RIGHTS LEGEND
  
 Use, reproduction and disclosure by the US Government is
 subject to restrictions as set forth in subparagraphs (a)
 and (c) of the Commercial Computer Software - Restricted
 Rights clause in FAR 52.227-19.
  
 Gaussian, Inc.
 340 Quinnipiac St., Bldg. 40, Wallingford CT 06492
  
  
 ---------------------------------------------------------------
 Warning -- This program may not be used in any manner that
 competes with the business of Gaussian, Inc. or will provide
 assistance to any competitor of Gaussian, Inc.  The licensee
 of this program is prohibited from giving any competitor of
 Gaussian, Inc. access to this program.  By using this program,
 the user acknowledges that Gaussian, Inc. is engaged in the
 business of creating and licensing software in the field of
 computational chemistry and represents and warrants to the
 licensee that it is not a competitor of Gaussian, Inc. and that
 it will not use this program in any manner prohibited above.
 ---------------------------------------------------------------
  

 Cite this work as:
 Gaussian 16, Revision B.01,
 M. J. Frisch, G. W. Trucks, H. B. Schlegel, G. E. Scuseria, 
 M. A. Robb, J. R. Cheeseman, G. Scalmani, V. Barone, 
 G. A. Petersson, H. Nakatsuji, X. Li, M. Caricato, A. V. Marenich, 
 J. Bloino, B. G. Janesko, R. Gomperts, B. Mennucci, H. P. Hratchian, 
 J. V. Ortiz, A. F. Izmaylov, J. L. Sonnenberg, D. Williams-Young, 
 F. Ding, F. Lipparini, F. Egidi, J. Goings, B. Peng, A. Petrone, 
 T. Henderson, D. Ranasinghe, V. G. Zakrzewski, J. Gao, N. Rega, 
 G. Zheng, W. Liang, M. Hada, M. Ehara, K. Toyota, R. Fukuda, 
 J. Hasegawa, M. Ishida, T. Nakajima, Y. Honda, O. Kitao, H. Nakai, 
 T. Vreven, K. Throssell, J. A. Montgomery, Jr., J. E. Peralta, 
 F. Ogliaro, M. J. Bearpark, J. J. Heyd, E. N. Brothers, K. N. Kudin, 
 V. N. Staroverov, T. A. Keith, R. Kobayashi, J. Normand, 
 K. Raghavachari, A. P. Rendell, J. C. Burant, S. S. Iyengar, 
 J. Tomasi, M. Cossi, J. M. Millam, M. Klene, C. Adamo, R. Cammi, 
 J. W. Ochterski, R. L. Martin, K. Morokuma, O. Farkas, 
 J. B. Foresman, and D. J. Fox, Gaussian, Inc., Wallingford CT, 2016.
 
 ******************************************
 Gaussian 16:  ES64L-G16RevB.01 20-Dec-2017
                13-Jun-2019 
 ******************************************
 %mem=80GB
 %nproc=40
 Will use up to   40 processors via shared memory.
 ----------------------------------------------------------------------
 # opt=(calcfc,ts,noeigentest,maxcyc=500,modredundant) uB2PLYPD3/cc-pvt
 z scf=maxcyc=500 nosymm
 ----------------------------------------------------------------------
 1/5=1,6=500,10=4,11=1,18=120,38=1/1,3;
 2/9=110,12=2,15=1,17=6,18=5,40=1/2;
 3/5=16,6=1,11=2,25=1,30=1,71=2,74=-60,116=2,140=1/1,2,3;
 4//1;
 5/5=2,7=500,38=5/2;
 8/6=3,8=1,10=1,19=11,30=-1/1;
 9/15=3,16=-3/6;
 11/6=1,8=1,15=11,17=12,24=-1,27=1,28=-2,29=300,31=1,32=6,42=3/1,2,10;
 10/6=2,21=1,31=1/2;
 8/6=4,8=1,10=1,19=11,30=-1/11,4;
 10/5=1,20=4,31=1/2;
 11/12=2,14=11,16=1,17=2,28=-2,31=1,42=3,76=2/2,10,12;
 6/7=2,8=2,9=2,10=2/1;
 7/10=1,12=2,25=1,30=1,44=2/1,2,3,16;
 1/5=1,6=500,10=4,11=1,18=20/3(2);
 2/9=110,15=1/2;
 99//99;
 2/9=110,15=1/2;
 3/5=16,6=1,11=2,25=1,30=1,71=1,74=-60,116=2/1,2,3;
 4/5=5,16=3,69=1/1;
 5/5=2,7=500,38=5/2;
 8/6=4,10=1/1;
 9/15=2,16=-3/6;
 10/5=1,31=1/2;
 7/12=2,30=1/1,2,3,16;
 1/5=1,6=500,11=1,18=20/3(-8);
 2/9=110,15=1/2;
 6/7=2,8=2,9=2,10=2/1;
 99/9=10/99;
 -------------------
 Title Card Required
 -------------------
 Symbolic Z-matrix:
 Charge =  0 Multiplicity = 2
 C                     0.97693   0.67681  -0.1009 
 C                     0.57588   1.92955  -0.05283 
 C                    -2.36189  -0.31685   0.88662 
 H                    -1.54353  -0.05667   1.55969 
 H                    -3.24209   0.27722   1.1241 
 H                    -2.59007  -1.37807   0.96891 
 O                    -2.03569   0.02168  -0.45388 
 O                    -0.94683  -0.79304  -0.84501 
 H                    -0.06288  -0.18602  -0.55634 
 H                     1.24421   2.72186   0.27551 
 H                    -0.43034   2.20935  -0.33577 
 C                     2.20978  -0.0056    0.19794 
 C                     2.36299  -1.33044   0.16652 
 H                     3.05036   0.63182   0.46326 
 H                     3.31125  -1.78809   0.40278 
 H                     1.54104  -1.98134  -0.09516 
 
 Add virtual bond connecting atoms H9         and C1         Dist= 2.69D+00.
 The following ModRedundant input section has been read:
 D    *          8       1    *    R                                           
 D       2       1       8       7 S  36 10.000                                
 

 GradGradGradGradGradGradGradGradGradGradGradGradGradGradGradGradGradGrad
 Berny optimization.
 Initialization pass.
                           ----------------------------
                           !    Initial Parameters    !
                           ! (Angstroms and Degrees)  !
 --------------------------                            --------------------------
 ! Name  Definition              Value          Derivative Info.                !
 --------------------------------------------------------------------------------
 ! R1    R(1,2)                  1.3162         calculate D2E/DX2 analytically  !
 ! R2    R(1,9)                  1.4259         calculate D2E/DX2 analytically  !
 ! R3    R(1,12)                 1.4404         calculate D2E/DX2 analytically  !
 ! R4    R(2,10)                 1.0873         calculate D2E/DX2 analytically  !
 ! R5    R(2,11)                 1.0821         calculate D2E/DX2 analytically  !
 ! R6    R(3,4)                  1.0911         calculate D2E/DX2 analytically  !
 ! R7    R(3,5)                  1.0881         calculate D2E/DX2 analytically  !
 ! R8    R(3,6)                  1.0886         calculate D2E/DX2 analytically  !
 ! R9    R(3,7)                  1.4206         calculate D2E/DX2 analytically  !
 ! R10   R(7,8)                  1.415          calculate D2E/DX2 analytically  !
 ! R11   R(8,9)                  1.1105         calculate D2E/DX2 analytically  !
 ! R12   R(12,13)                1.334          calculate D2E/DX2 analytically  !
 ! R13   R(12,14)                1.0878         calculate D2E/DX2 analytically  !
 ! R14   R(13,15)                1.0791         calculate D2E/DX2 analytically  !
 ! R15   R(13,16)                1.0806         calculate D2E/DX2 analytically  !
 ! A1    A(2,1,9)              111.432          calculate D2E/DX2 analytically  !
 ! A2    A(2,1,12)             134.7564         calculate D2E/DX2 analytically  !
 ! A3    A(9,1,12)             113.8116         calculate D2E/DX2 analytically  !
 ! A4    A(1,2,10)             121.15           calculate D2E/DX2 analytically  !
 ! A5    A(1,2,11)             121.3257         calculate D2E/DX2 analytically  !
 ! A6    A(10,2,11)            117.5242         calculate D2E/DX2 analytically  !
 ! A7    A(4,3,5)              109.9927         calculate D2E/DX2 analytically  !
 ! A8    A(4,3,6)              110.063          calculate D2E/DX2 analytically  !
 ! A9    A(4,3,7)              110.6744         calculate D2E/DX2 analytically  !
 ! A10   A(5,3,6)              110.2536         calculate D2E/DX2 analytically  !
 ! A11   A(5,3,7)              105.1645         calculate D2E/DX2 analytically  !
 ! A12   A(6,3,7)              110.5964         calculate D2E/DX2 analytically  !
 ! A13   A(3,7,8)              107.4769         calculate D2E/DX2 analytically  !
 ! A14   A(7,8,9)              103.0582         calculate D2E/DX2 analytically  !
 ! A15   A(1,12,13)            124.3256         calculate D2E/DX2 analytically  !
 ! A16   A(1,12,14)            115.7456         calculate D2E/DX2 analytically  !
 ! A17   A(13,12,14)           119.9288         calculate D2E/DX2 analytically  !
 ! A18   A(12,13,15)           121.1278         calculate D2E/DX2 analytically  !
 ! A19   A(12,13,16)           121.099          calculate D2E/DX2 analytically  !
 ! A20   A(15,13,16)           117.7731         calculate D2E/DX2 analytically  !
 ! A21   L(1,9,8,4,-1)         174.7756         calculate D2E/DX2 analytically  !
 ! A22   L(1,9,8,4,-2)         176.7554         calculate D2E/DX2 analytically  !
 ! D1    D(9,1,2,10)           179.88           calculate D2E/DX2 analytically  !
 ! D2    D(9,1,2,11)             0.0287         calculate D2E/DX2 analytically  !
 ! D3    D(12,1,2,10)           -0.1465         calculate D2E/DX2 analytically  !
 ! D4    D(12,1,2,11)         -179.9979         calculate D2E/DX2 analytically  !
 ! D5    D(2,1,8,7)            -24.1238         Scan                            !
 ! D6    D(2,1,12,13)          174.7786         calculate D2E/DX2 analytically  !
 ! D7    D(2,1,12,14)           -5.1872         calculate D2E/DX2 analytically  !
 ! D8    D(9,1,12,13)           -5.2484         calculate D2E/DX2 analytically  !
 ! D9    D(9,1,12,14)          174.7858         calculate D2E/DX2 analytically  !
 ! D10   D(4,3,7,8)             65.125          calculate D2E/DX2 analytically  !
 ! D11   D(5,3,7,8)           -176.1314         calculate D2E/DX2 analytically  !
 ! D12   D(6,3,7,8)            -57.1183         calculate D2E/DX2 analytically  !
 ! D13   D(3,7,8,9)            -89.9939         calculate D2E/DX2 analytically  !
 ! D14   D(1,12,13,15)        -179.8395         calculate D2E/DX2 analytically  !
 ! D15   D(1,12,13,16)           0.0778         calculate D2E/DX2 analytically  !
 ! D16   D(14,12,13,15)          0.125          calculate D2E/DX2 analytically  !
 ! D17   D(14,12,13,16)       -179.9578         calculate D2E/DX2 analytically  !
 --------------------------------------------------------------------------------
 Trust Radius=3.00D-01 FncErr=1.00D-07 GrdErr=1.00D-07 EigMax=2.50D+02 EigMin=1.00D-04
 Number of optimizations in scan=  37
 Number of steps in this run=    100 maximum allowed number of steps=    100.
 Search for a saddle point of order  1.
 GradGradGradGradGradGradGradGradGradGradGradGradGradGradGradGradGradGrad

                          Input orientation:                          
 ---------------------------------------------------------------------
 Center     Atomic      Atomic             Coordinates (Angstroms)
 Number     Number       Type             X           Y           Z
 ---------------------------------------------------------------------
      1          6           0        0.976933    0.676814   -0.100899
      2          6           0        0.575883    1.929549   -0.052830
      3          6           0       -2.361893   -0.316852    0.886623
      4          1           0       -1.543525   -0.056671    1.559688
      5          1           0       -3.242085    0.277215    1.124102
      6          1           0       -2.590067   -1.378074    0.968911
      7          8           0       -2.035686    0.021679   -0.453882
      8          8           0       -0.946827   -0.793039   -0.845005
      9          1           0       -0.062884   -0.186022   -0.556338
     10          1           0        1.244209    2.721860    0.275508
     11          1           0       -0.430343    2.209352   -0.335765
     12          6           0        2.209776   -0.005597    0.197937
     13          6           0        2.362994   -1.330443    0.166521
     14          1           0        3.050363    0.631816    0.463261
     15          1           0        3.311246   -1.788089    0.402777
     16          1           0        1.541035   -1.981338   -0.095160
 ---------------------------------------------------------------------
                    Distance matrix (angstroms):
                    1          2          3          4          5
     1  C    0.000000
     2  C    1.316243   0.000000
     3  C    3.620819   3.815680   0.000000
     4  H    3.106165   3.322224   1.091071   0.000000
     5  H    4.411397   4.323454   1.088141   1.785027   0.000000
     6  H    4.253298   4.691222   1.088589   1.786162   1.785831
     7  O    3.103171   3.259003   1.420552   2.074325   2.002681
     8  O    2.532788   3.218489   2.286417   2.584731   3.207964
     9  H    1.425879   2.266536   2.717480   2.585845   3.625712
    10  H    2.096505   1.087300   4.755124   4.140147   5.179115
    11  H    2.093863   1.082050   3.406879   3.157020   3.710830
    12  C    1.440448   2.545050   4.633716   3.993024   5.537197
    13  C    2.453927   3.724168   4.885742   4.338698   5.909182
    14  H    2.149282   2.841393   5.511054   4.772837   6.336983
    15  H    3.431975   4.637954   5.880744   5.282523   6.908830
    16  H    2.717355   4.028442   4.355142   3.994668   5.428250
                    6          7          8          9         10
     6  H    0.000000
     7  O    2.071470   0.000000
     8  O    2.516505   1.415046   0.000000
     9  H    3.183399   1.986350   1.110474   0.000000
    10  H    5.656142   4.310533   4.290770   3.294881   0.000000
    11  H    4.385911   2.716062   3.088759   2.433412   1.854843
    12  C    5.051395   4.295295   3.416421   2.401347   2.894367
    13  C    5.017859   4.643438   3.502414   2.777968   4.205320
    14  H    6.009142   5.203971   4.440642   3.376499   2.768705
    15  H    5.942568   5.709536   4.547337   3.856329   4.962709
    16  H    4.308385   4.115057   2.857233   2.451204   4.727110
                   11         12         13         14         15
    11  H    0.000000
    12  C    3.487272   0.000000
    13  C    4.537088   1.334046   0.000000
    14  H    3.904149   1.087786   2.100236   0.000000
    15  H    5.524895   2.105344   1.079092   2.434678   0.000000
    16  H    4.637467   2.106341   1.080628   3.068954   1.849036
                   16
    16  H    0.000000
 Symmetry turned off by external request.
 Stoichiometry    C5H9O2(2)
 Framework group  C1[X(C5H9O2)]
 Deg. of freedom    42
 Full point group                 C1      NOp   1
 Rotational constants (GHZ):           3.7407073           1.3905558           1.1546070
 Standard basis: CC-pVTZ (5D, 7F)
   336 basis functions,   517 primitive gaussians,   380 cartesian basis functions
    28 alpha electrons       27 beta electrons
       nuclear repulsion energy       286.8365704112 Hartrees.
 NAtoms=   16 NActive=   16 NUniq=   16 SFac= 1.00D+00 NAtFMM=   60 NAOKFM=F Big=F
 Integral buffers will be    131072 words long.
 Raffenetti 2 integral format.
 Two-electron integral symmetry is turned off.
 Nuclear repulsion after empirical dispersion term =      286.8278353851 Hartrees.
 One-electron integrals computed using PRISM.
 NBasis=   336 RedAO= T EigKep=  2.87D-04  NBF=   336
 NBsUse=   336 1.00D-06 EigRej= -1.00D+00 NBFU=   336
 ExpMin= 1.03D-01 ExpMax= 1.53D+04 ExpMxC= 5.22D+02 IAcc=3 IRadAn=         5 AccDes= 0.00D+00
 Harris functional with IExCor=  419 and IRadAn=       5 diagonalized for initial guess.
 HarFok:  IExCor=  419 AccDes= 0.00D+00 IRadAn=         5 IDoV= 1 UseB2=F ITyADJ=14
 ICtDFT=  3500011 ScaDFX=  1.000000  1.000000  1.000000  1.000000
 FoFCou: FMM=F IPFlag=           0 FMFlag=      100000 FMFlg1=           0
         NFxFlg=           0 DoJE=T BraDBF=F KetDBF=T FulRan=T
         wScrn=  0.000000 ICntrl=       500 IOpCl=  0 I1Cent=   200000004 NGrid=           0
         NMat0=    1 NMatS0=      1 NMatT0=    0 NMatD0=    1 NMtDS0=    0 NMtDT0=    0
 Symmetry not used in FoFCou.
 Initial guess <Sx>= 0.0000 <Sy>= 0.0000 <Sz>= 0.5000 <S**2>= 0.7500 S= 0.5000
 Requested convergence on RMS density matrix=1.00D-08 within 500 cycles.
 Requested convergence on MAX density matrix=1.00D-06.
 Requested convergence on             energy=1.00D-06.
 No special actions if energy rises.
 Integral accuracy reduced to 1.0D-05 until final iterations.
 Initial convergence to 1.0D-05 achieved.  Increase integral accuracy.
 SCF Done:  E(UB2PLYPD3) =  -345.587856721     A.U. after   27 cycles
            NFock= 27  Conv=0.67D-08     -V/T= 2.0043
 <Sx>= 0.0000 <Sy>= 0.0000 <Sz>= 0.5000 <S**2>= 0.7894 S= 0.5195
 <L.S>=  0.00000000000    
 Annihilation of the first spin contaminant:
 S**2 before annihilation     0.7894,   after     0.7511
 DoSCS=T DFT=T ScalE2(SS,OS)=  0.270000  0.270000
 ExpMin= 1.03D-01 ExpMax= 1.53D+04 ExpMxC= 5.22D+02 IAcc=3 IRadAn=         5 AccDes= 0.00D+00
 HarFok:  IExCor=  205 AccDes= 0.00D+00 IRadAn=         5 IDoV=-2 UseB2=F ITyADJ=14
 ICtDFT= 12500011 ScaDFX=  1.000000  1.000000  1.000000  1.000000
 Range of M.O.s used for correlation:     8   336
 NBasis=   336 NAE=    28 NBE=    27 NFC=     7 NFV=     0
 NROrb=    329 NOA=    21 NOB=    20 NVA=   308 NVB=   309

 **** Warning!!: The largest alpha MO coefficient is  0.13830353D+02


 **** Warning!!: The largest beta MO coefficient is  0.14289855D+02

 DoSCS=T DFT=T ScalE2(SS,OS)=  0.270000  0.270000
 Disk-based method using ON**2 memory for 21 occupieds at a time.
 Permanent disk used for amplitudes=   106523802 words.
 Estimated scratch disk usage=  1968342264 words.
 Actual    scratch disk usage=  1903438584 words.
 JobTyp=2 Pass  1:  I=   8 to  28 NPSUse= 40 ParTrn=T ParDer=T DoDerP=T.
 (rs|ai) integrals will be sorted in core.
 Actual    scratch disk usage=  1903438584 words.
 JobTyp=3 Pass  1:  I=   8 to  27 NPSUse= 40 ParTrn=T ParDer=T DoDerP=T.
 (rs|ai) integrals will be sorted in core.
 Spin components of T(2) and E(2):
     alpha-alpha T2 =       0.7681289217D-01 E2=     -0.5315149501D-01
     alpha-beta  T2 =       0.4688145206D+00 E2=     -0.3252272467D+00
     beta-beta   T2 =       0.8195077388D-01 E2=     -0.5195120274D-01
 (S**2,0)=  0.78942D+00           (S**2,1)=  0.75670D+00
 Scaling Projection term by:   0.270000
 E(PUHF)=      -0.34559472854D+03        E(PMP2)=      -0.34601928450D+03
 E2(B2PLYPD3) =    -0.4303299445D+00 E(B2PLYPD3) =    -0.34601818666586D+03
 G2DrvN: will do    17 centers at a time, making    1 passes.
 Calling FoFCou, ICntrl=  3107 FMM=F I1Cent=   0 AccDes= 0.00D+00.
 End of G2Drv F.D. properties file   721 does not exist.
 End of G2Drv F.D. properties file   722 does not exist.
 End of G2Drv F.D. properties file   788 does not exist.
          IDoAtm=1111111111111111
          Differentiating once with respect to electric field.
                with respect to dipole field.
          Differentiating once with respect to nuclear coordinates.
 Keep R1 and R2 ints in memory in canonical form, NReq=3251641613.
          There are    51 degrees of freedom in the 1st order CPHF.  IDoFFX=6 NUNeed=    51.
     48 vectors produced by pass  0 Test12= 3.33D-14 1.96D-09 XBig12= 1.27D+02 5.68D+00.
 AX will form    48 AO Fock derivatives at one time.
     48 vectors produced by pass  1 Test12= 3.33D-14 1.96D-09 XBig12= 1.11D+01 5.93D-01.
     48 vectors produced by pass  2 Test12= 3.33D-14 1.96D-09 XBig12= 5.25D-01 8.72D-02.
     48 vectors produced by pass  3 Test12= 3.33D-14 1.96D-09 XBig12= 1.08D-02 1.47D-02.
     48 vectors produced by pass  4 Test12= 3.33D-14 1.96D-09 XBig12= 1.30D-04 9.43D-04.
     48 vectors produced by pass  5 Test12= 3.33D-14 1.96D-09 XBig12= 1.33D-06 1.08D-04.
     48 vectors produced by pass  6 Test12= 3.33D-14 1.96D-09 XBig12= 1.20D-08 1.16D-05.
     28 vectors produced by pass  7 Test12= 3.33D-14 1.96D-09 XBig12= 7.82D-11 8.75D-07.
      5 vectors produced by pass  8 Test12= 3.33D-14 1.96D-09 XBig12= 5.64D-13 5.71D-08.
      2 vectors produced by pass  9 Test12= 3.33D-14 1.96D-09 XBig12= 4.74D-15 5.94D-09.
 InvSVY:  IOpt=1 It=  1 EMax= 7.11D-15
 Solved reduced A of dimension   371 with    51 vectors.
 End of Minotr F.D. properties file   721 does not exist.
 End of Minotr F.D. properties file   722 does not exist.
 End of Minotr F.D. properties file   788 does not exist.
 MDV= 10737418240.
 DoSCS=T DFT=T ScalE2(SS,OS)=  0.270000  0.270000
 Form MO integral derivatives with frozen-active canonical formalism.
 Discarding MO integrals.
 Reordered first order wavefunction length =    428928697
 In DefCFB: NBatch=  1 ICI= 28 ICA=309 LFMax= 78
            Large arrays: LIAPS=  8665386240 LIARS=  1611002400 words.
 In DefCFB: NBatch=  1 ICI= 28 ICA=309 LFMax= 78
            Large arrays: LIAPS=  8665386240 LIARS=  1611002400 words.
 Semi-Direct transformation.
 ModeAB=           4 MOrb=            28 LenV=   10734094189
 LASXX=    503301435 LTotXX=   503301435 LenRXX=  1014543915
 LTotAB=   511242480 MaxLAS=   613570944 LenRXY=           0
 NonZer=  1517845350 LenScr=  2285697024 LnRSAI=   613570944
 LnScr1=   923966464 LExtra=           0 Total=   4837778347
 MaxDsk=          -1 SrtSym=           T ITran=            4
 JobTyp=1 Pass  1:  I=   1 to  28.
 (rs|ai) integrals will be sorted in core.
 ModeAB=           4 MOrb=            27 LenV=   10734094189
 LASXX=    486308502 LTotXX=   486308502 LenRXX=   901306008
 LTotAB=   414997506 MaxLAS=   591657696 LenRXY=           0
 NonZer=  1387614510 LenScr=  2089584640 LnRSAI=   591657696
 LnScr1=   890967040 LExtra=           0 Total=   4473515384
 MaxDsk=          -1 SrtSym=           T ITran=            4
 JobTyp=2 Pass  1:  I=   1 to  27.
 (rs|ai) integrals will be sorted in core.
 DoSCS=T DFT=T ScalE2(SS,OS)=  0.270000  0.270000
 Spin components of T(2) and E(2):
     alpha-alpha T2 =       0.7681289217D-01 E2=     -0.5315149501D-01
     alpha-beta  T2 =       0.4688145206D+00 E2=     -0.3252272467D+00
     beta-beta   T2 =       0.8195077388D-01 E2=     -0.5195120274D-01
 E2(B2PLYPD3) =    -0.4303299445D+00 E(B2PLYPD3) =    -0.34601818666586D+03
 (S**2,0)=  0.78942D+00           (S**2,1)=  0.75670D+00
 Scaling Projection term by:   0.270000
 E(PUHF)=      -0.34559472854D+03        E(PMP2)=      -0.34601928450D+03
          IDoAtm=1111111111111111
          Differentiating once with respect to electric field.
                with respect to dipole field.
          Differentiating once with respect to nuclear coordinates.
 Keep R1 and R2 ints in memory in canonical form, NReq=3251777228.
          There are     1 degrees of freedom in the 1st order CPHF.  IDoFFX=0 NUNeed=     1.
 LinEq1:  Iter=  0 NonCon=     1 RMS=9.59D-04 Max=7.12D-02 NDo=     1
 AX will form     1 AO Fock derivatives at one time.
 LinEq1:  Iter=  1 NonCon=     1 RMS=3.58D-04 Max=1.48D-02 NDo=     1
 LinEq1:  Iter=  2 NonCon=     1 RMS=2.64D-04 Max=1.34D-02 NDo=     1
 LinEq1:  Iter=  3 NonCon=     1 RMS=1.54D-04 Max=6.27D-03 NDo=     1
 LinEq1:  Iter=  4 NonCon=     1 RMS=9.41D-05 Max=3.70D-03 NDo=     1
 LinEq1:  Iter=  5 NonCon=     1 RMS=3.26D-05 Max=9.22D-04 NDo=     1
 LinEq1:  Iter=  6 NonCon=     1 RMS=2.47D-05 Max=1.17D-03 NDo=     1
 LinEq1:  Iter=  7 NonCon=     1 RMS=1.10D-05 Max=5.07D-04 NDo=     1
 LinEq1:  Iter=  8 NonCon=     1 RMS=8.79D-06 Max=4.61D-04 NDo=     1
 LinEq1:  Iter=  9 NonCon=     1 RMS=4.14D-06 Max=1.34D-04 NDo=     1
 LinEq1:  Iter= 10 NonCon=     1 RMS=1.04D-06 Max=2.13D-05 NDo=     1
 LinEq1:  Iter= 11 NonCon=     1 RMS=4.71D-07 Max=1.44D-05 NDo=     1
 LinEq1:  Iter= 12 NonCon=     1 RMS=2.48D-07 Max=9.63D-06 NDo=     1
 LinEq1:  Iter= 13 NonCon=     1 RMS=1.27D-07 Max=4.48D-06 NDo=     1
 LinEq1:  Iter= 14 NonCon=     1 RMS=6.40D-08 Max=1.86D-06 NDo=     1
 LinEq1:  Iter= 15 NonCon=     1 RMS=2.73D-08 Max=5.34D-07 NDo=     1
 LinEq1:  Iter= 16 NonCon=     1 RMS=9.92D-09 Max=1.93D-07 NDo=     1
 LinEq1:  Iter= 17 NonCon=     1 RMS=4.70D-09 Max=8.93D-08 NDo=     1
 LinEq1:  Iter= 18 NonCon=     1 RMS=2.16D-09 Max=5.60D-08 NDo=     1
 LinEq1:  Iter= 19 NonCon=     1 RMS=8.43D-10 Max=1.44D-08 NDo=     1
 LinEq1:  Iter= 20 NonCon=     1 RMS=2.84D-10 Max=4.79D-09 NDo=     1
 LinEq1:  Iter= 21 NonCon=     1 RMS=8.33D-11 Max=1.99D-09 NDo=     1
 LinEq1:  Iter= 22 NonCon=     0 RMS=2.10D-11 Max=7.76D-10 NDo=     1
 Linear equations converged to 1.000D-10 1.000D-09 after    22 iterations.
 End of Minotr F.D. properties file   721 does not exist.
 End of Minotr F.D. properties file   722 does not exist.
 End of Minotr F.D. properties file   788 does not exist.
 Symmetrizing basis deriv contribution to polar:
 IMax=3 JMax=2 DiffMx= 0.00D+00
 G2DrvN: will do    17 centers at a time, making    1 passes.
 Calling FoFCou, ICntrl=  3107 FMM=F I1Cent=   0 AccDes= 0.00D+00.
 End of G2Drv F.D. properties file   721 does not exist.
 End of G2Drv F.D. properties file   722 does not exist.
 End of G2Drv F.D. properties file   788 does not exist.
 DoSCS=T DFT=T ScalE2(SS,OS)=  0.270000  0.270000
 R2 and R3 integrals will be kept in memory, NReq=  5268037470.
 DD1Dir will call FoFMem   1 times, MxPair=      2242
 NAB=   756 NAA=   378 NBB=   351.
 Discarding MO integrals.

 **********************************************************************

            Population analysis using the SCF Density.

 **********************************************************************

 Alpha  occ. eigenvalues --  -19.78667 -19.78479 -10.65922 -10.65894 -10.64355
 Alpha  occ. eigenvalues --  -10.63045 -10.62774  -1.27362  -1.02631  -0.94871
 Alpha  occ. eigenvalues --   -0.86980  -0.77758  -0.72244  -0.65688  -0.59918
 Alpha  occ. eigenvalues --   -0.56391  -0.55765  -0.54496  -0.53754  -0.49593
 Alpha  occ. eigenvalues --   -0.48616  -0.45718  -0.43976  -0.40383  -0.37336
 Alpha  occ. eigenvalues --   -0.36714  -0.30607  -0.29290
 Alpha virt. eigenvalues --    0.00831   0.08938   0.09778   0.10102   0.11278
 Alpha virt. eigenvalues --    0.13193   0.13750   0.14734   0.16124   0.16340
 Alpha virt. eigenvalues --    0.17452   0.20133   0.23712   0.25666   0.29086
 Alpha virt. eigenvalues --    0.31305   0.32189   0.33963   0.34792   0.36605
 Alpha virt. eigenvalues --    0.37928   0.38543   0.39267   0.41914   0.43483
 Alpha virt. eigenvalues --    0.45735   0.46079   0.47985   0.48856   0.50294
 Alpha virt. eigenvalues --    0.50646   0.51601   0.52407   0.53791   0.53995
 Alpha virt. eigenvalues --    0.55159   0.56418   0.56891   0.58165   0.60430
 Alpha virt. eigenvalues --    0.61495   0.63724   0.67171   0.68615   0.69385
 Alpha virt. eigenvalues --    0.70179   0.71100   0.72327   0.74312   0.75832
 Alpha virt. eigenvalues --    0.78102   0.78783   0.81094   0.82067   0.85436
 Alpha virt. eigenvalues --    0.87965   0.88768   0.91846   0.95081   0.96804
 Alpha virt. eigenvalues --    0.97486   0.99216   0.99518   1.02638   1.03670
 Alpha virt. eigenvalues --    1.04399   1.05834   1.07194   1.08524   1.10241
 Alpha virt. eigenvalues --    1.11221   1.12239   1.14121   1.16176   1.18559
 Alpha virt. eigenvalues --    1.20629   1.21335   1.24074   1.26191   1.27430
 Alpha virt. eigenvalues --    1.29925   1.31583   1.33296   1.34992   1.35615
 Alpha virt. eigenvalues --    1.37370   1.39304   1.40140   1.41040   1.42776
 Alpha virt. eigenvalues --    1.47775   1.48499   1.50385   1.52910   1.53837
 Alpha virt. eigenvalues --    1.56356   1.57517   1.60842   1.61759   1.63076
 Alpha virt. eigenvalues --    1.66666   1.74052   1.77972   1.80184   1.88102
 Alpha virt. eigenvalues --    1.93772   1.95086   1.99766   2.04340   2.08524
 Alpha virt. eigenvalues --    2.12852   2.14235   2.18140   2.21603   2.22766
 Alpha virt. eigenvalues --    2.25862   2.29531   2.34651   2.34999   2.37279
 Alpha virt. eigenvalues --    2.38350   2.39922   2.41381   2.44099   2.50594
 Alpha virt. eigenvalues --    2.50670   2.52390   2.55012   2.59348   2.62676
 Alpha virt. eigenvalues --    2.64870   2.66121   2.70735   2.71317   2.71984
 Alpha virt. eigenvalues --    2.78605   2.80028   2.82643   2.83236   2.85001
 Alpha virt. eigenvalues --    2.87708   2.89239   2.89975   2.91450   2.92649
 Alpha virt. eigenvalues --    2.92984   2.94024   2.96233   2.97963   2.98890
 Alpha virt. eigenvalues --    3.01137   3.02900   3.04241   3.05288   3.06693
 Alpha virt. eigenvalues --    3.07637   3.11665   3.12909   3.13410   3.14093
 Alpha virt. eigenvalues --    3.14794   3.14945   3.16472   3.18268   3.20815
 Alpha virt. eigenvalues --    3.21753   3.23040   3.26016   3.27249   3.28779
 Alpha virt. eigenvalues --    3.29439   3.30969   3.33120   3.38980   3.39681
 Alpha virt. eigenvalues --    3.41370   3.42541   3.43060   3.44739   3.51038
 Alpha virt. eigenvalues --    3.51520   3.53450   3.55113   3.56230   3.57766
 Alpha virt. eigenvalues --    3.58819   3.60048   3.62405   3.63378   3.66017
 Alpha virt. eigenvalues --    3.67650   3.69657   3.70722   3.75977   3.78407
 Alpha virt. eigenvalues --    3.79782   3.81673   3.82637   3.83894   3.86537
 Alpha virt. eigenvalues --    3.87557   3.89562   3.90510   3.91275   3.94317
 Alpha virt. eigenvalues --    3.96398   3.97492   3.98840   4.00965   4.01879
 Alpha virt. eigenvalues --    4.04176   4.06697   4.07731   4.07993   4.09829
 Alpha virt. eigenvalues --    4.13811   4.15556   4.15798   4.18123   4.19209
 Alpha virt. eigenvalues --    4.19501   4.21708   4.24506   4.25797   4.27821
 Alpha virt. eigenvalues --    4.31115   4.32685   4.36966   4.38081   4.40771
 Alpha virt. eigenvalues --    4.46418   4.48485   4.49507   4.52268   4.53358
 Alpha virt. eigenvalues --    4.60371   4.64718   4.66452   4.72323   4.72769
 Alpha virt. eigenvalues --    4.73702   4.79542   4.82010   4.84646   4.84789
 Alpha virt. eigenvalues --    4.88482   4.95091   4.96468   4.97597   5.00264
 Alpha virt. eigenvalues --    5.00523   5.03394   5.05929   5.06717   5.10379
 Alpha virt. eigenvalues --    5.14094   5.16854   5.19508   5.20913   5.26270
 Alpha virt. eigenvalues --    5.27762   5.30051   5.31575   5.35373   5.36701
 Alpha virt. eigenvalues --    5.38136   5.38442   5.41010   5.42356   5.47421
 Alpha virt. eigenvalues --    5.48414   5.58065   5.63150   5.68657   5.79598
 Alpha virt. eigenvalues --    5.91959   5.94741   5.97496   6.00558   6.04475
 Alpha virt. eigenvalues --    6.08485   6.10579   6.11519   6.20327   6.26931
 Alpha virt. eigenvalues --    6.35311   6.38535   6.45263   6.63102   6.68270
 Alpha virt. eigenvalues --    6.77676   6.79739   6.86903   6.97193   7.05436
 Alpha virt. eigenvalues --    7.06085   7.24279   7.40134   7.42949   7.61529
 Alpha virt. eigenvalues --    7.80261   9.98619  10.36132  10.89919  11.97464
 Alpha virt. eigenvalues --   13.43502  14.43125  14.81794
  Beta  occ. eigenvalues --  -19.78549 -19.77130 -10.65928 -10.64451 -10.64292
  Beta  occ. eigenvalues --  -10.63051 -10.62871  -1.25752  -1.00202  -0.93167
  Beta  occ. eigenvalues --   -0.86256  -0.77402  -0.71468  -0.62344  -0.57836
  Beta  occ. eigenvalues --   -0.55671  -0.54917  -0.54148  -0.52402  -0.48409
  Beta  occ. eigenvalues --   -0.46486  -0.44679  -0.43268  -0.39529  -0.35835
  Beta  occ. eigenvalues --   -0.34059  -0.29341
  Beta virt. eigenvalues --   -0.05491   0.01029   0.09145   0.09928   0.10353
  Beta virt. eigenvalues --    0.12130   0.13829   0.13886   0.14879   0.16317
  Beta virt. eigenvalues --    0.16494   0.17608   0.20666   0.23991   0.26123
  Beta virt. eigenvalues --    0.29247   0.31429   0.32610   0.34193   0.35446
  Beta virt. eigenvalues --    0.36774   0.38563   0.39392   0.39681   0.42157
  Beta virt. eigenvalues --    0.43949   0.45720   0.46755   0.48246   0.49573
  Beta virt. eigenvalues --    0.50487   0.51119   0.51829   0.52478   0.53915
  Beta virt. eigenvalues --    0.54475   0.55427   0.56784   0.57734   0.59201
  Beta virt. eigenvalues --    0.61202   0.61651   0.64193   0.67660   0.68998
  Beta virt. eigenvalues --    0.70292   0.70561   0.72018   0.72756   0.75250
  Beta virt. eigenvalues --    0.76162   0.78289   0.79234   0.81728   0.82158
  Beta virt. eigenvalues --    0.85804   0.88641   0.88963   0.91977   0.95505
  Beta virt. eigenvalues --    0.97182   0.97879   0.99491   0.99677   1.02994
  Beta virt. eigenvalues --    1.03786   1.04649   1.06163   1.07379   1.08673
  Beta virt. eigenvalues --    1.10342   1.11357   1.12423   1.14185   1.16302
  Beta virt. eigenvalues --    1.18707   1.20972   1.21721   1.24412   1.26824
  Beta virt. eigenvalues --    1.27582   1.30282   1.31880   1.33781   1.35233
  Beta virt. eigenvalues --    1.35846   1.37645   1.39338   1.40372   1.41333
  Beta virt. eigenvalues --    1.43210   1.48171   1.49246   1.50668   1.53340
  Beta virt. eigenvalues --    1.54279   1.56708   1.57827   1.61249   1.62229
  Beta virt. eigenvalues --    1.63322   1.67351   1.74844   1.78650   1.81073
  Beta virt. eigenvalues --    1.89019   1.94616   1.95742   2.00285   2.05125
  Beta virt. eigenvalues --    2.09325   2.13245   2.14587   2.19898   2.21821
  Beta virt. eigenvalues --    2.22770   2.26406   2.30080   2.34740   2.35908
  Beta virt. eigenvalues --    2.37769   2.38737   2.40567   2.42101   2.44512
  Beta virt. eigenvalues --    2.50680   2.51205   2.52710   2.55625   2.59899
  Beta virt. eigenvalues --    2.63107   2.65210   2.66284   2.71153   2.71651
  Beta virt. eigenvalues --    2.72390   2.78774   2.80399   2.83000   2.83934
  Beta virt. eigenvalues --    2.85267   2.88106   2.89919   2.90635   2.91628
  Beta virt. eigenvalues --    2.92963   2.93479   2.94320   2.96497   2.98300
  Beta virt. eigenvalues --    2.99116   3.01288   3.03232   3.04358   3.05563
  Beta virt. eigenvalues --    3.07531   3.08116   3.11925   3.13574   3.13885
  Beta virt. eigenvalues --    3.14137   3.14917   3.15481   3.16850   3.18530
  Beta virt. eigenvalues --    3.21152   3.21932   3.23602   3.26583   3.27579
  Beta virt. eigenvalues --    3.29076   3.30245   3.32134   3.34760   3.39332
  Beta virt. eigenvalues --    3.40260   3.41729   3.42608   3.43206   3.45649
  Beta virt. eigenvalues --    3.51121   3.51901   3.53574   3.55301   3.56659
  Beta virt. eigenvalues --    3.57994   3.59325   3.60320   3.62767   3.63609
  Beta virt. eigenvalues --    3.66261   3.68209   3.70159   3.70788   3.76681
  Beta virt. eigenvalues --    3.78721   3.80709   3.81960   3.82978   3.84252
  Beta virt. eigenvalues --    3.86923   3.87525   3.89825   3.90382   3.91491
  Beta virt. eigenvalues --    3.94571   3.96523   3.97828   3.99103   4.01255
  Beta virt. eigenvalues --    4.02253   4.04700   4.07130   4.08197   4.08388
  Beta virt. eigenvalues --    4.10077   4.13964   4.15726   4.16086   4.18484
  Beta virt. eigenvalues --    4.19377   4.19761   4.21923   4.25372   4.25773
  Beta virt. eigenvalues --    4.28085   4.31744   4.33306   4.37176   4.38624
  Beta virt. eigenvalues --    4.41141   4.46859   4.49032   4.50139   4.52661
  Beta virt. eigenvalues --    4.53829   4.60961   4.64975   4.66856   4.72710
  Beta virt. eigenvalues --    4.73709   4.74147   4.79997   4.82124   4.85004
  Beta virt. eigenvalues --    4.85083   4.89071   4.95222   4.96838   4.97820
  Beta virt. eigenvalues --    5.00416   5.00863   5.03531   5.06134   5.07121
  Beta virt. eigenvalues --    5.10531   5.14553   5.17324   5.19849   5.21146
  Beta virt. eigenvalues --    5.26805   5.27973   5.30578   5.31730   5.35708
  Beta virt. eigenvalues --    5.36980   5.38663   5.39092   5.41409   5.43177
  Beta virt. eigenvalues --    5.47675   5.48832   5.58513   5.64073   5.69262
  Beta virt. eigenvalues --    5.79864   5.92237   5.95339   5.97730   6.01563
  Beta virt. eigenvalues --    6.04999   6.08785   6.10931   6.12262   6.20902
  Beta virt. eigenvalues --    6.27154   6.36329   6.40019   6.46245   6.63725
  Beta virt. eigenvalues --    6.69452   6.79879   6.80763   6.87933   6.98673
  Beta virt. eigenvalues --    7.05943   7.07297   7.26056   7.41136   7.43999
  Beta virt. eigenvalues --    7.63456   7.80768   9.99148  10.37073  10.90838
  Beta virt. eigenvalues --   11.97619  13.43503  14.43247  14.82013
          Condensed to atoms (all electrons):
               1          2          3          4          5          6
     1  C    5.132121   0.593992  -0.003616   0.004656   0.000393  -0.000449
     2  C    0.593992   4.994885  -0.002180  -0.001665   0.000080   0.000233
     3  C   -0.003616  -0.002180   4.595040   0.397788   0.395731   0.412184
     4  H    0.004656  -0.001665   0.397788   0.668187  -0.035532  -0.058082
     5  H    0.000393   0.000080   0.395731  -0.035532   0.594758  -0.028235
     6  H   -0.000449   0.000233   0.412184  -0.058082  -0.028235   0.614644
     7  O    0.001018   0.000275   0.301363  -0.049030  -0.027004  -0.037473
     8  O   -0.074639   0.002406  -0.035930  -0.004970   0.007118   0.003386
     9  H    0.177998  -0.016114   0.005254   0.004994  -0.001551  -0.000175
    10  H   -0.048200   0.396390  -0.000062  -0.000080  -0.000002   0.000007
    11  H   -0.049651   0.411501  -0.001183  -0.001502  -0.000148   0.000428
    12  C    0.363578  -0.052648   0.000409  -0.000461  -0.000053   0.000147
    13  C   -0.064540   0.002841  -0.000069   0.000307   0.000019  -0.000201
    14  H   -0.036558  -0.003207  -0.000003   0.000022  -0.000001   0.000001
    15  H    0.006636  -0.000301  -0.000000   0.000011   0.000000  -0.000001
    16  H   -0.000298   0.000547   0.000257  -0.000164   0.000022   0.000272
               7          8          9         10         11         12
     1  C    0.001018  -0.074639   0.177998  -0.048200  -0.049651   0.363578
     2  C    0.000275   0.002406  -0.016114   0.396390   0.411501  -0.052648
     3  C    0.301363  -0.035930   0.005254  -0.000062  -0.001183   0.000409
     4  H   -0.049030  -0.004970   0.004994  -0.000080  -0.001502  -0.000461
     5  H   -0.027004   0.007118  -0.001551  -0.000002  -0.000148  -0.000053
     6  H   -0.037473   0.003386  -0.000175   0.000007   0.000428   0.000147
     7  O    7.952715   0.069999  -0.034387   0.000186   0.012992   0.000192
     8  O    0.069999   8.015281   0.241187  -0.000308  -0.000925  -0.001840
     9  H   -0.034387   0.241187   0.406649   0.002096  -0.003637  -0.002509
    10  H    0.000186  -0.000308   0.002096   0.552567  -0.032958  -0.004947
    11  H    0.012992  -0.000925  -0.003637  -0.032958   0.501981   0.005446
    12  C    0.000192  -0.001840  -0.002509  -0.004947   0.005446   4.876538
    13  C    0.000058   0.000262  -0.005072  -0.000275  -0.000189   0.595312
    14  H   -0.000002  -0.000301   0.001732   0.004931  -0.000451   0.404543
    15  H   -0.000002   0.000037   0.000048  -0.000005   0.000011  -0.048371
    16  H   -0.000236   0.006186  -0.000937   0.000027   0.000037  -0.046544
              13         14         15         16
     1  C   -0.064540  -0.036558   0.006636  -0.000298
     2  C    0.002841  -0.003207  -0.000301   0.000547
     3  C   -0.000069  -0.000003  -0.000000   0.000257
     4  H    0.000307   0.000022   0.000011  -0.000164
     5  H    0.000019  -0.000001   0.000000   0.000022
     6  H   -0.000201   0.000001  -0.000001   0.000272
     7  O    0.000058  -0.000002  -0.000002  -0.000236
     8  O    0.000262  -0.000301   0.000037   0.006186
     9  H   -0.005072   0.001732   0.000048  -0.000937
    10  H   -0.000275   0.004931  -0.000005   0.000027
    11  H   -0.000189  -0.000451   0.000011   0.000037
    12  C    0.595312   0.404543  -0.048371  -0.046544
    13  C    4.977151  -0.044779   0.419293   0.406507
    14  H   -0.044779   0.537550  -0.007011   0.005306
    15  H    0.419293  -0.007011   0.527874  -0.030507
    16  H    0.406507   0.005306  -0.030507   0.519104
          Atomic-Atomic Spin Densities.
               1          2          3          4          5          6
     1  C    0.836002  -0.016083   0.000418  -0.004202   0.000096   0.001111
     2  C   -0.016083  -0.188693  -0.000067   0.000507  -0.000030  -0.000123
     3  C    0.000418  -0.000067  -0.003541   0.004108   0.000243  -0.002249
     4  H   -0.004202   0.000507   0.004108   0.000253  -0.000636  -0.000660
     5  H    0.000096  -0.000030   0.000243  -0.000636  -0.001466   0.001021
     6  H    0.001111  -0.000123  -0.002249  -0.000660   0.001021   0.002527
     7  O    0.011636  -0.002034  -0.000163  -0.000628   0.000170  -0.000337
     8  O   -0.083661   0.006296  -0.001741   0.003254  -0.000192  -0.000513
     9  H    0.051143  -0.003741   0.000680  -0.002999   0.000157   0.001223
    10  H   -0.009515  -0.005453   0.000048  -0.000240   0.000008   0.000017
    11  H   -0.008214   0.013745  -0.000239   0.000774  -0.000063  -0.000116
    12  C   -0.008385   0.008575  -0.000038   0.000382   0.000000  -0.000062
    13  C   -0.014145   0.000352   0.000042   0.000021  -0.000002  -0.000008
    14  H   -0.008683  -0.001989   0.000003  -0.000064   0.000001   0.000006
    15  H   -0.000253   0.000012   0.000000  -0.000002  -0.000000   0.000000
    16  H    0.006132  -0.000250  -0.000064  -0.000062  -0.000001   0.000045
               7          8          9         10         11         12
     1  C    0.011636  -0.083661   0.051143  -0.009515  -0.008214  -0.008385
     2  C   -0.002034   0.006296  -0.003741  -0.005453   0.013745   0.008575
     3  C   -0.000163  -0.001741   0.000680   0.000048  -0.000239  -0.000038
     4  H   -0.000628   0.003254  -0.002999  -0.000240   0.000774   0.000382
     5  H    0.000170  -0.000192   0.000157   0.000008  -0.000063   0.000000
     6  H   -0.000337  -0.000513   0.001223   0.000017  -0.000116  -0.000062
     7  O    0.039828  -0.033360   0.008692   0.000323  -0.002878  -0.000313
     8  O   -0.033360   0.483656  -0.038065  -0.000736   0.002474   0.003636
     9  H    0.008692  -0.038065  -0.092165   0.000993  -0.000598   0.000063
    10  H    0.000323  -0.000736   0.000993   0.087666  -0.009818  -0.004498
    11  H   -0.002878   0.002474  -0.000598  -0.009818   0.028359   0.000954
    12  C   -0.000313   0.003636   0.000063  -0.004498   0.000954  -0.078313
    13  C   -0.000068   0.001904  -0.003165  -0.000478   0.000130   0.015460
    14  H    0.000034  -0.000441   0.000799   0.005221  -0.000435  -0.002565
    15  H    0.000000   0.000007  -0.000034  -0.000004   0.000001   0.000446
    16  H    0.000092  -0.002003   0.002162   0.000084  -0.000052  -0.002230
              13         14         15         16
     1  C   -0.014145  -0.008683  -0.000253   0.006132
     2  C    0.000352  -0.001989   0.000012  -0.000250
     3  C    0.000042   0.000003   0.000000  -0.000064
     4  H    0.000021  -0.000064  -0.000002  -0.000062
     5  H   -0.000002   0.000001  -0.000000  -0.000001
     6  H   -0.000008   0.000006   0.000000   0.000045
     7  O   -0.000068   0.000034   0.000000   0.000092
     8  O    0.001904  -0.000441   0.000007  -0.002003
     9  H   -0.003165   0.000799  -0.000034   0.002162
    10  H   -0.000478   0.005221  -0.000004   0.000084
    11  H    0.000130  -0.000435   0.000001  -0.000052
    12  C    0.015460  -0.002565   0.000446  -0.002230
    13  C    0.106885  -0.009205   0.001155  -0.004418
    14  H   -0.009205   0.058860   0.000136   0.001153
    15  H    0.001155   0.000136  -0.008913   0.001107
    16  H   -0.004418   0.001153   0.001107  -0.002905
 Mulliken charges and spin densities:
               1          2
     1  C   -0.002441   0.753399
     2  C   -0.327034  -0.188976
     3  C   -0.064984  -0.002560
     4  H    0.075521  -0.000196
     5  H    0.094407  -0.000695
     6  H    0.093315   0.001881
     7  O   -0.190662   0.020994
     8  O   -0.226949   0.340514
     9  H    0.224425  -0.074856
    10  H    0.130634   0.063617
    11  H    0.158249   0.024025
    12  C   -0.088791  -0.066888
    13  C   -0.286627   0.094461
    14  H    0.138228   0.042831
    15  H    0.132288  -0.006341
    16  H    0.140421  -0.001208
 Sum of Mulliken charges =  -0.00000   1.00000
 Mulliken charges and spin densities with hydrogens summed into heavy atoms:
               1          2
     1  C   -0.002441   0.753399
     2  C   -0.038152  -0.101334
     3  C    0.198260  -0.001571
     7  O   -0.190662   0.020994
     8  O   -0.002524   0.265658
    12  C    0.049436  -0.024057
    13  C   -0.013918   0.086912
 APT charges:
               1
     1  C    0.427822
     2  C   -0.290203
     3  C    0.421752
     4  H   -0.037877
     5  H   -0.004970
     6  H   -0.027440
     7  O   -0.412306
     8  O    0.111028
     9  H   -0.285979
    10  H    0.050380
    11  H    0.087365
    12  C   -0.055472
    13  C   -0.084107
    14  H   -0.001578
    15  H    0.041871
    16  H    0.059716
 Sum of APT charges =  -0.00000
 APT charges with hydrogens summed into heavy atoms:
               1
     1  C    0.427822
     2  C   -0.152459
     3  C    0.351465
     7  O   -0.412306
     8  O   -0.174951
    12  C   -0.057050
    13  C    0.017480
 Electronic spatial extent (au):  <R**2>=           1055.6157
 Charge=              0.0000 electrons
 Dipole moment (field-independent basis, Debye):
    X=              1.3511    Y=              0.7390    Z=              2.2807  Tot=              2.7519
 Quadrupole moment (field-independent basis, Debye-Ang):
   XX=            -38.3576   YY=            -40.0374   ZZ=            -46.7784
   XY=             -0.4480   XZ=             -3.0257   YZ=             -0.5328
 Traceless Quadrupole moment (field-independent basis, Debye-Ang):
   XX=              3.3669   YY=              1.6871   ZZ=             -5.0540
   XY=             -0.4480   XZ=             -3.0257   YZ=             -0.5328
 Octapole moment (field-independent basis, Debye-Ang**2):
  XXX=             -8.7529  YYY=              0.5861  ZZZ=             -2.8273  XYY=              0.3434
  XXY=             -3.0515  XXZ=             13.2066  XZZ=             -8.5679  YZZ=             -1.0843
  YYZ=              0.4819  XYZ=              2.3331
 Hexadecapole moment (field-independent basis, Debye-Ang**3):
 XXXX=           -857.8235 YYYY=           -323.0953 ZZZZ=           -132.4575 XXXY=             -4.3054
 XXXZ=             -0.6935 YYYX=              2.3586 YYYZ=              4.0473 ZZZX=              1.6082
 ZZZY=              2.5888 XXYY=           -193.4757 XXZZ=           -184.4478 YYZZ=            -85.2794
 XXYZ=             -0.1119 YYXZ=              5.1706 ZZXY=              1.5403
 N-N= 2.868278353851D+02 E-N=-1.382169920669D+03  KE= 3.441009493277D+02
  Exact polarizability: 104.895  -3.714  97.446   2.335   1.463  49.312
 Approx polarizability:  92.599 -11.967 115.709   3.424   3.536  60.001
                          Isotropic Fermi Contact Couplings
        Atom                 a.u.       MegaHertz       Gauss      10(-4) cm-1
     1  C(13)              0.15726     176.78591      63.08161      58.96943
     2  C(13)              0.01668      18.75155       6.69102       6.25484
     3  C(13)             -0.00300      -3.37569      -1.20453      -1.12601
     4  H(1)               0.00228      10.19438       3.63761       3.40048
     5  H(1)              -0.00005      -0.23102      -0.08243      -0.07706
     6  H(1)               0.00052       2.31871       0.82737       0.77344
     7  O(17)              0.01346      -8.15656      -2.91046      -2.72073
     8  O(17)              0.03084     -18.69537      -6.67097      -6.23610
     9  H(1)              -0.02481    -110.88032     -39.56486     -36.98569
    10  H(1)               0.02419     108.10542      38.57470      36.06009
    11  H(1)               0.01196      53.44965      19.07216      17.82888
    12  C(13)              0.02829      31.80646      11.34933      10.60949
    13  C(13)              0.00240       2.69406       0.96131       0.89864
    14  H(1)               0.01492      66.71176      23.80442      22.25265
    15  H(1)               0.00140       6.25929       2.23347       2.08788
    16  H(1)               0.00182       8.13359       2.90227       2.71307
 --------------------------------------------------------
       Center         ----  Spin Dipole Couplings  ----
                      3XX-RR        3YY-RR        3ZZ-RR
 --------------------------------------------------------
     1   Atom        0.210044      0.088205     -0.298248
     2   Atom       -0.040171      0.022585      0.017586
     3   Atom        0.003730     -0.006875      0.003146
     4   Atom       -0.000023     -0.005271      0.005294
     5   Atom        0.002571     -0.002764      0.000193
     6   Atom        0.001286     -0.002593      0.001308
     7   Atom        0.170787     -0.059412     -0.111375
     8   Atom        0.260304      0.223712     -0.484016
     9   Atom        0.103388     -0.009852     -0.093536
    10   Atom       -0.002208      0.007779     -0.005571
    11   Atom        0.005242      0.004141     -0.009383
    12   Atom        0.014555     -0.066401      0.051846
    13   Atom        0.039197      0.062678     -0.101875
    14   Atom        0.010547     -0.004625     -0.005922
    15   Atom       -0.003225      0.006927     -0.003702
    16   Atom       -0.003277      0.010812     -0.007535
 --------------------------------------------------------
                        XY            XZ            YZ
 --------------------------------------------------------
     1   Atom        0.505425      0.272891      0.233855
     2   Atom       -0.002684     -0.019835     -0.001088
     3   Atom        0.000456     -0.004629      0.000010
     4   Atom        0.001666     -0.005182      0.000682
     5   Atom       -0.000570     -0.004102      0.001059
     6   Atom        0.002793     -0.005100     -0.002703
     7   Atom        0.248329      0.126645      0.070056
     8   Atom        1.005641      0.545281      0.533859
     9   Atom        0.156934      0.077560      0.056698
    10   Atom        0.008114      0.002501      0.004543
    11   Atom       -0.012929      0.002681     -0.002444
    12   Atom       -0.021710     -0.009997     -0.013527
    13   Atom       -0.012625      0.043424      0.000249
    14   Atom        0.006447      0.005445      0.001672
    15   Atom        0.000724      0.000520      0.000657
    16   Atom       -0.011552      0.000618     -0.002592
 --------------------------------------------------------


 ---------------------------------------------------------------------------------
              Anisotropic Spin Dipole Couplings in Principal Axis System
 ---------------------------------------------------------------------------------

       Atom             a.u.   MegaHertz   Gauss  10(-4) cm-1        Axes

              Baa    -0.4188   -56.195   -20.052   -18.745 -0.3004 -0.1360  0.9441
     1 C(13)  Bbb    -0.3594   -48.228   -17.209   -16.087 -0.6360  0.7662 -0.0920
              Bcc     0.7782   104.422    37.261    34.832  0.7108  0.6280  0.3167
 
              Baa    -0.0464    -6.233    -2.224    -2.079  0.9542  0.0418  0.2963
     2 C(13)  Bbb     0.0227     3.040     1.085     1.014 -0.1035  0.9752  0.1958
              Bcc     0.0238     3.193     1.139     1.065 -0.2807 -0.2175  0.9348
 
              Baa    -0.0069    -0.926    -0.330    -0.309 -0.0542  0.9982 -0.0259
     3 C(13)  Bbb    -0.0012    -0.159    -0.057    -0.053  0.6820  0.0559  0.7292
              Bcc     0.0081     1.085     0.387     0.362  0.7294  0.0218 -0.6838
 
              Baa    -0.0063    -3.358    -1.198    -1.120 -0.4326  0.8678 -0.2445
     4 H(1)   Bbb    -0.0022    -1.159    -0.413    -0.386  0.7337  0.4965  0.4639
              Bcc     0.0085     4.517     1.612     1.507 -0.5240 -0.0213  0.8515
 
              Baa    -0.0034    -1.812    -0.647    -0.604 -0.3536  0.7069 -0.6126
     5 H(1)   Bbb    -0.0024    -1.278    -0.456    -0.426  0.5031  0.6958  0.5126
              Bcc     0.0058     3.090     1.103     1.031  0.7886 -0.1270 -0.6017
 
              Baa    -0.0041    -2.164    -0.772    -0.722 -0.4112  0.9091  0.0671
     6 H(1)   Bbb    -0.0038    -2.021    -0.721    -0.674  0.6252  0.2276  0.7465
              Bcc     0.0078     4.185     1.493     1.396  0.6634  0.3489 -0.6619
 
              Baa    -0.2192    15.862     5.660     5.291 -0.5622  0.8168  0.1296
     7 O(17)  Bbb    -0.1533    11.093     3.958     3.700 -0.1673 -0.2658  0.9494
              Bcc     0.3725   -26.955    -9.618    -8.991  0.8099  0.5120  0.2861
 
              Baa    -0.7724    55.892    19.944    18.643 -0.3360 -0.1584  0.9285
     8 O(17)  Bbb    -0.7637    55.259    19.718    18.432 -0.6644  0.7386 -0.1144
              Bcc     1.5361  -111.150   -39.661   -37.076  0.6676  0.6553  0.3534
 
              Baa    -0.1224   -65.313   -23.305   -21.786  0.1639 -0.6164  0.7701
     9 H(1)   Bbb    -0.1188   -63.364   -22.610   -21.136  0.5964 -0.5600 -0.5751
              Bcc     0.2412   128.678    45.915    42.922  0.7858  0.5536  0.2759
 
              Baa    -0.0070    -3.719    -1.327    -1.241 -0.0057 -0.2915  0.9566
    10 H(1)   Bbb    -0.0067    -3.595    -1.283    -1.199  0.8823 -0.4517 -0.1324
              Bcc     0.0137     7.314     2.610     2.440  0.4707  0.8432  0.2597
 
              Baa    -0.0099    -5.264    -1.878    -1.756 -0.1328  0.0501  0.9899
    11 H(1)   Bbb    -0.0082    -4.399    -1.570    -1.467  0.6853  0.7262  0.0551
              Bcc     0.0181     9.663     3.448     3.223  0.7161 -0.6856  0.1308
 
              Baa    -0.0738    -9.902    -3.533    -3.303  0.2500  0.9604  0.1233
    12 C(13)  Bbb     0.0189     2.531     0.903     0.844  0.9468 -0.2691  0.1766
              Bcc     0.0549     7.371     2.630     2.459 -0.2028 -0.0726  0.9765
 
              Baa    -0.1142   -15.331    -5.470    -5.114 -0.2738 -0.0209  0.9615
    13 C(13)  Bbb     0.0438     5.877     2.097     1.960  0.8081  0.5372  0.2418
              Bcc     0.0704     9.453     3.373     3.153 -0.5216  0.8432 -0.1302
 
              Baa    -0.0076    -4.078    -1.455    -1.360 -0.3714  0.3082  0.8758
    14 H(1)   Bbb    -0.0069    -3.659    -1.306    -1.221 -0.2052  0.8927 -0.4012
              Bcc     0.0145     7.737     2.761     2.581  0.9055  0.3287  0.2683
 
              Baa    -0.0040    -2.155    -0.769    -0.719 -0.5283 -0.0160  0.8489
    15 H(1)   Bbb    -0.0030    -1.592    -0.568    -0.531  0.8459 -0.0965  0.5246
              Bcc     0.0070     3.747     1.337     1.250  0.0735  0.9952  0.0646
 
              Baa    -0.0100    -5.337    -1.904    -1.780  0.8139  0.4905  0.3115
    16 H(1)   Bbb    -0.0076    -4.032    -1.439    -1.345 -0.3205 -0.0682  0.9448
              Bcc     0.0176     9.369     3.343     3.125 -0.4847  0.8688 -0.1017
 

 ---------------------------------------------------------------------------------

 Calling FoFJK, ICntrl=  10100127 FMM=F ISym2X=0 I1Cent= 0 IOpClX= 1 NMat=1 NMatS=1 NMatT=0.
 -------------------------------------------------------------------
 Center     Atomic                   Forces (Hartrees/Bohr)
 Number     Number              X              Y              Z
 -------------------------------------------------------------------
      1        6          -0.000000291   -0.000001633   -0.000001993
      2        6           0.000000186    0.000002033    0.000002806
      3        6          -0.000000269    0.000001308    0.000001741
      4        1           0.000000059   -0.000000405   -0.000000116
      5        1           0.000000382    0.000000053    0.000000208
      6        1          -0.000000116    0.000000008   -0.000000162
      7        8          -0.000001203   -0.000002590   -0.000001742
      8        8          -0.000004696   -0.000000056   -0.000001432
      9        1           0.000005899    0.000001117    0.000001392
     10        1          -0.000000104   -0.000000260   -0.000000198
     11        1           0.000000564    0.000000043   -0.000000394
     12        6          -0.000000488    0.000001164    0.000000845
     13        6          -0.000000197   -0.000000541    0.000000830
     14        1           0.000000380   -0.000000085   -0.000001556
     15        1          -0.000000147   -0.000000120    0.000000017
     16        1           0.000000041   -0.000000038   -0.000000244
 -------------------------------------------------------------------
 Cartesian Forces:  Max     0.000005899 RMS     0.000001471
 FormGI is forming the generalized inverse of G from B-inverse, IUseBI=4.

 GradGradGradGradGradGradGradGradGradGradGradGradGradGradGradGradGradGrad
 Berny optimization.
 Internal  Forces:  Max     0.000006235 RMS     0.000001209
 Search for a saddle point.
 Step number   1 out of a maximum of  100 on scan point     1 out of    37
 All quantities printed in internal units (Hartrees-Bohrs-Radians)
 Swapping is turned off.
 Second derivative matrix not updated -- analytic derivatives used.
 ITU=  0
     Eigenvalues ---   -0.05702   0.00325   0.00710   0.01149   0.01327
     Eigenvalues ---    0.01922   0.02372   0.03166   0.03389   0.03799
     Eigenvalues ---    0.04142   0.04234   0.05761   0.08468   0.08556
     Eigenvalues ---    0.08661   0.09952   0.10573   0.10858   0.11877
     Eigenvalues ---    0.13060   0.13386   0.16343   0.16555   0.17841
     Eigenvalues ---    0.18340   0.20767   0.26911   0.32207   0.33584
     Eigenvalues ---    0.34294   0.34464   0.34629   0.35591   0.35963
     Eigenvalues ---    0.36086   0.36572   0.36774   0.40627   0.62992
     Eigenvalues ---    0.674571000.000001000.000001000.000001000.00000
     Eigenvalues --- 1000.000001000.000001000.000001000.000001000.00000
     Eigenvalues --- 1000.000001000.000001000.000001000.00000
 Eigenvectors required to have negative eigenvalues:
                          R2        R11       A2        R10       A1
   1                    0.78524  -0.55852   0.15100   0.14497  -0.08952
                          A14       A3        D13       A22       A13
   1                   -0.07260  -0.06149  -0.05310   0.03814  -0.03441
 RFO step:  Lambda0=2.672129254D-10 Lambda= 0.00000000D+00.
 Linear search not attempted -- option 19 set.
 Iteration  1 RMS(Cart)=  0.00019409 RMS(Int)=  0.00000002
 Iteration  2 RMS(Cart)=  0.00000003 RMS(Int)=  0.00000000
 Iteration  1 RMS(Cart)=  0.00000000 RMS(Int)=  0.00000000
 Variable       Old X    -DE/DX   Delta X   Delta X   Delta X     New X
                                 (Linear)    (Quad)   (Total)
    R1        2.48734   0.00000   0.00000  -0.00000  -0.00000   2.48734
    R2        2.69452   0.00000   0.00000   0.00007   0.00007   2.69459
    R3        2.72205  -0.00000   0.00000   0.00000   0.00000   2.72205
    R4        2.05470  -0.00000   0.00000  -0.00000  -0.00000   2.05470
    R5        2.04478  -0.00000   0.00000  -0.00000  -0.00000   2.04478
    R6        2.06183  -0.00000   0.00000  -0.00000  -0.00000   2.06183
    R7        2.05629  -0.00000   0.00000  -0.00000  -0.00000   2.05629
    R8        2.05714   0.00000   0.00000   0.00000   0.00000   2.05714
    R9        2.68445   0.00000   0.00000   0.00000   0.00000   2.68446
   R10        2.67405  -0.00000   0.00000   0.00000   0.00000   2.67405
   R11        2.09849   0.00001   0.00000  -0.00002  -0.00002   2.09848
   R12        2.52098   0.00000   0.00000   0.00000   0.00000   2.52098
   R13        2.05562  -0.00000   0.00000  -0.00000  -0.00000   2.05562
   R14        2.03919  -0.00000   0.00000  -0.00000  -0.00000   2.03919
   R15        2.04209  -0.00000   0.00000   0.00000   0.00000   2.04209
    A1        1.94486   0.00000   0.00000   0.00003   0.00003   1.94488
    A2        2.35194  -0.00000   0.00000   0.00000   0.00000   2.35195
    A3        1.98639  -0.00000   0.00000  -0.00003  -0.00003   1.98636
    A4        2.11447  -0.00000   0.00000  -0.00000  -0.00000   2.11446
    A5        2.11753   0.00000   0.00000   0.00000   0.00000   2.11754
    A6        2.05118  -0.00000   0.00000  -0.00000  -0.00000   2.05118
    A7        1.91973   0.00000   0.00000   0.00000   0.00000   1.91974
    A8        1.92096  -0.00000   0.00000  -0.00000  -0.00000   1.92096
    A9        1.93163   0.00000   0.00000  -0.00000  -0.00000   1.93163
   A10        1.92429   0.00000   0.00000   0.00000   0.00000   1.92429
   A11        1.83547   0.00000   0.00000   0.00000   0.00000   1.83547
   A12        1.93027  -0.00000   0.00000  -0.00000  -0.00000   1.93027
   A13        1.87583   0.00000   0.00000   0.00000   0.00000   1.87583
   A14        1.79871   0.00000   0.00000   0.00001   0.00001   1.79872
   A15        2.16989   0.00000   0.00000  -0.00000  -0.00000   2.16989
   A16        2.02014   0.00000   0.00000   0.00000   0.00000   2.02014
   A17        2.09315  -0.00000   0.00000   0.00000   0.00000   2.09315
   A18        2.11408   0.00000   0.00000   0.00000   0.00000   2.11408
   A19        2.11358   0.00000   0.00000  -0.00000  -0.00000   2.11357
   A20        2.05553  -0.00000   0.00000   0.00000   0.00000   2.05553
   A21        3.05041   0.00000   0.00000   0.00002   0.00002   3.05043
   A22        3.08496   0.00000   0.00000   0.00001   0.00001   3.08497
    D1        3.13950  -0.00000   0.00000  -0.00003  -0.00003   3.13947
    D2        0.00050  -0.00000   0.00000  -0.00004  -0.00004   0.00046
    D3       -0.00256   0.00000   0.00000  -0.00001  -0.00001  -0.00257
    D4       -3.14156  -0.00000   0.00000  -0.00002  -0.00002  -3.14158
    D5       -0.42104  -0.00000   0.00000   0.00000   0.00000  -0.42104
    D6        3.05046  -0.00000   0.00000  -0.00034  -0.00034   3.05013
    D7       -0.09053  -0.00000   0.00000  -0.00035  -0.00035  -0.09089
    D8       -0.09160  -0.00000   0.00000  -0.00032  -0.00032  -0.09192
    D9        3.05059  -0.00000   0.00000  -0.00034  -0.00034   3.05025
   D10        1.13664  -0.00000   0.00000  -0.00007  -0.00007   1.13657
   D11       -3.07407  -0.00000   0.00000  -0.00007  -0.00007  -3.07414
   D12       -0.99690  -0.00000   0.00000  -0.00007  -0.00007  -0.99697
   D13       -1.57069   0.00000   0.00000   0.00006   0.00006  -1.57063
   D14       -3.13879   0.00000   0.00000   0.00001   0.00001  -3.13878
   D15        0.00136   0.00000   0.00000   0.00002   0.00002   0.00138
   D16        0.00218   0.00000   0.00000   0.00003   0.00003   0.00222
   D17       -3.14086   0.00000   0.00000   0.00004   0.00004  -3.14081
         Item               Value     Threshold  Converged?
 Maximum Force            0.000006     0.000450     YES
 RMS     Force            0.000001     0.000300     YES
 Maximum Displacement     0.000757     0.001800     YES
 RMS     Displacement     0.000194     0.001200     YES
 Predicted change in Energy=-9.006292D-10
 Optimization completed.
    -- Stationary point found.
                           ----------------------------
                           !   Optimized Parameters   !
                           ! (Angstroms and Degrees)  !
 --------------------------                            --------------------------
 ! Name  Definition              Value          Derivative Info.                !
 --------------------------------------------------------------------------------
 ! R1    R(1,2)                  1.3162         -DE/DX =    0.0                 !
 ! R2    R(1,9)                  1.4259         -DE/DX =    0.0                 !
 ! R3    R(1,12)                 1.4404         -DE/DX =    0.0                 !
 ! R4    R(2,10)                 1.0873         -DE/DX =    0.0                 !
 ! R5    R(2,11)                 1.0821         -DE/DX =    0.0                 !
 ! R6    R(3,4)                  1.0911         -DE/DX =    0.0                 !
 ! R7    R(3,5)                  1.0881         -DE/DX =    0.0                 !
 ! R8    R(3,6)                  1.0886         -DE/DX =    0.0                 !
 ! R9    R(3,7)                  1.4206         -DE/DX =    0.0                 !
 ! R10   R(7,8)                  1.415          -DE/DX =    0.0                 !
 ! R11   R(8,9)                  1.1105         -DE/DX =    0.0                 !
 ! R12   R(12,13)                1.334          -DE/DX =    0.0                 !
 ! R13   R(12,14)                1.0878         -DE/DX =    0.0                 !
 ! R14   R(13,15)                1.0791         -DE/DX =    0.0                 !
 ! R15   R(13,16)                1.0806         -DE/DX =    0.0                 !
 ! A1    A(2,1,9)              111.432          -DE/DX =    0.0                 !
 ! A2    A(2,1,12)             134.7564         -DE/DX =    0.0                 !
 ! A3    A(9,1,12)             113.8116         -DE/DX =    0.0                 !
 ! A4    A(1,2,10)             121.15           -DE/DX =    0.0                 !
 ! A5    A(1,2,11)             121.3257         -DE/DX =    0.0                 !
 ! A6    A(10,2,11)            117.5242         -DE/DX =    0.0                 !
 ! A7    A(4,3,5)              109.9927         -DE/DX =    0.0                 !
 ! A8    A(4,3,6)              110.063          -DE/DX =    0.0                 !
 ! A9    A(4,3,7)              110.6744         -DE/DX =    0.0                 !
 ! A10   A(5,3,6)              110.2536         -DE/DX =    0.0                 !
 ! A11   A(5,3,7)              105.1645         -DE/DX =    0.0                 !
 ! A12   A(6,3,7)              110.5964         -DE/DX =    0.0                 !
 ! A13   A(3,7,8)              107.4769         -DE/DX =    0.0                 !
 ! A14   A(7,8,9)              103.0582         -DE/DX =    0.0                 !
 ! A15   A(1,12,13)            124.3256         -DE/DX =    0.0                 !
 ! A16   A(1,12,14)            115.7456         -DE/DX =    0.0                 !
 ! A17   A(13,12,14)           119.9288         -DE/DX =    0.0                 !
 ! A18   A(12,13,15)           121.1278         -DE/DX =    0.0                 !
 ! A19   A(12,13,16)           121.099          -DE/DX =    0.0                 !
 ! A20   A(15,13,16)           117.7731         -DE/DX =    0.0                 !
 ! A21   L(1,9,8,4,-1)         174.7756         -DE/DX =    0.0                 !
 ! A22   L(1,9,8,4,-2)         176.7554         -DE/DX =    0.0                 !
 ! D1    D(9,1,2,10)           179.88           -DE/DX =    0.0                 !
 ! D2    D(9,1,2,11)             0.0287         -DE/DX =    0.0                 !
 ! D3    D(12,1,2,10)           -0.1465         -DE/DX =    0.0                 !
 ! D4    D(12,1,2,11)         -179.9979         -DE/DX =    0.0                 !
 ! D5    D(2,1,8,7)            -24.1238         -DE/DX =    0.0                 !
 ! D6    D(2,1,12,13)          174.7786         -DE/DX =    0.0                 !
 ! D7    D(2,1,12,14)           -5.1872         -DE/DX =    0.0                 !
 ! D8    D(9,1,12,13)           -5.2484         -DE/DX =    0.0                 !
 ! D9    D(9,1,12,14)          174.7858         -DE/DX =    0.0                 !
 ! D10   D(4,3,7,8)             65.125          -DE/DX =    0.0                 !
 ! D11   D(5,3,7,8)           -176.1314         -DE/DX =    0.0                 !
 ! D12   D(6,3,7,8)            -57.1183         -DE/DX =    0.0                 !
 ! D13   D(3,7,8,9)            -89.9939         -DE/DX =    0.0                 !
 ! D14   D(1,12,13,15)        -179.8395         -DE/DX =    0.0                 !
 ! D15   D(1,12,13,16)           0.0778         -DE/DX =    0.0                 !
 ! D16   D(14,12,13,15)          0.125          -DE/DX =    0.0                 !
 ! D17   D(14,12,13,16)       -179.9578         -DE/DX =    0.0                 !
 --------------------------------------------------------------------------------
 Iteration  1 RMS(Cart)=  0.13824407 RMS(Int)=  0.00462029
 Iteration  2 RMS(Cart)=  0.00849324 RMS(Int)=  0.00001628
 Iteration  3 RMS(Cart)=  0.00005592 RMS(Int)=  0.00000000
 Iteration  4 RMS(Cart)=  0.00000000 RMS(Int)=  0.00000000
 Iteration  1 RMS(Cart)=  0.00000000 RMS(Int)=  0.00000000
 GradGradGradGradGradGradGradGradGradGradGradGradGradGradGradGradGradGrad

                          Input orientation:                          
 ---------------------------------------------------------------------
 Center     Atomic      Atomic             Coordinates (Angstroms)
 Number     Number       Type             X           Y           Z
 ---------------------------------------------------------------------
      1          6           0        0.980343    0.624845   -0.056217
      2          6           0        0.531075    1.858620    0.035737
      3          6           0       -2.422498   -0.222014    0.845892
      4          1           0       -1.638385    0.104085    1.530920
      5          1           0       -3.305162    0.402868    0.966204
      6          1           0       -2.671116   -1.265308    1.032320
      7          8           0       -2.018082   -0.038072   -0.503398
      8          8           0       -0.921987   -0.901195   -0.739952
      9          1           0       -0.046038   -0.273874   -0.471038
     10          1           0        1.182865    2.673151    0.342216
     11          1           0       -0.499656    2.100136   -0.188081
     12          6           0        2.254660   -0.009552    0.164116
     13          6           0        2.460462   -1.326119    0.101060
     14          1           0        3.081382    0.658532    0.395354
     15          1           0        3.438183   -1.747006    0.278128
     16          1           0        1.653083   -2.006938   -0.127814
 ---------------------------------------------------------------------
                    Distance matrix (angstroms):
                    1          2          3          4          5
     1  C    0.000000
     2  C    1.316243   0.000000
     3  C    3.620814   3.702565   0.000000
     4  H    3.106112   3.165521   1.091071   0.000000
     5  H    4.411368   4.207339   1.088140   1.785026   0.000000
     6  H    4.253322   4.583245   1.088590   1.786161   1.785832
     7  O    3.103221   3.222780   1.420553   2.074326   2.002682
     8  O    2.532815   3.213980   2.286421   2.584699   3.207970
     9  H    1.425914   2.266586   2.717454   2.585780   3.625677
    10  H    2.096502   1.087300   4.651270   3.996570   5.068130
    11  H    2.093864   1.082050   3.187288   2.869824   3.476199
    12  C    1.440448   2.545052   4.731359   4.127574   5.632500
    13  C    2.453926   3.724159   5.061336   4.570616   6.081142
    14  H    2.149283   2.841408   5.592052   4.886014   6.417101
    15  H    3.431974   4.637948   6.082396   5.546853   7.111126
    16  H    2.717350   4.028422   4.554604   4.247538   5.620341
                    6          7          8          9         10
     6  H    0.000000
     7  O    2.071471   0.000000
     8  O    2.516541   1.415049   0.000000
     9  H    3.183404   1.986355   1.110465   0.000000
    10  H    5.553456   4.279236   4.286892   3.294927   0.000000
    11  H    4.186984   2.641396   3.080733   2.433466   1.854842
    12  C    5.156934   4.324663   3.421031   2.401353   2.894367
    13  C    5.215749   4.699126   3.511243   2.777959   4.205303
    14  H    6.099027   5.224705   4.443944   3.376503   2.768732
    15  H    6.174494   5.770794   4.556640   3.856315   4.962696
    16  H    4.538130   4.182696   2.868513   2.451189   4.727078
                   11         12         13         14         15
    11  H    0.000000
    12  C    3.487274   0.000000
    13  C    4.537083   1.334046   0.000000
    14  H    3.904158   1.087786   2.100236   0.000000
    15  H    5.524892   2.105344   1.079091   2.434679   0.000000
    16  H    4.637453   2.106340   1.080628   3.068953   1.849037
                   16
    16  H    0.000000
 Symmetry turned off by external request.
 Stoichiometry    C5H9O2(2)
 Framework group  C1[X(C5H9O2)]
 Deg. of freedom    42
 Full point group                 C1      NOp   1
 Rotational constants (GHZ):           3.9306728           1.3634466           1.1303386
 Standard basis: CC-pVTZ (5D, 7F)
   336 basis functions,   517 primitive gaussians,   380 cartesian basis functions
    28 alpha electrons       27 beta electrons
       nuclear repulsion energy       286.7413357934 Hartrees.
 NAtoms=   16 NActive=   16 NUniq=   16 SFac= 1.00D+00 NAtFMM=   60 NAOKFM=F Big=F
 Integral buffers will be    131072 words long.
 Raffenetti 2 integral format.
 Two-electron integral symmetry is turned off.
 Nuclear repulsion after empirical dispersion term =      286.7325733073 Hartrees.
 One-electron integrals computed using PRISM.
 NBasis=   336 RedAO= T EigKep=  2.84D-04  NBF=   336
 NBsUse=   336 1.00D-06 EigRej= -1.00D+00 NBFU=   336
 Initial guess from the checkpoint file:  "/localscratch/347861/Gau-68259.chk"
 B after Tr=     0.017140   -0.045140    0.012195
         Rot=    0.999995    0.002358    0.000329   -0.002183 Ang=   0.37 deg.
 Initial guess <Sx>= 0.0000 <Sy>= 0.0000 <Sz>= 0.5000 <S**2>= 0.7895 S= 0.5195
 ExpMin= 1.03D-01 ExpMax= 1.53D+04 ExpMxC= 5.22D+02 IAcc=3 IRadAn=         5 AccDes= 0.00D+00
 Harris functional with IExCor=  419 and IRadAn=       5 diagonalized for initial guess.
 HarFok:  IExCor=  419 AccDes= 0.00D+00 IRadAn=         5 IDoV= 1 UseB2=F ITyADJ=14
 ICtDFT=  3500011 ScaDFX=  1.000000  1.000000  1.000000  1.000000
 FoFCou: FMM=F IPFlag=           0 FMFlag=      100000 FMFlg1=           0
         NFxFlg=           0 DoJE=T BraDBF=F KetDBF=T FulRan=T
         wScrn=  0.000000 ICntrl=       500 IOpCl=  0 I1Cent=   200000004 NGrid=           0
         NMat0=    1 NMatS0=      1 NMatT0=    0 NMatD0=    1 NMtDS0=    0 NMtDT0=    0
 Symmetry not used in FoFCou.
 Requested convergence on RMS density matrix=1.00D-08 within 500 cycles.
 Requested convergence on MAX density matrix=1.00D-06.
 Requested convergence on             energy=1.00D-06.
 No special actions if energy rises.
 Integral accuracy reduced to 1.0D-05 until final iterations.
 Initial convergence to 1.0D-05 achieved.  Increase integral accuracy.
 SCF Done:  E(UB2PLYPD3) =  -345.587612009     A.U. after   20 cycles
            NFock= 20  Conv=0.34D-08     -V/T= 2.0043
 <Sx>= 0.0000 <Sy>= 0.0000 <Sz>= 0.5000 <S**2>= 0.7891 S= 0.5194
 <L.S>=  0.00000000000    
 Annihilation of the first spin contaminant:
 S**2 before annihilation     0.7891,   after     0.7511
 DoSCS=T DFT=T ScalE2(SS,OS)=  0.270000  0.270000
 ExpMin= 1.03D-01 ExpMax= 1.53D+04 ExpMxC= 5.22D+02 IAcc=3 IRadAn=         5 AccDes= 0.00D+00
 HarFok:  IExCor=  205 AccDes= 0.00D+00 IRadAn=         5 IDoV=-2 UseB2=F ITyADJ=14
 ICtDFT= 12500011 ScaDFX=  1.000000  1.000000  1.000000  1.000000
 Range of M.O.s used for correlation:     8   336
 NBasis=   336 NAE=    28 NBE=    27 NFC=     7 NFV=     0
 NROrb=    329 NOA=    21 NOB=    20 NVA=   308 NVB=   309

 **** Warning!!: The largest alpha MO coefficient is  0.15010477D+02


 **** Warning!!: The largest beta MO coefficient is  0.14069439D+02

 DoSCS=T DFT=T ScalE2(SS,OS)=  0.270000  0.270000
 Disk-based method using ON**2 memory for 21 occupieds at a time.
 Estimated scratch disk usage=  1985566128 words.
 Actual    scratch disk usage=  1820046256 words.
 JobTyp=2 Pass  1:  I=   8 to  28 NPSUse= 40 ParTrn=T ParDer=T DoDerP=T.
 (rs|ai) integrals will be sorted in core.
 Actual    scratch disk usage=  1820046256 words.
 JobTyp=3 Pass  1:  I=   8 to  27 NPSUse= 40 ParTrn=T ParDer=T DoDerP=T.
 (rs|ai) integrals will be sorted in core.
 Spin components of T(2) and E(2):
     alpha-alpha T2 =       0.7683142188D-01 E2=     -0.5316398832D-01
     alpha-beta  T2 =       0.4689076518D+00 E2=     -0.3252776903D+00
     beta-beta   T2 =       0.8202891343D-01 E2=     -0.5198387573D-01
 (S**2,0)=  0.78912D+00           (S**2,1)=  0.75651D+00
 Scaling Projection term by:   0.270000
 E(PUHF)=      -0.34559447247D+03        E(PMP2)=      -0.34601913022D+03
 E2(B2PLYPD3) =    -0.4304255543D+00 E(B2PLYPD3) =    -0.34601803756377D+03
          IDoAtm=1111111111111111
          Differentiating once with respect to electric field.
                with respect to dipole field.
          Differentiating once with respect to nuclear coordinates.
 Keep R1 and R2 ints in memory in canonical form, NReq=3251777228.
          There are     1 degrees of freedom in the 1st order CPHF.  IDoFFX=0 NUNeed=     1.
 LinEq1:  Iter=  0 NonCon=     1 RMS=9.60D-04 Max=7.15D-02 NDo=     1
 AX will form     1 AO Fock derivatives at one time.
 LinEq1:  Iter=  1 NonCon=     1 RMS=3.58D-04 Max=1.48D-02 NDo=     1
 LinEq1:  Iter=  2 NonCon=     1 RMS=2.64D-04 Max=1.33D-02 NDo=     1
 LinEq1:  Iter=  3 NonCon=     1 RMS=1.54D-04 Max=6.32D-03 NDo=     1
 LinEq1:  Iter=  4 NonCon=     1 RMS=9.45D-05 Max=3.74D-03 NDo=     1
 LinEq1:  Iter=  5 NonCon=     1 RMS=3.32D-05 Max=8.78D-04 NDo=     1
 LinEq1:  Iter=  6 NonCon=     1 RMS=2.55D-05 Max=1.13D-03 NDo=     1
 LinEq1:  Iter=  7 NonCon=     1 RMS=1.18D-05 Max=5.86D-04 NDo=     1
 LinEq1:  Iter=  8 NonCon=     1 RMS=9.96D-06 Max=5.60D-04 NDo=     1
 LinEq1:  Iter=  9 NonCon=     1 RMS=4.20D-06 Max=1.44D-04 NDo=     1
 LinEq1:  Iter= 10 NonCon=     1 RMS=1.04D-06 Max=2.14D-05 NDo=     1
 LinEq1:  Iter= 11 NonCon=     1 RMS=4.51D-07 Max=1.19D-05 NDo=     1
 LinEq1:  Iter= 12 NonCon=     1 RMS=2.34D-07 Max=8.20D-06 NDo=     1
 LinEq1:  Iter= 13 NonCon=     1 RMS=1.14D-07 Max=4.17D-06 NDo=     1
 LinEq1:  Iter= 14 NonCon=     1 RMS=6.04D-08 Max=2.07D-06 NDo=     1
 LinEq1:  Iter= 15 NonCon=     1 RMS=2.72D-08 Max=5.68D-07 NDo=     1
 LinEq1:  Iter= 16 NonCon=     1 RMS=9.99D-09 Max=1.90D-07 NDo=     1
 LinEq1:  Iter= 17 NonCon=     1 RMS=4.81D-09 Max=9.28D-08 NDo=     1
 LinEq1:  Iter= 18 NonCon=     1 RMS=2.18D-09 Max=5.59D-08 NDo=     1
 LinEq1:  Iter= 19 NonCon=     1 RMS=8.27D-10 Max=1.36D-08 NDo=     1
 LinEq1:  Iter= 20 NonCon=     1 RMS=2.77D-10 Max=4.50D-09 NDo=     1
 LinEq1:  Iter= 21 NonCon=     1 RMS=8.05D-11 Max=1.86D-09 NDo=     1
 LinEq1:  Iter= 22 NonCon=     0 RMS=2.03D-11 Max=7.94D-10 NDo=     1
 Linear equations converged to 1.000D-10 1.000D-09 after    22 iterations.
 End of Minotr F.D. properties file   721 does not exist.
 End of Minotr F.D. properties file   722 does not exist.
 End of Minotr F.D. properties file   788 does not exist.
 Calling FoFJK, ICntrl=  10002127 FMM=F ISym2X=0 I1Cent= 0 IOpClX= 1 NMat=1 NMatS=1 NMatT=0.
 -------------------------------------------------------------------
 Center     Atomic                   Forces (Hartrees/Bohr)
 Number     Number              X              Y              Z
 -------------------------------------------------------------------
      1        6          -0.000238123   -0.000094571    0.000248887
      2        6           0.000259109    0.000031406    0.000226266
      3        6          -0.000158530   -0.000324085    0.000398166
      4        1          -0.000108608   -0.000164076    0.000025347
      5        1          -0.000064281   -0.000010212   -0.000030638
      6        1          -0.000009834    0.000046359   -0.000002890
      7        8           0.000300104    0.000198455    0.000044817
      8        8          -0.000253021    0.000013996   -0.000074523
      9        1           0.000238345    0.000190153   -0.000291823
     10        1           0.000025068    0.000049451   -0.000194644
     11        1           0.000033610    0.000033036   -0.000398072
     12        6          -0.000001002    0.000018071    0.000073076
     13        6          -0.000041138    0.000156632   -0.000037398
     14        1          -0.000014317   -0.000013390    0.000020290
[...]
    16  H   -0.000008  -0.000018   0.000093   0.000655  -0.000181  -0.046482
              13         14         15         16
     1  C   -0.079272  -0.040007   0.006103  -0.000001
     2  C   -0.001405   0.000792   0.000039   0.003370
     3  C    0.000039  -0.000013  -0.000001  -0.000024
     4  H   -0.000073   0.000042   0.000005   0.000166
     5  H   -0.000005  -0.000001  -0.000000  -0.000001
     6  H   -0.000002  -0.000003  -0.000000  -0.000004
     7  O    0.000017  -0.000015   0.000000  -0.000008
     8  O   -0.000353   0.000335   0.000002  -0.000018
     9  H    0.001773  -0.000669  -0.000120   0.000093
    10  H    0.003602   0.000145  -0.000100   0.000655
    11  H   -0.000418  -0.000247   0.000023  -0.000181
    12  C    0.602635   0.417458  -0.046570  -0.046482
    13  C    4.964080  -0.040988   0.416703   0.406973
    14  H   -0.040988   0.512701  -0.006143   0.005899
    15  H    0.416703  -0.006143   0.524436  -0.030815
    16  H    0.406973   0.005899  -0.030815   0.525567
          Atomic-Atomic Spin Densities.
               1          2          3          4          5          6
     1  C    0.736503  -0.009419   0.001027  -0.005151   0.000109   0.001263
     2  C   -0.009419  -0.166999  -0.000188   0.000347  -0.000029  -0.000099
     3  C    0.001027  -0.000188  -0.005908   0.003361   0.000679  -0.001736
     4  H   -0.005151   0.000347   0.003361   0.002940  -0.000553  -0.001429
     5  H    0.000109  -0.000029   0.000679  -0.000553  -0.001901   0.000770
     6  H    0.001263  -0.000099  -0.001736  -0.001429   0.000770   0.003828
     7  O    0.012013  -0.001948   0.000330  -0.001217   0.000172  -0.000484
     8  O   -0.080288   0.005367  -0.001859   0.004018  -0.000196  -0.000542
     9  H    0.045282  -0.001010   0.000733  -0.002993   0.000069   0.001140
    10  H   -0.013856  -0.001828   0.000080  -0.000324   0.000007   0.000019
    11  H   -0.004156   0.010169  -0.000330   0.000957  -0.000049  -0.000129
    12  C   -0.021135   0.005313  -0.000035   0.000620  -0.000003  -0.000105
    13  C   -0.017443   0.000266  -0.000002   0.000140   0.000000  -0.000025
    14  H   -0.001427   0.000179   0.000003   0.000003   0.000000   0.000000
    15  H    0.000053  -0.000027  -0.000000   0.000008  -0.000000  -0.000001
    16  H    0.000354  -0.000279   0.000009  -0.000072   0.000000   0.000006
               7          8          9         10         11         12
     1  C    0.012013  -0.080288   0.045282  -0.013856  -0.004156  -0.021135
     2  C   -0.001948   0.005367  -0.001010  -0.001828   0.010169   0.005313
     3  C    0.000330  -0.001859   0.000733   0.000080  -0.000330  -0.000035
     4  H   -0.001217   0.004018  -0.002993  -0.000324   0.000957   0.000620
     5  H    0.000172  -0.000196   0.000069   0.000007  -0.000049  -0.000003
     6  H   -0.000484  -0.000542   0.001140   0.000019  -0.000129  -0.000105
     7  O    0.059860  -0.040666   0.008546   0.000396  -0.003232  -0.000483
     8  O   -0.040666   0.533826  -0.038646  -0.000838   0.002218   0.005755
     9  H    0.008546  -0.038646  -0.093365   0.000802  -0.000085  -0.003884
    10  H    0.000396  -0.000838   0.000802   0.077720  -0.008268  -0.004195
    11  H   -0.003232   0.002218  -0.000085  -0.008268   0.022003   0.000769
    12  C   -0.000483   0.005755  -0.003884  -0.004195   0.000769  -0.192197
    13  C   -0.000004   0.000149   0.000040   0.004202  -0.000187   0.002347
    14  H   -0.000004   0.000113  -0.000278  -0.000039  -0.000009  -0.000577
    15  H   -0.000001   0.000014  -0.000020  -0.000092   0.000005   0.000184
    16  H    0.000008  -0.000044   0.000014   0.000376  -0.000034  -0.000354
              13         14         15         16
     1  C   -0.017443  -0.001427   0.000053   0.000354
     2  C    0.000266   0.000179  -0.000027  -0.000279
     3  C   -0.000002   0.000003  -0.000000   0.000009
     4  H    0.000140   0.000003   0.000008  -0.000072
     5  H    0.000000   0.000000  -0.000000   0.000000
     6  H   -0.000025   0.000000  -0.000001   0.000006
     7  O   -0.000004  -0.000004  -0.000001   0.000008
     8  O    0.000149   0.000113   0.000014  -0.000044
     9  H    0.000040  -0.000278  -0.000020   0.000014
    10  H    0.004202  -0.000039  -0.000092   0.000376
    11  H   -0.000187  -0.000009   0.000005  -0.000034
    12  C    0.002347  -0.000577   0.000184  -0.000354
    13  C    0.337392  -0.001929   0.001828   0.003206
    14  H   -0.001929   0.012458   0.000475  -0.000067
    15  H    0.001828   0.000475  -0.015850   0.001812
    16  H    0.003206  -0.000067   0.001812  -0.017960
 Mulliken charges and spin densities:
               1          2
     1  C   -0.053513   0.643730
     2  C   -0.306348  -0.160185
     3  C   -0.065026  -0.003836
     4  H    0.075169   0.000656
     5  H    0.095084  -0.000924
     6  H    0.096424   0.002476
     7  O   -0.187422   0.033286
     8  O   -0.221150   0.388381
     9  H    0.224993  -0.083657
    10  H    0.138039   0.054163
    11  H    0.157036   0.019642
    12  C   -0.101946  -0.207981
    13  C   -0.273305   0.329981
    14  H    0.150714   0.008902
    15  H    0.136439  -0.011612
    16  H    0.134811  -0.013023
 Sum of Mulliken charges =  -0.00000   1.00000
 Mulliken charges and spin densities with hydrogens summed into heavy atoms:
               1          2
     1  C   -0.053513   0.643730
     2  C   -0.011273  -0.086379
     3  C    0.201651  -0.001628
     7  O   -0.187422   0.033286
     8  O    0.003843   0.304724
    12  C    0.048768  -0.199079
    13  C   -0.002054   0.305347
 Electronic spatial extent (au):  <R**2>=           1125.7033
 Charge=             -0.0000 electrons
 Dipole moment (field-independent basis, Debye):
    X=              1.9961    Y=             -2.1073    Z=              0.0891  Tot=              2.9039
 Quadrupole moment (field-independent basis, Debye-Ang):
   XX=            -41.9404   YY=            -44.2513   ZZ=            -41.2073
   XY=              4.8544   XZ=             -2.1469   YZ=             -1.5172
 Traceless Quadrupole moment (field-independent basis, Debye-Ang):
   XX=              0.5259   YY=             -1.7850   ZZ=              1.2591
   XY=              4.8544   XZ=             -2.1469   YZ=             -1.5172
 Octapole moment (field-independent basis, Debye-Ang**2):
  XXX=             -3.3130  YYY=            -38.4679  ZZZ=            -21.3313  XYY=              1.2925
  XXY=            -26.4262  XXZ=            -13.2117  XZZ=              3.9819  YZZ=            -10.2883
  YYZ=            -11.1876  XYZ=              1.6917
 Hexadecapole moment (field-independent basis, Debye-Ang**3):
 XXXX=           -964.3005 YYYY=           -216.1746 ZZZZ=           -282.7413 XXXY=             -3.8922
 XXXZ=             78.5145 YYYX=            -18.6781 YYYZ=            -22.1898 ZZZX=             92.4151
 ZZZY=            -15.8868 XXYY=           -197.4134 XXZZ=           -189.2362 YYZZ=            -84.5265
 XXYZ=            -10.9064 YYXZ=             26.5614 ZZXY=              0.6688
 N-N= 2.852936292348D+02 E-N=-1.379144809422D+03  KE= 3.441031712499D+02
                          Isotropic Fermi Contact Couplings
        Atom                 a.u.       MegaHertz       Gauss      10(-4) cm-1
     1  C(13)              0.13254     149.00057      53.16711      49.70124
     2  C(13)              0.01216      13.66555       4.87621       4.55834
     3  C(13)             -0.00390      -4.38345      -1.56412      -1.46216
     4  H(1)               0.00267      11.93315       4.25805       3.98047
     5  H(1)              -0.00011      -0.47504      -0.16950      -0.15846
     6  H(1)               0.00090       4.02534       1.43634       1.34271
     7  O(17)              0.01704     -10.32658      -3.68478      -3.44458
     8  O(17)              0.02802     -16.98322      -6.06003      -5.66499
     9  H(1)              -0.02320    -103.71495     -37.00807     -34.59558
    10  H(1)               0.02018      90.19064      32.18226      30.08436
    11  H(1)               0.01044      46.66679      16.65187      15.56636
    12  C(13)              0.01541      17.32538       6.18213       5.77912
    13  C(13)              0.00635       7.13688       2.54662       2.38061
    14  H(1)              -0.00042      -1.87302      -0.66834      -0.62477
    15  H(1)              -0.00068      -3.02915      -1.08088      -1.01042
    16  H(1)              -0.00164      -7.34901      -2.62231      -2.45137
 --------------------------------------------------------
       Center         ----  Spin Dipole Couplings  ----
                      3XX-RR        3YY-RR        3ZZ-RR
 --------------------------------------------------------
     1   Atom        0.507111     -0.303617     -0.203495
     2   Atom       -0.009009     -0.025942      0.034951
     3   Atom       -0.000157      0.006192     -0.006034
     4   Atom       -0.001630      0.007166     -0.005536
     5   Atom       -0.000311      0.002170     -0.001860
     6   Atom        0.000107      0.003992     -0.004099
     7   Atom        0.420513     -0.194729     -0.225783
     8   Atom        1.239963     -0.733238     -0.506724
     9   Atom        0.204528     -0.106820     -0.097709
    10   Atom        0.002746     -0.005874      0.003128
    11   Atom       -0.002856     -0.009160      0.012015
    12   Atom        0.002284     -0.006603      0.004319
    13   Atom        0.004404     -0.030141      0.025737
    14   Atom        0.000666     -0.002528      0.001862
    15   Atom        0.006324     -0.009820      0.003496
    16   Atom       -0.004940      0.008186     -0.003246
 --------------------------------------------------------
                        XY            XZ            YZ
 --------------------------------------------------------
     1   Atom       -0.096138      0.297533     -0.036438
     2   Atom       -0.006692      0.014820     -0.007553
     3   Atom        0.003811     -0.002977     -0.002039
     4   Atom        0.002170     -0.000444     -0.002513
     5   Atom        0.003554     -0.001789     -0.003134
     6   Atom        0.005841      0.000556      0.001190
     7   Atom       -0.088975      0.164874     -0.012356
     8   Atom       -0.470894      0.822901     -0.183598
     9   Atom       -0.039183      0.064781     -0.010192
    10   Atom       -0.000251      0.006087     -0.000215
    11   Atom        0.000693     -0.005347     -0.000885
    12   Atom       -0.024742     -0.065984     -0.000710
    13   Atom        0.071953      0.100324      0.084561
    14   Atom        0.001180     -0.008125     -0.004496
    15   Atom        0.002689     -0.008574      0.004027
    16   Atom        0.001897      0.001468     -0.004787
 --------------------------------------------------------


 ---------------------------------------------------------------------------------
              Anisotropic Spin Dipole Couplings in Principal Axis System
 ---------------------------------------------------------------------------------

       Atom             a.u.   MegaHertz   Gauss  10(-4) cm-1        Axes

              Baa    -0.3155   -42.335   -15.106   -14.122 -0.0195  0.9344  0.3557
     1 C(13)  Bbb    -0.3111   -41.748   -14.897   -13.926 -0.3564 -0.3389  0.8707
              Bcc     0.6266    84.083    30.003    28.047  0.9341 -0.1098  0.3396
 
              Baa    -0.0284    -3.807    -1.358    -1.270  0.2957  0.9542  0.0446
     2 C(13)  Bbb    -0.0124    -1.661    -0.593    -0.554  0.9071 -0.2658 -0.3264
              Bcc     0.0408     5.468     1.951     1.824  0.2996 -0.1370  0.9442
 
              Baa    -0.0073    -0.979    -0.349    -0.326  0.3681  0.0365  0.9291
     3 C(13)  Bbb    -0.0014    -0.182    -0.065    -0.061  0.8150 -0.4935 -0.3036
              Bcc     0.0086     1.161     0.414     0.387  0.4474  0.8690 -0.2114
 
              Baa    -0.0060    -3.210    -1.145    -1.071  0.0074  0.1861  0.9825
     4 H(1)   Bbb    -0.0021    -1.137    -0.406    -0.379  0.9753 -0.2185  0.0340
              Bcc     0.0081     4.347     1.551     1.450  0.2210  0.9579 -0.1831
 
              Baa    -0.0036    -1.913    -0.683    -0.638 -0.1137  0.5283  0.8414
     5 H(1)   Bbb    -0.0027    -1.438    -0.513    -0.480  0.8486 -0.3887  0.3588
              Bcc     0.0063     3.351     1.196     1.118  0.5167  0.7548 -0.4041
 
              Baa    -0.0044    -2.359    -0.842    -0.787  0.4488 -0.4229  0.7873
     6 H(1)   Bbb    -0.0039    -2.090    -0.746    -0.697  0.6797 -0.4105 -0.6079
              Bcc     0.0083     4.449     1.588     1.484  0.5802  0.8079  0.1032
 
              Baa    -0.2667    19.297     6.886     6.437 -0.2483 -0.1426  0.9581
     7 O(17)  Bbb    -0.2055    14.866     5.305     4.959  0.0945  0.9808  0.1704
              Bcc     0.4721   -34.163   -12.190   -11.396  0.9641 -0.1329  0.2301
 
              Baa    -0.8406    60.828    21.705    20.290  0.3169  0.9051 -0.2833
     8 O(17)  Bbb    -0.8321    60.210    21.485    20.084 -0.2683  0.3721  0.8886
              Bcc     1.6727  -121.039   -43.190   -40.374  0.9097 -0.2056  0.3608
 
              Baa    -0.1135   -60.567   -21.612   -20.203 -0.0375  0.7630  0.6454
     9 H(1)   Bbb    -0.1093   -58.302   -20.804   -19.447 -0.2314 -0.6349  0.7371
              Bcc     0.2228   118.869    42.415    39.650  0.9721 -0.1218  0.2004
 
              Baa    -0.0059    -3.138    -1.120    -1.047  0.0234  0.9997  0.0080
    10 H(1)   Bbb    -0.0032    -1.682    -0.600    -0.561  0.7178 -0.0113 -0.6961
              Bcc     0.0090     4.820     1.720     1.608  0.6958 -0.0221  0.7179
 
              Baa    -0.0092    -4.930    -1.759    -1.645 -0.0928  0.9955  0.0181
    11 H(1)   Bbb    -0.0045    -2.426    -0.866    -0.809  0.9471  0.0827  0.3102
              Bcc     0.0138     7.356     2.625     2.454 -0.3073 -0.0459  0.9505
 
              Baa    -0.0682    -9.153    -3.266    -3.053  0.7062  0.2911  0.6454
    12 C(13)  Bbb    -0.0048    -0.639    -0.228    -0.213 -0.0591  0.9326 -0.3560
              Bcc     0.0730     9.793     3.494     3.266  0.7055 -0.2133 -0.6758
 
              Baa    -0.0913   -12.249    -4.371    -4.086  0.0447  0.7911 -0.6100
    13 C(13)  Bbb    -0.0845   -11.340    -4.047    -3.783  0.8102 -0.3859 -0.4412
              Bcc     0.1758    23.589     8.417     7.869  0.5845  0.4745  0.6582
 
              Baa    -0.0080    -4.248    -1.516    -1.417  0.5836  0.4386  0.6834
    14 H(1)   Bbb    -0.0027    -1.464    -0.522    -0.488 -0.5232  0.8467 -0.0966
              Bcc     0.0107     5.712     2.038     1.905 -0.6210 -0.3012  0.7236
 
              Baa    -0.0125    -6.663    -2.378    -2.223 -0.2986  0.8752 -0.3806
    15 H(1)   Bbb    -0.0011    -0.600    -0.214    -0.200  0.5802  0.4831  0.6557
              Bcc     0.0136     7.264     2.592     2.423  0.7577 -0.0251 -0.6521
 
              Baa    -0.0070    -3.756    -1.340    -1.253  0.7105 -0.2901 -0.6411
    16 H(1)   Bbb    -0.0030    -1.600    -0.571    -0.534  0.6984  0.1783  0.6932
              Bcc     0.0100     5.356     1.911     1.786  0.0868  0.9402 -0.3293
 

 ---------------------------------------------------------------------------------

 1\1\GINC-N138\Scan\UB2PLYPD3-FC\CC-pVTZ\C5H9O2(2)\ROOT\14-Jun-2019\0\\
 # opt=(calcfc,ts,noeigentest,maxcyc=500,modredundant) uB2PLYPD3/cc-pvt
 z scf=maxcyc=500 nosymm\\Title Card Required\\0,2\C,0.8846657378,0.738
 3827345,0.3174151833\C,0.9421146132,0.6749314424,1.6305992965\C,-2.339
 0216861,-0.8607332481,0.6127738668\H,-1.3743832648,-1.3663566213,0.547
 9000151\H,-2.8915330172,-1.2207430973,1.4781113971\H,-2.9102376609,-1.
 0283140521,-0.2982836288\O,-2.1575416002,0.5314701597,0.8368740963\O,-
 1.5346423669,1.0717750559,-0.3015787707\H,-0.4091645711,0.950506219,-0
 .0917728689\H,1.8932607426,0.592938331,2.1477199821\H,0.0433887273,0.7
 252336524,2.2317182005\C,1.8225291449,0.6388083905,-0.7671091676\C,2.5
 282147244,-0.4657847129,-1.0340136996\H,1.9147545137,1.50192785,-1.416
 1446081\H,3.2196559924,-0.4989600365,-1.8629668434\H,2.4270689708,-1.3
 529220671,-0.4257934506\\Version=ES64L-G16RevB.01\HF=-345.5878567,-345
 .5877392,-345.5874605,-345.5870725,-345.5866656,-345.5863109,-345.5860
 5,-345.5859174,-345.5859317,-345.5861092,-345.5864111,-345.5867622,-34
 5.5870699,-345.587303,-345.5874561,-345.5875261,-345.5874902,-345.5873
 45,-345.5871002,-345.5867775,-345.5863999,-345.5859836,-345.5855421,-3
 45.5844896,-345.5845386,-345.5846724,-345.5848035,-345.5848785,-345.58
 48997,-345.5848848,-345.584876,-345.5848934,-345.58498,-345.5851338,-3
 45.5853605,-345.585608,-345.5857956\MP2=-346.0181867,-346.0180783,-346
 .0177547,-346.0172733,-346.0167453,-346.0162963,-346.0159971,-346.0158
 551,-346.0158779,-346.016073,-346.0164036,-346.0167766,-346.0171067,-3
 46.0173656,-346.0175541,-346.0176697,-346.0176888,-346.0175864,-346.01
 73608,-346.0170361,-346.0166471,-346.0162211,-346.0157748,-346.0154177
 ,-346.0154106,-346.0153789,-346.0153301,-346.0152699,-346.0151972,-346
 .0151264,-346.0150894,-346.0151288,-346.0152847,-346.0155757,-346.0159
 724,-346.0163901,-346.0166999\PUHF=-345.5947285,-345.594585,-345.59429
 ,-345.5939214,-345.5935796,-345.593304,-345.5930979,-345.5929812,-345.
 5929832,-345.5931205,-345.5933721,-345.5936805,-345.5939649,-345.59418
 79,-345.594344,-345.594427,-345.5944194,-345.5943188,-345.5941363,-345
 .5938913,-345.5936021,-345.5932881,-345.5929495,-345.5944945,-345.5944
 511,-345.5944846,-345.5945222,-345.5945199,-345.59448,-345.5944203,-34
 5.5943823,-345.594395,-345.5944875,-345.5946704,-345.5949242,-345.5951
 882,-345.595383\PMP2-0=-346.0192845,-346.0191682,-346.0188379,-346.018
 3585,-346.0178449,-346.0174145,-346.0171279,-346.016989,-346.0170081,-
 346.0171947,-346.0175142,-346.0178784,-346.018204,-346.0184611,-346.01
 86493,-346.0187654,-346.0187893,-346.0186967,-346.0184866,-346.0181815
 ,-346.0178142,-346.0174125,-346.0169891,-346.0170216,-346.0169982,-346
 .0169545,-346.0168982,-346.0168328,-346.0167565,-346.0166821,-346.0166
 433,-346.0166822,-346.0168391,-346.0171326,-346.0175313,-346.0179499,-
 346.0182598\S2=0.789421,0.788999,0.788585,0.788569,0.789188,0.790087,0
 .790733,0.790912,0.790762,0.790396,0.789886,0.789489,0.789288,0.789212
 ,0.789177,0.789161,0.789358,0.789829,0.790615,0.791617,0.792737,0.7939
 9,0.795155,0.816926,0.815898,0.815146,0.81472,0.814481,0.814342,0.8141
 92,0.814143,0.814144,0.814235,0.814379,0.814532,0.814645,0.814729\S2-1
 =0.756698,0.756471,0.756233,0.756183,0.756447,0.756843,0.75711,0.75716
 3,0.757068,0.756918,0.756705,0.756561,0.756497,0.756476,0.756435,0.756
 368,0.756408,0.756597,0.756961,0.757432,0.75795,0.758513,0.759005,0.76
 1132,0.760889,0.760962,0.761255,0.761575,0.761861,0.76202,0.762157,0.7
 62176,0.762194,0.762105,0.762016,0.761954,0.761919\S2A=0.751094,0.7510
 72,0.751051,0.75105,0.751084,0.751134,0.751169,0.751179,0.751169,0.751
 147,0.751117,0.751096,0.751086,0.751082,0.751081,0.75108,0.75109,0.751
 115,0.751159,0.751217,0.751284,0.751363,0.75144,0.752941,0.75289,0.752
 876,0.752885,0.752897,0.752908,0.75291,0.752914,0.752915,0.752917,0.75
 2915,0.752911,0.752905,0.752898\RMSD=6.750e-09,6.205e-09,7.664e-09,2.0
 37e-09,7.577e-09,9.865e-09,8.768e-09,7.892e-09,7.748e-09,7.267e-09,3.7
 86e-09,6.016e-09,3.901e-09,6.533e-09,7.994e-09,9.100e-09,6.460e-09,7.5
 70e-09,5.749e-09,8.719e-09,8.746e-09,9.838e-09,9.742e-09,4.448e-09,5.4
 05e-09,9.350e-09,5.680e-09,5.979e-09,8.632e-09,9.165e-09,4.963e-09,5.2
 89e-09,9.411e-09,9.782e-09,5.421e-09,9.659e-09,8.818e-09\PG=C01 [X(C5H
 9O2)]\\@


 "I COULD HAVE DONE IT IN A MUCH MORE COMPLICATED WAY"
 SAID THE RED QUEEN, IMMENSELY PROUD.

                                      -- LEWIS CARROLL
 Job cpu time:      27 days  8 hours 29 minutes 11.0 seconds.
 Elapsed time:       0 days 23 hours 46 minutes  6.9 seconds.
 File lengths (MBytes):  RWF=  83476 Int=      0 D2E=      0 Chk=     20 Scr=      1
 Normal termination of Gaussian 16 at Fri Jun 14 19:53:39 2019.
