 Entering Gaussian System, Link 0=g16
 Initial command:
 /ichec/packages/gaussian/16b01/l1.exe "/localscratch/339753/Gau-42275.inp" -scrdir="/localscratch/339753/"
 Entering Link 1 = /ichec/packages/gaussian/16b01/l1.exe PID=     42322.
  
 Copyright (c) 1988-2017, Gaussian, Inc.  All Rights Reserved.
  
 This is part of the Gaussian(R) 16 program.  It is based on
 the Gaussian(R) 09 system (copyright 2009, Gaussian, Inc.),
 the Gaussian(R) 03 system (copyright 2003, Gaussian, Inc.),
 the Gaussian(R) 98 system (copyright 1998, Gaussian, Inc.),
 the Gaussian(R) 94 system (copyright 1995, Gaussian, Inc.),
 the Gaussian 92(TM) system (copyright 1992, Gaussian, Inc.),
 the Gaussian 90(TM) system (copyright 1990, Gaussian, Inc.),
 the Gaussian 88(TM) system (copyright 1988, Gaussian, Inc.),
 the Gaussian 86(TM) system (copyright 1986, Carnegie Mellon
 University), and the Gaussian 82(TM) system (copyright 1983,
 Carnegie Mellon University). Gaussian is a federally registered
 trademark of Gaussian, Inc.
  
 This software contains proprietary and confidential information,
 including trade secrets, belonging to Gaussian, Inc.
  
 This software is provided under written license and may be
 used, copied, transmitted, or stored only in accord with that
 written license.
  
 The following legend is applicable only to US Government
 contracts under FAR:
  
                    RESTRICTED RIGHTS LEGEND
  
 Use, reproduction and disclosure by the US Government is
 subject to restrictions as set forth in subparagraphs (a)
 and (c) of the Commercial Computer Software - Restricted
 Rights clause in FAR 52.227-19.
  
 Gaussian, Inc.
 340 Quinnipiac St., Bldg. 40, Wallingford CT 06492
  
  
 ---------------------------------------------------------------
 Warning -- This program may not be used in any manner that
 competes with the business of Gaussian, Inc. or will provide
 assistance to any competitor of Gaussian, Inc.  The licensee
 of this program is prohibited from giving any competitor of
 Gaussian, Inc. access to this program.  By using this program,
 the user acknowledges that Gaussian, Inc. is engaged in the
 business of creating and licensing software in the field of
 computational chemistry and represents and warrants to the
 licensee that it is not a competitor of Gaussian, Inc. and that
 it will not use this program in any manner prohibited above.
 ---------------------------------------------------------------
  

 Cite this work as:
 Gaussian 16, Revision B.01,
 M. J. Frisch, G. W. Trucks, H. B. Schlegel, G. E. Scuseria, 
 M. A. Robb, J. R. Cheeseman, G. Scalmani, V. Barone, 
 G. A. Petersson, H. Nakatsuji, X. Li, M. Caricato, A. V. Marenich, 
 J. Bloino, B. G. Janesko, R. Gomperts, B. Mennucci, H. P. Hratchian, 
 J. V. Ortiz, A. F. Izmaylov, J. L. Sonnenberg, D. Williams-Young, 
 F. Ding, F. Lipparini, F. Egidi, J. Goings, B. Peng, A. Petrone, 
 T. Henderson, D. Ranasinghe, V. G. Zakrzewski, J. Gao, N. Rega, 
 G. Zheng, W. Liang, M. Hada, M. Ehara, K. Toyota, R. Fukuda, 
 J. Hasegawa, M. Ishida, T. Nakajima, Y. Honda, O. Kitao, H. Nakai, 
 T. Vreven, K. Throssell, J. A. Montgomery, Jr., J. E. Peralta, 
 F. Ogliaro, M. J. Bearpark, J. J. Heyd, E. N. Brothers, K. N. Kudin, 
 V. N. Staroverov, T. A. Keith, R. Kobayashi, J. Normand, 
 K. Raghavachari, A. P. Rendell, J. C. Burant, S. S. Iyengar, 
 J. Tomasi, M. Cossi, J. M. Millam, M. Klene, C. Adamo, R. Cammi, 
 J. W. Ochterski, R. L. Martin, K. Morokuma, O. Farkas, 
 J. B. Foresman, and D. J. Fox, Gaussian, Inc., Wallingford CT, 2016.
 
 ******************************************
 Gaussian 16:  ES64L-G16RevB.01 20-Dec-2017
                 4-Jun-2019 
 ******************************************
 %mem=80GB
 %nproc=40
 Will use up to   40 processors via shared memory.
 ----------------------------------------------------------------------
 # opt=(calcfc,ts,noeigentest,maxcyc=500) freq=noraman uB2PLYPD3/cc-pvt
 z
 ----------------------------------------------------------------------
 1/5=1,6=500,10=4,11=1,18=20,38=1/1,3;
 2/9=110,12=2,17=6,18=5,40=1/2;
 3/5=16,6=1,11=2,25=1,30=1,71=2,74=-60,116=2,140=1/1,2,3;
 4//1;
 5/5=2,38=5/2;
 8/6=3,8=1,10=1,19=11,30=-1/1;
 9/15=3,16=-3/6;
 11/6=1,8=1,15=11,17=12,24=-1,27=1,28=-2,29=300,32=6,42=3/1,2,10;
 10/6=2,21=1/2;
 8/6=4,8=1,10=1,19=11,30=-1/11,4;
 10/5=1,20=4/2;
 11/12=2,14=11,16=1,17=2,28=-2,42=3,76=2/2,10,12;
 6/7=2,8=2,9=2,10=2/1;
 7/10=1,12=2,25=1,44=2/1,2,3,16;
 1/5=1,6=500,10=4,11=1,18=20/3(2);
 2/9=110/2;
 99//99;
 2/9=110/2;
 3/5=16,6=1,11=2,25=1,30=1,71=1,74=-60,116=2/1,2,3;
 4/5=5,16=3,69=1/1;
 5/5=2,38=5/2;
 8/6=4,10=1/1;
 9/15=2,16=-3/6;
 10/5=1/2;
 7/12=2/1,2,3,16;
 1/5=1,6=500,11=1,18=20/3(-8);
 2/9=110/2;
 6/7=2,8=2,9=2,10=2/1;
 99/9=10/99;
 -------------------
 Title Card Required
 -------------------
 Symbolic Z-matrix:
 Charge =  0 Multiplicity = 2
 C                    -1.97566   0.65332   0.07742 
 H                    -2.69141  -0.10592  -0.23498 
 H                    -1.97094   0.67287   1.16643 
 C                    -0.58433   0.36479  -0.47747 
 H                    -0.58907   0.34492  -1.56647 
 H                     0.13132   1.1242   -0.16526 
 C                     0.78402  -2.97349  -1.41156 
 H                    -0.15756  -2.76587  -1.92195 
 H                     1.5703   -3.15138  -2.14304 
 H                     0.67167  -3.84773  -0.77107 
 O                     1.22942  -1.85419  -0.67071 
 O                     0.22683  -1.63494   0.35905 
 H                    -0.15188  -0.62323   0.04866 
 C                    -2.50061   2.01649  -0.41022 
 C                    -3.68871   2.49243  -0.06391 
 H                    -1.81118   2.56247  -1.06808 
 H                    -4.06309   3.46458  -0.41169 
 H                    -4.37814   1.94645   0.59395 
 

 GradGradGradGradGradGradGradGradGradGradGradGradGradGradGradGradGradGrad
 Berny optimization.
 Initialization pass.
                           ----------------------------
                           !    Initial Parameters    !
                           ! (Angstroms and Degrees)  !
 --------------------------                            --------------------------
 ! Name  Definition              Value          Derivative Info.                !
 --------------------------------------------------------------------------------
 ! R1    R(1,2)                  1.0892         calculate D2E/DX2 analytically  !
 ! R2    R(1,3)                  1.0892         calculate D2E/DX2 analytically  !
 ! R3    R(1,4)                  1.5254         calculate D2E/DX2 analytically  !
 ! R4    R(1,14)                 1.54           calculate D2E/DX2 analytically  !
 ! R5    R(4,5)                  1.0892         calculate D2E/DX2 analytically  !
 ! R6    R(4,6)                  1.0892         calculate D2E/DX2 analytically  !
 ! R7    R(4,13)                 1.2            calculate D2E/DX2 analytically  !
 ! R8    R(7,8)                  1.091          calculate D2E/DX2 analytically  !
 ! R9    R(7,9)                  1.0885         calculate D2E/DX2 analytically  !
 ! R10   R(7,10)                 1.0896         calculate D2E/DX2 analytically  !
 ! R11   R(7,11)                 1.4142         calculate D2E/DX2 analytically  !
 ! R12   R(11,12)                1.4538         calculate D2E/DX2 analytically  !
 ! R13   R(12,13)                1.124          calculate D2E/DX2 analytically  !
 ! R14   R(14,15)                1.3259         calculate D2E/DX2 analytically  !
 ! R15   R(14,16)                1.0983         calculate D2E/DX2 analytically  !
 ! R16   R(15,17)                1.0983         calculate D2E/DX2 analytically  !
 ! R17   R(15,18)                1.0983         calculate D2E/DX2 analytically  !
 ! A1    A(2,1,3)              107.5856         calculate D2E/DX2 analytically  !
 ! A2    A(2,1,4)              111.2962         calculate D2E/DX2 analytically  !
 ! A3    A(2,1,14)             107.5899         calculate D2E/DX2 analytically  !
 ! A4    A(3,1,4)              111.2932         calculate D2E/DX2 analytically  !
 ! A5    A(3,1,14)             107.589          calculate D2E/DX2 analytically  !
 ! A6    A(4,1,14)             111.2936         calculate D2E/DX2 analytically  !
 ! A7    A(1,4,5)              111.2949         calculate D2E/DX2 analytically  !
 ! A8    A(1,4,6)              111.2924         calculate D2E/DX2 analytically  !
 ! A9    A(1,4,13)             108.9617         calculate D2E/DX2 analytically  !
 ! A10   A(5,4,6)              107.5887         calculate D2E/DX2 analytically  !
 ! A11   A(5,4,13)             115.1459         calculate D2E/DX2 analytically  !
 ! A12   A(6,4,13)             102.2161         calculate D2E/DX2 analytically  !
 ! A13   A(8,7,9)              109.8854         calculate D2E/DX2 analytically  !
 ! A14   A(8,7,10)             109.7989         calculate D2E/DX2 analytically  !
 ! A15   A(8,7,11)             111.4858         calculate D2E/DX2 analytically  !
 ! A16   A(9,7,10)             109.7781         calculate D2E/DX2 analytically  !
 ! A17   A(9,7,11)             104.7067         calculate D2E/DX2 analytically  !
 ! A18   A(10,7,11)            111.0739         calculate D2E/DX2 analytically  !
 ! A19   A(7,11,12)            105.8563         calculate D2E/DX2 analytically  !
 ! A20   A(11,12,13)            99.9337         calculate D2E/DX2 analytically  !
 ! A21   A(1,14,15)            122.7159         calculate D2E/DX2 analytically  !
 ! A22   A(1,14,16)            114.5661         calculate D2E/DX2 analytically  !
 ! A23   A(15,14,16)           122.718          calculate D2E/DX2 analytically  !
 ! A24   A(14,15,17)           122.7159         calculate D2E/DX2 analytically  !
 ! A25   A(14,15,18)           122.718          calculate D2E/DX2 analytically  !
 ! A26   A(17,15,18)           114.5661         calculate D2E/DX2 analytically  !
 ! A27   L(4,13,12,8,-1)       169.6149         calculate D2E/DX2 analytically  !
 ! A28   L(4,13,12,8,-2)       179.7246         calculate D2E/DX2 analytically  !
 ! D1    D(2,1,4,5)             59.9852         calculate D2E/DX2 analytically  !
 ! D2    D(2,1,4,6)            179.9849         calculate D2E/DX2 analytically  !
 ! D3    D(2,1,4,13)           -68.0504         calculate D2E/DX2 analytically  !
 ! D4    D(3,1,4,5)            179.9824         calculate D2E/DX2 analytically  !
 ! D5    D(3,1,4,6)            -60.0179         calculate D2E/DX2 analytically  !
 ! D6    D(3,1,4,13)            51.9468         calculate D2E/DX2 analytically  !
 ! D7    D(14,1,4,5)           -60.0178         calculate D2E/DX2 analytically  !
 ! D8    D(14,1,4,6)            59.9819         calculate D2E/DX2 analytically  !
 ! D9    D(14,1,4,13)          171.9466         calculate D2E/DX2 analytically  !
 ! D10   D(2,1,14,15)           57.828          calculate D2E/DX2 analytically  !
 ! D11   D(2,1,14,16)         -122.1707         calculate D2E/DX2 analytically  !
 ! D12   D(3,1,14,15)          -57.8297         calculate D2E/DX2 analytically  !
 ! D13   D(3,1,14,16)          122.1716         calculate D2E/DX2 analytically  !
 ! D14   D(4,1,14,15)         -179.9986         calculate D2E/DX2 analytically  !
 ! D15   D(4,1,14,16)            0.0026         calculate D2E/DX2 analytically  !
 ! D16   D(1,4,12,11)          160.1133         calculate D2E/DX2 analytically  !
 ! D17   D(5,4,12,11)           36.561          calculate D2E/DX2 analytically  !
 ! D18   D(6,4,12,11)          -79.3961         calculate D2E/DX2 analytically  !
 ! D19   D(8,7,11,12)           63.9852         calculate D2E/DX2 analytically  !
 ! D20   D(9,7,11,12)         -177.2485         calculate D2E/DX2 analytically  !
 ! D21   D(10,7,11,12)         -58.8202         calculate D2E/DX2 analytically  !
 ! D22   D(7,11,12,13)        -115.9407         calculate D2E/DX2 analytically  !
 ! D23   D(1,14,15,17)        -179.9988         calculate D2E/DX2 analytically  !
 ! D24   D(1,14,15,18)           0.0016         calculate D2E/DX2 analytically  !
 ! D25   D(16,14,15,17)         -0.0002         calculate D2E/DX2 analytically  !
 ! D26   D(16,14,15,18)       -179.9998         calculate D2E/DX2 analytically  !
 --------------------------------------------------------------------------------
 Trust Radius=3.00D-01 FncErr=1.00D-07 GrdErr=1.00D-07 EigMax=2.50D+02 EigMin=1.00D-04
 Number of steps in this run=    108 maximum allowed number of steps=    108.
 Search for a saddle point of order  1.
 GradGradGradGradGradGradGradGradGradGradGradGradGradGradGradGradGradGrad

                          Input orientation:                          
 ---------------------------------------------------------------------
 Center     Atomic      Atomic             Coordinates (Angstroms)
 Number     Number       Type             X           Y           Z
 ---------------------------------------------------------------------
      1          6           0       -1.975662    0.653319    0.077422
      2          1           0       -2.691414   -0.105917   -0.234977
      3          1           0       -1.970941    0.672871    1.166431
      4          6           0       -0.584325    0.364787   -0.477473
      5          1           0       -0.589075    0.344923   -1.566470
      6          1           0        0.131315    1.124200   -0.165256
      7          6           0        0.784023   -2.973491   -1.411563
      8          1           0       -0.157562   -2.765866   -1.921954
      9          1           0        1.570296   -3.151378   -2.143043
     10          1           0        0.671671   -3.847732   -0.771070
     11          8           0        1.229417   -1.854195   -0.670711
     12          8           0        0.226834   -1.634936    0.359049
     13          1           0       -0.151878   -0.623227    0.048662
     14          6           0       -2.500605    2.016490   -0.410224
     15          6           0       -3.688712    2.492432   -0.063909
     16          1           0       -1.811178    2.562470   -1.068082
     17          1           0       -4.063089    3.464583   -0.411693
     18          1           0       -4.378138    1.946454    0.593953
 ---------------------------------------------------------------------
                    Distance matrix (angstroms):
                    1          2          3          4          5
     1  C    0.000000
     2  H    1.089190   0.000000
     3  H    1.089194   1.757707   0.000000
     4  C    1.525443   2.172600   2.172565   0.000000
     5  H    2.172582   2.529023   3.079910   1.089188   0.000000
     6  H    2.172550   3.079910   2.529144   1.089187   1.757735
     7  C    4.794443   4.656822   5.247078   3.726795   3.594616
     8  H    4.358190   4.042477   4.965015   3.474139   3.160631
     9  H    5.655086   5.574739   6.173965   4.447463   4.149631
    10  H    5.290347   5.059536   5.583292   4.405569   4.449775
    11  O    4.137615   4.315003   4.472521   2.872435   2.990889
    12  O    3.188481   3.347676   3.287560   2.314441   2.879787
    13  H    2.226339   2.607164   2.497653   1.200000   1.933160
    14  C    1.540000   2.138161   2.138153   2.530766   2.790159
    15  C    2.517311   2.788421   2.788418   3.786176   4.059216
    16  H    2.232508   2.930729   2.930726   2.585304   2.580589
    17  H    3.535505   3.828994   3.828997   4.659921   4.809840
    18  H    2.776850   2.782875   2.782866   4.247663   4.646431
                    6          7          8          9         10
     6  H    0.000000
     7  C    4.332479   0.000000
     8  H    4.278090   1.090958   0.000000
     9  H    4.925736   1.088545   1.784094   0.000000
    10  H    5.037768   1.089566   1.783983   1.781782   0.000000
    11  O    3.214366   1.414235   2.078573   1.991643   2.072521
    12  O    2.810134   2.288505   2.574827   3.219464   2.524186
    13  H    1.783104   2.920943   2.911059   3.763110   3.427481
    14  C    2.789838   6.057340   5.535893   6.803070   6.677024
    15  C    4.058933   7.190121   6.600838   7.989528   7.727270
    16  H    2.580115   6.123717   5.643998   6.725917   6.880657
    17  H    4.809485   8.120531   7.506832   8.860222   8.718776
    18  H    4.646253   7.407824   6.808011   8.298367   7.806180
                   11         12         13         14         15
    11  O    0.000000
    12  O    1.453841   0.000000
    13  H    1.985133   1.123974   0.000000
    14  C    5.381740   4.622079   3.563033   0.000000
    15  C    6.591614   5.704872   4.714786   1.325916   0.000000
    16  H    5.376807   4.879387   3.761524   1.098263   2.130353
    17  H    7.507803   6.708396   5.676239   2.130336   1.098267
    18  H    6.891225   5.838433   4.976131   2.130353   1.098263
                   16         17         18
    16  H    0.000000
    17  H    2.513117   0.000000
    18  H    3.119474   1.848052   0.000000
 Stoichiometry    C5H11O2(2)
 Framework group  C1[X(C5H11O2)]
 Deg. of freedom    48
 Full point group                 C1      NOp   1
 Largest Abelian subgroup         C1      NOp   1
 Largest concise Abelian subgroup C1      NOp   1
                         Standard orientation:                         
 ---------------------------------------------------------------------
 Center     Atomic      Atomic             Coordinates (Angstroms)
 Number     Number       Type             X           Y           Z
 ---------------------------------------------------------------------
      1          6           0       -1.435699    0.370585    0.161639
      2          1           0       -1.296634    0.368533    1.241913
      3          1           0       -1.572745    1.405043   -0.150548
      4          6           0       -0.249020   -0.270510   -0.550939
      5          1           0       -0.111760   -1.304870   -0.238545
      6          1           0       -0.388269   -0.268663   -1.631187
      7          6           0        3.253360   -0.466916    0.707533
      8          1           0        2.543071   -0.882559    1.423716
      9          1           0        3.983243   -1.224488    0.427734
     10          1           0        3.761971    0.390427    1.147341
     11          8           0        2.618805   -0.114141   -0.506118
     12          8           0        1.682619    0.946538   -0.171201
     13          1           0        0.712991    0.434322   -0.417721
     14          6           0       -2.743729   -0.383923   -0.140644
     15          6           0       -3.914522   -0.018791    0.363315
     16          1           0       -2.628242   -1.248934   -0.807427
     17          1           0       -4.847354   -0.556887    0.147754
     18          1           0       -4.030009    0.846223    1.030095
 ---------------------------------------------------------------------
 Rotational constants (GHZ):           8.9315243           0.7260748           0.7208236
 Standard basis: CC-pVTZ (5D, 7F)
 There are   410 symmetry adapted cartesian basis functions of A   symmetry.
 There are   364 symmetry adapted basis functions of A   symmetry.
   364 basis functions,   551 primitive gaussians,   410 cartesian basis functions
    29 alpha electrons       28 beta electrons
       nuclear repulsion energy       291.3746842838 Hartrees.
 NAtoms=   18 NActive=   18 NUniq=   18 SFac= 1.00D+00 NAtFMM=   60 NAOKFM=F Big=F
 Integral buffers will be    131072 words long.
 Raffenetti 2 integral format.
 Two-electron integral symmetry is turned on.
 Nuclear repulsion after empirical dispersion term =      291.3658719482 Hartrees.
 One-electron integrals computed using PRISM.
 NBasis=   364 RedAO= T EigKep=  3.57D-04  NBF=   364
 NBsUse=   364 1.00D-06 EigRej= -1.00D+00 NBFU=   364
 ExpMin= 1.03D-01 ExpMax= 1.53D+04 ExpMxC= 5.22D+02 IAcc=3 IRadAn=         5 AccDes= 0.00D+00
 Harris functional with IExCor=  419 and IRadAn=       5 diagonalized for initial guess.
 HarFok:  IExCor=  419 AccDes= 0.00D+00 IRadAn=         5 IDoV= 1 UseB2=F ITyADJ=14
 ICtDFT=  3500011 ScaDFX=  1.000000  1.000000  1.000000  1.000000
 FoFCou: FMM=F IPFlag=           0 FMFlag=      100000 FMFlg1=           0
         NFxFlg=           0 DoJE=T BraDBF=F KetDBF=T FulRan=T
         wScrn=  0.000000 ICntrl=       500 IOpCl=  0 I1Cent=   200000004 NGrid=           0
         NMat0=    1 NMatS0=      1 NMatT0=    0 NMatD0=    1 NMtDS0=    0 NMtDT0=    0
 Petite list used in FoFCou.
 Initial guess <Sx>= 0.0000 <Sy>= 0.0000 <Sz>= 0.5000 <S**2>= 0.7500 S= 0.5000
 Requested convergence on RMS density matrix=1.00D-08 within 128 cycles.
 Requested convergence on MAX density matrix=1.00D-06.
 Requested convergence on             energy=1.00D-06.
 No special actions if energy rises.
 Integral accuracy reduced to 1.0D-05 until final iterations.
 Initial convergence to 1.0D-05 achieved.  Increase integral accuracy.
 SCF Done:  E(UB2PLYPD3) =  -346.784401535     A.U. after   24 cycles
            NFock= 24  Conv=0.59D-08     -V/T= 2.0043
 <Sx>= 0.0000 <Sy>= 0.0000 <Sz>= 0.5000 <S**2>= 0.7648 S= 0.5074
 <L.S>=  0.00000000000    
 Annihilation of the first spin contaminant:
 S**2 before annihilation     0.7648,   after     0.7501
 DoSCS=T DFT=T ScalE2(SS,OS)=  0.270000  0.270000
 ExpMin= 1.03D-01 ExpMax= 1.53D+04 ExpMxC= 5.22D+02 IAcc=3 IRadAn=         5 AccDes= 0.00D+00
 HarFok:  IExCor=  205 AccDes= 0.00D+00 IRadAn=         5 IDoV=-2 UseB2=F ITyADJ=14
 ICtDFT= 12500011 ScaDFX=  1.000000  1.000000  1.000000  1.000000
 Range of M.O.s used for correlation:     8   364
 NBasis=   364 NAE=    29 NBE=    28 NFC=     7 NFV=     0
 NROrb=    357 NOA=    22 NOB=    21 NVA=   335 NVB=   336

 **** Warning!!: The largest alpha MO coefficient is  0.12319961D+02


 **** Warning!!: The largest beta MO coefficient is  0.11971584D+02

 DoSCS=T DFT=T ScalE2(SS,OS)=  0.270000  0.270000
 Disk-based method using ON**2 memory for 22 occupieds at a time.
 Permanent disk used for amplitudes=   135386230 words.
 Estimated scratch disk usage=  2364066952 words.
 Actual    scratch disk usage=  2286350984 words.
 JobTyp=2 Pass  1:  I=   8 to  29 NPSUse= 40 ParTrn=T ParDer=T DoDerP=T.
 (rs|ai) integrals will be sorted in core.
 Actual    scratch disk usage=  2286350984 words.
 JobTyp=3 Pass  1:  I=   8 to  28 NPSUse= 40 ParTrn=T ParDer=T DoDerP=T.
 (rs|ai) integrals will be sorted in core.
 Spin components of T(2) and E(2):
     alpha-alpha T2 =       0.7495699966D-01 E2=     -0.5325476882D-01
     alpha-beta  T2 =       0.4671541627D+00 E2=     -0.3350415275D+00
     beta-beta   T2 =       0.7987482322D-01 E2=     -0.5176024922D-01
 (S**2,0)=  0.76483D+00           (S**2,1)=  0.74356D+00
 Scaling Projection term by:   0.270000
 E(PUHF)=      -0.34679028447D+03        E(PMP2)=      -0.34722491323D+03
 E2(B2PLYPD3) =    -0.4400565455D+00 E(B2PLYPD3) =    -0.34722445808039D+03
 G2DrvN: will do    19 centers at a time, making    1 passes.
 Calling FoFCou, ICntrl=  3107 FMM=F I1Cent=   0 AccDes= 0.00D+00.
 End of G2Drv F.D. properties file   721 does not exist.
 End of G2Drv F.D. properties file   722 does not exist.
 End of G2Drv F.D. properties file   788 does not exist.
          IDoAtm=111111111111111111
          Differentiating once with respect to electric field.
                with respect to dipole field.
          Differentiating once with respect to nuclear coordinates.
 Keep R1 and R2 ints in memory in canonical form, NReq=4459304666.
          There are    57 degrees of freedom in the 1st order CPHF.  IDoFFX=6 NUNeed=    57.
     54 vectors produced by pass  0 Test12= 3.35D-14 1.75D-09 XBig12= 9.57D+01 3.64D+00.
 AX will form    54 AO Fock derivatives at one time.
     54 vectors produced by pass  1 Test12= 3.35D-14 1.75D-09 XBig12= 6.68D+00 3.41D-01.
     54 vectors produced by pass  2 Test12= 3.35D-14 1.75D-09 XBig12= 3.28D-01 8.24D-02.
     54 vectors produced by pass  3 Test12= 3.35D-14 1.75D-09 XBig12= 6.11D-03 9.85D-03.
     54 vectors produced by pass  4 Test12= 3.35D-14 1.75D-09 XBig12= 7.97D-05 1.19D-03.
     54 vectors produced by pass  5 Test12= 3.35D-14 1.75D-09 XBig12= 8.47D-07 8.91D-05.
     54 vectors produced by pass  6 Test12= 3.35D-14 1.75D-09 XBig12= 8.13D-09 8.05D-06.
     22 vectors produced by pass  7 Test12= 3.35D-14 1.75D-09 XBig12= 4.93D-11 5.93D-07.
      4 vectors produced by pass  8 Test12= 3.35D-14 1.75D-09 XBig12= 3.67D-13 6.30D-08.
      2 vectors produced by pass  9 Test12= 3.35D-14 1.75D-09 XBig12= 3.06D-15 4.89D-09.
 InvSVY:  IOpt=1 It=  1 EMax= 3.03D-15
 Solved reduced A of dimension   406 with    57 vectors.
 End of Minotr F.D. properties file   721 does not exist.
 End of Minotr F.D. properties file   722 does not exist.
 End of Minotr F.D. properties file   788 does not exist.
 MDV= 10737418240.
 DoSCS=T DFT=T ScalE2(SS,OS)=  0.270000  0.270000
 Form MO integral derivatives with frozen-active canonical formalism.
 Discarding MO integrals.
 Reordered first order wavefunction length =    545006183
 In DefCFB: NBatch=  1 ICI= 29 ICA=336 LFMax= 68
            Large arrays: LIAPS= 11415666080 LIARS=  1957569600 words.
 In DefCFB: NBatch=  1 ICI= 29 ICA=336 LFMax= 68
            Large arrays: LIAPS= 11415666080 LIARS=  1957569600 words.
 Semi-Direct transformation.
 ModeAB=           4 MOrb=            29 LenV=   10733588389
 LASXX=    664627481 LTotXX=   664627481 LenRXX=  1338891981
 LTotAB=   674264500 MaxLAS=   726601148 LenRXY=           0
 NonZer=  2003519462 LenScr=  3017065472 LnRSAI=   726601148
 LnScr1=  1094176768 LExtra=           0 Total=   6176735369
 MaxDsk=          -1 SrtSym=           T ITran=            4
 JobTyp=1 Pass  1:  I=   1 to  29.
 (rs|ai) integrals will be sorted in core.
 ModeAB=           4 MOrb=            28 LenV=   10733588389
 LASXX=    642894399 LTotXX=   642894399 LenRXX=  1195226319
 LTotAB=   552331920 MaxLAS=   701545936 LenRXY=           0
 NonZer=  1838120718 LenScr=  2767993856 LnRSAI=   701545936
 LnScr1=  1056446464 LExtra=           0 Total=   5721212575
 MaxDsk=          -1 SrtSym=           T ITran=            4
 JobTyp=2 Pass  1:  I=   1 to  28.
 (rs|ai) integrals will be sorted in core.
 SymMOI:  orbitals are not symmetric.
 DoSCS=T DFT=T ScalE2(SS,OS)=  0.270000  0.270000
 Spin components of T(2) and E(2):
     alpha-alpha T2 =       0.7495699966D-01 E2=     -0.5325476882D-01
     alpha-beta  T2 =       0.4671541627D+00 E2=     -0.3350415275D+00
     beta-beta   T2 =       0.7987482322D-01 E2=     -0.5176024922D-01
 E2(B2PLYPD3) =    -0.4400565455D+00 E(B2PLYPD3) =    -0.34722445808039D+03
 (S**2,0)=  0.76483D+00           (S**2,1)=  0.74356D+00
 Scaling Projection term by:   0.270000
 E(PUHF)=      -0.34679028447D+03        E(PMP2)=      -0.34722491323D+03
          IDoAtm=111111111111111111
          Differentiating once with respect to electric field.
                with respect to dipole field.
          Differentiating once with respect to nuclear coordinates.
 Keep R1 and R2 ints in memory in canonical form, NReq=4459439664.
          There are     1 degrees of freedom in the 1st order CPHF.  IDoFFX=0 NUNeed=     1.
 LinEq1:  Iter=  0 NonCon=     1 RMS=7.65D-04 Max=4.56D-02 NDo=     1
 AX will form     1 AO Fock derivatives at one time.
 LinEq1:  Iter=  1 NonCon=     1 RMS=2.32D-04 Max=9.02D-03 NDo=     1
 LinEq1:  Iter=  2 NonCon=     1 RMS=1.37D-04 Max=8.42D-03 NDo=     1
 LinEq1:  Iter=  3 NonCon=     1 RMS=7.52D-05 Max=2.50D-03 NDo=     1
 LinEq1:  Iter=  4 NonCon=     1 RMS=5.17D-05 Max=2.90D-03 NDo=     1
 LinEq1:  Iter=  5 NonCon=     1 RMS=3.29D-05 Max=1.31D-03 NDo=     1
 LinEq1:  Iter=  6 NonCon=     1 RMS=1.90D-05 Max=5.51D-04 NDo=     1
 LinEq1:  Iter=  7 NonCon=     1 RMS=7.14D-06 Max=4.08D-04 NDo=     1
 LinEq1:  Iter=  8 NonCon=     1 RMS=4.86D-06 Max=3.18D-04 NDo=     1
 LinEq1:  Iter=  9 NonCon=     1 RMS=2.18D-06 Max=1.28D-04 NDo=     1
 LinEq1:  Iter= 10 NonCon=     1 RMS=1.10D-06 Max=5.08D-05 NDo=     1
 LinEq1:  Iter= 11 NonCon=     1 RMS=5.99D-07 Max=2.28D-05 NDo=     1
 LinEq1:  Iter= 12 NonCon=     1 RMS=2.17D-07 Max=6.16D-06 NDo=     1
 LinEq1:  Iter= 13 NonCon=     1 RMS=8.38D-08 Max=2.86D-06 NDo=     1
 LinEq1:  Iter= 14 NonCon=     1 RMS=3.74D-08 Max=1.36D-06 NDo=     1
 LinEq1:  Iter= 15 NonCon=     1 RMS=1.91D-08 Max=5.95D-07 NDo=     1
 LinEq1:  Iter= 16 NonCon=     1 RMS=7.17D-09 Max=2.83D-07 NDo=     1
 LinEq1:  Iter= 17 NonCon=     1 RMS=2.01D-09 Max=4.34D-08 NDo=     1
 LinEq1:  Iter= 18 NonCon=     1 RMS=8.85D-10 Max=1.94D-08 NDo=     1
 LinEq1:  Iter= 19 NonCon=     1 RMS=4.13D-10 Max=8.17D-09 NDo=     1
 LinEq1:  Iter= 20 NonCon=     1 RMS=1.56D-10 Max=3.47D-09 NDo=     1
 LinEq1:  Iter= 21 NonCon=     1 RMS=5.02D-11 Max=1.42D-09 NDo=     1
 LinEq1:  Iter= 22 NonCon=     0 RMS=1.64D-11 Max=5.64D-10 NDo=     1
 Linear equations converged to 1.000D-10 1.000D-09 after    22 iterations.
 End of Minotr F.D. properties file   721 does not exist.
 End of Minotr F.D. properties file   722 does not exist.
 End of Minotr F.D. properties file   788 does not exist.
 Symmetrizing basis deriv contribution to polar:
 IMax=3 JMax=2 DiffMx= 0.00D+00
 G2DrvN: will do    19 centers at a time, making    1 passes.
 Calling FoFCou, ICntrl=  3107 FMM=F I1Cent=   0 AccDes= 0.00D+00.
 End of G2Drv F.D. properties file   721 does not exist.
 End of G2Drv F.D. properties file   722 does not exist.
 End of G2Drv F.D. properties file   788 does not exist.
 DoSCS=T DFT=T ScalE2(SS,OS)=  0.270000  0.270000
 R2 and R3 integrals will be kept in memory, NReq=  7133702340.
 DD1Dir will call FoFMem   1 times, MxPair=      2408
 NAB=   812 NAA=   406 NBB=   378.
 Discarding MO integrals.

 **********************************************************************

            Population analysis using the SCF Density.

 **********************************************************************

 Orbital symmetries:
 Alpha Orbitals:
       Occupied  (A) (A) (A) (A) (A) (A) (A) (A) (A) (A) (A) (A)
                 (A) (A) (A) (A) (A) (A) (A) (A) (A) (A) (A) (A)
                 (A) (A) (A) (A) (A)
       Virtual   (A) (A) (A) (A) (A) (A) (A) (A) (A) (A) (A) (A)
                 (A) (A) (A) (A) (A) (A) (A) (A) (A) (A) (A) (A)
                 (A) (A) (A) (A) (A) (A) (A) (A) (A) (A) (A) (A)
                 (A) (A) (A) (A) (A) (A) (A) (A) (A) (A) (A) (A)
                 (A) (A) (A) (A) (A) (A) (A) (A) (A) (A) (A) (A)
                 (A) (A) (A) (A) (A) (A) (A) (A) (A) (A) (A) (A)
                 (A) (A) (A) (A) (A) (A) (A) (A) (A) (A) (A) (A)
                 (A) (A) (A) (A) (A) (A) (A) (A) (A) (A) (A) (A)
                 (A) (A) (A) (A) (A) (A) (A) (A) (A) (A) (A) (A)
                 (A) (A) (A) (A) (A) (A) (A) (A) (A) (A) (A) (A)
                 (A) (A) (A) (A) (A) (A) (A) (A) (A) (A) (A) (A)
                 (A) (A) (A) (A) (A) (A) (A) (A) (A) (A) (A) (A)
                 (A) (A) (A) (A) (A) (A) (A) (A) (A) (A) (A) (A)
                 (A) (A) (A) (A) (A) (A) (A) (A) (A) (A) (A) (A)
                 (A) (A) (A) (A) (A) (A) (A) (A) (A) (A) (A) (A)
                 (A) (A) (A) (A) (A) (A) (A) (A) (A) (A) (A) (A)
                 (A) (A) (A) (A) (A) (A) (A) (A) (A) (A) (A) (A)
                 (A) (A) (A) (A) (A) (A) (A) (A) (A) (A) (A) (A)
                 (A) (A) (A) (A) (A) (A) (A) (A) (A) (A) (A) (A)
                 (A) (A) (A) (A) (A) (A) (A) (A) (A) (A) (A) (A)
                 (A) (A) (A) (A) (A) (A) (A) (A) (A) (A) (A) (A)
                 (A) (A) (A) (A) (A) (A) (A) (A) (A) (A) (A) (A)
                 (A) (A) (A) (A) (A) (A) (A) (A) (A) (A) (A) (A)
                 (A) (A) (A) (A) (A) (A) (A) (A) (A) (A) (A) (A)
                 (A) (A) (A) (A) (A) (A) (A) (A) (A) (A) (A) (A)
                 (A) (A) (A) (A) (A) (A) (A) (A) (A) (A) (A) (A)
                 (A) (A) (A) (A) (A) (A) (A) (A) (A) (A) (A) (A)
                 (A) (A) (A) (A) (A) (A) (A) (A) (A) (A) (A)
 Beta  Orbitals:
       Occupied  (A) (A) (A) (A) (A) (A) (A) (A) (A) (A) (A) (A)
                 (A) (A) (A) (A) (A) (A) (A) (A) (A) (A) (A) (A)
                 (A) (A) (A) (A)
       Virtual   (A) (A) (A) (A) (A) (A) (A) (A) (A) (A) (A) (A)
                 (A) (A) (A) (A) (A) (A) (A) (A) (A) (A) (A) (A)
                 (A) (A) (A) (A) (A) (A) (A) (A) (A) (A) (A) (A)
                 (A) (A) (A) (A) (A) (A) (A) (A) (A) (A) (A) (A)
                 (A) (A) (A) (A) (A) (A) (A) (A) (A) (A) (A) (A)
                 (A) (A) (A) (A) (A) (A) (A) (A) (A) (A) (A) (A)
                 (A) (A) (A) (A) (A) (A) (A) (A) (A) (A) (A) (A)
                 (A) (A) (A) (A) (A) (A) (A) (A) (A) (A) (A) (A)
                 (A) (A) (A) (A) (A) (A) (A) (A) (A) (A) (A) (A)
                 (A) (A) (A) (A) (A) (A) (A) (A) (A) (A) (A) (A)
                 (A) (A) (A) (A) (A) (A) (A) (A) (A) (A) (A) (A)
                 (A) (A) (A) (A) (A) (A) (A) (A) (A) (A) (A) (A)
                 (A) (A) (A) (A) (A) (A) (A) (A) (A) (A) (A) (A)
                 (A) (A) (A) (A) (A) (A) (A) (A) (A) (A) (A) (A)
                 (A) (A) (A) (A) (A) (A) (A) (A) (A) (A) (A) (A)
                 (A) (A) (A) (A) (A) (A) (A) (A) (A) (A) (A) (A)
                 (A) (A) (A) (A) (A) (A) (A) (A) (A) (A) (A) (A)
                 (A) (A) (A) (A) (A) (A) (A) (A) (A) (A) (A) (A)
                 (A) (A) (A) (A) (A) (A) (A) (A) (A) (A) (A) (A)
                 (A) (A) (A) (A) (A) (A) (A) (A) (A) (A) (A) (A)
                 (A) (A) (A) (A) (A) (A) (A) (A) (A) (A) (A) (A)
                 (A) (A) (A) (A) (A) (A) (A) (A) (A) (A) (A) (A)
                 (A) (A) (A) (A) (A) (A) (A) (A) (A) (A) (A) (A)
                 (A) (A) (A) (A) (A) (A) (A) (A) (A) (A) (A) (A)
                 (A) (A) (A) (A) (A) (A) (A) (A) (A) (A) (A) (A)
                 (A) (A) (A) (A) (A) (A) (A) (A) (A) (A) (A) (A)
                 (A) (A) (A) (A) (A) (A) (A) (A) (A) (A) (A) (A)
                 (A) (A) (A) (A) (A) (A) (A) (A) (A) (A) (A) (A)
 The electronic state is 2-A.
 Alpha  occ. eigenvalues --  -19.79809 -19.79190 -10.66331 -10.62847 -10.62795
 Alpha  occ. eigenvalues --  -10.62356 -10.61265  -1.26902  -1.04510  -0.92508
 Alpha  occ. eigenvalues --   -0.85280  -0.77782  -0.73621  -0.64868  -0.62105
 Alpha  occ. eigenvalues --   -0.56022  -0.54728  -0.53191  -0.52744  -0.51841
 Alpha  occ. eigenvalues --   -0.49212  -0.44362  -0.43824  -0.43344  -0.41098
 Alpha  occ. eigenvalues --   -0.39464  -0.36021  -0.31777  -0.30836
 Alpha virt. eigenvalues --    0.05728   0.07910   0.09288   0.10174   0.10398
 Alpha virt. eigenvalues --    0.11479   0.13416   0.15000   0.15566   0.16190
 Alpha virt. eigenvalues --    0.16932   0.18688   0.20002   0.22843   0.25152
 Alpha virt. eigenvalues --    0.27270   0.28374   0.31200   0.33125   0.33654
 Alpha virt. eigenvalues --    0.35704   0.36960   0.37914   0.39117   0.40609
 Alpha virt. eigenvalues --    0.42568   0.44792   0.46357   0.46966   0.48285
 Alpha virt. eigenvalues --    0.49765   0.50347   0.51200   0.51551   0.52141
 Alpha virt. eigenvalues --    0.53081   0.53234   0.54254   0.54726   0.55365
 Alpha virt. eigenvalues --    0.56907   0.57146   0.58024   0.60187   0.61421
 Alpha virt. eigenvalues --    0.63829   0.67840   0.68820   0.70007   0.70767
 Alpha virt. eigenvalues --    0.73630   0.75911   0.77123   0.79192   0.79560
 Alpha virt. eigenvalues --    0.83766   0.83882   0.85320   0.87138   0.89770
 Alpha virt. eigenvalues --    0.91355   0.94747   0.96278   0.97432   0.99377
 Alpha virt. eigenvalues --    0.99895   1.01438   1.03756   1.04951   1.05747
 Alpha virt. eigenvalues --    1.06912   1.08491   1.08658   1.11371   1.12235
 Alpha virt. eigenvalues --    1.14891   1.16065   1.17084   1.17484   1.18376
 Alpha virt. eigenvalues --    1.19253   1.21929   1.23446   1.24722   1.26744
 Alpha virt. eigenvalues --    1.28634   1.31390   1.32868   1.33825   1.36713
 Alpha virt. eigenvalues --    1.36744   1.37731   1.38615   1.39203   1.40410
 Alpha virt. eigenvalues --    1.41498   1.42652   1.44188   1.45837   1.47337
 Alpha virt. eigenvalues --    1.48763   1.51752   1.54954   1.56034   1.57394
 Alpha virt. eigenvalues --    1.57802   1.60760   1.63202   1.63614   1.64868
 Alpha virt. eigenvalues --    1.68690   1.73868   1.77426   1.84458   1.91368
 Alpha virt. eigenvalues --    1.95712   1.99253   2.04422   2.05281   2.13133
 Alpha virt. eigenvalues --    2.17732   2.20821   2.22000   2.24824   2.26776
 Alpha virt. eigenvalues --    2.33257   2.37006   2.38417   2.40332   2.41244
 Alpha virt. eigenvalues --    2.44268   2.45388   2.46439   2.49405   2.53105
 Alpha virt. eigenvalues --    2.55743   2.59675   2.62473   2.63345   2.64725
 Alpha virt. eigenvalues --    2.65840   2.69936   2.72408   2.73436   2.73970
 Alpha virt. eigenvalues --    2.75355   2.82793   2.83926   2.84421   2.85716
 Alpha virt. eigenvalues --    2.89197   2.89989   2.91581   2.91989   2.94291
 Alpha virt. eigenvalues --    2.96856   2.97708   2.98762   2.99223   3.00939
 Alpha virt. eigenvalues --    3.02231   3.04729   3.05346   3.06424   3.07035
 Alpha virt. eigenvalues --    3.10563   3.11663   3.13248   3.14803   3.15455
 Alpha virt. eigenvalues --    3.16789   3.17806   3.19029   3.19549   3.20349
 Alpha virt. eigenvalues --    3.22254   3.24807   3.25852   3.27500   3.29101
 Alpha virt. eigenvalues --    3.30386   3.32151   3.33553   3.35442   3.37760
 Alpha virt. eigenvalues --    3.39557   3.41530   3.42489   3.43282   3.47027
 Alpha virt. eigenvalues --    3.48706   3.49897   3.51332   3.52134   3.53556
 Alpha virt. eigenvalues --    3.54321   3.55454   3.58215   3.59617   3.62158
 Alpha virt. eigenvalues --    3.62466   3.63579   3.65168   3.67375   3.70292
 Alpha virt. eigenvalues --    3.72052   3.75479   3.79243   3.80971   3.81742
 Alpha virt. eigenvalues --    3.83973   3.85414   3.85586   3.87424   3.88972
 Alpha virt. eigenvalues --    3.90088   3.92154   3.92662   3.94881   3.95582
 Alpha virt. eigenvalues --    3.96975   3.99103   4.00330   4.03496   4.04629
 Alpha virt. eigenvalues --    4.06893   4.08098   4.09111   4.10370   4.13190
 Alpha virt. eigenvalues --    4.14096   4.15432   4.15973   4.17842   4.18438
 Alpha virt. eigenvalues --    4.18496   4.21728   4.22810   4.23250   4.25683
 Alpha virt. eigenvalues --    4.27694   4.28508   4.30639   4.35530   4.36688
 Alpha virt. eigenvalues --    4.37790   4.38168   4.43211   4.44406   4.46814
 Alpha virt. eigenvalues --    4.48637   4.51238   4.54789   4.62097   4.62489
 Alpha virt. eigenvalues --    4.65878   4.67696   4.68697   4.72495   4.78799
 Alpha virt. eigenvalues --    4.79616   4.79706   4.82240   4.84341   4.86401
 Alpha virt. eigenvalues --    4.88854   4.92692   4.93727   4.95242   4.96902
 Alpha virt. eigenvalues --    4.98821   5.01393   5.02657   5.06673   5.06973
 Alpha virt. eigenvalues --    5.08341   5.12479   5.14541   5.17234   5.19604
 Alpha virt. eigenvalues --    5.23839   5.26265   5.27623   5.31165   5.31507
 Alpha virt. eigenvalues --    5.32905   5.33722   5.35425   5.37783   5.39106
 Alpha virt. eigenvalues --    5.41480   5.45695   5.47685   5.47977   5.49762
 Alpha virt. eigenvalues --    5.54442   5.56979   5.62597   5.63538   5.65526
 Alpha virt. eigenvalues --    5.79598   5.84698   5.88335   5.91564   5.94914
 Alpha virt. eigenvalues --    6.05253   6.07928   6.08832   6.09531   6.11189
 Alpha virt. eigenvalues --    6.11866   6.21160   6.33488   6.34949   6.45616
 Alpha virt. eigenvalues --    6.57563   6.63785   6.72526   6.80492   6.86831
 Alpha virt. eigenvalues --    6.97309   7.02202   7.09314   7.19892   7.34359
 Alpha virt. eigenvalues --    7.42501   7.55880   7.83784  10.01592  10.60606
 Alpha virt. eigenvalues --   10.92251  12.96990  13.41002  13.52882  14.37380
  Beta  occ. eigenvalues --  -19.79184 -19.77761 -10.66330 -10.62735 -10.62397
  Beta  occ. eigenvalues --  -10.61552 -10.61264  -1.24653  -1.00932  -0.91763
  Beta  occ. eigenvalues --   -0.83733  -0.77477  -0.71453  -0.64593  -0.57752
  Beta  occ. eigenvalues --   -0.54807  -0.54215  -0.52790  -0.52523  -0.50300
  Beta  occ. eigenvalues --   -0.46713  -0.43325  -0.43200  -0.42890  -0.40353
  Beta  occ. eigenvalues --   -0.37936  -0.33796  -0.30796
  Beta virt. eigenvalues --   -0.04158   0.05818   0.08029   0.09727   0.10377
  Beta virt. eigenvalues --    0.10774   0.11798   0.13580   0.15090   0.15721
  Beta virt. eigenvalues --    0.16291   0.17146   0.18911   0.20273   0.23214
  Beta virt. eigenvalues --    0.25518   0.27458   0.28688   0.31355   0.33323
  Beta virt. eigenvalues --    0.33884   0.35784   0.37138   0.38677   0.39368
  Beta virt. eigenvalues --    0.40862   0.42771   0.44882   0.46531   0.47481
  Beta virt. eigenvalues --    0.48512   0.50001   0.50484   0.51277   0.51781
  Beta virt. eigenvalues --    0.52396   0.53500   0.53956   0.54385   0.54961
  Beta virt. eigenvalues --    0.56054   0.57160   0.57416   0.58773   0.60612
  Beta virt. eigenvalues --    0.62257   0.65787   0.68160   0.69224   0.70150
  Beta virt. eigenvalues --    0.71089   0.73717   0.76288   0.77394   0.79675
  Beta virt. eigenvalues --    0.80441   0.84112   0.84462   0.85721   0.87230
  Beta virt. eigenvalues --    0.90079   0.91597   0.94824   0.96676   0.97716
  Beta virt. eigenvalues --    0.99956   1.00036   1.01616   1.03891   1.05016
  Beta virt. eigenvalues --    1.05931   1.07145   1.08682   1.08805   1.11691
  Beta virt. eigenvalues --    1.12521   1.15071   1.16228   1.17202   1.17596
  Beta virt. eigenvalues --    1.18640   1.19397   1.22187   1.23613   1.25406
  Beta virt. eigenvalues --    1.27263   1.29089   1.31554   1.33050   1.34101
  Beta virt. eigenvalues --    1.36747   1.37131   1.38151   1.38679   1.39286
  Beta virt. eigenvalues --    1.40513   1.41695   1.42774   1.44853   1.46077
  Beta virt. eigenvalues --    1.47815   1.49127   1.52269   1.55199   1.56301
  Beta virt. eigenvalues --    1.57881   1.58166   1.60835   1.63510   1.63854
  Beta virt. eigenvalues --    1.65390   1.69072   1.74047   1.77903   1.84807
  Beta virt. eigenvalues --    1.91952   1.96081   1.99756   2.05738   2.08047
  Beta virt. eigenvalues --    2.13533   2.19774   2.20843   2.22411   2.25711
  Beta virt. eigenvalues --    2.27587   2.33476   2.37239   2.38789   2.40597
  Beta virt. eigenvalues --    2.42175   2.44494   2.46030   2.46863   2.49582
  Beta virt. eigenvalues --    2.53327   2.56410   2.60176   2.63000   2.63621
  Beta virt. eigenvalues --    2.65296   2.66239   2.70121   2.72706   2.73640
  Beta virt. eigenvalues --    2.74289   2.75686   2.82988   2.84056   2.84628
  Beta virt. eigenvalues --    2.86041   2.89371   2.90220   2.91715   2.92164
  Beta virt. eigenvalues --    2.94808   2.97562   2.98447   2.99111   2.99720
  Beta virt. eigenvalues --    3.01283   3.02815   3.04821   3.05477   3.06728
  Beta virt. eigenvalues --    3.07402   3.10967   3.11913   3.13488   3.15167
  Beta virt. eigenvalues --    3.15660   3.16960   3.18164   3.19736   3.20197
  Beta virt. eigenvalues --    3.20713   3.22948   3.25239   3.26002   3.27738
  Beta virt. eigenvalues --    3.29341   3.30753   3.32453   3.33735   3.35563
  Beta virt. eigenvalues --    3.38390   3.39984   3.41589   3.42679   3.43543
  Beta virt. eigenvalues --    3.47576   3.48997   3.49952   3.51647   3.53145
  Beta virt. eigenvalues --    3.53795   3.54440   3.55699   3.58385   3.59842
  Beta virt. eigenvalues --    3.62275   3.62598   3.63914   3.65548   3.67875
  Beta virt. eigenvalues --    3.70464   3.72252   3.75505   3.79387   3.81083
  Beta virt. eigenvalues --    3.81868   3.84076   3.85476   3.85806   3.87478
  Beta virt. eigenvalues --    3.89251   3.90270   3.92335   3.92782   3.94933
  Beta virt. eigenvalues --    3.95863   3.97145   3.99287   4.00521   4.03647
  Beta virt. eigenvalues --    4.04680   4.06922   4.08246   4.09200   4.10429
  Beta virt. eigenvalues --    4.13304   4.14373   4.15535   4.16167   4.17923
  Beta virt. eigenvalues --    4.18461   4.18679   4.21972   4.23350   4.23443
  Beta virt. eigenvalues --    4.25965   4.27762   4.28710   4.31049   4.35592
  Beta virt. eigenvalues --    4.36791   4.37879   4.38504   4.43623   4.44631
  Beta virt. eigenvalues --    4.47202   4.48966   4.51370   4.55337   4.62265
  Beta virt. eigenvalues --    4.62986   4.66096   4.67965   4.69111   4.73908
  Beta virt. eigenvalues --    4.78873   4.79686   4.80022   4.82832   4.85024
  Beta virt. eigenvalues --    4.86954   4.89400   4.93023   4.94155   4.95568
  Beta virt. eigenvalues --    4.97146   4.99015   5.01629   5.02823   5.06800
  Beta virt. eigenvalues --    5.07169   5.08516   5.13136   5.14970   5.17606
  Beta virt. eigenvalues --    5.20286   5.24351   5.26843   5.27852   5.31317
  Beta virt. eigenvalues --    5.31874   5.33112   5.33949   5.35647   5.37958
  Beta virt. eigenvalues --    5.39747   5.42098   5.45942   5.48153   5.48418
  Beta virt. eigenvalues --    5.50771   5.55037   5.57524   5.63041   5.64056
  Beta virt. eigenvalues --    5.66110   5.80406   5.84914   5.89115   5.91920
  Beta virt. eigenvalues --    5.95209   6.06234   6.08427   6.08887   6.09706
  Beta virt. eigenvalues --    6.11343   6.12458   6.21586   6.33733   6.35166
  Beta virt. eigenvalues --    6.46587   6.60382   6.66583   6.73874   6.83059
  Beta virt. eigenvalues --    6.88538   6.99354   7.03199   7.10573   7.22557
  Beta virt. eigenvalues --    7.35425   7.44439   7.59182   7.84383  10.01927
  Beta virt. eigenvalues --   10.62483  10.92311  12.97023  13.41011  13.53829
  Beta virt. eigenvalues --   14.37460
          Condensed to atoms (all electrons):
               1          2          3          4          5          6
     1  C    4.891586   0.405969   0.410715   0.305374  -0.034414  -0.035527
     2  H    0.405969   0.578106  -0.032688  -0.029019  -0.007678   0.007314
     3  H    0.410715  -0.032688   0.575030  -0.028176   0.007134  -0.006911
     4  C    0.305374  -0.029019  -0.028176   5.143247   0.394363   0.399063
     5  H   -0.034414  -0.007678   0.007134   0.394363   0.576086  -0.040808
     6  H   -0.035527   0.007314  -0.006911   0.399063  -0.040808   0.579364
     7  C    0.000111   0.000019   0.000010  -0.004421   0.000110  -0.000038
     8  H   -0.000265   0.000095  -0.000012  -0.000084  -0.001539  -0.000013
     9  H   -0.000013   0.000010  -0.000003   0.000524  -0.000271   0.000046
    10  H    0.000114   0.000004  -0.000000   0.000000   0.000136   0.000003
    11  O    0.001472  -0.000055  -0.000036   0.008277   0.002382   0.001528
    12  O    0.001476   0.002047   0.000711  -0.119404  -0.001694  -0.000696
    13  H   -0.008676  -0.002264   0.000666   0.257296  -0.000303  -0.011236
    14  C    0.313472  -0.032697  -0.038007  -0.048667  -0.004964  -0.001146
    15  C   -0.059253  -0.005772  -0.006270   0.003226   0.000115   0.000360
    16  H   -0.047079   0.004231   0.003960  -0.000449   0.001107   0.001960
    17  H    0.006220  -0.000228  -0.000205  -0.000432  -0.000010  -0.000021
    18  H   -0.004711   0.001523   0.001288   0.000166  -0.000003   0.000019
               7          8          9         10         11         12
     1  C    0.000111  -0.000265  -0.000013   0.000114   0.001472   0.001476
     2  H    0.000019   0.000095   0.000010   0.000004  -0.000055   0.002047
     3  H    0.000010  -0.000012  -0.000003  -0.000000  -0.000036   0.000711
     4  C   -0.004421  -0.000084   0.000524   0.000000   0.008277  -0.119404
     5  H    0.000110  -0.001539  -0.000271   0.000136   0.002382  -0.001694
     6  H   -0.000038  -0.000013   0.000046   0.000003   0.001528  -0.000696
     7  C    4.573793   0.395090   0.396680   0.411754   0.303860  -0.039762
     8  H    0.395090   0.671238  -0.031030  -0.059987  -0.048778   0.001731
     9  H    0.396680  -0.031030   0.593458  -0.032744  -0.027195   0.006653
    10  H    0.411754  -0.059987  -0.032744   0.633575  -0.038788  -0.000860
    11  O    0.303860  -0.048778  -0.027195  -0.038788   7.938448   0.078521
    12  O   -0.039762   0.001731   0.006653  -0.000860   0.078521   8.072630
    13  H    0.004935   0.003051  -0.000904   0.000537  -0.027578   0.183317
    14  C   -0.000020   0.000041   0.000002  -0.000003  -0.000035   0.000254
    15  C   -0.000000  -0.000002   0.000000   0.000000   0.000001  -0.000002
    16  H   -0.000002   0.000006   0.000000  -0.000000  -0.000012   0.000028
    17  H    0.000000   0.000000  -0.000000   0.000000  -0.000000  -0.000000
    18  H   -0.000000   0.000000   0.000000  -0.000000   0.000000   0.000000
              13         14         15         16         17         18
     1  C   -0.008676   0.313472  -0.059253  -0.047079   0.006220  -0.004711
     2  H   -0.002264  -0.032697  -0.005772   0.004231  -0.000228   0.001523
     3  H    0.000666  -0.038007  -0.006270   0.003960  -0.000205   0.001288
     4  C    0.257296  -0.048667   0.003226  -0.000449  -0.000432   0.000166
     5  H   -0.000303  -0.004964   0.000115   0.001107  -0.000010  -0.000003
     6  H   -0.011236  -0.001146   0.000360   0.001960  -0.000021   0.000019
     7  C    0.004935  -0.000020  -0.000000  -0.000002   0.000000  -0.000000
     8  H    0.003051   0.000041  -0.000002   0.000006   0.000000   0.000000
     9  H   -0.000904   0.000002   0.000000   0.000000  -0.000000   0.000000
    10  H    0.000537  -0.000003   0.000000  -0.000000   0.000000  -0.000000
    11  O   -0.027578  -0.000035   0.000001  -0.000012  -0.000000   0.000000
    12  O    0.183317   0.000254  -0.000002   0.000028  -0.000000   0.000000
    13  H    0.404372  -0.000252  -0.000089  -0.000076   0.000001  -0.000005
    14  C   -0.000252   4.955831   0.642821   0.412676  -0.043744  -0.050530
    15  C   -0.000089   0.642821   4.943182  -0.042131   0.415957   0.410350
    16  H   -0.000076   0.412676  -0.042131   0.543442  -0.008512   0.006355
    17  H    0.000001  -0.043744   0.415957  -0.008512   0.547340  -0.037676
    18  H   -0.000005  -0.050530   0.410350   0.006355  -0.037676   0.554549
          Atomic-Atomic Spin Densities.
               1          2          3          4          5          6
     1  C   -0.026166   0.000016  -0.000206  -0.019702  -0.000593  -0.001022
     2  H    0.000016   0.004267   0.000763  -0.001860   0.000686   0.000129
     3  H   -0.000206   0.000763   0.003786  -0.001777  -0.000089   0.000932
     4  C   -0.019702  -0.001860  -0.001777   0.630253   0.006061   0.001056
     5  H   -0.000593   0.000686  -0.000089   0.006061  -0.022284   0.003729
     6  H   -0.001022   0.000129   0.000932   0.001056   0.003729  -0.014452
     7  C   -0.000062  -0.000013  -0.000001   0.001031  -0.000128  -0.000048
     8  H    0.000157   0.000051   0.000012  -0.002998   0.000404   0.000110
     9  H   -0.000005  -0.000003  -0.000000   0.000216   0.000001  -0.000016
    10  H   -0.000041  -0.000013  -0.000004   0.001023  -0.000053  -0.000033
    11  O   -0.000253  -0.000031  -0.000023   0.012973  -0.000892  -0.000870
    12  O    0.005511   0.000729   0.000836  -0.123743   0.002589   0.005342
    13  H    0.000936  -0.000437  -0.000662   0.066380  -0.000069  -0.000654
    14  C    0.018072  -0.002037  -0.001214  -0.013145  -0.000204  -0.001469
    15  C   -0.002712   0.000348   0.000290   0.001430   0.000105   0.000172
    16  H    0.000047   0.000100   0.000104   0.001635   0.000323   0.000466
    17  H    0.000534  -0.000062  -0.000052  -0.000196  -0.000011  -0.000022
    18  H   -0.000188   0.000080   0.000084   0.000079   0.000007   0.000010
               7          8          9         10         11         12
     1  C   -0.000062   0.000157  -0.000005  -0.000041  -0.000253   0.005511
     2  H   -0.000013   0.000051  -0.000003  -0.000013  -0.000031   0.000729
     3  H   -0.000001   0.000012  -0.000000  -0.000004  -0.000023   0.000836
     4  C    0.001031  -0.002998   0.000216   0.001023   0.012973  -0.123743
     5  H   -0.000128   0.000404   0.000001  -0.000053  -0.000892   0.002589
     6  H   -0.000048   0.000110  -0.000016  -0.000033  -0.000870   0.005342
     7  C   -0.000814   0.002509   0.000161  -0.003133   0.003538  -0.003981
     8  H    0.002509   0.002301  -0.001032  -0.001418  -0.000235   0.001694
     9  H    0.000161  -0.001032  -0.002478   0.001705   0.000278  -0.000160
    10  H   -0.003133  -0.001418   0.001705   0.002560  -0.001092   0.001424
    11  O    0.003538  -0.000235   0.000278  -0.001092   0.001691  -0.034661
    12  O   -0.003981   0.001694  -0.000160   0.001424  -0.034661   0.740684
    13  H   -0.000043  -0.001328   0.000143   0.000612   0.009346  -0.068123
    14  C    0.000010  -0.000024   0.000000   0.000002   0.000021  -0.000436
    15  C   -0.000000   0.000000  -0.000000  -0.000000  -0.000000   0.000006
    16  H   -0.000000   0.000002  -0.000000  -0.000000  -0.000004   0.000037
    17  H    0.000000  -0.000000   0.000000   0.000000   0.000000  -0.000000
    18  H   -0.000000   0.000000  -0.000000  -0.000000  -0.000000   0.000001
              13         14         15         16         17         18
     1  C    0.000936   0.018072  -0.002712   0.000047   0.000534  -0.000188
     2  H   -0.000437  -0.002037   0.000348   0.000100  -0.000062   0.000080
     3  H   -0.000662  -0.001214   0.000290   0.000104  -0.000052   0.000084
     4  C    0.066380  -0.013145   0.001430   0.001635  -0.000196   0.000079
     5  H   -0.000069  -0.000204   0.000105   0.000323  -0.000011   0.000007
     6  H   -0.000654  -0.001469   0.000172   0.000466  -0.000022   0.000010
     7  C   -0.000043   0.000010  -0.000000  -0.000000   0.000000  -0.000000
     8  H   -0.001328  -0.000024   0.000000   0.000002  -0.000000   0.000000
     9  H    0.000143   0.000000  -0.000000  -0.000000   0.000000  -0.000000
    10  H    0.000612   0.000002  -0.000000  -0.000000   0.000000  -0.000000
    11  O    0.009346   0.000021  -0.000000  -0.000004   0.000000  -0.000000
    12  O   -0.068123  -0.000436   0.000006   0.000037  -0.000000   0.000001
    13  H   -0.072594   0.000297   0.000006  -0.000074   0.000002  -0.000001
    14  C    0.000297   0.034548  -0.001069  -0.001302   0.000497  -0.000045
    15  C    0.000006  -0.001069  -0.003747   0.000701  -0.001817   0.000087
    16  H   -0.000074  -0.001302   0.000701  -0.002970  -0.000259   0.000008
    17  H    0.000002   0.000497  -0.001817  -0.000259   0.004222  -0.000344
    18  H   -0.000001  -0.000045   0.000087   0.000008  -0.000344   0.000291
 Mulliken charges and spin densities:
               1          2
     1  C   -0.146573  -0.025676
     2  H    0.111081   0.002714
     3  H    0.112795   0.002779
     4  C   -0.280882   0.558717
     5  H    0.110252  -0.010418
     6  H    0.106737  -0.006640
     7  C   -0.042118  -0.000975
     8  H    0.070459   0.000205
     9  H    0.094788  -0.001192
    10  H    0.086259   0.001541
    11  O   -0.192011  -0.010213
    12  O   -0.184952   0.527746
    13  H    0.197209  -0.066266
    14  C   -0.105032   0.032503
    15  C   -0.302492  -0.006199
    16  H    0.124497  -0.001187
    17  H    0.121310   0.002492
    18  H    0.118675   0.000069
 Sum of Mulliken charges =  -0.00000   1.00000
 Mulliken charges and spin densities with hydrogens summed into heavy atoms:
               1          2
     1  C    0.077302  -0.020184
     4  C   -0.063893   0.541660
     7  C    0.209388  -0.000421
    11  O   -0.192011  -0.010213
    12  O    0.012257   0.461481
    14  C    0.019465   0.031316
    15  C   -0.062507  -0.003638
 APT charges:
               1
     1  C   -0.031248
     2  H   -0.028064
     3  H   -0.026099
     4  C    0.453798
     5  H   -0.045546
     6  H   -0.067809
     7  C    0.462134
     8  H   -0.037645
     9  H   -0.009513
    10  H   -0.033948
    11  O   -0.420786
    12  O    0.164584
    13  H   -0.345336
    14  C    0.041584
    15  C   -0.132216
    16  H    0.020341
    17  H    0.008771
    18  H    0.026999
 Sum of APT charges =  -0.00000
 APT charges with hydrogens summed into heavy atoms:
               1
     1  C   -0.085411
     4  C    0.340443
     7  C    0.381027
    11  O   -0.420786
    12  O   -0.180753
    14  C    0.061924
    15  C   -0.096446
 Electronic spatial extent (au):  <R**2>=           1585.5283
 Charge=             -0.0000 electrons
 Dipole moment (field-independent basis, Debye):
    X=             -0.3692    Y=             -1.1985    Z=              1.1439  Tot=              1.6974
 Quadrupole moment (field-independent basis, Debye-Ang):
   XX=            -41.9042   YY=            -44.8454   ZZ=            -45.1079
   XY=             -3.3207   XZ=              4.0056   YZ=              0.9944
 Traceless Quadrupole moment (field-independent basis, Debye-Ang):
   XX=              2.0483   YY=             -0.8929   ZZ=             -1.1554
   XY=             -3.3207   XZ=              4.0056   YZ=              0.9944
 Octapole moment (field-independent basis, Debye-Ang**2):
  XXX=             36.6022  YYY=              1.6097  ZZZ=             -2.2137  XYY=              6.8669
  XXY=             -7.4368  XXZ=             15.7461  XZZ=              8.6809  YZZ=              1.2700
  YYZ=             -0.9682  XYZ=             -4.8942
 Hexadecapole moment (field-independent basis, Debye-Ang**3):
 XXXX=          -1711.9497 YYYY=           -132.2506 ZZZZ=           -126.9159 XXXY=            -15.2388
 XXXZ=             18.8081 YYYX=             -3.3709 YYYZ=              1.8128 ZZZX=             -1.3001
 ZZZY=              1.0128 XXYY=           -324.7073 XXZZ=           -342.6339 YYZZ=            -44.1305
 XXYZ=             16.4887 YYXZ=              1.8335 ZZXY=             -1.7937
 N-N= 2.913658719482D+02 E-N=-1.393788774705D+03  KE= 3.453091542613D+02
  Exact polarizability: 128.289   0.148  63.594   0.035   4.586  59.620
 Approx polarizability: 102.104  -2.993  77.376  -4.162   5.859  70.465
                          Isotropic Fermi Contact Couplings
        Atom                 a.u.       MegaHertz       Gauss      10(-4) cm-1
     1  C(13)             -0.00754      -8.47841      -3.02531      -2.82809
     2  H(1)               0.00154       6.86527       2.44970       2.29001
     3  H(1)               0.00158       7.04142       2.51255       2.34876
     4  C(13)              0.16514     185.64680      66.24339      61.92511
     5  H(1)              -0.00267     -11.95489      -4.26580      -3.98772
     6  H(1)              -0.00031      -1.38516      -0.49426      -0.46204
     7  C(13)             -0.00081      -0.91077      -0.32498      -0.30380
     8  H(1)               0.00143       6.37156       2.27353       2.12532
     9  H(1)              -0.00004      -0.18782      -0.06702      -0.06265
    10  H(1)              -0.00009      -0.42425      -0.15138      -0.14151
    11  O(17)              0.01206      -7.31098      -2.60874      -2.43868
    12  O(17)              0.08242     -49.96187     -17.82764     -16.66549
    13  H(1)              -0.01836     -82.07205     -29.28535     -27.37629
    14  C(13)              0.03554      39.95635      14.25742      13.32800
    15  C(13)              0.00641       7.20702       2.57164       2.40400
    16  H(1)              -0.00017      -0.75169      -0.26822      -0.25074
    17  H(1)               0.00079       3.50965       1.25233       1.17069
    18  H(1)              -0.00010      -0.43337      -0.15464      -0.14456
 --------------------------------------------------------
       Center         ----  Spin Dipole Couplings  ----
                      3XX-RR        3YY-RR        3ZZ-RR
 --------------------------------------------------------
     1   Atom        0.026869     -0.014218     -0.012651
     2   Atom        0.001507     -0.006149      0.004642
     3   Atom        0.005240      0.002218     -0.007458
     4   Atom        0.366304     -0.073436     -0.292869
     5   Atom       -0.008750      0.038690     -0.029940
     6   Atom       -0.012825     -0.029804      0.042629
     7   Atom        0.003145     -0.001131     -0.002014
     8   Atom       -0.001465     -0.000024      0.001489
     9   Atom        0.002869     -0.000059     -0.002810
    10   Atom        0.005273     -0.004657     -0.000616
    11   Atom        0.171025     -0.053604     -0.117422
    12   Atom        0.909097      0.158897     -1.067993
    13   Atom        0.169509     -0.026297     -0.143212
    14   Atom        0.041119     -0.018493     -0.022626
    15   Atom        0.010371     -0.005458     -0.004914
    16   Atom        0.005172     -0.000645     -0.004527
    17   Atom        0.002297     -0.001008     -0.001290
    18   Atom        0.001919     -0.000981     -0.000938
 --------------------------------------------------------
                        XY            XZ            YZ
 --------------------------------------------------------
     1   Atom       -0.002000     -0.011143      0.002492
     2   Atom       -0.000778     -0.008956      0.003399
     3   Atom       -0.008608     -0.001388      0.002385
     4   Atom        0.427736      0.177872      0.107215
     5   Atom        0.000992      0.013044     -0.020694
     6   Atom        0.017261      0.009247     -0.001861
     7   Atom       -0.007733      0.005710     -0.004926
     8   Atom       -0.003181      0.004954     -0.006253
     9   Atom       -0.003972      0.002205     -0.001528
    10   Atom       -0.002499      0.007165     -0.001572
    11   Atom        0.191549     -0.033624     -0.047180
    12   Atom        1.593150      0.297129      0.237751
    13   Atom        0.199245      0.066398      0.038204
    14   Atom        0.015174     -0.001761      0.000613
    15   Atom       -0.003727     -0.005826      0.002153
    16   Atom        0.005376      0.001456      0.003526
    17   Atom        0.000619     -0.000317      0.000240
    18   Atom       -0.001047     -0.001545      0.000881
 --------------------------------------------------------


 ---------------------------------------------------------------------------------
              Anisotropic Spin Dipole Couplings in Principal Axis System
 ---------------------------------------------------------------------------------

       Atom             a.u.   MegaHertz   Gauss  10(-4) cm-1        Axes

              Baa    -0.0170    -2.277    -0.812    -0.759  0.1737 -0.5893  0.7890
     1 C(13)  Bbb    -0.0130    -1.742    -0.621    -0.581  0.1966  0.8058  0.5585
              Bcc     0.0299     4.018     1.434     1.340  0.9650 -0.0581 -0.2558
 
              Baa    -0.0079    -4.238    -1.512    -1.413 -0.4084  0.7654 -0.4973
     2 H(1)   Bbb    -0.0047    -2.529    -0.902    -0.843  0.6663  0.6224  0.4107
              Bcc     0.0127     6.766     2.414     2.257 -0.6239  0.1637  0.7642
 
              Baa    -0.0081    -4.306    -1.537    -1.436 -0.0945 -0.2992  0.9495
     3 H(1)   Bbb    -0.0047    -2.524    -0.901    -0.842  0.6486  0.7050  0.2867
              Bcc     0.0128     6.830     2.437     2.278  0.7552 -0.6429 -0.1274
 
              Baa    -0.3379   -45.348   -16.181   -15.126 -0.3329  0.1617  0.9290
     4 C(13)  Bbb    -0.3341   -44.838   -15.999   -14.956 -0.4389  0.8454 -0.3045
              Bcc     0.6721    90.186    32.180    30.083  0.8346  0.5091  0.2104
 
              Baa    -0.0408   -21.791    -7.775    -7.269 -0.3720  0.2381  0.8972
     5 H(1)   Bbb    -0.0037    -1.991    -0.711    -0.664  0.9269  0.1468  0.3454
              Bcc     0.0446    23.782     8.486     7.933 -0.0495  0.9601 -0.2753
 
              Baa    -0.0411   -21.906    -7.817    -7.307 -0.5385  0.8390  0.0782
     6 H(1)   Bbb    -0.0031    -1.646    -0.587    -0.549  0.8264  0.5440 -0.1450
              Bcc     0.0441    23.552     8.404     7.856  0.1642  0.0135  0.9863
 
              Baa    -0.0071    -0.959    -0.342    -0.320  0.4781  0.8357  0.2701
     7 C(13)  Bbb    -0.0057    -0.765    -0.273    -0.255 -0.5260  0.0261  0.8501
              Bcc     0.0128     1.724     0.615     0.575  0.7034 -0.5485  0.4521
 
              Baa    -0.0060    -3.197    -1.141    -1.066 -0.4177  0.5417  0.7294
     8 H(1)   Bbb    -0.0040    -2.138    -0.763    -0.713  0.7869  0.6170 -0.0075
              Bcc     0.0100     5.334     1.903     1.779  0.4541 -0.5709  0.6840
 
              Baa    -0.0036    -1.915    -0.683    -0.639 -0.2346  0.1516  0.9602
     9 H(1)   Bbb    -0.0028    -1.509    -0.538    -0.503  0.5695  0.8220  0.0093
              Bcc     0.0064     3.424     1.222     1.142  0.7878 -0.5490  0.2791
 
              Baa    -0.0054    -2.907    -1.037    -0.970 -0.5757 -0.3460  0.7409
    10 H(1)   Bbb    -0.0052    -2.771    -0.989    -0.924 -0.0485  0.9189  0.3914
              Bcc     0.0106     5.679     2.026     1.894  0.8162 -0.1894  0.5458
 
              Baa    -0.1748    12.647     4.513     4.219 -0.4061  0.8081  0.4266
    11 O(17)  Bbb    -0.1128     8.165     2.913     2.724  0.3173 -0.3131  0.8952
              Bcc     0.2876   -20.812    -7.426    -6.942  0.8569  0.4989 -0.1293
 
              Baa    -1.1125    80.498    28.724    26.851  0.0307 -0.2208  0.9748
    12 O(17)  Bbb    -1.1023    79.765    28.462    26.607 -0.6266  0.7556  0.1909
              Bcc     2.2148  -160.263   -57.186   -53.458  0.7787  0.6167  0.1151
 
              Baa    -0.1573   -83.903   -29.939   -27.987 -0.3223  0.2218  0.9203
    13 H(1)   Bbb    -0.1494   -79.702   -28.440   -26.586 -0.4416  0.8246 -0.3534
              Bcc     0.3066   163.606    58.379    54.573  0.8373  0.5203  0.1678
 
              Baa    -0.0234    -3.145    -1.122    -1.049  0.1601 -0.5895  0.7918
    14 C(13)  Bbb    -0.0214    -2.866    -1.023    -0.956 -0.1707  0.7735  0.6104
              Bcc     0.0448     6.011     2.145     2.005  0.9722  0.2329 -0.0233
 
              Baa    -0.0075    -1.007    -0.359    -0.336  0.1370 -0.5885  0.7968
    15 C(13)  Bbb    -0.0058    -0.776    -0.277    -0.259  0.3641  0.7780  0.5120
              Bcc     0.0133     1.783     0.636     0.595  0.9212 -0.2200 -0.3208
 
              Baa    -0.0069    -3.664    -1.307    -1.222  0.1694 -0.5926  0.7875
    16 H(1)   Bbb    -0.0022    -1.182    -0.422    -0.394 -0.5529  0.6044  0.5736
              Bcc     0.0091     4.846     1.729     1.617  0.8159  0.5326  0.2252
 
              Baa    -0.0015    -0.812    -0.290    -0.271  0.1593 -0.5686  0.8070
    17 H(1)   Bbb    -0.0009    -0.484    -0.173    -0.162 -0.0974  0.8044  0.5860
              Bcc     0.0024     1.296     0.462     0.432  0.9824  0.1720 -0.0728
 
              Baa    -0.0019    -1.012    -0.361    -0.337  0.1637 -0.5805  0.7976
    18 H(1)   Bbb    -0.0011    -0.604    -0.215    -0.201  0.4846  0.7515  0.4476
              Bcc     0.0030     1.615     0.576     0.539  0.8593 -0.3133 -0.4044
 

 ---------------------------------------------------------------------------------

 Calling FoFJK, ICntrl=  10100127 FMM=F ISym2X=0 I1Cent= 0 IOpClX= 1 NMat=1 NMatS=1 NMatT=0.
 ***** Axes restored to original set *****
 -------------------------------------------------------------------
 Center     Atomic                   Forces (Hartrees/Bohr)
 Number     Number              X              Y              Z
 -------------------------------------------------------------------
      1        6           0.000072888    0.009356431   -0.005309572
      2        1           0.001799680   -0.002789070    0.000648976
      3        1           0.001627780   -0.002602911    0.000730212
      4        6          -0.029265162    0.054169388   -0.011617113
      5        1           0.003070509   -0.011936214    0.001451412
      6        1           0.003267521   -0.002239981    0.003349503
      7        6          -0.000736457   -0.001695132   -0.002865693
      8        1           0.000227221    0.000507395    0.000258684
      9        1           0.000045782   -0.000190035   -0.000314348
     10        1           0.000173672    0.000445473   -0.000286916
     11        8          -0.011312037   -0.001185320    0.017789873
     12        8           0.031447359   -0.039442199   -0.000760495
     13        1          -0.003536907    0.004443978   -0.005207494
     14        6           0.011904860   -0.010637790   -0.000331488
     15        6          -0.013857262    0.011219835    0.000824799
     16        1          -0.009977624   -0.000465763    0.005450651
     17        1           0.006287033   -0.009571046    0.002104217
     18        1           0.008761145    0.002612959   -0.005915209
 -------------------------------------------------------------------
 Cartesian Forces:  Max     0.054169388 RMS     0.012370713
 FormGI is forming the generalized inverse of G from B-inverse, IUseBI=4.

 GradGradGradGradGradGradGradGradGradGradGradGradGradGradGradGradGradGrad
 Berny optimization.
 Internal  Forces:  Max     0.047913619 RMS     0.008648859
 Search for a saddle point.
 Step number   1 out of a maximum of  108
 All quantities printed in internal units (Hartrees-Bohrs-Radians)
 Swapping is turned off.
 Second derivative matrix not updated -- analytic derivatives used.
 ITU=  0
     Eigenvalues ---   -0.02096  -0.00287   0.00000   0.00192   0.00646
     Eigenvalues ---    0.01255   0.01962   0.02447   0.02858   0.03110
     Eigenvalues ---    0.03757   0.03985   0.04084   0.04193   0.04461
     Eigenvalues ---    0.06510   0.07509   0.08507   0.08553   0.09358
     Eigenvalues ---    0.10348   0.10639   0.10704   0.12486   0.13095
     Eigenvalues ---    0.13167   0.14991   0.15573   0.16761   0.18496
     Eigenvalues ---    0.19401   0.23187   0.26630   0.29025   0.31320
     Eigenvalues ---    0.32539   0.32599   0.32734   0.33001   0.33445
     Eigenvalues ---    0.33495   0.33999   0.34352   0.34365   0.34501
     Eigenvalues ---    0.35161   0.39846   0.62566
 Eigenvectors required to have negative eigenvalues:
                          R13       R7        D22       R12       D5
   1                    0.63276  -0.53505   0.35751  -0.22627  -0.12014
                          A12       A9        A20       D8        D2
   1                    0.11951   0.11675   0.11622  -0.11132  -0.10147
 RFO step:  Lambda0=6.866233721D-03 Lambda=-2.16021923D-02.
 Linear search not attempted -- option 19 set.
 Maximum step size (   0.300) exceeded in Quadratic search.
    -- Step size scaled by   0.555
 Iteration  1 RMS(Cart)=  0.11776942 RMS(Int)=  0.00533035
 Iteration  2 RMS(Cart)=  0.00799107 RMS(Int)=  0.00104065
 Iteration  3 RMS(Cart)=  0.00003395 RMS(Int)=  0.00104037
 Iteration  4 RMS(Cart)=  0.00000004 RMS(Int)=  0.00104037
 Variable       Old X    -DE/DX   Delta X   Delta X   Delta X     New X
                                 (Linear)    (Quad)   (Total)
    R1        2.05827   0.00058   0.00000   0.00172   0.00172   2.05999
    R2        2.05828   0.00069   0.00000   0.00063   0.00063   2.05890
    R3        2.88267  -0.00723   0.00000  -0.03088  -0.03088   2.85179
    R4        2.91018  -0.00779   0.00000  -0.01728  -0.01728   2.89290
    R5        2.05827  -0.00125   0.00000  -0.00491  -0.00491   2.05335
    R6        2.05826   0.00155   0.00000  -0.00343  -0.00343   2.05483
    R7        2.26767   0.04021   0.00000   0.22614   0.22615   2.49382
    R8        2.06161  -0.00012   0.00000   0.00073   0.00073   2.06234
    R9        2.05705   0.00028   0.00000   0.00097   0.00097   2.05803
   R10        2.05898  -0.00054   0.00000   0.00074   0.00074   2.05972
   R11        2.67252   0.00257   0.00000  -0.00326  -0.00326   2.66926
   R12        2.74736  -0.01815   0.00000   0.00949   0.00949   2.75685
   R13        2.12400   0.04791   0.00000  -0.10709  -0.10710   2.01691
   R14        2.50562  -0.00032   0.00000   0.00219   0.00219   2.50781
   R15        2.07542  -0.00976   0.00000  -0.01550  -0.01550   2.05992
   R16        2.07542  -0.01128   0.00000  -0.01905  -0.01905   2.05638
   R17        2.07542  -0.01034   0.00000  -0.01672  -0.01672   2.05870
    A1        1.87772   0.00005   0.00000  -0.00254  -0.00272   1.87500
    A2        1.94249  -0.00218   0.00000  -0.01247  -0.01253   1.92996
    A3        1.87780   0.00174   0.00000   0.01128   0.01129   1.88909
    A4        1.94243  -0.00195   0.00000  -0.00913  -0.00919   1.93324
    A5        1.87778   0.00161   0.00000   0.01007   0.01008   1.88786
    A6        1.94244   0.00095   0.00000   0.00395   0.00397   1.94642
    A7        1.94246   0.00561   0.00000   0.05422   0.05093   1.99340
    A8        1.94242   0.00247   0.00000   0.05219   0.04796   1.99038
    A9        1.90174   0.00077   0.00000  -0.03838  -0.03770   1.86404
   A10        1.87778   0.00128   0.00000   0.05245   0.04737   1.92515
   A11        2.00967  -0.00904   0.00000  -0.07134  -0.07041   1.93927
   A12        1.78401  -0.00148   0.00000  -0.05205  -0.05087   1.73314
   A13        1.91786   0.00012   0.00000  -0.00081  -0.00081   1.91705
   A14        1.91635   0.00028   0.00000  -0.00202  -0.00203   1.91432
   A15        1.94579  -0.00091   0.00000   0.00174   0.00174   1.94753
   A16        1.91599  -0.00002   0.00000  -0.00219  -0.00219   1.91380
   A17        1.82748   0.00054   0.00000   0.00126   0.00126   1.82874
   A18        1.93861   0.00001   0.00000   0.00209   0.00209   1.94069
   A19        1.84754   0.00279   0.00000  -0.00530  -0.00531   1.84223
   A20        1.74417   0.01159   0.00000   0.00078   0.00078   1.74495
   A21        2.14180   0.00412   0.00000   0.00999   0.00998   2.15178
   A22        1.99956   0.00401   0.00000   0.02004   0.02003   2.01959
   A23        2.14183  -0.00813   0.00000  -0.03003  -0.03003   2.11180
   A24        2.14180  -0.00163   0.00000  -0.01238  -0.01238   2.12942
   A25        2.14183  -0.00272   0.00000  -0.00850  -0.00850   2.13333
   A26        1.99956   0.00435   0.00000   0.02088   0.02088   2.02044
   A27        2.96034   0.00659   0.00000   0.04941   0.04963   3.00997
   A28        3.13679   0.00453   0.00000   0.01746   0.01759   3.15437
    D1        1.04694  -0.00329   0.00000  -0.06636  -0.06792   0.97902
    D2        3.14133   0.00378   0.00000   0.07197   0.07365  -3.06821
    D3       -1.18770   0.00374   0.00000   0.01582   0.01556  -1.17214
    D4        3.14129  -0.00602   0.00000  -0.08416  -0.08563   3.05566
    D5       -1.04751   0.00105   0.00000   0.05417   0.05594  -0.99158
    D6        0.90664   0.00101   0.00000  -0.00199  -0.00215   0.90449
    D7       -1.04751  -0.00466   0.00000  -0.07490  -0.07641  -1.12392
    D8        1.04688   0.00242   0.00000   0.06343   0.06515   1.11203
    D9        3.00103   0.00238   0.00000   0.00727   0.00707   3.00810
   D10        1.00929   0.00091   0.00000   0.17108   0.17106   1.18035
   D11       -2.13228   0.00089   0.00000   0.17780   0.17786  -1.95443
   D12       -1.00932  -0.00083   0.00000   0.16328   0.16323  -0.84609
   D13        2.13230  -0.00085   0.00000   0.17000   0.17003   2.30232
   D14       -3.14157  -0.00007   0.00000   0.16551   0.16547  -2.97610
   D15        0.00005  -0.00009   0.00000   0.17223   0.17227   0.17232
   D16        2.79450   0.00072   0.00000   0.00753   0.00652   2.80102
   D17        0.63811  -0.00105   0.00000   0.00498   0.00443   0.64254
   D18       -1.38572   0.00127   0.00000  -0.00065   0.00089  -1.38483
   D19        1.11675  -0.00024   0.00000  -0.00082  -0.00083   1.11593
   D20       -3.09357  -0.00025   0.00000  -0.00014  -0.00014  -3.09371
   D21       -1.02661   0.00004   0.00000  -0.00095  -0.00095  -1.02756
   D22       -2.02355   0.00479   0.00000  -0.06350  -0.06350  -2.08705
   D23       -3.14157  -0.00002   0.00000   0.01314   0.01308  -3.12849
   D24        0.00003   0.00002   0.00000   0.01383   0.01377   0.01380
   D25       -0.00000  -0.00000   0.00000   0.00588   0.00594   0.00593
   D26       -3.14159   0.00004   0.00000   0.00657   0.00662  -3.13496
         Item               Value     Threshold  Converged?
 Maximum Force            0.047914     0.000450     NO 
 RMS     Force            0.008649     0.000300     NO 
 Maximum Displacement     0.353265     0.001800     NO 
 RMS     Displacement     0.118734     0.001200     NO 
 Predicted change in Energy=-6.393956D-03
 GradGradGradGradGradGradGradGradGradGradGradGradGradGradGradGradGradGrad

                          Input orientation:                          
 ---------------------------------------------------------------------
 Center     Atomic      Atomic             Coordinates (Angstroms)
 Number     Number       Type             X           Y           Z
 ---------------------------------------------------------------------
      1          6           0       -2.012069    0.666558   -0.020357
      2          1           0       -2.688263   -0.095889   -0.407337
      3          1           0       -2.035552    0.602086    1.067005
      4          6           0       -0.612142    0.446758   -0.539285
      5          1           0       -0.538357    0.415321   -1.622909
      6          1           0        0.124746    1.134107   -0.130724
      7          6           0        0.843324   -3.031667   -1.368576
      8          1           0       -0.072505   -2.870632   -1.939851
      9          1           0        1.674066   -3.219579   -2.047259
     10          1           0        0.714851   -3.884099   -0.701593
     11          8           0        1.218717   -1.874132   -0.651378
     12          8           0        0.146178   -1.645057    0.310630
     13          1           0       -0.177611   -0.676805   -0.000465
     14          6           0       -2.553419    2.038982   -0.428908
     15          6           0       -3.681295    2.548965    0.049567
     16          1           0       -1.953595    2.586741   -1.155825
     17          1           0       -4.053094    3.522235   -0.264538
     18          1           0       -4.293004    2.021894    0.780893
 ---------------------------------------------------------------------
                    Distance matrix (angstroms):
                    1          2          3          4          5
     1  C    0.000000
     2  H    1.090100   0.000000
     3  H    1.089525   1.756954   0.000000
     4  C    1.509104   2.149920   2.151834   0.000000
     5  H    2.191602   2.522112   3.084171   1.086588   0.000000
     6  H    2.190151   3.082601   2.526754   1.087370   1.784090
     7  C    4.862904   4.692002   5.236807   3.860771   3.722292
     8  H    4.467446   4.109743   4.995448   3.641136   3.333910
     9  H    5.726953   5.610410   6.169686   4.576327   4.276376
    10  H    5.348706   5.100814   5.551442   4.532502   4.572129
    11  O    4.158277   4.299558   4.435624   2.958233   3.045123
    12  O    3.179803   3.308996   3.222064   2.381826   2.907287
    13  H    2.273820   2.608905   2.495396   1.319674   1.988769
    14  C    1.530856   2.139235   2.137899   2.513148   2.849980
    15  C    2.516875   2.861840   2.744812   3.766394   4.150623
    16  H    2.231549   2.880361   2.981031   2.599836   2.633654
    17  H    3.518565   3.869622   3.790878   4.623223   4.883796
    18  H    2.771570   2.910685   2.682127   4.215764   4.738851
                    6          7          8          9         10
     6  H    0.000000
     7  C    4.404806   0.000000
     8  H    4.398839   1.091343   0.000000
     9  H    5.002808   1.089061   1.784324   0.000000
    10  H    5.084929   1.089959   1.783347   1.781150   0.000000
    11  O    3.243047   1.412509   2.078564   1.991495   2.072769
    12  O    2.814073   2.286578   2.571871   3.220746   2.522161
    13  H    1.840595   2.908507   2.930041   3.752835   3.402176
    14  C    2.842583   6.175137   5.704576   6.938527   6.770438
    15  C    4.064514   7.323030   6.808317   8.145715   7.827813
    16  H    2.735047   6.279693   5.825472   6.904198   7.014179
    17  H    4.814084   8.255147   7.714953   9.023886   8.819189
    18  H    4.597360   7.519346   7.010839   8.430742   7.883979
                   11         12         13         14         15
    11  O    0.000000
    12  O    1.458862   0.000000
    13  H    1.951156   1.067300   0.000000
    14  C    5.439757   4.626757   3.633666   0.000000
    15  C    6.638165   5.683971   4.762762   1.327075   0.000000
    16  H    5.497038   4.946479   3.890979   1.090062   2.106975
[...]
 0533,-0.2760372,0.1040079,-0.0381176,0.0541282,0.0228339,0.032059,-0.0
 465676,0.0042074,0.0531563,0.0350646,-0.0676447,-0.0293403,0.0578736,-
 0.0006725,-0.0187236,-0.1043512,-0.0712052,-0.0657468,0.0133922,0.0121
 723,0.268,0.2522861,0.1203101,-0.1019078,0.6438754,0.095541,-0.0308857
 ,0.2410174,0.3818084,-0.0364991,-0.0340265,-0.1100301,0.1229637,-0.084
 3386,0.04821,-0.0346717,-0.0147275,-0.0040624,-0.004227,0.0216961,0.07
 09818,0.0303133,0.009304,-0.0648162,0.0725905,-0.1002173,-0.0285439,0.
 0442703,-0.114708,-0.0222647,-0.024142,-0.1104866,0.0127731,0.0367466,
 0.1050677,-0.0170383,-0.5723933,0.3627795,-0.0736383,0.120517,-0.57590
 16,-0.0030511,0.4639315,-0.865911,-0.310636,0.2963042,-0.8299081,-0.02
 89168,-0.528752,0.5903357,-0.0541326,-0.437524,0.4829598,-0.1667478,-0
 .2115416,0.5700558,0.0344863,0.7168962,-1.0495127,0.0042401,-0.1900291
 ,0.3589931,0.0914584,-0.1794676,-0.0532937,-0.0798957,-0.3498482,0.245
 956,-0.0290112,0.0807388,-0.1860766,0.0927786,-0.2660996,-0.0365125,-0
 .0322334,-0.041722,-0.1471074,-0.1045997,-0.0960449,-0.0539462,0.03860
 86,0.0844128,0.037626,0.0477851,0.0660473,0.0233463,0.0448338,0.021611
 ,0.0606046,-0.0914079,0.0994703,0.0683871,0.0071141,0.1354289,-0.05238
 42,0.0393148,0.009169,0.0467217,0.0366732,0.0936399,0.0516127,0.011576
 7,0.0127626,0.071894,0.0792511,0.0448577,0.0309114,-0.0698706\Polar=86
 .2043567,-37.5802449,108.5824296,-6.8534005,7.6830711,67.5757655\PG=C0
 1 [X(C5H11O2)]\NImag=1\\0.44303440,0.03237824,0.50558155,-0.02765609,0
 .02869942,0.59538262,-0.05832207,-0.04975513,-0.03396963,0.07189175,-0
 .05239503,-0.20165271,-0.11534751,0.05312615,0.22223526,-0.03478849,-0
 .11348350,-0.13773946,0.04080651,0.12664993,0.14335580,-0.06763151,-0.
 01749002,0.07054549,0.00191161,0.00226285,-0.00770690,0.07921938,-0.01
 702828,-0.05926128,0.04460620,0.00798012,0.00563683,-0.02342998,0.0144
 3438,0.06278457,0.06964525,0.04633305,-0.27876972,0.00488739,0.0038027
 1,-0.01653603,-0.07730099,-0.05384666,0.30182436,-0.19749924,-0.031230
 32,0.00815108,-0.01274141,-0.00145057,-0.00048802,-0.01273338,-0.00017
 334,0.00074420,0.43202597,-0.03149051,-0.05401199,-0.00960881,-0.02727
 429,-0.00257063,0.00063948,-0.00464890,-0.00085718,-0.00015271,0.12677
 654,0.27503003,0.00852669,-0.00927424,-0.08230735,-0.02239372,-0.00202
 031,0.00055573,0.03306254,0.00336840,0.00101165,-0.05441979,0.13139092
 ,0.54168096,-0.00950790,-0.00337348,0.03038739,0.00144572,-0.00008297,
 -0.00049912,-0.00622181,-0.00052757,-0.00073294,-0.08934590,-0.0159139
 4,0.09752988,0.09551891,0.00082676,0.00112361,0.00248086,0.00068942,0.
 00002870,0.00055505,-0.00116427,0.00093506,0.00063433,-0.02233631,-0.0
 3102943,0.01583312,0.01664386,0.03139364,-0.00254518,0.00081771,0.0025
 7184,0.00061254,0.00014324,0.00058752,-0.00053967,0.00008797,0.0014213
 1,0.10521360,0.00426450,-0.28184295,-0.11186706,-0.01147493,0.29662451
 ,-0.00937543,-0.02227811,-0.02095522,-0.00643897,-0.00030501,0.0003055
 9,0.00145897,0.00025277,0.00053113,-0.07998813,-0.07068232,-0.05475019
 ,0.00637581,0.00805587,0.00766094,0.08638548,0.00200091,-0.00050765,-0
 .00095108,-0.00069741,0.00086779,0.00000518,0.00010541,-0.00007334,0.0
 0000859,-0.08053528,-0.16480780,-0.13812766,0.00045579,0.00441356,0.00
 424037,0.08023650,0.17202976,0.00111108,0.00045381,0.00292494,0.000909
 43,0.00045711,0.00165296,-0.00084891,0.00040266,0.00067063,-0.05619793
 ,-0.12665255,-0.16212192,-0.00965999,-0.02030513,-0.01373085,0.0646664
 2,0.13980813,0.16961755,0.00047904,0.00188244,-0.00002451,-0.00070634,
 -0.00029498,-0.00019233,0.00002095,-0.00017937,-0.00005659,0.00359861,
 -0.00475022,0.00298237,0.00008232,0.00065160,-0.00028627,-0.00071584,0
 .00067067,-0.00083747,0.56741349,-0.00037807,0.00231682,-0.00089170,0.
 00008759,-0.00003324,-0.00007009,-0.00009218,-0.00000842,0.00009043,0.
 00247596,-0.00625990,0.00219750,-0.00028202,0.00024802,-0.00010673,-0.
 00049344,0.00076736,-0.00023971,-0.04510224,0.53410382,0.00040606,0.00
 219143,-0.00015725,-0.00062445,-0.00034202,-0.00021188,-0.00003974,-0.
 00017623,-0.00008188,0.00388321,-0.00616385,0.00373013,0.00003601,0.00
 061761,-0.00020655,-0.00072917,0.00091209,-0.00072358,-0.06924974,-0.0
 4791714,0.54446987,-0.00005650,-0.00052013,0.00022439,0.00010911,0.000
 15018,0.00004890,-0.00006011,0.00000382,0.00002670,-0.00089902,0.00218
 171,-0.00115350,0.00000489,-0.00045287,0.00019421,0.00009079,-0.000193
 15,0.00028322,-0.18222040,0.10444075,-0.07035504,0.20511673,0.00032092
 ,-0.00043853,0.00035564,0.00003452,-0.00002997,-0.00016214,-0.00000645
 ,0.00006614,0.00000893,-0.00016027,0.00078937,0.00005614,0.00012398,-0
 .00054803,0.00011614,-0.00012111,-0.00003176,0.00007941,0.10896569,-0.
 13522321,0.05934768,-0.10956725,0.13867123,-0.00003048,-0.00068868,-0.
 00006075,0.00034761,0.00001593,0.00014626,0.00000926,0.00006689,0.0000
 1912,-0.00067968,0.00134945,-0.00051334,0.00001251,-0.00024359,0.00012
 379,0.00011657,-0.00007320,0.00012651,-0.06658206,0.05854455,-0.089361
 65,0.08731843,-0.05917707,0.09584053,-0.00006789,-0.00021157,-0.000081
 10,0.00015366,0.00002359,0.00007548,-0.00000010,0.00003447,0.00000861,
 -0.00023041,0.00015217,0.00002011,0.00002342,-0.00011937,0.00004114,0.
 00004236,0.00002026,0.00005252,-0.15804017,0.05935344,0.12321873,-0.01
 202517,0.00631524,0.01680980,0.16194532,0.00001062,-0.00018408,0.00014
 387,-0.00006076,0.00001021,-0.00000082,-0.00001357,-0.00000889,-0.0000
 2273,-0.00029376,0.00042097,-0.00021286,0.00008452,-0.00007702,0.00003
 563,0.00005342,-0.00008013,0.00006059,0.05252054,-0.08061512,-0.060499
 84,0.01081263,-0.00512223,-0.01224754,-0.05965908,0.08615507,-0.000049
 62,-0.00032114,0.00003841,0.00009703,0.00003994,0.00002449,-0.00000483
 ,0.00003788,0.00001128,-0.00047686,0.00054329,-0.00018188,0.00006773,-
 0.00017001,0.00004359,0.00008529,-0.00005578,0.00010515,0.11353048,-0.
 06317836,-0.18088686,-0.00772214,0.00526014,0.01140572,-0.12588639,0.0
 7746605,0.20139865,-0.00000960,-0.00035499,0.00009569,0.00009860,0.000
 05796,-0.00004560,-0.00000896,0.00005044,0.00002951,-0.00063047,0.0010
 4611,-0.00066490,-0.00006147,-0.00014718,0.00005624,0.00008721,-0.0001
 6161,0.00017247,-0.08312870,-0.06585099,0.05179679,0.00963804,0.018615
 84,-0.01336862,-0.00567800,-0.01430072,0.01030599,0.09251488,0.0000415
 5,-0.00038799,0.00011321,-0.00003013,-0.00002177,0.00007670,0.00004448
 ,-0.00003091,-0.00005415,-0.00059663,0.00105697,-0.00037714,0.00006587
 ,-0.00002687,-0.00001058,0.00011034,-0.00014130,0.00004788,-0.06496809
 ,-0.19365921,0.11137002,-0.00581957,-0.01190659,0.01193379,0.00500684,
 0.01117500,-0.00617373,0.08346563,0.21321041,-0.00003915,0.00000712,0.
 00001190,0.00004509,0.00003271,-0.00003014,-0.00001245,0.00000900,0.00
 001869,0.00026615,-0.00004057,-0.00013318,-0.00010057,0.00003439,0.000
 02355,-0.00003673,0.00002142,0.00001478,0.05830436,0.11735780,-0.13810
 709,0.00550260,0.00840018,-0.00544717,0.00599282,0.01692744,-0.0102283
 6,-0.05423854,-0.11838083,0.14180752,-0.00114654,0.00445380,-0.0018848
 6,-0.00006582,-0.00008677,0.00003593,-0.00001408,-0.00014009,0.0000652
 2,0.00755928,-0.01614816,0.00649979,-0.00068903,0.00197396,-0.00116499
 ,-0.00103503,0.00201739,-0.00096055,-0.15697603,-0.05447015,-0.0304435
 5,-0.02215567,-0.02251793,-0.02279333,0.01217575,0.01302344,0.01297942
 ,-0.01401699,-0.01752429,-0.01341855,0.29749192,0.00020307,-0.00365437
 ,0.00103710,0.00017628,0.00006779,0.00013011,0.00011484,0.00003983,-0.
 00014732,-0.00297258,0.00884807,-0.00423315,-0.00041368,0.00045634,0.0
 0037085,0.00116152,-0.00108983,0.00046787,-0.07503926,-0.11109552,-0.0
 3199735,0.00081935,0.01139226,-0.00140076,-0.00704063,-0.00914174,-0.0
 0911348,-0.02525766,-0.02180052,-0.02559488,0.05663476,0.19455153,0.00
 068710,-0.00756250,0.00285993,0.00068655,0.00054931,0.00026857,0.00020
 527,0.00026204,-0.00019513,-0.01844152,0.03086572,-0.01254131,0.002026
 24,-0.00496798,0.00211095,0.00218082,-0.00384018,0.00249209,-0.0610525
 2,-0.04139935,-0.09180992,-0.01791340,-0.01768135,-0.01666117,-0.01452
 054,-0.01780476,-0.01886855,0.00475065,-0.00275120,0.00779820,-0.01623
 480,0.13494628,0.26191513,0.00377296,-0.00868356,0.00318314,0.00070340
 ,0.00022798,0.00038785,0.00022063,0.00000998,-0.00005550,-0.03416974,0
 .07088779,-0.02855427,0.00251895,-0.00629578,0.00195829,0.00287996,-0.
 00488537,0.00359870,0.01307829,0.00642371,-0.00222952,0.00061787,-0.00
 281616,-0.00219541,0.00178531,-0.00234621,-0.00291518,0.00047856,-0.00
 093680,-0.00242244,-0.09489601,0.02882154,0.08618209,0.07915879,-0.005
 51396,0.01037149,-0.00409787,0.00024470,0.00009330,0.00027057,0.000355
 22,-0.00015369,-0.00015401,0.05990982,-0.11311541,0.04516544,-0.003430
 52,0.00757729,-0.00279673,-0.00383491,0.00691350,-0.00387053,0.0194157
 8,-0.01675498,-0.03683671,0.00104575,0.00327249,0.00420750,-0.00380492
 ,-0.00264066,-0.00405671,0.00420497,0.00414255,0.00110068,0.00194552,-
 0.05182937,-0.01736993,-0.02460186,0.10841190,0.00053054,0.00404280,-0
 .00207087,-0.00029075,-0.00043997,-0.00019057,-0.00061706,-0.00002477,
 0.00030962,-0.00283858,0.00838900,0.00066322,-0.00136699,0.00234524,-0
 .00063067,-0.00053761,0.00238477,-0.00070237,0.02192231,-0.02042943,-0
 .04434926,0.00347772,0.00267722,0.00374807,-0.00516890,-0.00371614,-0.
 00240576,0.00087758,0.00369099,0.00454336,0.06319899,-0.04481830,-0.15
 189708,-0.07215679,0.01157752,0.24149451,-0.01325715,0.01861595,-0.007
 71267,0.00026752,-0.00015820,-0.00017176,0.00014402,0.00000692,0.00012
 409,0.00970695,-0.05394876,0.02218441,-0.00142201,0.00295230,0.0003982
 4,-0.00149280,0.00169496,-0.00276059,-0.00200044,-0.00519546,-0.004727
 05,0.00151686,0.00077314,0.00081592,-0.00015041,0.00006883,-0.00015232
 ,0.00057532,0.00097252,0.00016182,-0.02465019,0.02134560,0.02826322,0.
 02080197,-0.04327293,-0.00486057,0.01400501,0.00809990,-0.01589445,0.0
 0592066,-0.00074805,0.00051633,-0.00033092,-0.00067646,0.00048421,0.00
 011258,-0.06045326,0.08949523,-0.04301818,0.00681297,-0.01517800,0.004
 83121,0.00892047,-0.01955152,0.00915124,0.00677786,0.00665289,0.010053
 14,-0.00301335,-0.00089202,-0.00247346,-0.00014406,0.00005912,-0.00038
 251,-0.00143848,-0.00170996,0.00015519,0.03154337,-0.01737685,-0.05486
 919,-0.05751623,0.04536477,0.03528889,0.05807348,-0.07558781,-0.002506
 72,0.00469133,-0.00222813,-0.00017247,0.00007362,-0.00004792,0.0007972
 9,-0.00042963,0.00006711,0.01961607,-0.03468571,-0.00919143,-0.0055740
 5,0.01485745,-0.00771214,0.00082563,-0.00448910,-0.00043565,0.00162049
 ,-0.00432969,-0.00226087,0.00004693,0.00087203,0.00058256,-0.00060145,
 -0.00007044,-0.00044315,0.00025412,0.00059475,-0.00029360,0.00350098,-
 0.01924363,0.01548430,0.01606197,0.00580799,-0.04938557,-0.03278740,0.
 03726525,0.05491041,-0.08804765,0.05558771,-0.01933050,0.00292370,-0.0
 0295272,0.00331312,0.00378146,-0.00628058,0.00271713,-0.02878083,0.023
 31661,-0.00883914,0.00165508,-0.00122702,0.00008339,0.00201175,-0.0006
 2046,0.00071847,-0.00093913,-0.00075503,-0.00096384,0.00032592,-0.0000
 2149,0.00026688,0.00009607,0.00006755,0.00013531,0.00012252,0.00015352
 ,0.00000138,-0.00130405,0.00130600,0.00292422,0.00282381,-0.00213951,-
 0.00205824,-0.00382275,0.00307083,-0.00093587,0.37965096,0.03987285,-0
 .16345015,0.03999018,0.01533465,-0.02380939,0.00953777,0.00461654,-0.0
 0779910,0.00318321,0.01430009,-0.00042311,-0.00104882,-0.00113984,0.00
 059379,-0.00028760,-0.00186245,0.00124374,-0.00008335,-0.00074168,-0.0
 0094312,-0.00080523,0.00020088,0.00009437,0.00015050,0.00004132,0.0001
 2648,0.00015314,0.00015082,0.00016424,-0.00003774,-0.00143933,0.001170
 77,0.00279874,0.00288595,-0.00306265,-0.00169095,-0.00337894,0.0054250
 2,-0.00137862,-0.25033956,0.50022470,-0.01230983,0.03449599,-0.1027571
 1,0.01084269,-0.01709778,0.00751320,-0.01645616,0.02817588,-0.01311649
 ,-0.00482544,0.00085143,-0.00030929,0.00076584,-0.00016279,0.00028821,
 0.00033013,0.00046524,0.00016892,0.00014586,0.00065060,0.00016585,-0.0
 0009133,-0.00019264,0.00007849,0.00006127,-0.00011540,-0.00005212,-0.0
 0008463,-0.00010160,0.00002044,0.00103938,-0.00077415,-0.00177210,-0.0
 0162325,0.00226611,0.00127116,0.00195220,-0.00372181,0.00137829,-0.188
 82662,0.03471399,0.67655952,-0.00781767,0.01510676,0.00823718,-0.00075
 638,0.00071177,-0.00069221,0.00023028,-0.00133620,0.00058538,0.0015019
 0,0.00111118,0.00036714,-0.00008731,-0.00009753,-0.00001076,0.00008668
 ,-0.00005492,-0.00015430,-0.00011842,-0.00025958,-0.00013614,0.0000211
 6,0.00004478,0.00000988,-0.00000450,0.00003592,0.00002870,0.00003279,0
 .00004920,-0.00001470,-0.00035787,0.00027635,0.00066414,0.00057443,-0.
 00056082,-0.00048995,-0.00053927,0.00089396,-0.00022455,-0.21568818,0.
 17148864,0.15901815,0.36818305,0.02348614,-0.01807975,-0.01428283,0.00
 165328,-0.00242569,0.00059653,-0.00067736,0.00138784,-0.00194910,-0.00
 200475,-0.00265332,0.00050977,0.00044796,0.00004159,-0.00000577,0.0007
 7275,0.00001203,0.00024330,-0.00003180,0.00027293,0.00002659,-0.000013
 03,-0.00007922,0.00004577,0.00003262,-0.00004297,-0.00001207,-0.000028
 93,-0.00003739,0.00000582,0.00043889,-0.00026449,-0.00055411,-0.000564
 21,0.00068425,0.00044646,0.00088662,-0.00068597,0.00023227,0.17150439,
 -0.23783870,-0.13862564,-0.30443682,0.55732796,-0.00477672,0.00744128,
 0.00952250,-0.00138638,0.00307541,-0.00011919,-0.00096692,0.00070596,0
 .00152645,-0.00009843,-0.00010770,0.00057468,-0.00026145,-0.00019480,0
 .00028922,0.00028476,-0.00033975,0.00007056,-0.00025518,-0.00034830,-0
 .00024117,0.00010451,0.00004015,0.00000301,-0.00000843,0.00005482,0.00
 004569,0.00005821,0.00005020,-0.00000967,-0.00051244,0.00046674,0.0009
 8851,0.00093208,-0.00122787,-0.00059325,-0.00085690,0.00210332,-0.0005
 0303,0.15640483,-0.13763667,-0.25524919,-0.17074493,-0.00992151,0.6732
 1619,0.00261583,0.00437513,-0.01353089,0.00038270,-0.00002902,0.000463
 43,-0.00046495,0.00273095,-0.00070393,0.00202276,-0.00020071,-0.000620
 97,-0.00024974,0.00001679,0.00024608,-0.00015805,-0.00002273,-0.000047
 88,0.00003950,0.00005569,0.00004918,0.00000345,0.00000085,-0.00002276,
 -0.00000764,0.00000096,-0.00000534,-0.00000015,-0.00002283,0.00000656,
 0.00005601,-0.00005492,-0.00020780,-0.00021153,0.00002427,0.00025894,0
 .00022646,-0.00008779,0.00003333,-0.05216193,-0.00217053,0.03939232,0.
 00206189,-0.00338033,0.02009592,0.04459465,-0.00268941,-0.00497267,0.0
 2520399,-0.00080100,0.00102318,-0.00072833,0.00322727,-0.00348239,0.00
 181858,-0.00158526,0.00072237,-0.00032726,0.00055938,0.00006561,-0.000
 29407,0.00007427,0.00000901,-0.00005680,0.00011960,0.00008101,0.000105
 99,-0.00004830,-0.00000615,0.00001011,0.00000383,-0.00001633,-0.000016
 55,-0.00003313,0.00000383,-0.00000511,0.00009693,-0.00008687,-0.000211
 18,-0.00021772,0.00039569,-0.00000026,0.00015950,-0.00061763,0.0000763
 8,-0.00299632,-0.06720448,0.06814757,0.00542514,0.00751152,-0.02040312
 ,-0.00437830,0.06619350,0.00248533,0.00145004,-0.00706252,-0.00018874,
 0.00054669,0.00044130,-0.00062738,0.00146329,0.00079471,0.00083240,-0.
 00055981,0.00047213,-0.00054652,0.00011035,0.00006177,-0.00007898,-0.0
 0000964,-0.00006166,-0.00004700,-0.00006470,-0.00005239,0.00002940,0.0
 0001508,-0.00000921,-0.00000794,0.00001506,0.00000872,0.00001795,-0.00
 000075,0.00000326,-0.00011470,0.00007220,0.00019410,0.00022808,-0.0003
 6526,-0.00006658,-0.00028124,0.00051248,-0.00007416,0.04123091,0.06348
 768,-0.30720182,0.00227771,0.00710454,-0.01568522,-0.04763778,-0.07158
 492,0.32709766,0.00756718,0.00618969,0.00558214,-0.00165941,0.00199182
 ,-0.00052485,-0.00002302,-0.00019631,-0.00016677,0.00099216,-0.0010748
 2,0.00012848,-0.00002584,0.00012315,-0.00002582,-0.00014835,-0.0000295
 4,-0.00006800,0.00016421,0.00007351,0.00015180,-0.00003824,0.00001257,
 -0.00005477,-0.00002532,-0.00000411,-0.00002371,-0.00001677,-0.0000179
 3,0.00000140,0.00011373,-0.00015071,-0.00033360,-0.00029057,0.00014831
 ,0.00022598,0.00030756,-0.00031302,0.00007362,-0.00461627,0.01560345,-
 0.00889492,-0.09711700,0.11075457,-0.04187843,-0.00454698,-0.00398723,
 -0.00169265,0.09502206,0.00628272,0.00382562,-0.00029794,-0.00045132,0
 .00055578,-0.00024444,-0.00024172,0.00034253,-0.00027478,0.00034812,-0
 .00094595,-0.00005738,0.00010818,0.00006183,-0.00002817,-0.00000764,0.
 00000033,0.00000111,0.00015258,0.00021366,0.00017081,-0.00004718,-0.00
 001845,-0.00002807,-0.00000661,-0.00002591,-0.00003198,-0.00003090,-0.
 00003670,0.00000743,0.00030752,-0.00027404,-0.00060220,-0.00056551,0.0
 0052669,0.00039784,0.00058888,-0.00078334,0.00022433,0.00751240,-0.011
 62963,0.00943194,0.11205801,-0.24000776,0.09094861,-0.00380919,-0.0014
 6309,-0.00147611,-0.12479261,0.25120056,0.00424788,0.00056405,-0.00071
 117,-0.00033030,0.00001759,0.00014900,-0.00004418,-0.00029442,0.000313
 89,-0.00001949,-0.00052997,0.00023752,-0.00004184,0.00006129,-0.000028
 85,0.00004550,0.00003153,-0.00004130,0.00009073,0.00011943,0.00009450,
 -0.00002804,-0.00001407,-0.00001942,-0.00000556,-0.00001459,-0.0000164
 9,-0.00001637,-0.00002141,0.00000333,0.00018610,-0.00015983,-0.0003510
 3,-0.00034166,0.00034761,0.00023923,0.00038331,-0.00054570,0.00014108,
 0.01038878,-0.01753108,0.00929097,-0.04491550,0.09496942,-0.09832716,-
 0.00193191,-0.00099988,0.00077066,0.04475774,-0.09804968,0.09453622,-0
 .00473025,-0.00469241,-0.00126103,0.00080262,-0.00079703,-0.00032753,0
 .00017062,0.00035787,-0.00034789,-0.00038909,0.00066054,0.00009506,-0.
 00001411,-0.00009336,-0.00002494,-0.00006640,-0.00000141,0.00002331,-0
 .00003095,-0.00003150,-0.00004356,0.00001029,0.00000313,0.00002025,0.0
 0000773,-0.00000024,0.00000645,0.00000321,0.00000632,0.00000097,-0.000
 08940,0.00007014,0.00013387,0.00015292,-0.00013492,-0.00010663,-0.0002
 1666,0.00019788,-0.00002791,0.00196952,-0.00342287,0.01956435,-0.05020
 556,0.00116001,0.04386588,0.00579770,0.00707075,0.00412116,0.00434086,
 0.00259428,-0.01242518,0.04248696,-0.00402840,-0.00072348,-0.00307340,
 0.00049140,-0.00049175,-0.00001111,-0.00015005,-0.00000179,0.00060906,
 -0.00001821,0.00031173,0.00017572,-0.00013849,-0.00007970,0.00009696,-
 0.00005291,0.00002624,0.00003494,-0.00004912,-0.00006380,-0.00005699,0
 .00001975,0.00001030,0.00000788,0.00000246,0.00000822,0.00001189,0.000
 01283,0.00000619,-0.00000006,-0.00010886,0.00008700,0.00019186,0.00017
 246,-0.00019717,-0.00012091,-0.00018442,0.00027998,-0.00006857,0.00481
 368,0.00711722,-0.01840695,-0.00045584,-0.06512286,0.06529323,0.006951
 72,0.00184390,-0.00071621,-0.00433080,-0.00154213,0.02204970,-0.002947
 18,0.05853190,-0.00293763,0.00014203,0.00055218,0.00012161,-0.00015660
 ,0.00018037,0.00054534,-0.00098448,0.00071045,-0.00022096,0.00020791,0
 .00021662,-0.00017509,-0.00001046,0.00000575,0.00005512,0.00000906,-0.
 00002673,-0.00001293,0.00001487,-0.00001001,0.00000644,-0.00000148,-0.
 00000137,-0.00000018,0.00000166,0.00000146,0.00000345,-0.00000615,0.00
 000419,0.00002199,-0.00000829,-0.00001549,-0.00003819,0.00003219,0.000
 02281,0.00002727,-0.00005219,0.00001189,0.00276981,0.00648485,-0.01627
 694,0.04619474,0.06117057,-0.31550893,0.00416349,-0.00073514,0.0003692
 6,0.00274236,-0.00009133,-0.00628098,-0.05326664,-0.06601703,0.3360454
 8\\0.00000067,-0.00000091,0.00000150,0.00000079,0.00000030,-0.00000090
 ,-0.00000111,-0.00000086,-0.00000065,0.00000424,-0.00000565,0.00000121
 ,0.00000066,-0.00000186,-0.00000065,0.00000055,-0.00000113,0.00000155,
 -0.00000005,0.00000023,-0.00000054,0.00000023,-0.00000010,0.00000007,-
 0.00000007,0.,0.,0.00000019,0.00000009,0.00000038,-0.00000210,0.000001
 59,0.00000242,-0.00000048,0.00000551,-0.00000335,-0.00000280,0.0000032
 0,-0.00000119,0.00000016,0.00000022,0.00000054,0.00000106,0.00000078,0
 .00000028,-0.00000188,-0.00000119,-0.00000049,-0.00000036,-0.00000037,
 -0.00000021,0.00000031,0.00000015,0.00000002\\\@


 ABALONE: AN EXPRESSION OF DISBELIEF.
 Job cpu time:       2 days 22 hours 35 minutes 19.7 seconds.
 Elapsed time:       0 days  1 hours 49 minutes 31.9 seconds.
 File lengths (MBytes):  RWF= 108510 Int=      0 D2E=      0 Chk=     21 Scr=      1
 Normal termination of Gaussian 16 at Wed Jun  5 04:32:18 2019.
