 Entering Gaussian System, Link 0=g16
 Initial command:
 /ichec/packages/gaussian/16b01/l1.exe "/localscratch/353442/Gau-14753.inp" -scrdir="/localscratch/353442/"
 Entering Link 1 = /ichec/packages/gaussian/16b01/l1.exe PID=     15072.
  
 Copyright (c) 1988-2017, Gaussian, Inc.  All Rights Reserved.
  
 This is part of the Gaussian(R) 16 program.  It is based on
 the Gaussian(R) 09 system (copyright 2009, Gaussian, Inc.),
 the Gaussian(R) 03 system (copyright 2003, Gaussian, Inc.),
 the Gaussian(R) 98 system (copyright 1998, Gaussian, Inc.),
 the Gaussian(R) 94 system (copyright 1995, Gaussian, Inc.),
 the Gaussian 92(TM) system (copyright 1992, Gaussian, Inc.),
 the Gaussian 90(TM) system (copyright 1990, Gaussian, Inc.),
 the Gaussian 88(TM) system (copyright 1988, Gaussian, Inc.),
 the Gaussian 86(TM) system (copyright 1986, Carnegie Mellon
 University), and the Gaussian 82(TM) system (copyright 1983,
 Carnegie Mellon University). Gaussian is a federally registered
 trademark of Gaussian, Inc.
  
 This software contains proprietary and confidential information,
 including trade secrets, belonging to Gaussian, Inc.
  
 This software is provided under written license and may be
 used, copied, transmitted, or stored only in accord with that
 written license.
  
 The following legend is applicable only to US Government
 contracts under FAR:
  
                    RESTRICTED RIGHTS LEGEND
  
 Use, reproduction and disclosure by the US Government is
 subject to restrictions as set forth in subparagraphs (a)
 and (c) of the Commercial Computer Software - Restricted
 Rights clause in FAR 52.227-19.
  
 Gaussian, Inc.
 340 Quinnipiac St., Bldg. 40, Wallingford CT 06492
  
  
 ---------------------------------------------------------------
 Warning -- This program may not be used in any manner that
 competes with the business of Gaussian, Inc. or will provide
 assistance to any competitor of Gaussian, Inc.  The licensee
 of this program is prohibited from giving any competitor of
 Gaussian, Inc. access to this program.  By using this program,
 the user acknowledges that Gaussian, Inc. is engaged in the
 business of creating and licensing software in the field of
 computational chemistry and represents and warrants to the
 licensee that it is not a competitor of Gaussian, Inc. and that
 it will not use this program in any manner prohibited above.
 ---------------------------------------------------------------
  

 Cite this work as:
 Gaussian 16, Revision B.01,
 M. J. Frisch, G. W. Trucks, H. B. Schlegel, G. E. Scuseria, 
 M. A. Robb, J. R. Cheeseman, G. Scalmani, V. Barone, 
 G. A. Petersson, H. Nakatsuji, X. Li, M. Caricato, A. V. Marenich, 
 J. Bloino, B. G. Janesko, R. Gomperts, B. Mennucci, H. P. Hratchian, 
 J. V. Ortiz, A. F. Izmaylov, J. L. Sonnenberg, D. Williams-Young, 
 F. Ding, F. Lipparini, F. Egidi, J. Goings, B. Peng, A. Petrone, 
 T. Henderson, D. Ranasinghe, V. G. Zakrzewski, J. Gao, N. Rega, 
 G. Zheng, W. Liang, M. Hada, M. Ehara, K. Toyota, R. Fukuda, 
 J. Hasegawa, M. Ishida, T. Nakajima, Y. Honda, O. Kitao, H. Nakai, 
 T. Vreven, K. Throssell, J. A. Montgomery, Jr., J. E. Peralta, 
 F. Ogliaro, M. J. Bearpark, J. J. Heyd, E. N. Brothers, K. N. Kudin, 
 V. N. Staroverov, T. A. Keith, R. Kobayashi, J. Normand, 
 K. Raghavachari, A. P. Rendell, J. C. Burant, S. S. Iyengar, 
 J. Tomasi, M. Cossi, J. M. Millam, M. Klene, C. Adamo, R. Cammi, 
 J. W. Ochterski, R. L. Martin, K. Morokuma, O. Farkas, 
 J. B. Foresman, and D. J. Fox, Gaussian, Inc., Wallingford CT, 2016.
 
 ******************************************
 Gaussian 16:  ES64L-G16RevB.01 20-Dec-2017
                24-Jun-2019 
 ******************************************
 %mem=80GB
 %nproc=40
 Will use up to   40 processors via shared memory.
 ----------------------------------------------------------------------
 # opt=(calcfc,ts,noeigentest,maxcyc=500) freq=noraman uB2PLYPD3/cc-pvt
 z
 ----------------------------------------------------------------------
 1/5=1,6=500,10=4,11=1,18=20,38=1/1,3;
 2/9=110,12=2,17=6,18=5,40=1/2;
 3/5=16,6=1,11=2,25=1,30=1,71=2,74=-60,116=2,140=1/1,2,3;
 4//1;
 5/5=2,38=5/2;
 8/6=3,8=1,10=1,19=11,30=-1/1;
 9/15=3,16=-3/6;
 11/6=1,8=1,15=11,17=12,24=-1,27=1,28=-2,29=300,32=6,42=3/1,2,10;
 10/6=2,21=1/2;
 8/6=4,8=1,10=1,19=11,30=-1/11,4;
 10/5=1,20=4/2;
 11/12=2,14=11,16=1,17=2,28=-2,42=3,76=2/2,10,12;
 6/7=2,8=2,9=2,10=2/1;
 7/10=1,12=2,25=1,44=2/1,2,3,16;
 1/5=1,6=500,10=4,11=1,18=20/3(2);
 2/9=110/2;
 99//99;
 2/9=110/2;
 3/5=16,6=1,11=2,25=1,30=1,71=1,74=-60,116=2/1,2,3;
 4/5=5,16=3,69=1/1;
 5/5=2,38=5/2;
 8/6=4,10=1/1;
 9/15=2,16=-3/6;
 10/5=1/2;
 7/12=2/1,2,3,16;
 1/5=1,6=500,11=1,18=20/3(-8);
 2/9=110/2;
 6/7=2,8=2,9=2,10=2/1;
 99/9=10/99;
 -------------------
 Title Card Required
 -------------------
 Symbolic Z-matrix:
 Charge =  0 Multiplicity = 2
 C                    -1.03029   0.43328  -1.0786 
 H                    -1.54444   0.07823  -1.96921 
 C                     2.02084  -0.64967   0.78365 
 H                     1.37191   0.16469   1.10318 
 H                     2.16183  -1.35289   1.60117 
 H                     2.97958  -0.26013   0.44676 
 O                     1.40258  -1.40418  -0.25518 
 O                     1.26965  -0.58144  -1.3709 
 H                     0.16792  -0.11137  -1.26171 
 C                    -1.47041  -0.19736   0.1128 
 C                    -1.77678  -0.75525   1.14286 
 H                    -2.06925  -1.24522   2.03619 
 C                    -0.79534   1.92854  -1.04038 
 H                    -1.74365   2.46855  -1.01809 
 H                    -0.22894   2.20924  -0.15521 
 H                    -0.24117   2.25067  -1.91983 
 
 Add virtual bond connecting atoms H9         and O8         Dist= 2.27D+00.
 Add virtual bond connecting atoms H9         and C1         Dist= 2.51D+00.

 GradGradGradGradGradGradGradGradGradGradGradGradGradGradGradGradGradGrad
 Berny optimization.
 Initialization pass.
                           ----------------------------
                           !    Initial Parameters    !
                           ! (Angstroms and Degrees)  !
 --------------------------                            --------------------------
 ! Name  Definition              Value          Derivative Info.                !
 --------------------------------------------------------------------------------
 ! R1    R(1,2)                  1.0879         calculate D2E/DX2 analytically  !
 ! R2    R(1,9)                  1.3289         calculate D2E/DX2 analytically  !
 ! R3    R(1,10)                 1.418          calculate D2E/DX2 analytically  !
 ! R4    R(1,13)                 1.5141         calculate D2E/DX2 analytically  !
 ! R5    R(3,4)                  1.0892         calculate D2E/DX2 analytically  !
 ! R6    R(3,5)                  1.0875         calculate D2E/DX2 analytically  !
 ! R7    R(3,6)                  1.0883         calculate D2E/DX2 analytically  !
 ! R8    R(3,7)                  1.425          calculate D2E/DX2 analytically  !
 ! R9    R(7,8)                  1.3926         calculate D2E/DX2 analytically  !
 ! R10   R(8,9)                  1.2028         calculate D2E/DX2 analytically  !
 ! R11   R(10,11)                1.2108         calculate D2E/DX2 analytically  !
 ! R12   R(11,12)                1.06           calculate D2E/DX2 analytically  !
 ! R13   R(13,14)                1.0915         calculate D2E/DX2 analytically  !
 ! R14   R(13,15)                1.0877         calculate D2E/DX2 analytically  !
 ! R15   R(13,16)                1.0883         calculate D2E/DX2 analytically  !
 ! A1    A(2,1,9)              100.3448         calculate D2E/DX2 analytically  !
 ! A2    A(2,1,10)             113.3263         calculate D2E/DX2 analytically  !
 ! A3    A(2,1,13)             114.601          calculate D2E/DX2 analytically  !
 ! A4    A(9,1,10)             102.3187         calculate D2E/DX2 analytically  !
 ! A5    A(9,1,13)             105.5646         calculate D2E/DX2 analytically  !
 ! A6    A(10,1,13)            117.7844         calculate D2E/DX2 analytically  !
 ! A7    A(4,3,5)              109.8871         calculate D2E/DX2 analytically  !
 ! A8    A(4,3,6)              110.3673         calculate D2E/DX2 analytically  !
 ! A9    A(4,3,7)              110.5627         calculate D2E/DX2 analytically  !
 ! A10   A(5,3,6)              110.4835         calculate D2E/DX2 analytically  !
 ! A11   A(5,3,7)              105.1817         calculate D2E/DX2 analytically  !
 ! A12   A(6,3,7)              110.2462         calculate D2E/DX2 analytically  !
 ! A13   A(3,7,8)              108.2192         calculate D2E/DX2 analytically  !
 ! A14   A(7,8,9)              104.2167         calculate D2E/DX2 analytically  !
 ! A15   A(1,13,14)            110.7492         calculate D2E/DX2 analytically  !
 ! A16   A(1,13,15)            110.867          calculate D2E/DX2 analytically  !
 ! A17   A(1,13,16)            110.5449         calculate D2E/DX2 analytically  !
 ! A18   A(14,13,15)           107.9458         calculate D2E/DX2 analytically  !
 ! A19   A(14,13,16)           108.2085         calculate D2E/DX2 analytically  !
 ! A20   A(15,13,16)           108.4269         calculate D2E/DX2 analytically  !
 ! A21   L(1,9,8,4,-1)         177.0212         calculate D2E/DX2 analytically  !
 ! A22   L(1,10,11,3,-1)       176.5633         calculate D2E/DX2 analytically  !
 ! A23   L(10,11,12,3,-1)      181.3536         calculate D2E/DX2 analytically  !
 ! A24   L(1,9,8,4,-2)         180.5138         calculate D2E/DX2 analytically  !
 ! A25   L(1,10,11,3,-2)       180.4469         calculate D2E/DX2 analytically  !
 ! A26   L(10,11,12,3,-2)      180.3452         calculate D2E/DX2 analytically  !
 ! D1    D(2,1,8,7)           -118.9473         calculate D2E/DX2 analytically  !
 ! D2    D(10,1,8,7)            -1.8426         calculate D2E/DX2 analytically  !
 ! D3    D(13,1,8,7)           121.332          calculate D2E/DX2 analytically  !
 ! D4    D(2,1,13,14)           63.4605         calculate D2E/DX2 analytically  !
 ! D5    D(2,1,13,15)         -176.7354         calculate D2E/DX2 analytically  !
 ! D6    D(2,1,13,16)          -56.4621         calculate D2E/DX2 analytically  !
 ! D7    D(9,1,13,14)          172.884          calculate D2E/DX2 analytically  !
 ! D8    D(9,1,13,15)          -67.3119         calculate D2E/DX2 analytically  !
 ! D9    D(9,1,13,16)           52.9615         calculate D2E/DX2 analytically  !
 ! D10   D(10,1,13,14)         -73.7194         calculate D2E/DX2 analytically  !
 ! D11   D(10,1,13,15)          46.0847         calculate D2E/DX2 analytically  !
 ! D12   D(10,1,13,16)         166.358          calculate D2E/DX2 analytically  !
 ! D13   D(4,3,7,8)             65.1769         calculate D2E/DX2 analytically  !
 ! D14   D(5,3,7,8)           -176.2521         calculate D2E/DX2 analytically  !
 ! D15   D(6,3,7,8)            -57.1375         calculate D2E/DX2 analytically  !
 ! D16   D(3,7,8,9)            -92.9582         calculate D2E/DX2 analytically  !
 --------------------------------------------------------------------------------
 Trust Radius=3.00D-01 FncErr=1.00D-07 GrdErr=1.00D-07 EigMax=2.50D+02 EigMin=1.00D-04
 Number of steps in this run=    100 maximum allowed number of steps=    100.
 Search for a saddle point of order  1.
 GradGradGradGradGradGradGradGradGradGradGradGradGradGradGradGradGradGrad

                          Input orientation:                          
 ---------------------------------------------------------------------
 Center     Atomic      Atomic             Coordinates (Angstroms)
 Number     Number       Type             X           Y           Z
 ---------------------------------------------------------------------
      1          6           0       -1.030288    0.433281   -1.078602
      2          1           0       -1.544441    0.078230   -1.969211
      3          6           0        2.020838   -0.649674    0.783654
      4          1           0        1.371911    0.164689    1.103180
      5          1           0        2.161829   -1.352890    1.601170
      6          1           0        2.979577   -0.260128    0.446760
      7          8           0        1.402576   -1.404179   -0.255182
      8          8           0        1.269647   -0.581438   -1.370897
      9          1           0        0.167916   -0.111369   -1.261705
     10          6           0       -1.470414   -0.197358    0.112802
     11          6           0       -1.776777   -0.755247    1.142859
     12          1           0       -2.069254   -1.245216    2.036188
     13          6           0       -0.795336    1.928542   -1.040379
     14          1           0       -1.743648    2.468551   -1.018094
     15          1           0       -0.228943    2.209238   -0.155212
     16          1           0       -0.241167    2.250668   -1.919828
 ---------------------------------------------------------------------
                    Distance matrix (angstroms):
                    1          2          3          4          5
     1  C    0.000000
     2  H    1.087933   0.000000
     3  C    3.734991   4.562820   0.000000
     4  H    3.256206   4.237000   1.089215   0.000000
     5  H    4.534445   5.341551   1.087531   1.781856   0.000000
     6  H    4.345867   5.139858   1.088313   1.787721   1.787597
     7  O    3.158023   3.717572   1.425028   2.075436   2.006275
     8  O    2.530769   2.951649   2.282769   2.586159   3.197547
     9  H    1.328858   1.862439   2.811865   2.668050   3.703123
    10  C    1.418048   2.101477   3.583779   3.031623   4.091905
    11  C    2.627686   3.230115   3.816026   3.280563   4.009968
    12  H    3.687644   4.250901   4.318838   3.834052   4.254750
    13  C    1.514090   2.201713   4.231445   3.521787   5.146883
    14  H    2.157514   2.580299   5.209700   4.417498   6.059431
    15  H    2.156114   3.092301   3.757175   2.885561   4.635669
    16  H    2.152503   2.533860   4.564807   4.011472   5.581886
                    6          7          8          9         10
     6  H    0.000000
     7  O    2.070871   0.000000
     8  O    2.516143   1.392621   0.000000
     9  H    3.293390   2.051544   1.202788   0.000000
    10  C    4.462946   3.137818   3.139556   2.140278   0.000000
    11  C    4.832453   3.533259   3.953464   3.158851   1.210833
    12  H    5.383992   4.162841   4.816336   4.143264   2.270689
    13  C    4.609970   4.068708   3.267016   2.266733   2.510977
    14  H    5.648039   5.047653   4.301959   3.220157   2.908720
    15  H    4.093255   3.965934   3.392865   2.601354   2.721174
    16  H    4.719961   4.339452   3.256487   2.485899   3.411080
                   11         12         13         14         15
    11  C    0.000000
    12  H    1.060023   0.000000
    13  C    3.596175   4.600095   0.000000
    14  H    3.881197   4.819411   1.091514   0.000000
    15  H    3.587332   4.485781   1.087709   1.762424   0.000000
    16  H    4.557815   5.586875   1.088255   1.765799   1.765145
                   16
    16  H    0.000000
 Stoichiometry    C5H9O2(2)
 Framework group  C1[X(C5H9O2)]
 Deg. of freedom    42
 Full point group                 C1      NOp   1
 Largest Abelian subgroup         C1      NOp   1
 Largest concise Abelian subgroup C1      NOp   1
                         Standard orientation:                         
 ---------------------------------------------------------------------
 Center     Atomic      Atomic             Coordinates (Angstroms)
 Number     Number       Type             X           Y           Z
 ---------------------------------------------------------------------
      1          6           0        1.344119   -0.424290   -0.451725
      2          1           0        1.747135   -0.675199   -1.430613
      3          6           0       -2.088125    0.214736    0.875492
      4          1           0       -1.181000    0.299967    1.472359
      5          1           0       -2.675464    1.125840    0.962927
      6          1           0       -2.671791   -0.646710    1.194347
      7          8           0       -1.768117    0.108445   -0.509067
      8          8           0       -1.084510   -1.088540   -0.707310
      9          1           0        0.075701   -0.784670   -0.616363
     10          6           0        1.235581    0.972152   -0.230298
     11          6           0        1.071801    2.154487   -0.026887
     12          1           0        0.949797    3.194518    0.137731
     13          6           0        1.865695   -1.280380    0.682972
     14          1           0        2.941184   -1.142665    0.808508
     15          1           0        1.382309   -1.016773    1.621034
     16          1           0        1.678714   -2.333782    0.483771
 ---------------------------------------------------------------------
 Rotational constants (GHZ):           2.9862547           1.7371944           1.3314566
 Standard basis: CC-pVTZ (5D, 7F)
 There are   380 symmetry adapted cartesian basis functions of A   symmetry.
 There are   336 symmetry adapted basis functions of A   symmetry.
   336 basis functions,   517 primitive gaussians,   380 cartesian basis functions
    28 alpha electrons       27 beta electrons
       nuclear repulsion energy       291.1923195161 Hartrees.
 NAtoms=   16 NActive=   16 NUniq=   16 SFac= 1.00D+00 NAtFMM=   60 NAOKFM=F Big=F
 Integral buffers will be    131072 words long.
 Raffenetti 2 integral format.
 Two-electron integral symmetry is turned on.
 Nuclear repulsion after empirical dispersion term =      291.1835848400 Hartrees.
 One-electron integrals computed using PRISM.
 NBasis=   336 RedAO= T EigKep=  4.58D-05  NBF=   336
 NBsUse=   336 1.00D-06 EigRej= -1.00D+00 NBFU=   336
 ExpMin= 1.03D-01 ExpMax= 1.53D+04 ExpMxC= 5.22D+02 IAcc=3 IRadAn=         5 AccDes= 0.00D+00
 Harris functional with IExCor=  419 and IRadAn=       5 diagonalized for initial guess.
 HarFok:  IExCor=  419 AccDes= 0.00D+00 IRadAn=         5 IDoV= 1 UseB2=F ITyADJ=14
 ICtDFT=  3500011 ScaDFX=  1.000000  1.000000  1.000000  1.000000
 FoFCou: FMM=F IPFlag=           0 FMFlag=      100000 FMFlg1=           0
         NFxFlg=           0 DoJE=T BraDBF=F KetDBF=T FulRan=T
         wScrn=  0.000000 ICntrl=       500 IOpCl=  0 I1Cent=   200000004 NGrid=           0
         NMat0=    1 NMatS0=      1 NMatT0=    0 NMatD0=    1 NMtDS0=    0 NMtDT0=    0
 Petite list used in FoFCou.
 Initial guess <Sx>= 0.0000 <Sy>= 0.0000 <Sz>= 0.5000 <S**2>= 0.7500 S= 0.5000
 Requested convergence on RMS density matrix=1.00D-08 within 128 cycles.
 Requested convergence on MAX density matrix=1.00D-06.
 Requested convergence on             energy=1.00D-06.
 No special actions if energy rises.
 Integral accuracy reduced to 1.0D-05 until final iterations.
 Initial convergence to 1.0D-05 achieved.  Increase integral accuracy.
 SCF Done:  E(UB2PLYPD3) =  -345.576471887     A.U. after   21 cycles
            NFock= 21  Conv=0.70D-08     -V/T= 2.0044
 <Sx>= 0.0000 <Sy>= 0.0000 <Sz>= 0.5000 <S**2>= 0.7900 S= 0.5198
 <L.S>=  0.00000000000    
 Annihilation of the first spin contaminant:
 S**2 before annihilation     0.7900,   after     0.7511
 DoSCS=T DFT=T ScalE2(SS,OS)=  0.270000  0.270000
 ExpMin= 1.03D-01 ExpMax= 1.53D+04 ExpMxC= 5.22D+02 IAcc=3 IRadAn=         5 AccDes= 0.00D+00
 HarFok:  IExCor=  205 AccDes= 0.00D+00 IRadAn=         5 IDoV=-2 UseB2=F ITyADJ=14
 ICtDFT= 12500011 ScaDFX=  1.000000  1.000000  1.000000  1.000000
 Range of M.O.s used for correlation:     8   336
 NBasis=   336 NAE=    28 NBE=    27 NFC=     7 NFV=     0
 NROrb=    329 NOA=    21 NOB=    20 NVA=   308 NVB=   309

 **** Warning!!: The largest alpha MO coefficient is  0.27682786D+02


 **** Warning!!: The largest beta MO coefficient is  0.30013607D+02

 DoSCS=T DFT=T ScalE2(SS,OS)=  0.270000  0.270000
 Disk-based method using ON**2 memory for 21 occupieds at a time.
 Permanent disk used for amplitudes=   106523802 words.
 Estimated scratch disk usage=  2020465440 words.
 Actual    scratch disk usage=  1953994016 words.
 JobTyp=2 Pass  1:  I=   8 to  28 NPSUse= 40 ParTrn=T ParDer=T DoDerP=T.
 (rs|ai) integrals will be sorted in core.
 Actual    scratch disk usage=  1953994016 words.
 JobTyp=3 Pass  1:  I=   8 to  27 NPSUse= 40 ParTrn=T ParDer=T DoDerP=T.
 (rs|ai) integrals will be sorted in core.
 Spin components of T(2) and E(2):
     alpha-alpha T2 =       0.7920790263D-01 E2=     -0.5374975180D-01
     alpha-beta  T2 =       0.4711520711D+00 E2=     -0.3275182480D+00
     beta-beta   T2 =       0.8910256636D-01 E2=     -0.5364608102D-01
 (S**2,0)=  0.79005D+00           (S**2,1)=  0.74714D+00
 Scaling Projection term by:   0.270000
 E(PUHF)=      -0.34558492667D+03        E(PMP2)=      -0.34601246504D+03
 E2(B2PLYPD3) =    -0.4349140809D+00 E(B2PLYPD3) =    -0.34601138596748D+03
 G2DrvN: will do    17 centers at a time, making    1 passes.
 Calling FoFCou, ICntrl=  3107 FMM=F I1Cent=   0 AccDes= 0.00D+00.
 End of G2Drv F.D. properties file   721 does not exist.
 End of G2Drv F.D. properties file   722 does not exist.
 End of G2Drv F.D. properties file   788 does not exist.
          IDoAtm=1111111111111111
          Differentiating once with respect to electric field.
                with respect to dipole field.
          Differentiating once with respect to nuclear coordinates.
 Keep R1 and R2 ints in memory in canonical form, NReq=3251642446.
          There are    51 degrees of freedom in the 1st order CPHF.  IDoFFX=6 NUNeed=    51.
     48 vectors produced by pass  0 Test12= 3.33D-14 1.96D-09 XBig12= 1.08D+02 6.24D+00.
 AX will form    48 AO Fock derivatives at one time.
     48 vectors produced by pass  1 Test12= 3.33D-14 1.96D-09 XBig12= 1.90D+01 5.94D-01.
     48 vectors produced by pass  2 Test12= 3.33D-14 1.96D-09 XBig12= 8.35D-01 1.75D-01.
     48 vectors produced by pass  3 Test12= 3.33D-14 1.96D-09 XBig12= 1.16D-02 1.43D-02.
     48 vectors produced by pass  4 Test12= 3.33D-14 1.96D-09 XBig12= 1.46D-04 1.74D-03.
     48 vectors produced by pass  5 Test12= 3.33D-14 1.96D-09 XBig12= 1.74D-06 1.15D-04.
     47 vectors produced by pass  6 Test12= 3.33D-14 1.96D-09 XBig12= 1.51D-08 1.14D-05.
     25 vectors produced by pass  7 Test12= 3.33D-14 1.96D-09 XBig12= 1.11D-10 8.92D-07.
      4 vectors produced by pass  8 Test12= 3.33D-14 1.96D-09 XBig12= 8.61D-13 8.93D-08.
      2 vectors produced by pass  9 Test12= 3.33D-14 1.96D-09 XBig12= 6.99D-15 7.16D-09.
 InvSVY:  IOpt=1 It=  1 EMax= 5.04D-15
 Solved reduced A of dimension   366 with    51 vectors.
 End of Minotr F.D. properties file   721 does not exist.
 End of Minotr F.D. properties file   722 does not exist.
 End of Minotr F.D. properties file   788 does not exist.
 MDV= 10737418240.
 DoSCS=T DFT=T ScalE2(SS,OS)=  0.270000  0.270000
 Form MO integral derivatives with frozen-active canonical formalism.
 Discarding MO integrals.
 Reordered first order wavefunction length =    428928697
 In DefCFB: NBatch=  1 ICI= 28 ICA=309 LFMax= 78
            Large arrays: LIAPS=  8665386240 LIARS=  1611002400 words.
 In DefCFB: NBatch=  1 ICI= 28 ICA=309 LFMax= 78
            Large arrays: LIAPS=  8665386240 LIARS=  1611002400 words.
 Semi-Direct transformation.
 ModeAB=           4 MOrb=            28 LenV=   10734083451
 LASXX=    503301435 LTotXX=   503301435 LenRXX=  1014543915
 LTotAB=   511242480 MaxLAS=   633609984 LenRXY=           0
 NonZer=  1517845350 LenScr=  2285697024 LnRSAI=   633609984
 LnScr1=   954142720 LExtra=           0 Total=   4887993643
 MaxDsk=          -1 SrtSym=           T ITran=            4
 JobTyp=1 Pass  1:  I=   1 to  28.
 (rs|ai) integrals will be sorted in core.
 ModeAB=           4 MOrb=            27 LenV=   10734083451
 LASXX=    486308502 LTotXX=   486308502 LenRXX=   901306008
 LTotAB=   414997506 MaxLAS=   610981056 LenRXY=           0
 NonZer=  1387614510 LenScr=  2089584640 LnRSAI=   610981056
 LnScr1=   920066048 LExtra=           0 Total=   4521937752
 MaxDsk=          -1 SrtSym=           T ITran=            4
 JobTyp=2 Pass  1:  I=   1 to  27.
 (rs|ai) integrals will be sorted in core.
 SymMOI:  orbitals are not symmetric.
 DoSCS=T DFT=T ScalE2(SS,OS)=  0.270000  0.270000
 Spin components of T(2) and E(2):
     alpha-alpha T2 =       0.7920790263D-01 E2=     -0.5374975180D-01
     alpha-beta  T2 =       0.4711520711D+00 E2=     -0.3275182480D+00
     beta-beta   T2 =       0.8910256636D-01 E2=     -0.5364608102D-01
 E2(B2PLYPD3) =    -0.4349140809D+00 E(B2PLYPD3) =    -0.34601138596748D+03
 (S**2,0)=  0.79005D+00           (S**2,1)=  0.74714D+00
 Scaling Projection term by:   0.270000
 E(PUHF)=      -0.34558492667D+03        E(PMP2)=      -0.34601246504D+03
          IDoAtm=1111111111111111
          Differentiating once with respect to electric field.
                with respect to dipole field.
          Differentiating once with respect to nuclear coordinates.
 Keep R1 and R2 ints in memory in canonical form, NReq=3251778068.
          There are     1 degrees of freedom in the 1st order CPHF.  IDoFFX=0 NUNeed=     1.
 LinEq1:  Iter=  0 NonCon=     1 RMS=9.82D-04 Max=5.63D-02 NDo=     1
 AX will form     1 AO Fock derivatives at one time.
 LinEq1:  Iter=  1 NonCon=     1 RMS=3.63D-04 Max=8.34D-03 NDo=     1
 LinEq1:  Iter=  2 NonCon=     1 RMS=2.55D-04 Max=9.41D-03 NDo=     1
 LinEq1:  Iter=  3 NonCon=     1 RMS=1.70D-04 Max=7.04D-03 NDo=     1
 LinEq1:  Iter=  4 NonCon=     1 RMS=9.36D-05 Max=3.48D-03 NDo=     1
 LinEq1:  Iter=  5 NonCon=     1 RMS=6.82D-05 Max=2.76D-03 NDo=     1
 LinEq1:  Iter=  6 NonCon=     1 RMS=3.12D-05 Max=9.83D-04 NDo=     1
 LinEq1:  Iter=  7 NonCon=     1 RMS=9.18D-06 Max=2.45D-04 NDo=     1
 LinEq1:  Iter=  8 NonCon=     1 RMS=5.22D-06 Max=1.57D-04 NDo=     1
 LinEq1:  Iter=  9 NonCon=     1 RMS=3.68D-06 Max=8.21D-05 NDo=     1
 LinEq1:  Iter= 10 NonCon=     1 RMS=2.01D-06 Max=3.77D-05 NDo=     1
 LinEq1:  Iter= 11 NonCon=     1 RMS=9.40D-07 Max=2.33D-05 NDo=     1
 LinEq1:  Iter= 12 NonCon=     1 RMS=3.40D-07 Max=6.74D-06 NDo=     1
 LinEq1:  Iter= 13 NonCon=     1 RMS=1.08D-07 Max=2.22D-06 NDo=     1
 LinEq1:  Iter= 14 NonCon=     1 RMS=3.17D-08 Max=8.35D-07 NDo=     1
 LinEq1:  Iter= 15 NonCon=     1 RMS=1.15D-08 Max=3.55D-07 NDo=     1
 LinEq1:  Iter= 16 NonCon=     1 RMS=5.31D-09 Max=1.93D-07 NDo=     1
 LinEq1:  Iter= 17 NonCon=     1 RMS=2.50D-09 Max=9.83D-08 NDo=     1
 LinEq1:  Iter= 18 NonCon=     1 RMS=1.04D-09 Max=4.71D-08 NDo=     1
 LinEq1:  Iter= 19 NonCon=     1 RMS=4.29D-10 Max=1.86D-08 NDo=     1
 LinEq1:  Iter= 20 NonCon=     1 RMS=1.43D-10 Max=5.66D-09 NDo=     1
 LinEq1:  Iter= 21 NonCon=     1 RMS=5.49D-11 Max=1.91D-09 NDo=     1
 LinEq1:  Iter= 22 NonCon=     0 RMS=2.59D-11 Max=9.79D-10 NDo=     1
 Linear equations converged to 1.000D-10 1.000D-09 after    22 iterations.
 End of Minotr F.D. properties file   721 does not exist.
 End of Minotr F.D. properties file   722 does not exist.
 End of Minotr F.D. properties file   788 does not exist.
 Symmetrizing basis deriv contribution to polar:
 IMax=3 JMax=2 DiffMx= 0.00D+00
 G2DrvN: will do    17 centers at a time, making    1 passes.
 Calling FoFCou, ICntrl=  3107 FMM=F I1Cent=   0 AccDes= 0.00D+00.
 End of G2Drv F.D. properties file   721 does not exist.
 End of G2Drv F.D. properties file   722 does not exist.
 End of G2Drv F.D. properties file   788 does not exist.
 DoSCS=T DFT=T ScalE2(SS,OS)=  0.270000  0.270000
 R2 and R3 integrals will be kept in memory, NReq=  5268037470.
 DD1Dir will call FoFMem   1 times, MxPair=      2242
 NAB=   756 NAA=   378 NBB=   351.
 Discarding MO integrals.

 **********************************************************************

            Population analysis using the SCF Density.

 **********************************************************************

 Orbital symmetries:
 Alpha Orbitals:
       Occupied  (A) (A) (A) (A) (A) (A) (A) (A) (A) (A) (A) (A)
                 (A) (A) (A) (A) (A) (A) (A) (A) (A) (A) (A) (A)
                 (A) (A) (A) (A)
       Virtual   (A) (A) (A) (A) (A) (A) (A) (A) (A) (A) (A) (A)
                 (A) (A) (A) (A) (A) (A) (A) (A) (A) (A) (A) (A)
                 (A) (A) (A) (A) (A) (A) (A) (A) (A) (A) (A) (A)
                 (A) (A) (A) (A) (A) (A) (A) (A) (A) (A) (A) (A)
                 (A) (A) (A) (A) (A) (A) (A) (A) (A) (A) (A) (A)
                 (A) (A) (A) (A) (A) (A) (A) (A) (A) (A) (A) (A)
                 (A) (A) (A) (A) (A) (A) (A) (A) (A) (A) (A) (A)
                 (A) (A) (A) (A) (A) (A) (A) (A) (A) (A) (A) (A)
                 (A) (A) (A) (A) (A) (A) (A) (A) (A) (A) (A) (A)
                 (A) (A) (A) (A) (A) (A) (A) (A) (A) (A) (A) (A)
                 (A) (A) (A) (A) (A) (A) (A) (A) (A) (A) (A) (A)
                 (A) (A) (A) (A) (A) (A) (A) (A) (A) (A) (A) (A)
                 (A) (A) (A) (A) (A) (A) (A) (A) (A) (A) (A) (A)
                 (A) (A) (A) (A) (A) (A) (A) (A) (A) (A) (A) (A)
                 (A) (A) (A) (A) (A) (A) (A) (A) (A) (A) (A) (A)
                 (A) (A) (A) (A) (A) (A) (A) (A) (A) (A) (A) (A)
                 (A) (A) (A) (A) (A) (A) (A) (A) (A) (A) (A) (A)
                 (A) (A) (A) (A) (A) (A) (A) (A) (A) (A) (A) (A)
                 (A) (A) (A) (A) (A) (A) (A) (A) (A) (A) (A) (A)
                 (A) (A) (A) (A) (A) (A) (A) (A) (A) (A) (A) (A)
                 (A) (A) (A) (A) (A) (A) (A) (A) (A) (A) (A) (A)
                 (A) (A) (A) (A) (A) (A) (A) (A) (A) (A) (A) (A)
                 (A) (A) (A) (A) (A) (A) (A) (A) (A) (A) (A) (A)
                 (A) (A) (A) (A) (A) (A) (A) (A) (A) (A) (A) (A)
                 (A) (A) (A) (A) (A) (A) (A) (A) (A) (A) (A) (A)
                 (A) (A) (A) (A) (A) (A) (A) (A)
 Beta  Orbitals:
       Occupied  (A) (A) (A) (A) (A) (A) (A) (A) (A) (A) (A) (A)
                 (A) (A) (A) (A) (A) (A) (A) (A) (A) (A) (A) (A)
                 (A) (A) (A)
       Virtual   (A) (A) (A) (A) (A) (A) (A) (A) (A) (A) (A) (A)
                 (A) (A) (A) (A) (A) (A) (A) (A) (A) (A) (A) (A)
                 (A) (A) (A) (A) (A) (A) (A) (A) (A) (A) (A) (A)
                 (A) (A) (A) (A) (A) (A) (A) (A) (A) (A) (A) (A)
                 (A) (A) (A) (A) (A) (A) (A) (A) (A) (A) (A) (A)
                 (A) (A) (A) (A) (A) (A) (A) (A) (A) (A) (A) (A)
                 (A) (A) (A) (A) (A) (A) (A) (A) (A) (A) (A) (A)
                 (A) (A) (A) (A) (A) (A) (A) (A) (A) (A) (A) (A)
                 (A) (A) (A) (A) (A) (A) (A) (A) (A) (A) (A) (A)
                 (A) (A) (A) (A) (A) (A) (A) (A) (A) (A) (A) (A)
                 (A) (A) (A) (A) (A) (A) (A) (A) (A) (A) (A) (A)
                 (A) (A) (A) (A) (A) (A) (A) (A) (A) (A) (A) (A)
                 (A) (A) (A) (A) (A) (A) (A) (A) (A) (A) (A) (A)
                 (A) (A) (A) (A) (A) (A) (A) (A) (A) (A) (A) (A)
                 (A) (A) (A) (A) (A) (A) (A) (A) (A) (A) (A) (A)
                 (A) (A) (A) (A) (A) (A) (A) (A) (A) (A) (A) (A)
                 (A) (A) (A) (A) (A) (A) (A) (A) (A) (A) (A) (A)
                 (A) (A) (A) (A) (A) (A) (A) (A) (A) (A) (A) (A)
                 (A) (A) (A) (A) (A) (A) (A) (A) (A) (A) (A) (A)
                 (A) (A) (A) (A) (A) (A) (A) (A) (A) (A) (A) (A)
                 (A) (A) (A) (A) (A) (A) (A) (A) (A) (A) (A) (A)
                 (A) (A) (A) (A) (A) (A) (A) (A) (A) (A) (A) (A)
                 (A) (A) (A) (A) (A) (A) (A) (A) (A) (A) (A) (A)
                 (A) (A) (A) (A) (A) (A) (A) (A) (A) (A) (A) (A)
                 (A) (A) (A) (A) (A) (A) (A) (A) (A) (A) (A) (A)
                 (A) (A) (A) (A) (A) (A) (A) (A) (A)
 The electronic state is 2-A.
 Alpha  occ. eigenvalues --  -19.79134 -19.78840 -10.66128 -10.65928 -10.63085
 Alpha  occ. eigenvalues --  -10.62638 -10.62432  -1.28274  -1.01818  -0.93711
 Alpha  occ. eigenvalues --   -0.85809  -0.77768  -0.75837  -0.63042  -0.61050
 Alpha  occ. eigenvalues --   -0.56803  -0.55645  -0.54770  -0.52010  -0.49345
 Alpha  occ. eigenvalues --   -0.48062  -0.45246  -0.44266  -0.39845  -0.36629
 Alpha  occ. eigenvalues --   -0.35554  -0.33458  -0.28565
 Alpha virt. eigenvalues --    0.06880   0.08944   0.09730   0.10533   0.11275
 Alpha virt. eigenvalues --    0.12192   0.13421   0.15349   0.15361   0.15759
 Alpha virt. eigenvalues --    0.19296   0.20423   0.23297   0.24666   0.25869
 Alpha virt. eigenvalues --    0.29052   0.30562   0.31081   0.32740   0.33810
 Alpha virt. eigenvalues --    0.35566   0.36077   0.40453   0.41526   0.44424
 Alpha virt. eigenvalues --    0.45056   0.46544   0.47794   0.48852   0.49661
 Alpha virt. eigenvalues --    0.51181   0.52297   0.52829   0.53468   0.54248
 Alpha virt. eigenvalues --    0.54750   0.55457   0.56390   0.58058   0.60641
 Alpha virt. eigenvalues --    0.61634   0.64428   0.64951   0.67489   0.68236
 Alpha virt. eigenvalues --    0.69723   0.71967   0.74475   0.75080   0.77241
 Alpha virt. eigenvalues --    0.80795   0.84699   0.85580   0.85968   0.88997
 Alpha virt. eigenvalues --    0.91586   0.92035   0.94247   0.95697   0.96067
 Alpha virt. eigenvalues --    0.96689   0.98715   0.99572   1.01950   1.03174
 Alpha virt. eigenvalues --    1.03524   1.09301   1.09752   1.11085   1.11782
 Alpha virt. eigenvalues --    1.13778   1.14969   1.16888   1.18585   1.19298
 Alpha virt. eigenvalues --    1.20168   1.22900   1.24657   1.26540   1.28283
 Alpha virt. eigenvalues --    1.29974   1.30781   1.35087   1.35695   1.37600
 Alpha virt. eigenvalues --    1.38517   1.39664   1.40050   1.40947   1.42543
 Alpha virt. eigenvalues --    1.43323   1.47760   1.48877   1.51094   1.52594
 Alpha virt. eigenvalues --    1.55050   1.58240   1.61787   1.63494   1.65315
 Alpha virt. eigenvalues --    1.66704   1.69543   1.74178   1.78311   1.79161
 Alpha virt. eigenvalues --    1.88527   1.93405   2.00908   2.04221   2.12456
 Alpha virt. eigenvalues --    2.14937   2.18773   2.21861   2.24280   2.27602
 Alpha virt. eigenvalues --    2.29677   2.35023   2.36882   2.38862   2.42094
 Alpha virt. eigenvalues --    2.43983   2.46106   2.47111   2.51212   2.54079
 Alpha virt. eigenvalues --    2.55668   2.56900   2.57800   2.58977   2.62455
 Alpha virt. eigenvalues --    2.64554   2.65688   2.69093   2.70996   2.74011
 Alpha virt. eigenvalues --    2.76719   2.78136   2.81492   2.84896   2.87427
 Alpha virt. eigenvalues --    2.88037   2.89623   2.92152   2.92939   2.93202
 Alpha virt. eigenvalues --    2.94691   2.95904   2.96929   2.98875   3.00412
 Alpha virt. eigenvalues --    3.02359   3.03679   3.04196   3.05883   3.06171
 Alpha virt. eigenvalues --    3.07706   3.09520   3.10048   3.10620   3.12356
 Alpha virt. eigenvalues --    3.13605   3.14210   3.15148   3.16160   3.18147
 Alpha virt. eigenvalues --    3.18950   3.21911   3.22273   3.24106   3.26570
 Alpha virt. eigenvalues --    3.28420   3.29460   3.32452   3.35002   3.36325
 Alpha virt. eigenvalues --    3.40899   3.41318   3.42693   3.43931   3.46309
 Alpha virt. eigenvalues --    3.48955   3.50014   3.51388   3.53608   3.55521
 Alpha virt. eigenvalues --    3.56964   3.57916   3.60033   3.61731   3.64057
 Alpha virt. eigenvalues --    3.65667   3.66241   3.69941   3.73723   3.76153
 Alpha virt. eigenvalues --    3.80495   3.83463   3.85548   3.87622   3.88145
 Alpha virt. eigenvalues --    3.90523   3.91778   3.93132   3.93727   3.96878
 Alpha virt. eigenvalues --    3.97208   3.98850   4.01823   4.01923   4.04135
 Alpha virt. eigenvalues --    4.05996   4.08530   4.09991   4.11476   4.13742
 Alpha virt. eigenvalues --    4.15662   4.18330   4.19265   4.19598   4.23592
 Alpha virt. eigenvalues --    4.24226   4.25304   4.26423   4.28359   4.31917
 Alpha virt. eigenvalues --    4.34277   4.36220   4.37601   4.39351   4.40086
 Alpha virt. eigenvalues --    4.45427   4.45603   4.48968   4.51666   4.55840
 Alpha virt. eigenvalues --    4.61037   4.63204   4.66749   4.69318   4.74186
 Alpha virt. eigenvalues --    4.77912   4.81624   4.83821   4.88592   4.94729
 Alpha virt. eigenvalues --    4.98547   4.99876   5.01090   5.02606   5.04756
 Alpha virt. eigenvalues --    5.06451   5.10302   5.11547   5.20678   5.23565
 Alpha virt. eigenvalues --    5.29416   5.30604   5.30851   5.33276   5.34688
 Alpha virt. eigenvalues --    5.35317   5.36247   5.37985   5.40430   5.41115
 Alpha virt. eigenvalues --    5.47178   5.48465   5.49723   5.51813   5.58061
 Alpha virt. eigenvalues --    5.62286   5.67973   5.76551   5.82134   5.84444
 Alpha virt. eigenvalues --    5.94080   5.97265   5.98597   6.01027   6.02047
 Alpha virt. eigenvalues --    6.05345   6.05392   6.09262   6.16080   6.23456
 Alpha virt. eigenvalues --    6.27233   6.33765   6.39985   6.40942   6.65496
 Alpha virt. eigenvalues --    6.73635   6.75023   6.81908   6.96344   7.05415
 Alpha virt. eigenvalues --    7.06664   7.16729   7.43752   7.46727   7.58569
 Alpha virt. eigenvalues --    7.73400   8.61424   9.85937  10.69903  13.05485
 Alpha virt. eigenvalues --   13.44184  13.76733  16.83552
  Beta  occ. eigenvalues --  -19.78843 -19.77159 -10.65944 -10.65082 -10.63448
  Beta  occ. eigenvalues --  -10.62488 -10.62100  -1.26157  -0.98766  -0.92368
  Beta  occ. eigenvalues --   -0.84904  -0.77272  -0.74455  -0.61889  -0.58139
  Beta  occ. eigenvalues --   -0.56083  -0.54428  -0.54356  -0.50384  -0.48590
  Beta  occ. eigenvalues --   -0.45667  -0.44959  -0.43413  -0.36383  -0.35318
  Beta  occ. eigenvalues --   -0.33213  -0.31371
  Beta virt. eigenvalues --   -0.06337   0.07057   0.08936   0.10371   0.11264
  Beta virt. eigenvalues --    0.11386   0.12305   0.13876   0.15479   0.15676
  Beta virt. eigenvalues --    0.16006   0.19935   0.20589   0.23780   0.24970
  Beta virt. eigenvalues --    0.26090   0.29245   0.31097   0.31748   0.33537
  Beta virt. eigenvalues --    0.34291   0.36283   0.36363   0.40714   0.42091
  Beta virt. eigenvalues --    0.44803   0.45625   0.47262   0.48229   0.49353
  Beta virt. eigenvalues --    0.50100   0.51227   0.52287   0.52942   0.53631
  Beta virt. eigenvalues --    0.54791   0.55477   0.55618   0.56956   0.58951
  Beta virt. eigenvalues --    0.61133   0.61839   0.64778   0.65231   0.67974
  Beta virt. eigenvalues --    0.68522   0.70119   0.72441   0.74891   0.75503
  Beta virt. eigenvalues --    0.77842   0.81210   0.84813   0.86337   0.86587
  Beta virt. eigenvalues --    0.89102   0.91774   0.92228   0.94585   0.95913
  Beta virt. eigenvalues --    0.96285   0.97006   0.99037   1.00102   1.02154
  Beta virt. eigenvalues --    1.03223   1.03677   1.09423   1.10075   1.11330
  Beta virt. eigenvalues --    1.11965   1.14344   1.15157   1.17040   1.18785
  Beta virt. eigenvalues --    1.19720   1.20380   1.23398   1.24821   1.26922
  Beta virt. eigenvalues --    1.28681   1.30220   1.31072   1.35165   1.36079
  Beta virt. eigenvalues --    1.37872   1.38914   1.39933   1.40139   1.41167
  Beta virt. eigenvalues --    1.42652   1.43613   1.48179   1.49119   1.51650
  Beta virt. eigenvalues --    1.53096   1.55494   1.58578   1.62129   1.63713
  Beta virt. eigenvalues --    1.65797   1.67183   1.70104   1.75037   1.79036
  Beta virt. eigenvalues --    1.79708   1.90462   1.94270   2.01567   2.05117
  Beta virt. eigenvalues --    2.12834   2.15404   2.20126   2.22127   2.24856
  Beta virt. eigenvalues --    2.28710   2.30618   2.35205   2.37027   2.39120
  Beta virt. eigenvalues --    2.42667   2.44440   2.46415   2.47504   2.51370
  Beta virt. eigenvalues --    2.54289   2.56319   2.57218   2.58153   2.59685
  Beta virt. eigenvalues --    2.62746   2.64925   2.66168   2.69428   2.71597
  Beta virt. eigenvalues --    2.74360   2.77351   2.78820   2.81940   2.85095
  Beta virt. eigenvalues --    2.87482   2.88417   2.89907   2.92241   2.93288
  Beta virt. eigenvalues --    2.93637   2.94917   2.96377   2.97657   2.99141
  Beta virt. eigenvalues --    3.00740   3.02577   3.04145   3.04400   3.06193
  Beta virt. eigenvalues --    3.06858   3.08242   3.09543   3.10610   3.10985
  Beta virt. eigenvalues --    3.12600   3.13708   3.14500   3.15224   3.16364
  Beta virt. eigenvalues --    3.18386   3.19105   3.21936   3.22551   3.24241
  Beta virt. eigenvalues --    3.26791   3.28481   3.29928   3.33569   3.35452
  Beta virt. eigenvalues --    3.36677   3.41252   3.41885   3.43213   3.44155
  Beta virt. eigenvalues --    3.46799   3.49387   3.50342   3.51501   3.53746
  Beta virt. eigenvalues --    3.55786   3.57285   3.58121   3.60193   3.61896
  Beta virt. eigenvalues --    3.64153   3.66118   3.66748   3.70505   3.73809
  Beta virt. eigenvalues --    3.76341   3.81369   3.83677   3.85911   3.87820
  Beta virt. eigenvalues --    3.88338   3.90753   3.91969   3.93233   3.93986
  Beta virt. eigenvalues --    3.96838   3.97365   3.99297   4.01934   4.02201
  Beta virt. eigenvalues --    4.04439   4.06157   4.08413   4.10137   4.11650
  Beta virt. eigenvalues --    4.13871   4.15855   4.18487   4.19334   4.19607
  Beta virt. eigenvalues --    4.23629   4.24440   4.25574   4.26738   4.28651
  Beta virt. eigenvalues --    4.31919   4.34561   4.36259   4.38010   4.39699
  Beta virt. eigenvalues --    4.40284   4.45856   4.46157   4.49080   4.52165
  Beta virt. eigenvalues --    4.56223   4.61570   4.63927   4.67438   4.69970
  Beta virt. eigenvalues --    4.74693   4.78593   4.81807   4.84100   4.89181
  Beta virt. eigenvalues --    4.94917   4.98826   5.00075   5.01242   5.02862
  Beta virt. eigenvalues --    5.05090   5.06589   5.10944   5.12197   5.21427
  Beta virt. eigenvalues --    5.24269   5.29738   5.30873   5.31272   5.33468
  Beta virt. eigenvalues --    5.34912   5.35639   5.36817   5.38614   5.40969
  Beta virt. eigenvalues --    5.41245   5.47493   5.48668   5.49860   5.52084
  Beta virt. eigenvalues --    5.58504   5.62683   5.68796   5.77054   5.82351
  Beta virt. eigenvalues --    5.85696   5.94209   5.97848   5.99116   6.01587
  Beta virt. eigenvalues --    6.02323   6.05930   6.06158   6.09982   6.16283
  Beta virt. eigenvalues --    6.24918   6.28394   6.34046   6.40465   6.42283
  Beta virt. eigenvalues --    6.66438   6.76817   6.77211   6.83309   6.98353
  Beta virt. eigenvalues --    7.06830   7.08361   7.18971   7.43944   7.48840
  Beta virt. eigenvalues --    7.60256   7.74289   8.61561   9.87051  10.70921
  Beta virt. eigenvalues --   13.06229  13.44183  13.76812  16.83746
          Condensed to atoms (all electrons):
               1          2          3          4          5          6
     1  C    5.070883   0.421361  -0.001585   0.000090   0.000242  -0.000811
     2  H    0.421361   0.529959   0.000033  -0.000007   0.000011   0.000012
     3  C   -0.001585   0.000033   4.606578   0.392810   0.399214   0.413991
     4  H    0.000090  -0.000007   0.392810   0.675728  -0.035650  -0.057471
     5  H    0.000242   0.000011   0.399214  -0.035650   0.584996  -0.027592
     6  H   -0.000811   0.000012   0.413991  -0.057471  -0.027592   0.608336
     7  O    0.002919   0.000407   0.296018  -0.048274  -0.025444  -0.037409
     8  O   -0.079991   0.000228  -0.039655  -0.003784   0.006591   0.004376
     9  H    0.219765  -0.010695   0.002901   0.003435  -0.001040   0.000913
    10  C    0.405836  -0.045299  -0.001670   0.001048   0.000150   0.000520
    11  C   -0.094015  -0.003885  -0.002655  -0.001993   0.000462   0.000277
    12  H    0.000822  -0.000092  -0.000046  -0.000028   0.000042  -0.000002
    13  C    0.345984  -0.030982  -0.000375  -0.001170   0.000074   0.000066
    14  H   -0.035233  -0.004280  -0.000021   0.000149   0.000004  -0.000008
    15  H   -0.033364   0.005791  -0.000213  -0.000532   0.000033   0.000139
    16  H   -0.040302  -0.002683   0.000076   0.000068  -0.000005   0.000025
               7          8          9         10         11         12
     1  C    0.002919  -0.079991   0.219765   0.405836  -0.094015   0.000822
     2  H    0.000407   0.000228  -0.010695  -0.045299  -0.003885  -0.000092
     3  C    0.296018  -0.039655   0.002901  -0.001670  -0.002655  -0.000046
     4  H   -0.048274  -0.003784   0.003435   0.001048  -0.001993  -0.000028
     5  H   -0.025444   0.006591  -0.001040   0.000150   0.000462   0.000042
     6  H   -0.037409   0.004376   0.000913   0.000520   0.000277  -0.000002
     7  O    7.927418   0.075016  -0.025375  -0.000613   0.005027   0.000070
     8  O    0.075016   8.073088   0.182089  -0.005524   0.001371   0.000030
     9  H   -0.025375   0.182089   0.432044   0.002390  -0.001029  -0.000019
    10  C   -0.000613  -0.005524   0.002390   4.971423   0.796918  -0.055808
    11  C    0.005027   0.001371  -0.001029   0.796918   5.073774   0.412553
    12  H    0.000070   0.000030  -0.000019  -0.055808   0.412553   0.473011
    13  C    0.000253   0.006238  -0.013842  -0.065229  -0.001340  -0.000067
    14  H   -0.000035   0.000065   0.002678   0.000012   0.002270   0.000024
    15  H    0.000231   0.000311  -0.003176  -0.002015   0.002007   0.000004
    16  H   -0.000058   0.001238  -0.002304   0.008838   0.000070   0.000004
              13         14         15         16
     1  C    0.345984  -0.035233  -0.033364  -0.040302
     2  H   -0.030982  -0.004280   0.005791  -0.002683
     3  C   -0.000375  -0.000021  -0.000213   0.000076
     4  H   -0.001170   0.000149  -0.000532   0.000068
     5  H    0.000074   0.000004   0.000033  -0.000005
     6  H    0.000066  -0.000008   0.000139   0.000025
     7  O    0.000253  -0.000035   0.000231  -0.000058
     8  O    0.006238   0.000065   0.000311   0.001238
     9  H   -0.013842   0.002678  -0.003176  -0.002304
    10  C   -0.065229   0.000012  -0.002015   0.008838
    11  C   -0.001340   0.002270   0.002007   0.000070
    12  H   -0.000067   0.000024   0.000004   0.000004
    13  C    4.822874   0.398540   0.406320   0.410545
    14  H    0.398540   0.587429  -0.031160  -0.031143
    15  H    0.406320  -0.031160   0.573381  -0.025694
    16  H    0.410545  -0.031143  -0.025694   0.570466
          Atomic-Atomic Spin Densities.
               1          2          3          4          5          6
     1  C    0.565467   0.002705   0.001001  -0.004652   0.000036   0.000930
     2  H    0.002705  -0.022813  -0.000049   0.000166  -0.000002  -0.000027
     3  C    0.001001  -0.000049  -0.007987   0.001959   0.000699  -0.000667
     4  H   -0.004652   0.000166   0.001959   0.004548  -0.000486  -0.001105
     5  H    0.000036  -0.000002   0.000699  -0.000486  -0.001786   0.000497
     6  H    0.000930  -0.000027  -0.000667  -0.001105   0.000497   0.001821
     7  O    0.010916  -0.000448   0.000919  -0.001980   0.000280  -0.000308
     8  O   -0.071093   0.002701  -0.002555   0.004371  -0.000180  -0.000065
     9  H    0.054509   0.002412   0.001214  -0.003586   0.000105   0.001277
    10  C   -0.013433   0.002077  -0.001271   0.002180  -0.000086  -0.000273
    11  C   -0.012184  -0.000602  -0.000788   0.001682  -0.000032  -0.000136
    12  H   -0.000090   0.000013   0.000024  -0.000024  -0.000001   0.000003
    13  C   -0.025837   0.002775  -0.000172   0.000955  -0.000009  -0.000157
    14  H   -0.009853  -0.001357   0.000028  -0.000196  -0.000000   0.000014
    15  H   -0.002789   0.000059  -0.000120   0.000758  -0.000003  -0.000099
    16  H   -0.003419   0.000492  -0.000013   0.000110  -0.000000  -0.000026
               7          8          9         10         11         12
     1  C    0.010916  -0.071093   0.054509  -0.013433  -0.012184  -0.000090
     2  H   -0.000448   0.002701   0.002412   0.002077  -0.000602   0.000013
     3  C    0.000919  -0.002555   0.001214  -0.001271  -0.000788   0.000024
     4  H   -0.001980   0.004371  -0.003586   0.002180   0.001682  -0.000024
     5  H    0.000280  -0.000180   0.000105  -0.000086  -0.000032  -0.000001
     6  H   -0.000308  -0.000065   0.001277  -0.000273  -0.000136   0.000003
     7  O    0.095481  -0.051960   0.009919  -0.002846  -0.002851   0.000022
     8  O   -0.051960   0.591298  -0.045307   0.006637   0.000731  -0.000018
     9  H    0.009919  -0.045307  -0.099654  -0.000080  -0.001195  -0.000021
    10  C   -0.002846   0.006637  -0.000080  -0.214500   0.005494  -0.001416
    11  C   -0.002851   0.000731  -0.001195   0.005494   0.327836   0.003110
    12  H    0.000022  -0.000018  -0.000021  -0.001416   0.003110  -0.012080
    13  C   -0.000646   0.005489  -0.002402   0.005927   0.000301   0.000004
    14  H    0.000049  -0.000488   0.000329   0.000482   0.001002  -0.000000
    15  H   -0.000161   0.000712  -0.000140   0.000144  -0.000228   0.000001
    16  H   -0.000046   0.000728  -0.000491  -0.000239  -0.000068  -0.000001
              13         14         15         16
     1  C   -0.025837  -0.009853  -0.002789  -0.003419
     2  H    0.002775  -0.001357   0.000059   0.000492
     3  C   -0.000172   0.000028  -0.000120  -0.000013
     4  H    0.000955  -0.000196   0.000758   0.000110
     5  H   -0.000009  -0.000000  -0.000003  -0.000000
     6  H   -0.000157   0.000014  -0.000099  -0.000026
     7  O   -0.000646   0.000049  -0.000161  -0.000046
     8  O    0.005489  -0.000488   0.000712   0.000728
     9  H   -0.002402   0.000329  -0.000140  -0.000491
    10  C    0.005927   0.000482   0.000144  -0.000239
    11  C    0.000301   0.001002  -0.000228  -0.000068
    12  H    0.000004  -0.000000   0.000001  -0.000001
    13  C   -0.022343   0.004586   0.002577   0.004345
    14  H    0.004586   0.036480  -0.002920  -0.002563
    15  H    0.002577  -0.002920   0.004765   0.000510
    16  H    0.004345  -0.002563   0.000510   0.004047
 Mulliken charges and spin densities:
               1          2
     1  C   -0.182601   0.492214
     2  H    0.140120  -0.011896
     3  C   -0.065399  -0.007780
     4  H    0.075578   0.004700
     5  H    0.097912  -0.000967
     6  H    0.094636   0.001680
     7  O   -0.170150   0.056340
     8  O   -0.221688   0.441001
     9  H    0.211265  -0.083111
    10  C   -0.010974  -0.211203
    11  C   -0.189815   0.322073
    12  H    0.169501  -0.010474
    13  C   -0.277889  -0.024607
    14  H    0.110709   0.025593
    15  H    0.107937   0.003069
    16  H    0.110857   0.003368
 Sum of Mulliken charges =  -0.00000   1.00000
 Mulliken charges and spin densities with hydrogens summed into heavy atoms:
               1          2
     1  C   -0.042481   0.480318
     3  C    0.202728  -0.002366
     7  O   -0.170150   0.056340
     8  O   -0.010423   0.357890
    10  C   -0.010974  -0.211203
    11  C   -0.020314   0.311600
    13  C    0.051614   0.007422
 APT charges:
               1
     1  C    0.569339
     2  H   -0.053162
     3  C    0.415026
     4  H   -0.027580
     5  H   -0.002698
     6  H   -0.030211
     7  O   -0.383621
     8  O    0.172794
     9  H   -0.413657
    10  C   -0.179926
    11  C   -0.242499
    12  H    0.216630
    13  C   -0.029660
    14  H   -0.012871
    15  H    0.003202
    16  H   -0.001105
 Sum of APT charges =  -0.00000
 APT charges with hydrogens summed into heavy atoms:
               1
     1  C    0.516177
     3  C    0.354537
     7  O   -0.383621
     8  O   -0.240863
    10  C   -0.179926
    11  C   -0.025869
    13  C   -0.040434
 Electronic spatial extent (au):  <R**2>=            957.4456
 Charge=             -0.0000 electrons
 Dipole moment (field-independent basis, Debye):
    X=              1.2259    Y=              0.5550    Z=              1.9391  Tot=              2.3603
 Quadrupole moment (field-independent basis, Debye-Ang):
   XX=            -42.1524   YY=            -39.2154   ZZ=            -43.9676
   XY=             -3.5105   XZ=             -4.5012   YZ=              0.6663
 Traceless Quadrupole moment (field-independent basis, Debye-Ang):
   XX=             -0.3739   YY=              2.5631   ZZ=             -2.1891
   XY=             -3.5105   XZ=             -4.5012   YZ=              0.6663
 Octapole moment (field-independent basis, Debye-Ang**2):
  XXX=            -19.4677  YYY=             16.1430  ZZZ=             -3.1523  XYY=             -0.3792
  XXY=             -5.1565  XXZ=              5.8586  XZZ=             -3.6963  YZZ=             -4.1895
  YYZ=              2.2324  XYZ=              1.4026
 Hexadecapole moment (field-independent basis, Debye-Ang**3):
 XXXX=           -692.5149 YYYY=           -317.1597 ZZZZ=           -160.6297 XXXY=            -18.3862
 XXXZ=            -10.3712 YYYX=              9.4348 YYYZ=             11.1060 ZZZX=             -0.1236
 ZZZY=              4.2998 XXYY=           -186.1948 XXZZ=           -145.0037 YYZZ=           -101.1903
 XXYZ=              3.0808 YYXZ=              0.6237 ZZXY=             -4.6782
 N-N= 2.911835848400D+02 E-N=-1.390923785036D+03  KE= 3.440661738098D+02
  Exact polarizability: 104.397   4.110  89.417  -1.931   3.493  55.793
 Approx polarizability:  91.447   0.532 107.407   0.725   8.724  65.174
                          Isotropic Fermi Contact Couplings
        Atom                 a.u.       MegaHertz       Gauss      10(-4) cm-1
     1  C(13)              0.07903      88.84690      31.70278      29.63614
     2  H(1)              -0.00279     -12.47292      -4.45065      -4.16052
     3  C(13)             -0.00503      -5.65204      -2.01679      -1.88532
     4  H(1)               0.00248      11.08535       3.95553       3.69768
     5  H(1)              -0.00012      -0.52036      -0.18568      -0.17357
     6  H(1)               0.00090       4.01963       1.43430       1.34080
     7  O(17)              0.02200     -13.33903      -4.75970      -4.44942
     8  O(17)              0.02845     -17.24485      -6.15339      -5.75226
     9  H(1)              -0.02164     -96.72442     -34.51368     -32.26379
    10  C(13)             -0.01278     -14.37149      -5.12810      -4.79381
    11  C(13)              0.00060       0.67502       0.24086       0.22516
    12  H(1)              -0.00277     -12.40387      -4.42601      -4.13748
    13  C(13)             -0.00884      -9.94205      -3.54757      -3.31631
    14  H(1)               0.01269      56.74266      20.24719      18.92731
    15  H(1)               0.00149       6.65395       2.37430       2.21952
    16  H(1)               0.00271      12.12307       4.32581       4.04382
 --------------------------------------------------------
       Center         ----  Spin Dipole Couplings  ----
                      3XX-RR        3YY-RR        3ZZ-RR
 --------------------------------------------------------
     1   Atom        0.491964     -0.219941     -0.272024
     2   Atom        0.003974     -0.026539      0.022565
     3   Atom       -0.001918     -0.003811      0.005730
     4   Atom       -0.003239     -0.002875      0.006114
     5   Atom        0.000271     -0.000610      0.000338
     6   Atom        0.000558     -0.004507      0.003949
     7   Atom        0.496028     -0.224219     -0.271809
     8   Atom        1.196729     -0.338815     -0.857914
     9   Atom        0.186111     -0.084350     -0.101761
    10   Atom       -0.048500      0.044410      0.004091
    11   Atom        0.224442     -0.102740     -0.121702
    12   Atom        0.000417      0.014758     -0.015175
    13   Atom        0.009335     -0.009083     -0.000253
    14   Atom        0.004801     -0.003496     -0.001306
    15   Atom       -0.003027     -0.004770      0.007797
    16   Atom       -0.001948      0.005540     -0.003592
 --------------------------------------------------------
                        XY            XZ            YZ
 --------------------------------------------------------
     1   Atom        0.214774      0.057811      0.016097
     2   Atom        0.003173     -0.016195      0.017027
     3   Atom       -0.003492     -0.005894      0.004227
     4   Atom       -0.000085     -0.002204      0.004454
     5   Atom       -0.002717     -0.003918      0.004091
     6   Atom       -0.000543     -0.006829      0.000291
     7   Atom        0.318685      0.122638      0.057580
     8   Atom        1.103185      0.325296      0.164619
     9   Atom        0.068415      0.026697      0.007594
    10   Atom       -0.000142     -0.001044      0.008377
    11   Atom        0.029500      0.017702      0.004506
    12   Atom       -0.000647      0.000462      0.004906
    13   Atom       -0.004553      0.015236     -0.005904
    14   Atom       -0.001577      0.004002     -0.002878
    15   Atom       -0.000162      0.003248     -0.003109
    16   Atom       -0.004374      0.002360     -0.005699
 --------------------------------------------------------


 ---------------------------------------------------------------------------------
              Anisotropic Spin Dipole Couplings in Principal Axis System
 ---------------------------------------------------------------------------------

       Atom             a.u.   MegaHertz   Gauss  10(-4) cm-1        Axes

              Baa    -0.2797   -37.535   -13.394   -12.520 -0.2680  0.9634 -0.0021
     1 C(13)  Bbb    -0.2764   -37.087   -13.233   -12.371 -0.0702 -0.0174  0.9974
              Bcc     0.5561    74.622    26.627    24.891  0.9609  0.2674  0.0723
 
              Baa    -0.0337   -17.966    -6.411    -5.993 -0.2236  0.9131 -0.3409
     2 H(1)   Bbb    -0.0012    -0.659    -0.235    -0.220  0.8724  0.3435  0.3479
              Bcc     0.0349    18.625     6.646     6.213 -0.4347  0.2196  0.8734
 
              Baa    -0.0065    -0.871    -0.311    -0.291  0.6422  0.7652  0.0451
     3 C(13)  Bbb    -0.0044    -0.592    -0.211    -0.198  0.6072 -0.5437  0.5793
              Bcc     0.0109     1.464     0.522     0.488 -0.4678  0.3447  0.8138
 
              Baa    -0.0051    -2.715    -0.969    -0.906 -0.4461  0.7981 -0.4051
     4 H(1)   Bbb    -0.0032    -1.724    -0.615    -0.575  0.8773  0.4795 -0.0216
              Bcc     0.0083     4.439     1.584     1.481 -0.1770  0.3650  0.9140
 
              Baa    -0.0044    -2.358    -0.841    -0.786  0.2710 -0.6081  0.7462
     5 H(1)   Bbb    -0.0028    -1.495    -0.533    -0.499  0.7798  0.5932  0.2002
              Bcc     0.0072     3.852     1.375     1.285 -0.5643  0.5276  0.6349
 
              Baa    -0.0049    -2.633    -0.940    -0.878  0.6847  0.5214  0.5093
     6 H(1)   Bbb    -0.0044    -2.336    -0.834    -0.779 -0.3894  0.8523 -0.3492
              Bcc     0.0093     4.969     1.773     1.657 -0.6161  0.0408  0.7866
 
              Baa    -0.3469    25.101     8.957     8.373 -0.3245  0.9282 -0.1818
     7 O(17)  Bbb    -0.2900    20.982     7.487     6.999 -0.2005  0.1204  0.9723
              Bcc     0.6369   -46.084   -16.444   -15.372  0.9244  0.3519  0.1471
 
              Baa    -0.9173    66.376    23.685    22.141 -0.4693  0.7740  0.4250
     8 O(17)  Bbb    -0.9053    65.505    23.374    21.850  0.0906 -0.4366  0.8951
              Bcc     1.8226  -131.882   -47.059   -43.991  0.8784  0.4586  0.1348
 
              Baa    -0.1046   -55.822   -19.919   -18.620 -0.0171 -0.2997  0.9539
     9 H(1)   Bbb    -0.1003   -53.524   -19.099   -17.854 -0.2478  0.9255  0.2863
              Bcc     0.2049   109.346    39.017    36.474  0.9687  0.2314  0.0900
 
              Baa    -0.0485    -6.511    -2.323    -2.172  0.9998 -0.0003  0.0199
    10 C(13)  Bbb     0.0024     0.327     0.117     0.109 -0.0195 -0.1957  0.9805
              Bcc     0.0461     6.184     2.207     2.063 -0.0036  0.9807  0.1957
 
              Baa    -0.1231   -16.520    -5.895    -5.510 -0.0361 -0.1657  0.9855
    11 C(13)  Bbb    -0.1049   -14.077    -5.023    -4.696 -0.0967  0.9821  0.1616
              Bcc     0.2280    30.597    10.918    10.206  0.9947  0.0894  0.0515
 
              Baa    -0.0160    -8.525    -3.042    -2.844 -0.0341 -0.1582  0.9868
    12 H(1)   Bbb     0.0004     0.221     0.079     0.074  0.9987  0.0315  0.0395
              Bcc     0.0156     8.304     2.963     2.770 -0.0374  0.9869  0.1570
 
              Baa    -0.0131    -1.761    -0.629    -0.588 -0.3453  0.6286  0.6969
    13 C(13)  Bbb    -0.0090    -1.213    -0.433    -0.404  0.5256  0.7447 -0.4113
              Bcc     0.0222     2.974     1.061     0.992  0.7775 -0.2243  0.5875
 
              Baa    -0.0056    -2.990    -1.067    -0.997 -0.1264  0.7659  0.6304
    14 H(1)   Bbb    -0.0019    -0.992    -0.354    -0.331 -0.5130 -0.5944  0.6193
              Bcc     0.0075     3.982     1.421     1.328  0.8491 -0.2451  0.4680
 
              Baa    -0.0057    -3.027    -1.080    -1.010 -0.2886  0.9153  0.2808
    15 H(1)   Bbb    -0.0037    -1.963    -0.701    -0.655  0.9241  0.3431 -0.1686
              Bcc     0.0094     4.990     1.781     1.664  0.2506 -0.2109  0.9448
 
              Baa    -0.0063    -3.387    -1.209    -1.130 -0.0860  0.4047  0.9104
    16 H(1)   Bbb    -0.0039    -2.103    -0.750    -0.702  0.9226  0.3772 -0.0805
              Bcc     0.0103     5.491     1.959     1.831 -0.3760  0.8330 -0.4059
 

 ---------------------------------------------------------------------------------

 Calling FoFJK, ICntrl=  10100127 FMM=F ISym2X=0 I1Cent= 0 IOpClX= 1 NMat=1 NMatS=1 NMatT=0.
 ***** Axes restored to original set *****
 -------------------------------------------------------------------
 Center     Atomic                   Forces (Hartrees/Bohr)
 Number     Number              X              Y              Z
 -------------------------------------------------------------------
      1        6          -0.000579605    0.000088665    0.000204912
      2        1           0.000382545   -0.000056995   -0.000197941
      3        6          -0.000000428   -0.000000491   -0.000001053
      4        1          -0.000004191   -0.000004336   -0.000000273
      5        1           0.000002131   -0.000000242   -0.000000151
      6        1          -0.000000548    0.000000753   -0.000000243
      7        8           0.000000553    0.000001777    0.000002363
      8        8           0.000003787    0.000001106   -0.000002808
      9        1          -0.000002931   -0.000002350   -0.000000030
     10        6          -0.000010950    0.000001398    0.000001006
     11        6           0.000006391    0.000001475    0.000002357
     12        1          -0.000000490   -0.000000869    0.000000109
     13        6           0.000562224   -0.000091519    0.000198047
     14        1           0.000002624    0.000002144   -0.000000977
     15        1          -0.000000263   -0.000000600    0.000000375
     16        1          -0.000360848    0.000060085   -0.000205692
 -------------------------------------------------------------------
 Cartesian Forces:  Max     0.000579605 RMS     0.000152388
 FormGI is forming the generalized inverse of G from B-inverse, IUseBI=4.

 GradGradGradGradGradGradGradGradGradGradGradGradGradGradGradGradGradGrad
 Berny optimization.
 Internal  Forces:  Max     0.000337279 RMS     0.000069346
 Search for a saddle point.
 Step number   1 out of a maximum of  100
 All quantities printed in internal units (Hartrees-Bohrs-Radians)
 Swapping is turned off.
 Second derivative matrix not updated -- analytic derivatives used.
 ITU=  0
     Eigenvalues ---   -0.08144   0.00160   0.00279   0.00591   0.01953
     Eigenvalues ---    0.03117   0.03376   0.03563   0.03677   0.03915
     Eigenvalues ---    0.04489   0.04510   0.05998   0.07541   0.08418
     Eigenvalues ---    0.08453   0.08487   0.09408   0.10699   0.12111
     Eigenvalues ---    0.12358   0.13044   0.15242   0.16459   0.16562
     Eigenvalues ---    0.16720   0.18133   0.19313   0.26260   0.30179
     Eigenvalues ---    0.31849   0.33486   0.33863   0.34171   0.34262
     Eigenvalues ---    0.34588   0.34931   0.35518   0.38112   0.41234
     Eigenvalues ---    0.41634   1.03475
 Eigenvectors required to have negative eigenvalues:
                          R10       R2        R9        D6        D11
   1                    0.70974  -0.62702  -0.16749  -0.08472   0.07902
                          R3        D4        D10       D5        A14
   1                    0.07767  -0.07709   0.07455  -0.07263   0.06724
 RFO step:  Lambda0=5.468328892D-08 Lambda=-4.76002677D-05.
 Linear search not attempted -- option 19 set.
 Iteration  1 RMS(Cart)=  0.02296305 RMS(Int)=  0.00052313
 Iteration  2 RMS(Cart)=  0.00054021 RMS(Int)=  0.00000107
 Iteration  3 RMS(Cart)=  0.00000020 RMS(Int)=  0.00000106
 Variable       Old X    -DE/DX   Delta X   Delta X   Delta X     New X
                                 (Linear)    (Quad)   (Total)
    R1        2.05590  -0.00000   0.00000  -0.00011  -0.00011   2.05579
    R2        2.51118   0.00000   0.00000  -0.00056  -0.00056   2.51062
    R3        2.67972   0.00000   0.00000  -0.00002  -0.00002   2.67971
    R4        2.86122   0.00000   0.00000  -0.00044  -0.00044   2.86078
    R5        2.05832  -0.00000   0.00000  -0.00006  -0.00006   2.05826
    R6        2.05514   0.00000   0.00000   0.00000   0.00000   2.05514
    R7        2.05661  -0.00000   0.00000  -0.00001  -0.00001   2.05660
    R8        2.69291  -0.00000   0.00000   0.00009   0.00009   2.69301
    R9        2.63167   0.00000   0.00000  -0.00014  -0.00014   2.63153
   R10        2.27294   0.00000   0.00000   0.00114   0.00114   2.27408
   R11        2.28814   0.00000   0.00000  -0.00007  -0.00007   2.28808
   R12        2.00315   0.00000   0.00000   0.00000   0.00000   2.00316
   R13        2.06266  -0.00000   0.00000   0.00026   0.00026   2.06292
   R14        2.05547   0.00000   0.00000   0.00005   0.00005   2.05552
   R15        2.05650   0.00000   0.00000  -0.00028  -0.00028   2.05622
    A1        1.75135  -0.00013   0.00000  -0.00363  -0.00363   1.74771
    A2        1.97792   0.00007   0.00000   0.00235   0.00235   1.98026
    A3        2.00017   0.00003   0.00000   0.00067   0.00067   2.00083
    A4        1.78580  -0.00000   0.00000   0.00024   0.00024   1.78604
    A5        1.84245  -0.00006   0.00000  -0.00143  -0.00143   1.84102
    A6        2.05573   0.00005   0.00000   0.00042   0.00042   2.05614
    A7        1.91789   0.00000   0.00000  -0.00005  -0.00005   1.91784
    A8        1.92627   0.00000   0.00000   0.00019   0.00019   1.92646
    A9        1.92968  -0.00001   0.00000   0.00002   0.00002   1.92970
   A10        1.92830  -0.00000   0.00000  -0.00005  -0.00005   1.92825
   A11        1.83577   0.00000   0.00000  -0.00005  -0.00005   1.83572
   A12        1.92416   0.00000   0.00000  -0.00007  -0.00007   1.92409
   A13        1.88878   0.00000   0.00000   0.00013   0.00013   1.88891
   A14        1.81892   0.00001   0.00000   0.00061   0.00061   1.81954
   A15        1.93294  -0.00005   0.00000  -0.00074  -0.00074   1.93220
   A16        1.93499   0.00006   0.00000   0.00115   0.00115   1.93614
   A17        1.92937  -0.00000   0.00000  -0.00054  -0.00054   1.92883
   A18        1.88401  -0.00000   0.00000  -0.00070  -0.00070   1.88331
   A19        1.88859  -0.00011   0.00000  -0.00166  -0.00166   1.88694
   A20        1.89241   0.00011   0.00000   0.00248   0.00248   1.89489
   A21        3.08960  -0.00001   0.00000   0.00063   0.00063   3.09024
   A22        3.08161  -0.00001   0.00000   0.00045   0.00045   3.08206
   A23        3.16522   0.00000   0.00000  -0.00008  -0.00008   3.16514
   A24        3.15056   0.00001   0.00000  -0.00019  -0.00019   3.15037
   A25        3.14939  -0.00000   0.00000  -0.00060  -0.00060   3.14879
   A26        3.14762   0.00000   0.00000   0.00024   0.00024   3.14786
    D1       -2.07602  -0.00002   0.00000   0.00540   0.00541  -2.07062
    D2       -0.03216   0.00001   0.00000   0.00668   0.00668  -0.02548
    D3        2.11764   0.00003   0.00000   0.00678   0.00677   2.12442
    D4        1.10759   0.00016   0.00000   0.05596   0.05596   1.16356
    D5       -3.08461   0.00016   0.00000   0.05535   0.05535  -3.02926
    D6       -0.98545   0.00034   0.00000   0.05887   0.05887  -0.92658
    D7        3.01740  -0.00002   0.00000   0.05111   0.05111   3.06851
    D8       -1.17481  -0.00002   0.00000   0.05050   0.05050  -1.12432
    D9        0.92435   0.00016   0.00000   0.05401   0.05401   0.97837
   D10       -1.28665  -0.00005   0.00000   0.05064   0.05064  -1.23601
   D11        0.80433  -0.00005   0.00000   0.05003   0.05002   0.85435
   D12        2.90350   0.00013   0.00000   0.05354   0.05354   2.95704
   D13        1.13755   0.00001   0.00000   0.00124   0.00124   1.13879
   D14       -3.07618   0.00000   0.00000   0.00116   0.00116  -3.07502
   D15       -0.99724   0.00000   0.00000   0.00104   0.00104  -0.99620
   D16       -1.62243   0.00002   0.00000  -0.00110  -0.00110  -1.62353
         Item               Value     Threshold  Converged?
 Maximum Force            0.000337     0.000450     YES
 RMS     Force            0.000069     0.000300     YES
 Maximum Displacement     0.089606     0.001800     NO 
 RMS     Displacement     0.022954     0.001200     NO 
 Predicted change in Energy=-2.438723D-05
 GradGradGradGradGradGradGradGradGradGradGradGradGradGradGradGradGradGrad

                          Input orientation:                          
 ---------------------------------------------------------------------
 Center     Atomic      Atomic             Coordinates (Angstroms)
 Number     Number       Type             X           Y           Z
 ---------------------------------------------------------------------
      1          6           0       -1.028428    0.433691   -1.081168
      2          1           0       -1.535458    0.075193   -1.974405
      3          6           0        2.018962   -0.653053    0.790049
      4          1           0        1.367292    0.158001    1.112289
      5          1           0        2.159009   -1.360635    1.603953
      6          1           0        2.977896   -0.259650    0.458248
      7          8           0        1.405462   -1.403009   -0.254954
      8          8           0        1.275402   -0.574859   -1.366903
      9          1           0        0.171703   -0.107222   -1.260536
     10          6           0       -1.469794   -0.196655    0.109922
     11          6           0       -1.777737   -0.753588    1.139984
     12          1           0       -2.071519   -1.242951    2.033219
     13          6           0       -0.796274    1.929195   -1.044501
     14          1           0       -1.744495    2.465375   -0.973189
     15          1           0       -0.189409    2.207322   -0.185708
     16          1           0       -0.288585    2.258546   -1.948798
 ---------------------------------------------------------------------
                    Distance matrix (angstroms):
                    1          2          3          4          5
     1  C    0.000000
     2  H    1.087875   0.000000
     3  C    3.737520   4.561409   0.000000
     4  H    3.259867   4.237982   1.089183   0.000000
     5  H    4.537536   5.339975   1.087531   1.781798   0.000000
     6  H    4.347546   5.138121   1.088307   1.787805   1.787563
     7  O    3.159101   3.713570   1.425079   2.075467   2.006281
     8  O    2.531097   2.948315   2.282858   2.586875   3.197529
     9  H    1.328561   1.859377   2.813396   2.670220   3.704825
    10  C    1.418039   2.103006   3.583614   3.029781   4.093310
    11  C    2.627663   3.231872   3.814116   3.274594   4.010205
    12  H    3.687625   4.252754   4.315726   3.825729   4.253880
    13  C    1.513860   2.201916   4.237822   3.531273   5.154705
    14  H    2.156884   2.599826   5.195884   4.399593   6.042960
    15  H    2.156749   3.091481   3.743093   2.882331   4.631228
    16  H    2.151801   2.514434   4.615568   4.065031   5.631272
                    6          7          8          9         10
     6  H    0.000000
     7  O    2.070864   0.000000
     8  O    2.515754   1.392544   0.000000
     9  H    3.294263   2.052419   1.203390   0.000000
    10  C    4.461754   3.139351   3.140088   2.140250   0.000000
    11  C    4.829573   3.535584   3.954501   3.159209   1.210798
    12  H    5.379964   4.165424   4.817578   4.143761   2.270656
    13  C    4.614505   4.071193   3.265895   2.265093   2.511087
    14  H    5.636999   5.040088   4.303232   3.220658   2.887039
    15  H    4.066012   3.947518   3.358783   2.577357   2.739687
    16  H    4.775467   4.375602   3.288288   2.506477   3.414908
                   11         12         13         14         15
    11  C    0.000000
    12  H    1.060025   0.000000
    13  C    3.596188   4.600122   0.000000
    14  H    3.850757   4.785094   1.091649   0.000000
    15  H    3.612095   4.513354   1.087734   1.762104   0.000000
    16  H    4.564110   5.594265   1.088106   1.764729   1.766620
                   16
    16  H    0.000000
 Stoichiometry    C5H9O2(2)
 Framework group  C1[X(C5H9O2)]
 Deg. of freedom    42
 Full point group                 C1      NOp   1
 Largest Abelian subgroup         C1      NOp   1
 Largest concise Abelian subgroup C1      NOp   1
                         Standard orientation:                         
 ---------------------------------------------------------------------
 Center     Atomic      Atomic             Coordinates (Angstroms)
 Number     Number       Type             X           Y           Z
 ---------------------------------------------------------------------
      1          6           0        1.345297   -0.422672   -0.451474
      2          1           0        1.742978   -0.676168   -1.431812
      3          6           0       -2.090596    0.217515    0.872856
      4          1           0       -1.184219    0.310563    1.469632
      5          1           0       -2.681410    1.127018    0.953277
      6          1           0       -2.671318   -0.643756    1.197490
      7          8           0       -1.769298    0.102401   -0.510750
      8          8           0       -1.082419   -1.094027   -0.700318
      9          1           0        0.077733   -0.786776   -0.612050
     10          6           0        1.233740    0.973726   -0.231328
     11          6           0        1.068142    2.155884   -0.028575
     12          1           0        0.944387    3.195830    0.135288
     13          6           0        1.870498   -1.276718    0.682783
     14          1           0        2.935941   -1.097785    0.839349
     15          1           0        1.353098   -1.049412    1.612188
     16          1           0        1.734060   -2.332916    0.459612
 ---------------------------------------------------------------------
 Rotational constants (GHZ):           2.9873660           1.7365051           1.3298427
 Standard basis: CC-pVTZ (5D, 7F)
 There are   380 symmetry adapted cartesian basis functions of A   symmetry.
 There are   336 symmetry adapted basis functions of A   symmetry.
   336 basis functions,   517 primitive gaussians,   380 cartesian basis functions
    28 alpha electrons       27 beta electrons
       nuclear repulsion energy       291.1595985271 Hartrees.
 NAtoms=   16 NActive=   16 NUniq=   16 SFac= 1.00D+00 NAtFMM=   60 NAOKFM=F Big=F
 Integral buffers will be    131072 words long.
 Raffenetti 2 integral format.
 Two-electron integral symmetry is turned on.
 Nuclear repulsion after empirical dispersion term =      291.1508657856 Hartrees.
 One-electron integrals computed using PRISM.
 NBasis=   336 RedAO= T EigKep=  4.56D-05  NBF=   336
 NBsUse=   336 1.00D-06 EigRej= -1.00D+00 NBFU=   336
 Initial guess from the checkpoint file:  "/localscratch/353442/Gau-15072.chk"
 B after Tr=    -0.000000   -0.000000    0.000000
         Rot=    0.999999    0.000856    0.000189   -0.001096 Ang=   0.16 deg.
 Initial guess <Sx>= 0.0000 <Sy>= 0.0000 <Sz>= 0.5000 <S**2>= 0.7901 S= 0.5198
 ExpMin= 1.03D-01 ExpMax= 1.53D+04 ExpMxC= 5.22D+02 IAcc=3 IRadAn=         5 AccDes= 0.00D+00
 Harris functional with IExCor=  419 and IRadAn=       5 diagonalized for initial guess.
 HarFok:  IExCor=  419 AccDes= 0.00D+00 IRadAn=         5 IDoV= 1 UseB2=F ITyADJ=14
 ICtDFT=  3500011 ScaDFX=  1.000000  1.000000  1.000000  1.000000
 FoFCou: FMM=F IPFlag=           0 FMFlag=      100000 FMFlg1=           0
         NFxFlg=           0 DoJE=T BraDBF=F KetDBF=T FulRan=T
         wScrn=  0.000000 ICntrl=       500 IOpCl=  0 I1Cent=   200000004 NGrid=           0
         NMat0=    1 NMatS0=      1 NMatT0=    0 NMatD0=    1 NMtDS0=    0 NMtDT0=    0
 Petite list used in FoFCou.
 Requested convergence on RMS density matrix=1.00D-08 within 128 cycles.
 Requested convergence on MAX density matrix=1.00D-06.
 Requested convergence on             energy=1.00D-06.
 No special actions if energy rises.
 Integral accuracy reduced to 1.0D-05 until final iterations.
 Initial convergence to 1.0D-05 achieved.  Increase integral accuracy.
 SCF Done:  E(UB2PLYPD3) =  -345.576500430     A.U. after   13 cycles
            NFock= 13  Conv=0.98D-08     -V/T= 2.0044
 <Sx>= 0.0000 <Sy>= 0.0000 <Sz>= 0.5000 <S**2>= 0.7899 S= 0.5198
 <L.S>=  0.00000000000    
 Annihilation of the first spin contaminant:
 S**2 before annihilation     0.7899,   after     0.7511
 DoSCS=T DFT=T ScalE2(SS,OS)=  0.270000  0.270000
 ExpMin= 1.03D-01 ExpMax= 1.53D+04 ExpMxC= 5.22D+02 IAcc=3 IRadAn=         5 AccDes= 0.00D+00
 HarFok:  IExCor=  205 AccDes= 0.00D+00 IRadAn=         5 IDoV=-2 UseB2=F ITyADJ=14
 ICtDFT= 12500011 ScaDFX=  1.000000  1.000000  1.000000  1.000000
 Range of M.O.s used for correlation:     8   336
 NBasis=   336 NAE=    28 NBE=    27 NFC=     7 NFV=     0
 NROrb=    329 NOA=    21 NOB=    20 NVA=   308 NVB=   309

 **** Warning!!: The largest alpha MO coefficient is  0.26711329D+02


 **** Warning!!: The largest beta MO coefficient is  0.30828140D+02

 DoSCS=T DFT=T ScalE2(SS,OS)=  0.270000  0.270000
 Disk-based method using ON**2 memory for 21 occupieds at a time.
 Estimated scratch disk usage=  2058805896 words.
 Actual    scratch disk usage=  1887130248 words.
 JobTyp=2 Pass  1:  I=   8 to  28 NPSUse= 40 ParTrn=T ParDer=T DoDerP=T.
 (rs|ai) integrals will be sorted in core.
 Actual    scratch disk usage=  1887130248 words.
 JobTyp=3 Pass  1:  I=   8 to  27 NPSUse= 40 ParTrn=T ParDer=T DoDerP=T.
 (rs|ai) integrals will be sorted in core.
 Spin components of T(2) and E(2):
     alpha-alpha T2 =       0.7921028194D-01 E2=     -0.5374955535D-01
     alpha-beta  T2 =       0.4711578650D+00 E2=     -0.3275166147D+00
     beta-beta   T2 =       0.8909740172D-01 E2=     -0.5364351633D-01
 (S**2,0)=  0.78994D+00           (S**2,1)=  0.74712D+00
 Scaling Projection term by:   0.270000
 E(PUHF)=      -0.34558494546D+03        E(PMP2)=      -0.34601248701D+03
 E2(B2PLYPD3) =    -0.4349096864D+00 E(B2PLYPD3) =    -0.34601141011602D+03
          IDoAtm=1111111111111111
          Differentiating once with respect to electric field.
                with respect to dipole field.
          Differentiating once with respect to nuclear coordinates.
 Keep R1 and R2 ints in memory in canonical form, NReq=3251778068.
          There are     1 degrees of freedom in the 1st order CPHF.  IDoFFX=0 NUNeed=     1.
 LinEq1:  Iter=  0 NonCon=     1 RMS=9.81D-04 Max=5.62D-02 NDo=     1
 AX will form     1 AO Fock derivatives at one time.
 LinEq1:  Iter=  1 NonCon=     1 RMS=3.63D-04 Max=8.25D-03 NDo=     1
 LinEq1:  Iter=  2 NonCon=     1 RMS=2.55D-04 Max=9.41D-03 NDo=     1
 LinEq1:  Iter=  3 NonCon=     1 RMS=1.70D-04 Max=7.03D-03 NDo=     1
 LinEq1:  Iter=  4 NonCon=     1 RMS=9.36D-05 Max=3.46D-03 NDo=     1
 LinEq1:  Iter=  5 NonCon=     1 RMS=6.82D-05 Max=2.76D-03 NDo=     1
 LinEq1:  Iter=  6 NonCon=     1 RMS=3.12D-05 Max=9.81D-04 NDo=     1
 LinEq1:  Iter=  7 NonCon=     1 RMS=9.21D-06 Max=2.45D-04 NDo=     1
 LinEq1:  Iter=  8 NonCon=     1 RMS=5.32D-06 Max=1.59D-04 NDo=     1
 LinEq1:  Iter=  9 NonCon=     1 RMS=3.72D-06 Max=8.25D-05 NDo=     1
 LinEq1:  Iter= 10 NonCon=     1 RMS=2.02D-06 Max=3.77D-05 NDo=     1
 LinEq1:  Iter= 11 NonCon=     1 RMS=9.40D-07 Max=2.31D-05 NDo=     1
 LinEq1:  Iter= 12 NonCon=     1 RMS=3.39D-07 Max=6.64D-06 NDo=     1
 LinEq1:  Iter= 13 NonCon=     1 RMS=1.08D-07 Max=2.21D-06 NDo=     1
 LinEq1:  Iter= 14 NonCon=     1 RMS=3.17D-08 Max=8.30D-07 NDo=     1
 LinEq1:  Iter= 15 NonCon=     1 RMS=1.16D-08 Max=3.63D-07 NDo=     1
[...]

 Dipole orientation:
     6         -2.28893275          1.78176402         -0.45771677
     1         -3.67703586          2.30181721         -1.88211778
     6          3.93131803         -1.55779128         -0.65103310
     1          3.02371179         -0.92742088          1.08543088
     1          4.42965263         -3.54566922         -0.49745477
     1          5.60346824         -0.42450911         -1.03729741
     8          2.21348763         -1.41932098         -2.72038679
     8          1.62083722          1.11160779         -3.13023254
     1         -0.26874230          1.44881121         -1.91053138
     6         -2.67134889         -0.66730893          0.56042096
     6         -2.86935740         -2.78922588          1.39322269
     1         -3.09106162         -4.64292176          2.11937482
     6         -1.59045519          3.88517824          1.35131002
     1         -3.19877842          4.38812117          2.54119472
     1         -0.04771578          3.31242995          2.58302223
     1         -1.01195321          5.56437558          0.31513088

 Electric dipole moment (dipole orientation):
 (Debye = 10**-18 statcoulomb cm , SI units = C m)
                  (au)            (Debye)         (10**-30 SI)
   Tot        0.858118D+00      0.218112D+01      0.727543D+01
   x          0.000000D+00      0.000000D+00      0.000000D+00
   y          0.000000D+00      0.000000D+00      0.000000D+00
   z          0.858118D+00      0.218112D+01      0.727543D+01

 Dipole polarizability, Alpha (dipole orientation).
 (esu units = cm**3 , SI units = C**2 m**2 J**-1)
 Alpha(0;0):
               (au)            (10**-24 esu)      (10**-40 SI)
   iso        0.832182D+02      0.123317D+02      0.137208D+02
   aniso      0.443023D+02      0.656493D+01      0.730446D+01
   xx         0.940409D+02      0.139354D+02      0.155052D+02
   yx        -0.588906D+01     -0.872669D+00     -0.970975D+00
   yy         0.874406D+02      0.129574D+02      0.144170D+02
   zx        -0.202617D+02     -0.300247D+01     -0.334070D+01
   zy        -0.532513D+01     -0.789103D+00     -0.877996D+00
   zz         0.681731D+02      0.101022D+02      0.112402D+02

 ----------------------------------------------------------------------
 1\1\GINC-N142\Freq\UB2PLYPD3-FC\CC-pVTZ\C5H9O2(2)\ROOT\24-Jun-2019\0\\
 #N Geom=AllCheck Guess=TCheck SCRF=Check GenChk UB2PLYPD3(FC)/CC-pVTZ 
 Freq\\Title Card Required\\0,2\C,-1.0284254031,0.4336552548,-1.0812411
 723\H,-1.5354584754,0.0751587895,-1.9744686616\C,2.0188035174,-0.65288
 70534,0.7901406958\H,1.3670835979,0.1581796202,1.1122451535\H,2.158836
 0011,-1.3603624211,1.6041388757\H,2.9777400607,-0.2594905086,0.4583385
 325\O,1.4053927795,-1.4030015711,-0.2548078782\O,1.2753591126,-0.57501
 60011,-1.3668667874\H,0.1715982376,-0.1073604172,-1.2606298571\C,-1.46
 97557971,-0.1967644189,0.1098208256\C,-1.7777078499,-0.7537556075,1.13
 98494664\H,-2.0715013991,-1.2431699701,2.0330527113\C,-0.7961269705,1.
 9292034802,-1.0444929389\H,-1.744197099,2.4654681024,-0.9721100191\H,-
 0.1883418458,2.2071124084,-0.1862735581\H,-0.2892724668,2.2587303135,-
 1.9491923881\\Version=ES64L-G16RevB.01\State=2-A\HF=-345.5764989\MP2=-
 346.0114102\PUHF=-345.5849436\PMP2-0=-346.0124869\S2=0.789929\S2-1=0.7
 47114\S2A=0.751066\RMSD=1.839e-09\RMSF=1.856e-07\ZeroPoint=0.123337\Th
 ermal=0.1329111\Dipole=-0.2031364,0.5657842,0.6123643\DipoleDeriv=1.11
 81605,-0.4256247,0.0544569,-0.3068304,0.3901023,-0.0871146,-0.4214893,
 0.1185202,0.1994278,-0.0861713,0.0199179,-0.0824668,0.0533446,-0.04137
 97,0.0159666,0.0099023,-0.0209539,-0.033242,0.585232,-0.0645635,0.0817
 68,0.2351529,0.2523357,0.0929421,0.4116434,-0.0687198,0.4068825,-0.056
 5948,0.1082604,0.0392564,-0.0257817,-0.025024,-0.0761724,-0.0644105,0.
 0113739,-0.0002684,0.039573,-0.0042248,-0.0238078,0.0069982,-0.0094218
 ,0.0735561,-0.0866981,0.0677443,-0.0382743,-0.1513751,-0.0334421,-0.01
 45335,-0.1160043,0.0528035,-0.0316315,0.0540648,0.0355473,0.0082316,-0
 .3384132,0.0421052,-0.0404758,0.592246,-0.543791,-0.0574861,-1.1351506
 ,0.3842987,-0.2711659,0.4948941,-0.3662084,0.0330084,-1.0709758,0.2717
 419,-0.0466609,0.851609,-0.4532713,-0.2421038,-1.1869335,0.5598198,-0.
 0201984,0.603391,-0.1563996,0.0527091,0.0810066,-0.001854,0.0978897,-0
 .3127222,0.0658499,-0.0202402,-0.1199149,-0.1458944,0.0035806,0.280117
 ,-0.1257862,-0.0793569,-0.2108509,-0.0389114,0.0244832,-0.024616,-0.22
 43264,0.0145144,0.0287127,0.063913,-0.2943347,0.2142024,0.0075832,-0.0
 052054,0.0212094,0.2104521,-0.0054577,-0.0309698,-0.0039124,0.2252183,
 -0.1383435,0.1791932,-0.0633947,0.0438068,0.0101093,-0.0192652,0.01476
 91,-0.0068054,0.0468513,-0.0385502,0.0642992,0.013988,0.1282426,-0.080
 1967,0.0345617,0.0219134,-0.0164244,0.0780549,0.0228837,-0.0558141,-0.
 0632643,-0.0075609,0.0314136,-0.0017169,-0.0792153,-0.0469501,-0.04484
 45,0.0450091,-0.0582398,0.0866257,-0.0127076,0.0074753,0.0376747,0.064
 1952,0.0632799,-0.0589657\Polar=101.0076089,-12.5759076,70.6446019,-5.
 6329566,-14.6104927,78.0024065\PG=C01 [X(C5H9O2)]\NImag=1\\0.22461902,
 0.11892421,0.44274788,0.07247170,-0.02732584,0.57216299,-0.08925459,-0
 .05438553,-0.11859594,0.09687776,-0.04944518,-0.07300257,-0.06459947,0
 .05348810,0.08050166,-0.10638459,-0.07101751,-0.22809800,0.11512069,0.
 07412826,0.24967427,-0.00573330,0.00109977,0.00087890,0.00050386,-0.00
 029792,0.00001071,0.55901700,-0.00445698,0.00314437,0.00243279,0.00063
 803,-0.00060842,-0.00041082,-0.02876374,0.57811410,-0.01012874,0.00485
 125,0.00426733,0.00160488,-0.00101384,-0.00047605,-0.05312730,-0.07720
 221,0.50736409,0.00072255,0.00020526,-0.00040320,-0.00011399,0.0000033
 5,0.00004419,-0.15675107,0.12511294,0.04661790,0.16120941,0.00245585,-
 0.00065898,-0.00122635,-0.00025674,0.00012057,0.00012579,0.11947993,-0
 .18876881,-0.04901553,-0.12891492,0.20927038,0.00180484,-0.00063213,-0
 .00051363,-0.00013507,0.00012933,0.00003964,0.04464791,-0.04434300,-0.
 06732779,-0.04581444,0.06408893,0.07545470,0.00045906,-0.00011467,-0.0
 0027141,-0.00008213,0.00003023,0.00004856,-0.05474092,0.01824697,-0.02
 048603,-0.00155911,0.01283397,-0.01488704,0.05308272,-0.00011186,-0.00
 012743,0.00005418,0.00003262,0.00003694,0.00000474,0.02280120,-0.17428
 051,0.13810974,0.00100262,-0.01302453,0.01752030,-0.02220426,0.1791348
 2,0.00071158,-0.00034745,-0.00036191,-0.00008013,0.00010730,0.00007011
 ,-0.02351511,0.12673585,-0.19202052,0.00144225,-0.00578306,0.00918066,
 0.03136845,-0.14197326,0.21832457,0.00143526,-0.00066230,-0.00038940,-
 0.00023851,0.00016758,0.00003637,-0.25360594,-0.07599681,0.07984817,-0
 .01551381,-0.00708806,0.00802084,0.00650594,0.00290279,-0.00113189,0.2
 7499013,0.00133152,-0.00071774,-0.00078770,-0.00023238,0.00013178,0.00
 009800,-0.07559458,-0.08128971,0.03067938,0.02136742,0.00984990,-0.007
 64964,-0.01805122,-0.00574004,0.00620484,0.09259034,0.08836424,0.00066
 315,-0.00017843,-0.00028133,-0.00012613,0.00003266,0.00004983,0.086053
 05,0.03680361,-0.08095085,0.00639526,0.00418340,-0.00101710,0.02096475
 ,0.00624841,-0.00531665,-0.08138721,-0.02791031,0.08472105,0.00080293,
 -0.00024869,0.00254447,-0.00008063,0.00026323,0.00003908,-0.09129053,-
 0.05461684,-0.03406087,0.01257824,0.00431945,0.00667904,-0.00277143,-0
 .00256098,-0.00429446,-0.01410923,-0.02339302,-0.03291052,0.13452343,-
 0.02340213,0.00846356,0.00730933,0.00320487,-0.00175537,-0.00053432,-0
 .04248955,-0.14640317,-0.04476855,-0.01705229,-0.01863946,-0.02730337,
 0.01070359,0.01178173,0.01829567,-0.01231936,-0.01154770,-0.01641138,0
 .05503997,0.29681380,0.03942128,-0.01621145,-0.01385120,-0.00533872,0.
 00320725,0.00121025,-0.04160089,-0.07401570,-0.10887164,-0.01126066,-0
 .01699037,-0.02226948,-0.01361995,-0.01378885,-0.02488071,-0.00884223,
 -0.00329229,-0.00344711,0.10186896,-0.01249555,0.32519851,-0.12344370,
 0.04911092,0.03230098,0.00859647,-0.00464397,-0.00181630,-0.00473704,0
 .01389641,-0.02828530,0.00128864,0.00055236,0.00384590,-0.00069251,-0.
 00210154,-0.00382051,0.00343193,0.00397437,0.00141448,-0.03989159,-0.0
 2011484,0.01463588,0.08552363,0.08333685,-0.02913372,-0.02549862,-0.00
 734081,0.00422074,0.00198533,0.00904600,0.01352702,0.00755260,-0.00208
 152,-0.00007007,-0.00368671,-0.00153278,0.00229987,-0.00324943,-0.0007
 6040,-0.00013012,-0.00366048,0.00338484,-0.10747160,0.09610706,0.00928
 153,0.08596956,-0.02538677,0.00878206,0.01386866,0.00480775,-0.0022012
 6,-0.00032246,-0.00980217,0.02860583,-0.05961319,0.00219825,0.00407209
 ,0.00597702,-0.00353881,-0.00569085,-0.00483998,0.00348114,0.00234231,
 0.00627490,-0.01730843,0.07100666,-0.15995847,-0.02087870,-0.08856933,
 0.23734966,0.09759073,-0.04200001,-0.04454354,-0.02359037,0.01078423,0
 .00294625,0.00604940,0.00617472,0.01612221,-0.00035371,-0.00342714,-0.
 00325197,-0.00010133,0.00033681,-0.00023443,-0.00223582,-0.00210011,-0
 .00126004,-0.00068360,0.03991582,-0.06475886,0.05317254,-0.07681204,0.
 05555323,-0.08902364,-0.05708468,-0.00331148,0.02322656,0.00344972,-0.
 00242090,-0.00165044,-0.00401904,-0.00208558,-0.00748393,0.00063334,0.
 00171097,0.00121250,0.00022003,-0.00024524,-0.00005700,0.00107580,0.00
 083165,0.00076951,0.01462686,-0.02891890,0.03513915,-0.04818243,0.0264
 4926,-0.01619237,0.06461003,0.02131419,-0.00673282,0.00429613,-0.02410
 419,-0.01115827,0.00335569,-0.00013737,-0.00248065,0.00272243,-0.00083
 828,0.00051185,-0.00049327,0.00018767,0.00012004,-0.00047655,-0.000504
 74,0.00028084,-0.00004921,-0.00006505,-0.01916096,0.00885255,-0.001542
 69,0.01722651,0.00512812,-0.03112418,0.00540136,-0.01981689,0.06536163
 ,-0.05986421,-0.04529347,0.05473088,0.00646123,0.00842445,-0.01145947,
 -0.00015494,-0.00031919,0.00029634,-0.00122281,0.00005572,-0.00053230,
 0.00004190,-0.00009662,-0.00031297,-0.00030408,0.00010319,0.00029290,0
 .00340391,0.00239663,-0.00542129,0.00800566,-0.00959741,0.00737235,-0.
 03156846,0.00520887,0.01614096,0.17265019,-0.02610665,-0.11532653,0.07
 934044,0.00331839,0.00696879,-0.00396285,-0.00017153,-0.00096371,-0.00
 045462,-0.00057874,0.00021479,-0.00004842,-0.00001558,0.00004640,-0.00
 006152,-0.00019668,0.00013373,0.00017648,0.00287393,0.00083985,-0.0020
 2241,0.00666891,-0.00485074,0.00230197,-0.01225675,0.00896326,-0.00455
 694,0.15990749,0.36170760,0.02682446,0.09201360,-0.22770868,0.01530663
 ,0.01029455,-0.02645549,-0.00060340,0.00037498,0.00003134,0.00076703,0
 .00013204,0.00028704,0.00006913,0.00001542,0.00030249,0.00032597,-0.00
 001501,-0.00040019,-0.00605345,-0.00260319,0.00671674,-0.01478287,0.01
 411313,-0.00812204,0.03977677,-0.01715041,-0.00588118,-0.28179116,-0.4
 8640225,0.99204112,0.00151414,-0.00299834,0.00829772,-0.00009806,-0.00
 161127,0.00068055,-0.00029319,-0.00070221,-0.00044794,-0.00015007,0.00
 044894,0.00016982,0.00008422,-0.00004377,0.00002204,-0.00007900,0.0002
 2670,0.00015993,-0.00085988,-0.00023578,0.00092232,-0.00073882,0.00154
 972,-0.00134336,0.00361740,-0.00137423,-0.00066216,-0.09585311,-0.1177
 0532,0.21713346,0.14133518,-0.00591469,0.00042800,0.01268729,-0.001338
 92,-0.00116030,0.00050994,0.00012440,0.00022184,0.00052705,0.00010792,
 -0.00012731,0.00000144,-0.00012885,0.00003326,-0.00001765,0.00000101,-
 0.00005984,-0.00022287,-0.00112449,0.00079520,-0.00106131,-0.00042590,
 0.00042125,0.00008431,0.00349547,-0.00280750,0.00163499,-0.11670468,-0
 .23719091,0.38322329,0.17414939,0.34286649,0.01118061,0.01078524,-0.01
 888908,0.00072036,0.00213364,-0.00013795,-0.00058882,-0.00166806,-0.00
 151009,-0.00044370,0.00070484,-0.00003047,0.00022944,-0.00003482,0.000
 03878,-0.00018729,0.00037987,0.00041279,0.00275608,-0.00112705,0.00153
 224,0.00119435,-0.00114089,0.00065036,-0.00700354,0.00498346,-0.001640
 21,0.21634704,0.38503380,-0.73675843,-0.31951164,-0.55420518,1.0644554
 9,0.00501435,-0.00023452,0.00144877,-0.00036659,-0.00038877,0.00067913
 ,0.00001869,0.00008767,0.00016886,0.00002695,-0.00015523,0.00005971,-0
 .00013930,0.00007615,-0.00001584,0.00003806,-0.00002902,-0.00009696,0.
 00005384,0.00002259,-0.00017503,0.00014735,-0.00012116,0.00001918,0.00
 007306,0.00026714,-0.00042290,0.00152952,0.00151146,-0.00352449,-0.049
 59908,-0.05303876,0.09590879,0.04331543,-0.00020379,0.00486844,0.00263
 594,-0.00031766,-0.00031638,0.00046372,-0.00010330,0.00013231,-0.00008
 375,0.00000437,-0.00005322,0.00003576,0.00002346,0.00000089,0.00003519
 ,0.00003765,-0.00002257,0.00000392,-0.00001653,-0.00022358,0.00026901,
 -0.00014411,0.00021756,-0.00026670,0.00015234,-0.00017448,0.00024362,0
 .00020281,0.00168023,-0.00275078,-0.05198253,-0.10546795,0.15721386,0.
 05193945,0.09897810,0.00151562,0.00227612,0.00228857,-0.00033402,-0.00
 035403,0.00049331,0.00021787,0.00015568,0.00029998,0.00002883,-0.00005
 853,0.00000018,-0.00003647,0.00002428,-0.00002399,-0.00004874,-0.00004
 394,-0.00002771,-0.00010466,0.00019028,-0.00049539,0.00009741,-0.00040
 110,0.00033561,-0.00030686,0.00017653,0.00000384,-0.00115204,-0.002517
 23,0.00464974,0.09392453,0.15695401,-0.30674437,-0.09399589,-0.1567607
 6,0.29974770,-0.05429784,-0.02265091,-0.00835116,0.00029271,-0.0168839
 6,-0.00029254,0.00187624,0.00138334,0.00282588,-0.00013067,-0.00053140
 ,-0.00076243,-0.00009838,-0.00007301,-0.00023473,-0.00034598,-0.000353
 79,-0.00024698,-0.00221696,0.00554816,-0.00802137,0.01084344,-0.010022
 01,0.00634828,-0.01731509,0.02226632,0.00108917,-0.00412213,-0.0154488
 4,0.00535213,0.00100931,-0.00011098,0.00031741,-0.00008450,0.00042588,
 0.00020527,0.54929041,-0.03060676,-0.19192409,-0.00869010,0.00112969,-
 0.00881695,0.00016555,-0.00068612,0.00023298,-0.00012783,0.00022951,0.
 00003373,0.00012923,0.00003397,-0.00008185,-0.00004062,0.00009012,0.00
 002931,0.00002858,0.00085584,-0.00210748,0.00191372,-0.00769591,0.0052
 9694,-0.00148977,0.01173186,-0.01616004,-0.00151567,-0.00409919,-0.019
 22715,0.01371510,0.00099254,0.00239571,-0.00575188,-0.00003997,0.00020
 853,0.00028407,-0.00242703,0.46301828,-0.00467286,-0.00551017,-0.08045
 165,-0.00179351,-0.02622294,0.00221411,-0.00025002,0.00042172,0.000384
 99,0.00018163,0.00003827,-0.00019813,0.00008342,-0.00013845,-0.0000483
 6,0.00000052,-0.00001446,0.00002357,0.00011635,-0.00026885,-0.00000864
 ,-0.00077041,0.00038146,-0.00031507,0.00091277,-0.00261765,-0.00011550
 ,0.00422996,0.03294027,-0.00024256,0.00083377,0.00038401,-0.00243181,0
 .00002676,-0.00104769,-0.00052199,0.00187875,-0.00404282,0.58432856,0.
 00535734,-0.00137225,-0.00010810,0.00022909,0.00067241,0.00005585,-0.0
 0009543,-0.00041021,-0.00051144,-0.00010108,0.00010170,0.00015554,0.00
 000196,0.00005330,0.00005111,0.00006163,0.00004987,0.00003475,0.000382
 42,-0.00064039,0.00126731,-0.00130287,0.00131860,-0.00089933,0.0031356
 1,-0.00155155,-0.00015586,0.00049263,-0.00052033,0.00065733,-0.0000528
 6,0.00048766,-0.00070265,-0.00000066,-0.00000997,0.00000837,-0.2460402
 8,0.10688010,0.01465542,0.26665493,0.02388859,-0.02207206,-0.00037466,
 -0.00066815,0.00112852,-0.00000462,-0.00061477,-0.00049572,-0.00102414
 ,-0.00003677,0.00019815,0.00023279,0.00003996,0.00003331,0.00009328,0.
 00014363,0.00010470,0.00009612,0.00064516,-0.00156443,0.00252554,-0.00
 144341,0.00266591,-0.00213807,0.00178185,-0.00440226,0.00017994,0.0009
 3019,0.00159220,-0.00246343,-0.00059539,-0.00000562,0.00070689,0.00007
 927,-0.00003434,-0.00002128,0.11187649,-0.10246981,-0.00814546,-0.1198
 5502,0.11672259,-0.00006398,-0.00034230,-0.00029114,0.00006420,0.00000
 422,0.00008110,0.00004372,-0.00029342,-0.00035270,-0.00010074,0.000092
 63,0.00009383,-0.00001798,0.00004904,0.00004011,-0.00000190,0.00003680
 ,0.00000942,-0.00007090,-0.00011215,0.00041358,-0.00034475,0.00057075,
 -0.00021820,0.00064917,-0.00047207,0.00049490,-0.00005618,0.00039010,-
 0.00020619,0.00008110,-0.00032117,0.00022242,-0.00000520,0.00002768,-0
 .00001614,0.01529932,-0.00820719,-0.04776040,-0.01664529,0.00924986,0.
 04662146,-0.00279236,-0.00001347,-0.00249368,0.00100203,-0.00058442,0.
 00027268,-0.00002019,-0.00016072,-0.00025311,0.00002458,0.00014861,-0.
 00005977,0.00001593,-0.00002987,0.00001737,-0.00003245,0.00006925,0.00
 003801,0.00002575,-0.00027949,0.00052429,-0.00017612,0.00031221,-0.000
 41951,0.00079646,-0.00026717,0.00031394,0.00004971,0.00000892,-0.00008
 761,-0.00003256,0.00021088,0.00014442,0.00000227,-0.00004156,-0.000000
 34,-0.13220872,-0.03817885,-0.11976177,-0.01577840,-0.00730005,-0.0231
 4094,0.13949818,-0.01889983,-0.01142486,-0.02838812,-0.00094116,-0.006
 37893,0.00067382,0.00020392,-0.00051698,-0.00052732,0.00000082,0.00001
 115,0.00030061,-0.00006507,0.00012503,0.00006889,-0.00002312,0.0000782
 3,0.00004591,0.00002182,-0.00011237,0.00055235,0.00038559,0.00054554,-
 0.00012259,-0.00098233,0.00057737,-0.00028775,0.00048163,0.00184801,-0
 .00126715,0.00015840,0.00008041,0.00058188,-0.00002349,-0.00006675,-0.
 00002407,-0.03627091,-0.06157014,-0.04914373,0.00819459,0.00382804,0.0
 1322403,0.04106120,0.07116395,0.00060250,-0.00065142,0.00000422,-0.000
 00554,0.00036824,0.00136643,0.00003839,-0.00026517,-0.00031581,-0.0002
 0823,0.00012608,0.00011340,-0.00000849,0.00006987,0.00003207,0.0000517
 0,-0.00001629,0.00000460,-0.00001283,-0.00000082,0.00040855,0.00043413
 ,0.00038395,-0.00017750,-0.00029078,-0.00017708,-0.00012181,0.00085823
 ,0.00027667,0.00068783,-0.00022581,-0.00024308,0.00036576,-0.00003513,
 -0.00000292,-0.00002546,-0.11959950,-0.05142085,-0.21799313,0.00217955
 ,0.00119387,0.00216948,0.13204133,0.05704320,0.23304237,-0.00212937,0.
 00063400,0.00248301,-0.00013828,0.00002191,0.00001884,-0.00004265,-0.0
 0011338,-0.00018350,0.00004597,-0.00002306,0.00005940,-0.00000661,0.00
 001642,0.00002726,0.00000187,0.00004147,0.00001156,0.00013333,-0.00029
 782,0.00039897,-0.00002700,0.00003837,-0.00020310,0.00043683,0.0001210
 2,-0.00031106,0.00045500,-0.00128870,0.00063006,0.00019639,0.00021053,
 -0.00036087,-0.00002940,0.00003350,-0.00001889,-0.10645158,-0.03820980
 ,0.10432922,-0.01294402,-0.00887159,0.02431035,0.00962590,0.00669794,-
 0.01581952,0.11087365,-0.01370446,-0.01195278,0.02920431,0.00021993,0.
 00135083,-0.00057459,-0.00001467,0.00004002,-0.00001832,-0.00000332,-0
 .00006728,0.00001239,-0.00001975,0.00000736,-0.00001101,0.00003781,-0.
 00001582,-0.00000513,-0.00007056,0.00004994,0.00016385,0.00088202,0.00
 004260,-0.00052428,-0.00140477,0.00067969,0.00078283,-0.00160041,-0.00
 643581,-0.00122989,-0.00027687,-0.00042273,0.00140441,0.00004719,0.000
 27322,0.00011996,-0.03672736,-0.06885796,0.06298648,0.00660149,0.00477
 080,-0.01389682,0.00504451,0.00181230,-0.00668425,0.04098921,0.0787256
 1,-0.00182599,-0.00078771,0.00195903,-0.00005718,0.00063039,0.00042827
 ,0.00007781,-0.00005452,-0.00007082,0.00004377,0.00000304,0.00002246,-
 0.00001763,0.00000682,0.00000809,-0.00005690,0.00003766,0.00000982,-0.
 00002691,-0.00002924,-0.00015455,-0.00045081,-0.00001583,0.00023487,0.
 00028829,0.00011011,0.00002716,0.00045675,-0.00043350,0.00105846,-0.00
 003433,0.00006493,0.00046457,-0.00003976,-0.00001610,0.00003611,0.1041
 9249,0.06505049,-0.23686398,-0.00004255,-0.00010663,-0.00130152,0.0128
 6469,0.00727004,-0.01956102,-0.11537175,-0.07172994,0.25370306\\0.0000
 0054,0.00000032,-0.00000023,-0.00000007,0.00000027,-0.00000008,0.00000
 005,-0.00000002,0.00000002,-0.00000005,-0.00000003,0.00000002,0.,-0.00
 000006,-0.00000002,-0.00000002,0.00000006,0.00000006,0.00000003,0.0000
 0010,-0.00000011,0.00000030,-0.00000004,-0.00000001,-0.00000023,0.0000
 0036,0.00000006,-0.00000014,0.00000004,0.00000021,0.00000005,-0.000000
 08,-0.00000023,-0.00000004,-0.00000023,-0.00000011,0.00000010,-0.00000
 056,-0.00000018,-0.00000024,0.00000005,0.00000020,-0.00000020,-0.00000
 008,0.00000029,-0.00000007,-0.00000009,0.00000011\\\@


 FORGIVE MY NONSENSE AS I ALSO FORGIVE THOSE WHO THINK THEY TALK SENSE

                                                       -- ROBERT FROST
 Job cpu time:       2 days  7 hours 47 minutes 59.1 seconds.
 Elapsed time:       0 days  1 hours 26 minutes 34.6 seconds.
 File lengths (MBytes):  RWF=  83473 Int=      0 D2E=      0 Chk=     18 Scr=      1
 Normal termination of Gaussian 16 at Mon Jun 24 23:10:23 2019.
