 Entering Gaussian System, Link 0=g16
 Initial command:
 /ichec/packages/gaussian/16b01/l1.exe "/localscratch/350160/Gau-61327.inp" -scrdir="/localscratch/350160/"
 Entering Link 1 = /ichec/packages/gaussian/16b01/l1.exe PID=     62045.
  
 Copyright (c) 1988-2017, Gaussian, Inc.  All Rights Reserved.
  
 This is part of the Gaussian(R) 16 program.  It is based on
 the Gaussian(R) 09 system (copyright 2009, Gaussian, Inc.),
 the Gaussian(R) 03 system (copyright 2003, Gaussian, Inc.),
 the Gaussian(R) 98 system (copyright 1998, Gaussian, Inc.),
 the Gaussian(R) 94 system (copyright 1995, Gaussian, Inc.),
 the Gaussian 92(TM) system (copyright 1992, Gaussian, Inc.),
 the Gaussian 90(TM) system (copyright 1990, Gaussian, Inc.),
 the Gaussian 88(TM) system (copyright 1988, Gaussian, Inc.),
 the Gaussian 86(TM) system (copyright 1986, Carnegie Mellon
 University), and the Gaussian 82(TM) system (copyright 1983,
 Carnegie Mellon University). Gaussian is a federally registered
 trademark of Gaussian, Inc.
  
 This software contains proprietary and confidential information,
 including trade secrets, belonging to Gaussian, Inc.
  
 This software is provided under written license and may be
 used, copied, transmitted, or stored only in accord with that
 written license.
  
 The following legend is applicable only to US Government
 contracts under FAR:
  
                    RESTRICTED RIGHTS LEGEND
  
 Use, reproduction and disclosure by the US Government is
 subject to restrictions as set forth in subparagraphs (a)
 and (c) of the Commercial Computer Software - Restricted
 Rights clause in FAR 52.227-19.
  
 Gaussian, Inc.
 340 Quinnipiac St., Bldg. 40, Wallingford CT 06492
  
  
 ---------------------------------------------------------------
 Warning -- This program may not be used in any manner that
 competes with the business of Gaussian, Inc. or will provide
 assistance to any competitor of Gaussian, Inc.  The licensee
 of this program is prohibited from giving any competitor of
 Gaussian, Inc. access to this program.  By using this program,
 the user acknowledges that Gaussian, Inc. is engaged in the
 business of creating and licensing software in the field of
 computational chemistry and represents and warrants to the
 licensee that it is not a competitor of Gaussian, Inc. and that
 it will not use this program in any manner prohibited above.
 ---------------------------------------------------------------
  

 Cite this work as:
 Gaussian 16, Revision B.01,
 M. J. Frisch, G. W. Trucks, H. B. Schlegel, G. E. Scuseria, 
 M. A. Robb, J. R. Cheeseman, G. Scalmani, V. Barone, 
 G. A. Petersson, H. Nakatsuji, X. Li, M. Caricato, A. V. Marenich, 
 J. Bloino, B. G. Janesko, R. Gomperts, B. Mennucci, H. P. Hratchian, 
 J. V. Ortiz, A. F. Izmaylov, J. L. Sonnenberg, D. Williams-Young, 
 F. Ding, F. Lipparini, F. Egidi, J. Goings, B. Peng, A. Petrone, 
 T. Henderson, D. Ranasinghe, V. G. Zakrzewski, J. Gao, N. Rega, 
 G. Zheng, W. Liang, M. Hada, M. Ehara, K. Toyota, R. Fukuda, 
 J. Hasegawa, M. Ishida, T. Nakajima, Y. Honda, O. Kitao, H. Nakai, 
 T. Vreven, K. Throssell, J. A. Montgomery, Jr., J. E. Peralta, 
 F. Ogliaro, M. J. Bearpark, J. J. Heyd, E. N. Brothers, K. N. Kudin, 
 V. N. Staroverov, T. A. Keith, R. Kobayashi, J. Normand, 
 K. Raghavachari, A. P. Rendell, J. C. Burant, S. S. Iyengar, 
 J. Tomasi, M. Cossi, J. M. Millam, M. Klene, C. Adamo, R. Cammi, 
 J. W. Ochterski, R. L. Martin, K. Morokuma, O. Farkas, 
 J. B. Foresman, and D. J. Fox, Gaussian, Inc., Wallingford CT, 2016.
 
 ******************************************
 Gaussian 16:  ES64L-G16RevB.01 20-Dec-2017
                18-Jun-2019 
 ******************************************
 %mem=80GB
 %nproc=40
 Will use up to   40 processors via shared memory.
 ----------------------------------------------------------------------
 # opt=(calcfc,ts,noeigentest,maxcyc=500,modredundant) uB2PLYPD3/cc-pvt
 z scf=maxcyc=500 nosymm
 ----------------------------------------------------------------------
 1/5=1,6=500,10=4,11=1,18=120,38=1/1,3;
 2/9=110,12=2,15=1,17=6,18=5,40=1/2;
 3/5=16,6=1,11=2,25=1,30=1,71=2,74=-60,116=2,140=1/1,2,3;
 4//1;
 5/5=2,7=500,38=5/2;
 8/6=3,8=1,10=1,19=11,30=-1/1;
 9/15=3,16=-3/6;
 11/6=1,8=1,15=11,17=12,24=-1,27=1,28=-2,29=300,31=1,32=6,42=3/1,2,10;
 10/6=2,21=1,31=1/2;
 8/6=4,8=1,10=1,19=11,30=-1/11,4;
 10/5=1,20=4,31=1/2;
 11/12=2,14=11,16=1,17=2,28=-2,31=1,42=3,76=2/2,10,12;
 6/7=2,8=2,9=2,10=2/1;
 7/10=1,12=2,25=1,30=1,44=2/1,2,3,16;
 1/5=1,6=500,10=4,11=1,18=20/3(2);
 2/9=110,15=1/2;
 99//99;
 2/9=110,15=1/2;
 3/5=16,6=1,11=2,25=1,30=1,71=1,74=-60,116=2/1,2,3;
 4/5=5,16=3,69=1/1;
 5/5=2,7=500,38=5/2;
 8/6=4,10=1/1;
 9/15=2,16=-3/6;
 10/5=1,31=1/2;
 7/12=2,30=1/1,2,3,16;
 1/5=1,6=500,11=1,18=20/3(-8);
 2/9=110,15=1/2;
 6/7=2,8=2,9=2,10=2/1;
 99/9=10/99;
 -------------------
 Title Card Required
 -------------------
 Symbolic Z-matrix:
 Charge =  0 Multiplicity = 2
 C                     0.28291  -1.31169   0.47406 
 C                     0.98096  -0.48607  -0.26757 
 H                     0.55325  -2.0504    1.21457 
 H                     0.44876   0.17209  -0.95115 
 C                    -2.26286   1.28567   0.37169 
 H                    -1.43569   1.25065   1.08217 
 H                    -2.26189   2.23791  -0.1553 
 H                    -3.208     1.14556   0.89332 
 O                    -2.09955   0.30113  -0.63911 
 O                    -2.18171  -0.96642  -0.0116 
 H                    -1.13367  -1.19458   0.2335 
 C                     2.48415  -0.35158  -0.24333 
 H                     2.90824  -1.08562   0.44086 
 H                     2.86571  -0.58357  -1.24011 
 C                     2.9193    1.05963   0.15316 
 H                     2.5796    1.30074   1.15922 
 H                     4.00412   1.15229   0.12823 
 H                     2.50291   1.80151  -0.52768 
 
 Add virtual bond connecting atoms H11        and C1         Dist= 2.72D+00.
 The following ModRedundant input section has been read:
 D    *          1      10    *    R                                           
 D       2       1      10       9 S  36 10.000                                
 

 GradGradGradGradGradGradGradGradGradGradGradGradGradGradGradGradGradGrad
 Berny optimization.
 Initialization pass.
                           ----------------------------
                           !    Initial Parameters    !
                           ! (Angstroms and Degrees)  !
 --------------------------                            --------------------------
 ! Name  Definition              Value          Derivative Info.                !
 --------------------------------------------------------------------------------
 ! R1    R(1,2)                  1.3111         calculate D2E/DX2 analytically  !
 ! R2    R(1,3)                  1.0803         calculate D2E/DX2 analytically  !
 ! R3    R(1,11)                 1.4416         calculate D2E/DX2 analytically  !
 ! R4    R(2,4)                  1.088          calculate D2E/DX2 analytically  !
 ! R5    R(2,12)                 1.5094         calculate D2E/DX2 analytically  !
 ! R6    R(5,6)                  1.091          calculate D2E/DX2 analytically  !
 ! R7    R(5,7)                  1.0883         calculate D2E/DX2 analytically  !
 ! R8    R(5,8)                  1.0886         calculate D2E/DX2 analytically  !
 ! R9    R(5,9)                  1.4205         calculate D2E/DX2 analytically  !
 ! R10   R(9,10)                 1.4168         calculate D2E/DX2 analytically  !
 ! R11   R(10,11)                1.1002         calculate D2E/DX2 analytically  !
 ! R12   R(12,13)                1.0894         calculate D2E/DX2 analytically  !
 ! R13   R(12,14)                1.0922         calculate D2E/DX2 analytically  !
 ! R14   R(12,15)                1.5291         calculate D2E/DX2 analytically  !
 ! R15   R(15,16)                1.0889         calculate D2E/DX2 analytically  !
 ! R16   R(15,17)                1.0891         calculate D2E/DX2 analytically  !
 ! R17   R(15,18)                1.0896         calculate D2E/DX2 analytically  !
 ! A1    A(2,1,3)              133.2418         calculate D2E/DX2 analytically  !
 ! A2    A(2,1,11)             112.1873         calculate D2E/DX2 analytically  !
 ! A3    A(3,1,11)             114.5708         calculate D2E/DX2 analytically  !
 ! A4    A(1,2,4)              118.4184         calculate D2E/DX2 analytically  !
 ! A5    A(1,2,12)             125.259          calculate D2E/DX2 analytically  !
 ! A6    A(4,2,12)             116.3169         calculate D2E/DX2 analytically  !
 ! A7    A(6,5,7)              110.0445         calculate D2E/DX2 analytically  !
 ! A8    A(6,5,8)              110.0045         calculate D2E/DX2 analytically  !
 ! A9    A(6,5,9)              110.7319         calculate D2E/DX2 analytically  !
 ! A10   A(7,5,8)              110.207          calculate D2E/DX2 analytically  !
 ! A11   A(7,5,9)              105.1756         calculate D2E/DX2 analytically  !
 ! A12   A(8,5,9)              110.5849         calculate D2E/DX2 analytically  !
 ! A13   A(5,9,10)             107.3538         calculate D2E/DX2 analytically  !
 ! A14   A(9,10,11)            103.2363         calculate D2E/DX2 analytically  !
 ! A15   A(2,12,13)            109.7387         calculate D2E/DX2 analytically  !
 ! A16   A(2,12,14)            108.3199         calculate D2E/DX2 analytically  !
 ! A17   A(2,12,15)            111.7042         calculate D2E/DX2 analytically  !
 ! A18   A(13,12,14)           107.1004         calculate D2E/DX2 analytically  !
 ! A19   A(13,12,15)           110.379          calculate D2E/DX2 analytically  !
 ! A20   A(14,12,15)           109.4666         calculate D2E/DX2 analytically  !
 ! A21   A(12,15,16)           110.8027         calculate D2E/DX2 analytically  !
 ! A22   A(12,15,17)           110.8584         calculate D2E/DX2 analytically  !
 ! A23   A(12,15,18)           110.953          calculate D2E/DX2 analytically  !
 ! A24   A(16,15,17)           108.2437         calculate D2E/DX2 analytically  !
 ! A25   A(16,15,18)           107.8986         calculate D2E/DX2 analytically  !
 ! A26   A(17,15,18)           107.9643         calculate D2E/DX2 analytically  !
 ! A27   L(1,11,10,6,-1)       174.3621         calculate D2E/DX2 analytically  !
 ! A28   L(1,11,10,6,-2)       174.083          calculate D2E/DX2 analytically  !
 ! D1    D(3,1,2,4)           -179.9468         calculate D2E/DX2 analytically  !
 ! D2    D(3,1,2,12)            -0.8507         calculate D2E/DX2 analytically  !
 ! D3    D(11,1,2,4)             0.2075         calculate D2E/DX2 analytically  !
 ! D4    D(11,1,2,12)          179.3036         calculate D2E/DX2 analytically  !
 ! D5    D(2,1,10,9)           -17.2492         Scan                            !
 ! D6    D(1,2,12,13)            3.3431         calculate D2E/DX2 analytically  !
 ! D7    D(1,2,12,14)          119.9512         calculate D2E/DX2 analytically  !
 ! D8    D(1,2,12,15)         -119.4098         calculate D2E/DX2 analytically  !
 ! D9    D(4,2,12,13)         -177.5438         calculate D2E/DX2 analytically  !
 ! D10   D(4,2,12,14)          -60.9357         calculate D2E/DX2 analytically  !
 ! D11   D(4,2,12,15)           59.7033         calculate D2E/DX2 analytically  !
 ! D12   D(6,5,9,10)            64.8922         calculate D2E/DX2 analytically  !
 ! D13   D(7,5,9,10)          -176.2664         calculate D2E/DX2 analytically  !
 ! D14   D(8,5,9,10)           -57.3083         calculate D2E/DX2 analytically  !
 ! D15   D(5,9,10,11)          -91.6304         calculate D2E/DX2 analytically  !
 ! D16   D(2,12,15,16)          62.022          calculate D2E/DX2 analytically  !
 ! D17   D(2,12,15,17)        -177.7702         calculate D2E/DX2 analytically  !
 ! D18   D(2,12,15,18)         -57.8144         calculate D2E/DX2 analytically  !
 ! D19   D(13,12,15,16)        -60.3648         calculate D2E/DX2 analytically  !
 ! D20   D(13,12,15,17)         59.843          calculate D2E/DX2 analytically  !
 ! D21   D(13,12,15,18)        179.7988         calculate D2E/DX2 analytically  !
 ! D22   D(14,12,15,16)       -178.0106         calculate D2E/DX2 analytically  !
 ! D23   D(14,12,15,17)        -57.8027         calculate D2E/DX2 analytically  !
 ! D24   D(14,12,15,18)         62.153          calculate D2E/DX2 analytically  !
 --------------------------------------------------------------------------------
 Trust Radius=3.00D-01 FncErr=1.00D-07 GrdErr=1.00D-07 EigMax=2.50D+02 EigMin=1.00D-04
 Number of optimizations in scan=  37
 Number of steps in this run=    108 maximum allowed number of steps=    108.
 Search for a saddle point of order  1.
 GradGradGradGradGradGradGradGradGradGradGradGradGradGradGradGradGradGrad

                          Input orientation:                          
 ---------------------------------------------------------------------
 Center     Atomic      Atomic             Coordinates (Angstroms)
 Number     Number       Type             X           Y           Z
 ---------------------------------------------------------------------
      1          6           0        0.282905   -1.311694    0.474059
      2          6           0        0.980963   -0.486073   -0.267565
      3          1           0        0.553251   -2.050399    1.214572
      4          1           0        0.448764    0.172087   -0.951149
      5          6           0       -2.262861    1.285671    0.371687
      6          1           0       -1.435690    1.250649    1.082166
      7          1           0       -2.261895    2.237910   -0.155296
      8          1           0       -3.207998    1.145558    0.893318
      9          8           0       -2.099549    0.301128   -0.639108
     10          8           0       -2.181711   -0.966419   -0.011600
     11          1           0       -1.133675   -1.194584    0.233503
     12          6           0        2.484152   -0.351575   -0.243333
     13          1           0        2.908244   -1.085621    0.440864
     14          1           0        2.865706   -0.583571   -1.240108
     15          6           0        2.919298    1.059632    0.153156
     16          1           0        2.579604    1.300736    1.159218
     17          1           0        4.004119    1.152285    0.128230
     18          1           0        2.502908    1.801513   -0.527683
 ---------------------------------------------------------------------
                    Distance matrix (angstroms):
                    1          2          3          4          5
     1  C    0.000000
     2  C    1.311084   0.000000
     3  H    1.080339   2.196994   0.000000
     4  H    2.064057   1.087979   3.104949   0.000000
     5  C    3.638366   3.751015   4.446381   3.216034   0.000000
     6  H    3.144672   3.267750   3.856207   2.974699   1.090971
     7  H    4.412684   4.236604   5.309537   3.499811   1.088334
     8  H    4.289554   4.642980   4.946144   4.209705   1.088584
     9  O    3.084870   3.201138   4.000395   2.570588   1.420458
    10  O    2.535628   3.209168   3.187245   3.016347   2.285914
    11  H    1.441624   2.285771   2.130877   2.403186   2.728703
    12  C    2.506385   1.509389   2.956327   2.217663   5.058948
    13  H    2.635264   2.139098   2.659965   3.093311   5.689300
    14  H    3.184241   2.123111   3.677565   2.548750   5.691586
    15  C    3.560440   2.514628   4.049330   2.847940   5.191688
    16  H    3.545287   2.789991   3.916539   3.204368   4.906108
    17  H    4.476407   3.461263   4.831751   3.842707   6.273125
    18  H    3.952715   2.759896   4.655517   2.655910   4.877244
                    6          7          8          9         10
     6  H    0.000000
     7  H    1.785668   0.000000
     8  H    1.785436   1.785479   0.000000
     9  O    2.074869   2.002887   2.071244   0.000000
    10  O    2.582298   3.208551   2.516463   1.416754   0.000000
    11  H    2.605879   3.634014   3.196003   1.982805   1.100234
    12  C    4.437255   5.407231   5.994494   4.646824   4.711901
    13  H    4.973850   6.175079   6.526200   5.307297   5.111416
    14  H    5.221047   5.952299   6.665679   5.079139   5.208860
    15  C    4.457069   5.322428   6.172437   5.137298   5.491113
    16  H    4.016346   5.103563   5.795785   5.111523   5.401937
    17  H    5.523694   6.365681   7.252588   6.210317   6.540103
    18  H    4.290410   4.799215   5.921484   4.842126   5.465660
                   11         12         13         14         15
    11  H    0.000000
    12  C    3.745225   0.000000
    13  H    4.048701   1.089405   0.000000
    14  H    4.305800   1.092230   1.754859   0.000000
    15  C    4.638376   1.529072   2.164488   2.155034   0.000000
    16  H    4.568590   2.169422   2.513710   3.064185   1.088891
    17  H    5.649407   2.170243   2.511355   2.486268   1.089056
    18  H    4.772917   2.171864   3.072120   2.515511   1.089637
                   16         17         18
    16  H    0.000000
    17  H    1.764714   0.000000
    18  H    1.761333   1.762201   0.000000
 Symmetry turned off by external request.
 Stoichiometry    C5H11O2(2)
 Framework group  C1[X(C5H11O2)]
 Deg. of freedom    48
 Full point group                 C1      NOp   1
 Rotational constants (GHZ):           4.3381022           1.0478746           0.9060922
 Standard basis: CC-pVTZ (5D, 7F)
   364 basis functions,   551 primitive gaussians,   410 cartesian basis functions
    29 alpha electrons       28 beta electrons
       nuclear repulsion energy       298.3867939567 Hartrees.
 NAtoms=   18 NActive=   18 NUniq=   18 SFac= 1.00D+00 NAtFMM=   60 NAOKFM=F Big=F
 Integral buffers will be    131072 words long.
 Raffenetti 2 integral format.
 Two-electron integral symmetry is turned off.
 Nuclear repulsion after empirical dispersion term =      298.3774731548 Hartrees.
 One-electron integrals computed using PRISM.
 NBasis=   364 RedAO= T EigKep=  3.90D-04  NBF=   364
 NBsUse=   364 1.00D-06 EigRej= -1.00D+00 NBFU=   364
 ExpMin= 1.03D-01 ExpMax= 1.53D+04 ExpMxC= 5.22D+02 IAcc=3 IRadAn=         5 AccDes= 0.00D+00
 Harris functional with IExCor=  419 and IRadAn=       5 diagonalized for initial guess.
 HarFok:  IExCor=  419 AccDes= 0.00D+00 IRadAn=         5 IDoV= 1 UseB2=F ITyADJ=14
 ICtDFT=  3500011 ScaDFX=  1.000000  1.000000  1.000000  1.000000
 FoFCou: FMM=F IPFlag=           0 FMFlag=      100000 FMFlg1=           0
         NFxFlg=           0 DoJE=T BraDBF=F KetDBF=T FulRan=T
         wScrn=  0.000000 ICntrl=       500 IOpCl=  0 I1Cent=   200000004 NGrid=           0
         NMat0=    1 NMatS0=      1 NMatT0=    0 NMatD0=    1 NMtDS0=    0 NMtDT0=    0
 Symmetry not used in FoFCou.
 Initial guess <Sx>= 0.0000 <Sy>= 0.0000 <Sz>= 0.5000 <S**2>= 0.7500 S= 0.5000
 Requested convergence on RMS density matrix=1.00D-08 within 500 cycles.
 Requested convergence on MAX density matrix=1.00D-06.
 Requested convergence on             energy=1.00D-06.
 No special actions if energy rises.
 Integral accuracy reduced to 1.0D-05 until final iterations.
 Initial convergence to 1.0D-05 achieved.  Increase integral accuracy.
 SCF Done:  E(UB2PLYPD3) =  -346.797896305     A.U. after   22 cycles
            NFock= 22  Conv=0.69D-08     -V/T= 2.0044
 <Sx>= 0.0000 <Sy>= 0.0000 <Sz>= 0.5000 <S**2>= 0.7788 S= 0.5143
 <L.S>=  0.00000000000    
 Annihilation of the first spin contaminant:
 S**2 before annihilation     0.7788,   after     0.7506
 DoSCS=T DFT=T ScalE2(SS,OS)=  0.270000  0.270000
 ExpMin= 1.03D-01 ExpMax= 1.53D+04 ExpMxC= 5.22D+02 IAcc=3 IRadAn=         5 AccDes= 0.00D+00
 HarFok:  IExCor=  205 AccDes= 0.00D+00 IRadAn=         5 IDoV=-2 UseB2=F ITyADJ=14
 ICtDFT= 12500011 ScaDFX=  1.000000  1.000000  1.000000  1.000000
 Range of M.O.s used for correlation:     8   364
 NBasis=   364 NAE=    29 NBE=    28 NFC=     7 NFV=     0
 NROrb=    357 NOA=    22 NOB=    21 NVA=   335 NVB=   336

 **** Warning!!: The largest alpha MO coefficient is  0.12060625D+02


 **** Warning!!: The largest beta MO coefficient is  0.12217429D+02

 DoSCS=T DFT=T ScalE2(SS,OS)=  0.270000  0.270000
 Disk-based method using ON**2 memory for 22 occupieds at a time.
 Permanent disk used for amplitudes=   135386230 words.
 Estimated scratch disk usage=  2484747692 words.
 Actual    scratch disk usage=  2402477996 words.
 JobTyp=2 Pass  1:  I=   8 to  29 NPSUse= 40 ParTrn=T ParDer=T DoDerP=T.
 (rs|ai) integrals will be sorted in core.
 Actual    scratch disk usage=  2402477996 words.
 JobTyp=3 Pass  1:  I=   8 to  28 NPSUse= 40 ParTrn=T ParDer=T DoDerP=T.
 (rs|ai) integrals will be sorted in core.
 Spin components of T(2) and E(2):
     alpha-alpha T2 =       0.7530945851D-01 E2=     -0.5331135488D-01
     alpha-beta  T2 =       0.4618120868D+00 E2=     -0.3338274873D+00
     beta-beta   T2 =       0.7986029296D-01 E2=     -0.5193627350D-01
 (S**2,0)=  0.77881D+00           (S**2,1)=  0.75060D+00
 Scaling Projection term by:   0.270000
 E(PUHF)=      -0.34680405569D+03        E(PMP2)=      -0.34723782958D+03
 E2(B2PLYPD3) =    -0.4390751156D+00 E(B2PLYPD3) =    -0.34723697142058D+03
 G2DrvN: will do    19 centers at a time, making    1 passes.
 Calling FoFCou, ICntrl=  3107 FMM=F I1Cent=   0 AccDes= 0.00D+00.
 End of G2Drv F.D. properties file   721 does not exist.
 End of G2Drv F.D. properties file   722 does not exist.
 End of G2Drv F.D. properties file   788 does not exist.
          IDoAtm=111111111111111111
          Differentiating once with respect to electric field.
                with respect to dipole field.
          Differentiating once with respect to nuclear coordinates.
 Keep R1 and R2 ints in memory in canonical form, NReq=4459303756.
          There are    57 degrees of freedom in the 1st order CPHF.  IDoFFX=6 NUNeed=    57.
     54 vectors produced by pass  0 Test12= 3.35D-14 1.75D-09 XBig12= 8.44D+01 4.20D+00.
 AX will form    54 AO Fock derivatives at one time.
     54 vectors produced by pass  1 Test12= 3.35D-14 1.75D-09 XBig12= 6.54D+00 5.41D-01.
     54 vectors produced by pass  2 Test12= 3.35D-14 1.75D-09 XBig12= 4.51D-01 1.15D-01.
     54 vectors produced by pass  3 Test12= 3.35D-14 1.75D-09 XBig12= 7.62D-03 8.53D-03.
     54 vectors produced by pass  4 Test12= 3.35D-14 1.75D-09 XBig12= 1.01D-04 9.13D-04.
     54 vectors produced by pass  5 Test12= 3.35D-14 1.75D-09 XBig12= 8.46D-07 7.41D-05.
     51 vectors produced by pass  6 Test12= 3.35D-14 1.75D-09 XBig12= 6.91D-09 7.16D-06.
     26 vectors produced by pass  7 Test12= 3.35D-14 1.75D-09 XBig12= 4.64D-11 5.29D-07.
      3 vectors produced by pass  8 Test12= 3.35D-14 1.75D-09 XBig12= 3.31D-13 7.05D-08.
      2 vectors produced by pass  9 Test12= 3.35D-14 1.75D-09 XBig12= 2.27D-15 3.37D-09.
 InvSVY:  IOpt=1 It=  1 EMax= 3.55D-15
 Solved reduced A of dimension   406 with    57 vectors.
 End of Minotr F.D. properties file   721 does not exist.
 End of Minotr F.D. properties file   722 does not exist.
 End of Minotr F.D. properties file   788 does not exist.
 MDV= 10737418240.
 DoSCS=T DFT=T ScalE2(SS,OS)=  0.270000  0.270000
 Form MO integral derivatives with frozen-active canonical formalism.
 Discarding MO integrals.
 Reordered first order wavefunction length =    545006183
 In DefCFB: NBatch=  1 ICI= 29 ICA=336 LFMax= 68
            Large arrays: LIAPS= 11415666080 LIARS=  1957569600 words.
 In DefCFB: NBatch=  1 ICI= 29 ICA=336 LFMax= 68
            Large arrays: LIAPS= 11415666080 LIARS=  1957569600 words.
 Semi-Direct transformation.
 ModeAB=           4 MOrb=            29 LenV=   10733571101
 LASXX=    664627481 LTotXX=   664627481 LenRXX=  1338891981
 LTotAB=   674264500 MaxLAS=   759124184 LenRXY=           0
 NonZer=  2003519462 LenScr=  3017065472 LnRSAI=   759124184
 LnScr1=  1143152640 LExtra=           0 Total=   6258234277
 MaxDsk=          -1 SrtSym=           T ITran=            4
 JobTyp=1 Pass  1:  I=   1 to  29.
 (rs|ai) integrals will be sorted in core.
 ModeAB=           4 MOrb=            28 LenV=   10733571101
 LASXX=    642894399 LTotXX=   642894399 LenRXX=  1195226319
 LTotAB=   552331920 MaxLAS=   732947488 LenRXY=           0
 NonZer=  1838120718 LenScr=  2767993856 LnRSAI=   732947488
 LnScr1=  1103732736 LExtra=           0 Total=   5799900399
 MaxDsk=          -1 SrtSym=           T ITran=            4
 JobTyp=2 Pass  1:  I=   1 to  28.
 (rs|ai) integrals will be sorted in core.
 DoSCS=T DFT=T ScalE2(SS,OS)=  0.270000  0.270000
 Spin components of T(2) and E(2):
     alpha-alpha T2 =       0.7530945851D-01 E2=     -0.5331135488D-01
     alpha-beta  T2 =       0.4618120868D+00 E2=     -0.3338274873D+00
     beta-beta   T2 =       0.7986029296D-01 E2=     -0.5193627350D-01
 E2(B2PLYPD3) =    -0.4390751156D+00 E(B2PLYPD3) =    -0.34723697142058D+03
 (S**2,0)=  0.77881D+00           (S**2,1)=  0.75060D+00
 Scaling Projection term by:   0.270000
 E(PUHF)=      -0.34680405569D+03        E(PMP2)=      -0.34723782958D+03
          IDoAtm=111111111111111111
          Differentiating once with respect to electric field.
                with respect to dipole field.
          Differentiating once with respect to nuclear coordinates.
 Keep R1 and R2 ints in memory in canonical form, NReq=4459438754.
          There are     1 degrees of freedom in the 1st order CPHF.  IDoFFX=0 NUNeed=     1.
 LinEq1:  Iter=  0 NonCon=     1 RMS=8.66D-04 Max=6.99D-02 NDo=     1
 AX will form     1 AO Fock derivatives at one time.
 LinEq1:  Iter=  1 NonCon=     1 RMS=2.90D-04 Max=1.31D-02 NDo=     1
 LinEq1:  Iter=  2 NonCon=     1 RMS=1.80D-04 Max=9.14D-03 NDo=     1
 LinEq1:  Iter=  3 NonCon=     1 RMS=8.62D-05 Max=4.17D-03 NDo=     1
 LinEq1:  Iter=  4 NonCon=     1 RMS=6.52D-05 Max=3.64D-03 NDo=     1
 LinEq1:  Iter=  5 NonCon=     1 RMS=2.91D-05 Max=1.23D-03 NDo=     1
 LinEq1:  Iter=  6 NonCon=     1 RMS=2.03D-05 Max=8.99D-04 NDo=     1
 LinEq1:  Iter=  7 NonCon=     1 RMS=7.54D-06 Max=2.57D-04 NDo=     1
 LinEq1:  Iter=  8 NonCon=     1 RMS=5.26D-06 Max=1.96D-04 NDo=     1
 LinEq1:  Iter=  9 NonCon=     1 RMS=2.60D-06 Max=8.78D-05 NDo=     1
 LinEq1:  Iter= 10 NonCon=     1 RMS=1.07D-06 Max=2.60D-05 NDo=     1
 LinEq1:  Iter= 11 NonCon=     1 RMS=4.67D-07 Max=9.62D-06 NDo=     1
 LinEq1:  Iter= 12 NonCon=     1 RMS=2.10D-07 Max=3.63D-06 NDo=     1
 LinEq1:  Iter= 13 NonCon=     1 RMS=9.33D-08 Max=1.94D-06 NDo=     1
 LinEq1:  Iter= 14 NonCon=     1 RMS=2.96D-08 Max=7.73D-07 NDo=     1
 LinEq1:  Iter= 15 NonCon=     1 RMS=1.26D-08 Max=2.01D-07 NDo=     1
 LinEq1:  Iter= 16 NonCon=     1 RMS=4.93D-09 Max=1.34D-07 NDo=     1
 LinEq1:  Iter= 17 NonCon=     1 RMS=1.60D-09 Max=4.71D-08 NDo=     1
 LinEq1:  Iter= 18 NonCon=     1 RMS=4.71D-10 Max=1.97D-08 NDo=     1
 LinEq1:  Iter= 19 NonCon=     1 RMS=1.47D-10 Max=7.04D-09 NDo=     1
 LinEq1:  Iter= 20 NonCon=     1 RMS=4.60D-11 Max=2.15D-09 NDo=     1
 LinEq1:  Iter= 21 NonCon=     0 RMS=1.35D-11 Max=4.42D-10 NDo=     1
 Linear equations converged to 1.000D-10 1.000D-09 after    21 iterations.
 End of Minotr F.D. properties file   721 does not exist.
 End of Minotr F.D. properties file   722 does not exist.
 End of Minotr F.D. properties file   788 does not exist.
 Symmetrizing basis deriv contribution to polar:
 IMax=3 JMax=2 DiffMx= 0.00D+00
 G2DrvN: will do    19 centers at a time, making    1 passes.
 Calling FoFCou, ICntrl=  3107 FMM=F I1Cent=   0 AccDes= 0.00D+00.
 End of G2Drv F.D. properties file   721 does not exist.
 End of G2Drv F.D. properties file   722 does not exist.
 End of G2Drv F.D. properties file   788 does not exist.
 DoSCS=T DFT=T ScalE2(SS,OS)=  0.270000  0.270000
 R2 and R3 integrals will be kept in memory, NReq=  7133702340.
 DD1Dir will call FoFMem   1 times, MxPair=      2408
 NAB=   812 NAA=   406 NBB=   378.
 Discarding MO integrals.

 **********************************************************************

            Population analysis using the SCF Density.

 **********************************************************************

 Alpha  occ. eigenvalues --  -19.78357 -19.77944 -10.65741 -10.64409 -10.63249
 Alpha  occ. eigenvalues --  -10.63085 -10.61360  -1.26938  -1.02292  -0.93692
 Alpha  occ. eigenvalues --   -0.85811  -0.77533  -0.73707  -0.65675  -0.61706
 Alpha  occ. eigenvalues --   -0.55383  -0.54480  -0.54131  -0.53200  -0.50073
 Alpha  occ. eigenvalues --   -0.47979  -0.45910  -0.43828  -0.43538  -0.41724
 Alpha  occ. eigenvalues --   -0.37010  -0.36722  -0.32882  -0.30460
 Alpha virt. eigenvalues --    0.05419   0.07805   0.09505   0.10319   0.11885
 Alpha virt. eigenvalues --    0.12715   0.13763   0.14663   0.15312   0.16064
 Alpha virt. eigenvalues --    0.17579   0.17952   0.20356   0.23122   0.24565
 Alpha virt. eigenvalues --    0.27605   0.29017   0.30743   0.32056   0.32481
 Alpha virt. eigenvalues --    0.33175   0.35634   0.36941   0.37415   0.39669
 Alpha virt. eigenvalues --    0.43943   0.45754   0.46611   0.47144   0.48592
 Alpha virt. eigenvalues --    0.49595   0.49746   0.51265   0.51478   0.52265
 Alpha virt. eigenvalues --    0.52812   0.53214   0.53661   0.54085   0.56370
 Alpha virt. eigenvalues --    0.56425   0.58285   0.59315   0.60172   0.62820
 Alpha virt. eigenvalues --    0.64257   0.68287   0.68591   0.68999   0.70091
 Alpha virt. eigenvalues --    0.70419   0.75256   0.77583   0.77751   0.79470
 Alpha virt. eigenvalues --    0.80488   0.84296   0.87092   0.88997   0.89584
 Alpha virt. eigenvalues --    0.92237   0.93760   0.95102   0.98334   0.98565
 Alpha virt. eigenvalues --    0.99995   1.01168   1.03451   1.04889   1.05841
 Alpha virt. eigenvalues --    1.07100   1.09955   1.10839   1.12404   1.13742
 Alpha virt. eigenvalues --    1.14963   1.16254   1.17277   1.17704   1.18159
 Alpha virt. eigenvalues --    1.19191   1.21093   1.21412   1.22766   1.24430
 Alpha virt. eigenvalues --    1.26048   1.27036   1.28519   1.32515   1.34270
 Alpha virt. eigenvalues --    1.36050   1.36790   1.37968   1.39375   1.40911
 Alpha virt. eigenvalues --    1.41259   1.42323   1.45352   1.46553   1.49183
 Alpha virt. eigenvalues --    1.49815   1.51325   1.53688   1.55569   1.56643
 Alpha virt. eigenvalues --    1.57954   1.61468   1.63341   1.65165   1.68343
 Alpha virt. eigenvalues --    1.71089   1.76499   1.78652   1.81441   1.87159
 Alpha virt. eigenvalues --    1.92928   1.98392   2.00196   2.03681   2.12507
 Alpha virt. eigenvalues --    2.17932   2.20071   2.22399   2.28538   2.33746
 Alpha virt. eigenvalues --    2.35607   2.37343   2.38134   2.39848   2.42431
 Alpha virt. eigenvalues --    2.44206   2.44665   2.47124   2.50081   2.52352
 Alpha virt. eigenvalues --    2.55845   2.56581   2.59732   2.60933   2.62371
 Alpha virt. eigenvalues --    2.65376   2.66334   2.68372   2.70388   2.77385
 Alpha virt. eigenvalues --    2.79777   2.81466   2.84030   2.85101   2.87483
 Alpha virt. eigenvalues --    2.88101   2.90348   2.91518   2.92542   2.92944
 Alpha virt. eigenvalues --    2.95155   2.96722   2.99154   3.01139   3.02894
 Alpha virt. eigenvalues --    3.03144   3.04315   3.05641   3.06801   3.09255
 Alpha virt. eigenvalues --    3.10529   3.11768   3.12179   3.14174   3.14580
 Alpha virt. eigenvalues --    3.15297   3.17905   3.18370   3.19411   3.20874
 Alpha virt. eigenvalues --    3.21188   3.22102   3.25613   3.26443   3.29028
 Alpha virt. eigenvalues --    3.29920   3.31248   3.32337   3.35206   3.38376
 Alpha virt. eigenvalues --    3.40398   3.41406   3.42617   3.43042   3.44964
 Alpha virt. eigenvalues --    3.46337   3.48339   3.51106   3.53534   3.55210
 Alpha virt. eigenvalues --    3.55889   3.58669   3.59184   3.59807   3.59958
 Alpha virt. eigenvalues --    3.61078   3.63040   3.65922   3.66150   3.68234
 Alpha virt. eigenvalues --    3.70457   3.72415   3.75961   3.77597   3.79593
 Alpha virt. eigenvalues --    3.79898   3.82300   3.85890   3.87124   3.87913
 Alpha virt. eigenvalues --    3.90221   3.90983   3.93199   3.94589   3.95595
 Alpha virt. eigenvalues --    3.97080   3.98768   3.99875   4.00481   4.01891
 Alpha virt. eigenvalues --    4.04632   4.05466   4.07867   4.09386   4.11337
 Alpha virt. eigenvalues --    4.11745   4.14178   4.15111   4.17010   4.18098
 Alpha virt. eigenvalues --    4.19349   4.20301   4.21632   4.22693   4.24960
 Alpha virt. eigenvalues --    4.25312   4.28505   4.31087   4.34370   4.35145
 Alpha virt. eigenvalues --    4.35834   4.38181   4.40344   4.41265   4.43837
 Alpha virt. eigenvalues --    4.47157   4.47878   4.50640   4.53282   4.54770
 Alpha virt. eigenvalues --    4.58329   4.62017   4.65861   4.68191   4.68901
 Alpha virt. eigenvalues --    4.71223   4.78583   4.80403   4.82278   4.87575
 Alpha virt. eigenvalues --    4.93003   4.95449   4.95485   4.97098   4.99446
 Alpha virt. eigenvalues --    5.00482   5.01606   5.03665   5.04039   5.06142
 Alpha virt. eigenvalues --    5.08149   5.11544   5.14525   5.17434   5.18283
 Alpha virt. eigenvalues --    5.22600   5.28271   5.31196   5.31940   5.32637
 Alpha virt. eigenvalues --    5.35757   5.36909   5.38146   5.40653   5.41076
 Alpha virt. eigenvalues --    5.43207   5.47236   5.48179   5.49305   5.50953
 Alpha virt. eigenvalues --    5.52794   5.60335   5.62801   5.64438   5.68655
 Alpha virt. eigenvalues --    5.70949   5.80222   5.82232   5.91926   5.93549
 Alpha virt. eigenvalues --    5.97885   6.04549   6.06223   6.06912   6.09140
 Alpha virt. eigenvalues --    6.14900   6.23736   6.28480   6.36982   6.39753
 Alpha virt. eigenvalues --    6.55336   6.65391   6.76963   6.79365   6.85199
 Alpha virt. eigenvalues --    6.97628   7.05885   7.06462   7.22172   7.40238
 Alpha virt. eigenvalues --    7.42452   7.61057   7.81410   9.97865  10.46239
 Alpha virt. eigenvalues --   10.91323  12.93843  13.46802  13.66966  14.11068
  Beta  occ. eigenvalues --  -19.78249 -19.76651 -10.65746 -10.63502 -10.62906
  Beta  occ. eigenvalues --  -10.62789 -10.61374  -1.25404  -0.99955  -0.92905
  Beta  occ. eigenvalues --   -0.84278  -0.77203  -0.72447  -0.64228  -0.58464
  Beta  occ. eigenvalues --   -0.54500  -0.53896  -0.53796  -0.52520  -0.48318
  Beta  occ. eigenvalues --   -0.46564  -0.45347  -0.43176  -0.42600  -0.41529
  Beta  occ. eigenvalues --   -0.35731  -0.33848  -0.31832
  Beta virt. eigenvalues --   -0.05110   0.06192   0.07815   0.09735   0.10577
  Beta virt. eigenvalues --    0.11899   0.13378   0.13908   0.14729   0.15511
  Beta virt. eigenvalues --    0.16097   0.17640   0.18246   0.20625   0.23357
  Beta virt. eigenvalues --    0.24979   0.27951   0.29333   0.30785   0.32190
  Beta virt. eigenvalues --    0.32722   0.33657   0.35834   0.37360   0.38328
  Beta virt. eigenvalues --    0.40247   0.44523   0.46052   0.47162   0.47636
  Beta virt. eigenvalues --    0.48781   0.49918   0.50309   0.51525   0.51797
  Beta virt. eigenvalues --    0.52473   0.53278   0.53472   0.53736   0.54430
  Beta virt. eigenvalues --    0.56426   0.57312   0.59616   0.59929   0.61315
  Beta virt. eigenvalues --    0.63062   0.64508   0.68680   0.69068   0.69363
  Beta virt. eigenvalues --    0.70715   0.71130   0.75660   0.77728   0.78264
  Beta virt. eigenvalues --    0.79890   0.81106   0.84605   0.87305   0.89198
  Beta virt. eigenvalues --    0.89873   0.92385   0.94025   0.95644   0.98458
  Beta virt. eigenvalues --    0.98736   1.00158   1.01637   1.03674   1.05015
  Beta virt. eigenvalues --    1.05969   1.07466   1.10479   1.11004   1.12501
  Beta virt. eigenvalues --    1.13950   1.15254   1.16454   1.17459   1.18004
  Beta virt. eigenvalues --    1.18309   1.19327   1.21342   1.21611   1.23017
  Beta virt. eigenvalues --    1.24838   1.26181   1.27502   1.28984   1.32860
  Beta virt. eigenvalues --    1.34481   1.36182   1.36926   1.38168   1.39448
  Beta virt. eigenvalues --    1.41104   1.41350   1.42580   1.45532   1.46797
  Beta virt. eigenvalues --    1.49439   1.50053   1.51979   1.54103   1.55804
  Beta virt. eigenvalues --    1.56963   1.58458   1.61753   1.63498   1.65258
  Beta virt. eigenvalues --    1.68459   1.71647   1.76902   1.79149   1.82347
  Beta virt. eigenvalues --    1.89179   1.94011   1.99136   2.00999   2.04415
  Beta virt. eigenvalues --    2.12786   2.19745   2.20648   2.22653   2.29269
  Beta virt. eigenvalues --    2.33997   2.35980   2.37581   2.38419   2.40084
  Beta virt. eigenvalues --    2.42638   2.44848   2.45062   2.47644   2.50200
  Beta virt. eigenvalues --    2.52864   2.56036   2.56844   2.60045   2.61762
  Beta virt. eigenvalues --    2.62800   2.65593   2.66687   2.68687   2.71244
  Beta virt. eigenvalues --    2.77877   2.80398   2.81702   2.84155   2.85891
  Beta virt. eigenvalues --    2.88186   2.88427   2.90736   2.91679   2.92700
  Beta virt. eigenvalues --    2.93080   2.95771   2.97881   2.99750   3.01454
  Beta virt. eigenvalues --    3.03186   3.03721   3.04602   3.05956   3.06959
  Beta virt. eigenvalues --    3.09419   3.11045   3.11881   3.12810   3.14288
  Beta virt. eigenvalues --    3.15036   3.16054   3.18168   3.18890   3.19812
  Beta virt. eigenvalues --    3.20934   3.21717   3.22299   3.26390   3.27183
  Beta virt. eigenvalues --    3.29682   3.30418   3.32510   3.33307   3.36208
  Beta virt. eigenvalues --    3.38976   3.40628   3.41623   3.43056   3.43102
  Beta virt. eigenvalues --    3.44922   3.46476   3.48756   3.51166   3.53571
  Beta virt. eigenvalues --    3.55321   3.56082   3.59016   3.59333   3.60036
  Beta virt. eigenvalues --    3.60080   3.61355   3.63159   3.66126   3.66503
  Beta virt. eigenvalues --    3.68528   3.70950   3.73034   3.76361   3.77791
  Beta virt. eigenvalues --    3.79817   3.80227   3.82570   3.85962   3.87306
  Beta virt. eigenvalues --    3.88082   3.90015   3.91081   3.93259   3.94777
  Beta virt. eigenvalues --    3.95664   3.97391   3.98974   4.00148   4.00748
  Beta virt. eigenvalues --    4.02088   4.04651   4.05605   4.07901   4.09650
  Beta virt. eigenvalues --    4.11556   4.11843   4.14389   4.15164   4.17179
  Beta virt. eigenvalues --    4.18404   4.19516   4.20351   4.21857   4.22712
  Beta virt. eigenvalues --    4.25061   4.25526   4.28816   4.31448   4.34885
  Beta virt. eigenvalues --    4.35440   4.36106   4.38672   4.40646   4.41423
  Beta virt. eigenvalues --    4.44056   4.47442   4.48210   4.50911   4.53548
  Beta virt. eigenvalues --    4.55364   4.58729   4.62481   4.66500   4.68502
  Beta virt. eigenvalues --    4.69372   4.71607   4.79207   4.80723   4.82393
  Beta virt. eigenvalues --    4.88164   4.93057   4.95578   4.95761   4.97227
  Beta virt. eigenvalues --    4.99531   5.00561   5.01693   5.03773   5.04226
  Beta virt. eigenvalues --    5.06310   5.08434   5.11826   5.14732   5.18432
  Beta virt. eigenvalues --    5.19102   5.23416   5.28632   5.31453   5.32118
  Beta virt. eigenvalues --    5.32939   5.36067   5.37108   5.38445   5.40877
  Beta virt. eigenvalues --    5.41584   5.43701   5.47447   5.48218   5.49334
  Beta virt. eigenvalues --    5.51039   5.52884   5.60709   5.62887   5.64548
  Beta virt. eigenvalues --    5.69227   5.72112   5.80503   5.83211   5.92629
  Beta virt. eigenvalues --    5.93771   5.98048   6.04616   6.06387   6.07494
  Beta virt. eigenvalues --    6.09477   6.15288   6.24679   6.28849   6.37796
  Beta virt. eigenvalues --    6.41402   6.56440   6.66551   6.79109   6.80434
  Beta virt. eigenvalues --    6.86212   6.98992   7.06331   7.07672   7.23789
  Beta virt. eigenvalues --    7.41672   7.43074   7.62902   7.81885   9.98338
  Beta virt. eigenvalues --   10.46945  10.92178  12.93983  13.46804  13.66975
  Beta virt. eigenvalues --   14.11677
          Condensed to atoms (all electrons):
               1          2          3          4          5          6
     1  C    5.281990   0.614991   0.394990  -0.052483  -0.003755   0.004678
     2  C    0.614991   4.948035  -0.053441   0.395192  -0.001261  -0.000341
     3  H    0.394990  -0.053441   0.504485   0.005021   0.000081  -0.000236
     4  H   -0.052483   0.395192   0.005021   0.507437  -0.002539  -0.002487
     5  C   -0.003755  -0.001261   0.000081  -0.002539   4.614762   0.396369
     6  H    0.004678  -0.000341  -0.000236  -0.002487   0.396369   0.668293
     7  H    0.000388  -0.000162  -0.000006  -0.000298   0.394700  -0.037019
     8  H   -0.000705   0.000447  -0.000011   0.000763   0.412322  -0.055035
     9  O   -0.004879  -0.000071   0.000154   0.019153   0.296058  -0.050401
    10  O   -0.068079  -0.001502   0.001029  -0.002254  -0.042394  -0.003230
    11  H    0.165894  -0.001768  -0.007375  -0.002323   0.003804   0.004643
    12  C   -0.059436   0.343069  -0.003718  -0.036154  -0.000204  -0.000095
    13  H    0.000354  -0.041514   0.003070   0.005010  -0.000004   0.000007
    14  H    0.002006  -0.040528   0.000137  -0.003651  -0.000002   0.000022
    15  C   -0.001262  -0.054568  -0.000072  -0.000440   0.000076  -0.000079
    16  H    0.002498  -0.001246   0.000129  -0.000021  -0.000023   0.000126
    17  H   -0.000239   0.008105  -0.000024  -0.000279  -0.000002   0.000009
    18  H    0.000812  -0.002372   0.000030   0.002330   0.000034   0.000005
               7          8          9         10         11         12
     1  C    0.000388  -0.000705  -0.004879  -0.068079   0.165894  -0.059436
     2  C   -0.000162   0.000447  -0.000071  -0.001502  -0.001768   0.343069
     3  H   -0.000006  -0.000011   0.000154   0.001029  -0.007375  -0.003718
     4  H   -0.000298   0.000763   0.019153  -0.002254  -0.002323  -0.036154
     5  C    0.394700   0.412322   0.296058  -0.042394   0.003804  -0.000204
     6  H   -0.037019  -0.055035  -0.050401  -0.003230   0.004643  -0.000095
     7  H    0.595949  -0.026289  -0.027329   0.006933  -0.000886  -0.000035
     8  H   -0.026289   0.601036  -0.035643   0.004380   0.000107   0.000003
     9  O   -0.027329  -0.035643   7.954853   0.072578  -0.030226   0.000265
    10  O    0.006933   0.004380   0.072578   8.011911   0.250847   0.000103
    11  H   -0.000886   0.000107  -0.030226   0.250847   0.387791   0.001366
    12  C   -0.000035   0.000003   0.000265   0.000103   0.001366   4.832457
    13  H    0.000001   0.000000  -0.000010   0.000012  -0.000062   0.416002
    14  H   -0.000001  -0.000000  -0.000019   0.000018  -0.000127   0.418605
    15  C    0.000021   0.000001  -0.000005  -0.000002  -0.000041   0.339716
    16  H   -0.000006  -0.000001  -0.000007  -0.000000  -0.000040  -0.034558
    17  H   -0.000000  -0.000000  -0.000000   0.000000   0.000004  -0.034273
    18  H    0.000011  -0.000002  -0.000029   0.000000  -0.000016  -0.036972
              13         14         15         16         17         18
     1  C    0.000354   0.002006  -0.001262   0.002498  -0.000239   0.000812
     2  C   -0.041514  -0.040528  -0.054568  -0.001246   0.008105  -0.002372
     3  H    0.003070   0.000137  -0.000072   0.000129  -0.000024   0.000030
     4  H    0.005010  -0.003651  -0.000440  -0.000021  -0.000279   0.002330
     5  C   -0.000004  -0.000002   0.000076  -0.000023  -0.000002   0.000034
     6  H    0.000007   0.000022  -0.000079   0.000126   0.000009   0.000005
     7  H    0.000001  -0.000001   0.000021  -0.000006  -0.000000   0.000011
     8  H    0.000000  -0.000000   0.000001  -0.000001  -0.000000  -0.000002
     9  O   -0.000010  -0.000019  -0.000005  -0.000007  -0.000000  -0.000029
    10  O    0.000012   0.000018  -0.000002  -0.000000   0.000000   0.000000
    11  H   -0.000062  -0.000127  -0.000041  -0.000040   0.000004  -0.000016
    12  C    0.416002   0.418605   0.339716  -0.034558  -0.034273  -0.036972
    13  H    0.588457  -0.033261  -0.031403  -0.004889  -0.005019   0.006805
    14  H   -0.033261   0.592965  -0.040752   0.007817  -0.003830  -0.004895
    15  C   -0.031403  -0.040752   4.864306   0.403898   0.406369   0.409491
    16  H   -0.004889   0.007817   0.403898   0.586375  -0.028324  -0.031670
    17  H   -0.005019  -0.003830   0.406369  -0.028324   0.583430  -0.030320
    18  H    0.006805  -0.004895   0.409491  -0.031670  -0.030320   0.589628
          Atomic-Atomic Spin Densities.
               1          2          3          4          5          6
     1  C    0.855627  -0.029070   0.004297  -0.004030   0.000608  -0.003786
     2  C   -0.029070  -0.167098  -0.003031   0.006878  -0.000144   0.000082
     3  H    0.004297  -0.003031   0.023682   0.001048  -0.000028   0.000339
     4  H   -0.004030   0.006878   0.001048   0.027060  -0.000351   0.001046
     5  C    0.000608  -0.000144  -0.000028  -0.000351  -0.003896   0.003842
     6  H   -0.003786   0.000082   0.000339   0.001046   0.003842   0.000080
     7  H    0.000132  -0.000024  -0.000004  -0.000095   0.000312  -0.000677
     8  H    0.000980  -0.000089  -0.000050  -0.000160  -0.001960  -0.000570
     9  O    0.011078  -0.000879  -0.000400  -0.003746   0.000007  -0.000580
    10  O   -0.082338   0.004288   0.003597   0.002673  -0.001507   0.002956
    11  H    0.045536   0.000970  -0.000924   0.000134   0.000756  -0.002883
    12  C   -0.019579   0.023245  -0.004260  -0.006841   0.000057  -0.000173
    13  H    0.001188   0.000202   0.000582   0.000206  -0.000001   0.000007
    14  H    0.001804   0.001554   0.000336   0.001073  -0.000002   0.000007
    15  C    0.001281   0.003831   0.000212   0.000597  -0.000009   0.000028
    16  H    0.000434  -0.001198   0.000093   0.000178  -0.000000   0.000025
    17  H   -0.000251  -0.000135  -0.000035  -0.000108   0.000001  -0.000004
    18  H    0.000040   0.000055   0.000004   0.000073  -0.000002   0.000005
               7          8          9         10         11         12
     1  C    0.000132   0.000980   0.011078  -0.082338   0.045536  -0.019579
     2  C   -0.000024  -0.000089  -0.000879   0.004288   0.000970   0.023245
     3  H   -0.000004  -0.000050  -0.000400   0.003597  -0.000924  -0.004260
     4  H   -0.000095  -0.000160  -0.003746   0.002673   0.000134  -0.006841
     5  C    0.000312  -0.001960   0.000007  -0.001507   0.000756   0.000057
     6  H   -0.000677  -0.000570  -0.000580   0.002956  -0.002883  -0.000173
     7  H   -0.001203   0.000900   0.000155  -0.000185   0.000098   0.000007
     8  H    0.000900   0.001997  -0.000257  -0.000424   0.001139   0.000010
     9  O    0.000155  -0.000257   0.036856  -0.031795   0.008119   0.000204
    10  O   -0.000185  -0.000424  -0.031795   0.459270  -0.031296  -0.000437
    11  H    0.000098   0.001139   0.008119  -0.031296  -0.093707   0.000347
    12  C    0.000007   0.000010   0.000204  -0.000437   0.000347   0.077798
    13  H   -0.000000  -0.000000  -0.000005   0.000018  -0.000051  -0.001469
    14  H   -0.000000  -0.000000  -0.000015   0.000024  -0.000038  -0.004560
    15  C   -0.000002  -0.000001  -0.000010   0.000013  -0.000017  -0.003961
    16  H   -0.000001  -0.000001  -0.000006   0.000006  -0.000011  -0.000459
    17  H    0.000000   0.000000   0.000001  -0.000000   0.000002   0.000002
    18  H   -0.000001  -0.000000  -0.000002   0.000001  -0.000003  -0.000281
              13         14         15         16         17         18
     1  C    0.001188   0.001804   0.001281   0.000434  -0.000251   0.000040
     2  C    0.000202   0.001554   0.003831  -0.001198  -0.000135   0.000055
     3  H    0.000582   0.000336   0.000212   0.000093  -0.000035   0.000004
     4  H    0.000206   0.001073   0.000597   0.000178  -0.000108   0.000073
     5  C   -0.000001  -0.000002  -0.000009  -0.000000   0.000001  -0.000002
     6  H    0.000007   0.000007   0.000028   0.000025  -0.000004   0.000005
     7  H   -0.000000  -0.000000  -0.000002  -0.000001   0.000000  -0.000001
     8  H   -0.000000  -0.000000  -0.000001  -0.000001   0.000000  -0.000000
     9  O   -0.000005  -0.000015  -0.000010  -0.000006   0.000001  -0.000002
    10  O    0.000018   0.000024   0.000013   0.000006  -0.000000   0.000001
    11  H   -0.000051  -0.000038  -0.000017  -0.000011   0.000002  -0.000003
    12  C   -0.001469  -0.004560  -0.003961  -0.000459   0.000002  -0.000281
    13  H   -0.004894   0.001178   0.000591   0.000175  -0.000179  -0.000041
    14  H    0.001178  -0.004634   0.002652  -0.000004  -0.000907   0.000080
    15  C    0.000591   0.002652  -0.009183   0.000997   0.001591   0.000030
    16  H    0.000175  -0.000004   0.000997   0.001036  -0.000931  -0.000023
    17  H   -0.000179  -0.000907   0.001591  -0.000931   0.001736  -0.000057
    18  H   -0.000041   0.000080   0.000030  -0.000023  -0.000057   0.000153
 Mulliken charges and spin densities:
               1          2
     1  C   -0.277763   0.783951
     2  C   -0.111062  -0.160564
     3  H    0.155758   0.025458
     4  H    0.168024   0.025636
     5  C   -0.068022  -0.002319
     6  H    0.074770  -0.000257
     7  H    0.094028  -0.000588
     8  H    0.098629   0.001513
     9  O   -0.194441   0.018725
    10  O   -0.230349   0.324864
    11  H    0.228410  -0.071829
    12  C   -0.146140   0.059651
    13  H    0.096446  -0.002493
    14  H    0.105497  -0.001453
    15  C   -0.295252  -0.001361
    16  H    0.099942   0.000309
    17  H    0.104394   0.000725
    18  H    0.097132   0.000033
 Sum of Mulliken charges =  -0.00000   1.00000
 Mulliken charges and spin densities with hydrogens summed into heavy atoms:
               1          2
     1  C   -0.122005   0.809409
     2  C    0.056961  -0.134928
     5  C    0.199405  -0.001651
     9  O   -0.194441   0.018725
    10  O   -0.001940   0.253035
    12  C    0.055803   0.055705
    15  C    0.006216  -0.000294
 APT charges:
               1
     1  C    0.230873
     2  C   -0.161580
     3  H    0.023604
     4  H    0.067070
     5  C    0.418878
     6  H   -0.036740
     7  H   -0.004997
     8  H   -0.031404
     9  O   -0.355831
    10  O    0.029972
    11  H   -0.271671
    12  C    0.185733
    13  H   -0.029110
    14  H   -0.054525
    15  C    0.045322
    16  H   -0.011688
    17  H   -0.029697
    18  H   -0.014209
 Sum of APT charges =  -0.00000
 APT charges with hydrogens summed into heavy atoms:
               1
     1  C    0.254477
     2  C   -0.094510
     5  C    0.345736
     9  O   -0.355831
    10  O   -0.241699
    12  C    0.102098
    15  C   -0.010271
 Electronic spatial extent (au):  <R**2>=           1300.0692
 Charge=              0.0000 electrons
 Dipole moment (field-independent basis, Debye):
    X=              2.6088    Y=              1.3009    Z=              1.2620  Tot=              3.1766
 Quadrupole moment (field-independent basis, Debye-Ang):
   XX=            -45.9928   YY=            -42.7461   ZZ=            -45.0699
   XY=             -4.9468   XZ=             -2.8330   YZ=             -1.7461
 Traceless Quadrupole moment (field-independent basis, Debye-Ang):
   XX=             -1.3898   YY=              1.8568   ZZ=             -0.4670
   XY=             -4.9468   XZ=             -2.8330   YZ=             -1.7461
 Octapole moment (field-independent basis, Debye-Ang**2):
  XXX=             -2.2768  YYY=              0.6133  ZZZ=             -1.9754  XYY=             -8.2632
  XXY=             10.8099  XXZ=              4.4633  XZZ=             -2.8046  YZZ=             -1.2245
  YYZ=              3.2113  XYZ=             -2.0397
 Hexadecapole moment (field-independent basis, Debye-Ang**3):
 XXXX=          -1260.2112 YYYY=           -317.5809 ZZZZ=           -108.9719 XXXY=            -27.9009
 XXXZ=            -13.6618 YYYX=             -9.5538 YYYZ=            -14.8112 ZZZX=              2.1872
 ZZZY=             -2.4499 XXYY=           -266.5828 XXZZ=           -233.6739 YYZZ=            -67.9572
 XXYZ=              1.1318 YYXZ=              3.6819 ZZXY=             -1.2256
 N-N= 2.983774731548D+02 E-N=-1.407808719719D+03  KE= 3.452870873935D+02
  Exact polarizability: 110.044  -3.638  76.701  -1.259  -6.311  60.241
 Approx polarizability:  92.611   2.079  85.330  -1.883 -10.868  75.041
                          Isotropic Fermi Contact Couplings
        Atom                 a.u.       MegaHertz       Gauss      10(-4) cm-1
     1  C(13)              0.19186     215.69062      76.96378      71.94665
     2  C(13)              0.00117       1.31876       0.47057       0.43989
     3  H(1)               0.01312      58.65735      20.93040      19.56599
     4  H(1)               0.01412      63.13271      22.52732      21.05880
     5  C(13)             -0.00276      -3.10547      -1.10811      -1.03587
     6  H(1)               0.00199       8.88683       3.17104       2.96433
     7  H(1)              -0.00004      -0.19159      -0.06836      -0.06391
     8  H(1)               0.00039       1.75195       0.62514       0.58439
     9  O(17)              0.01310      -7.94258      -2.83411      -2.64936
    10  O(17)              0.02484     -15.05834      -5.37319      -5.02292
    11  H(1)              -0.02574    -115.07021     -41.05991     -38.38329
    12  C(13)              0.04466      50.20327      17.91378      16.74601
    13  H(1)              -0.00075      -3.36851      -1.20197      -1.12361
    14  H(1)               0.00013       0.59848       0.21355       0.19963
    15  C(13)             -0.00196      -2.19963      -0.78488      -0.73372
    16  H(1)               0.00023       1.04864       0.37418       0.34979
    17  H(1)               0.00105       4.71218       1.68142       1.57181
    18  H(1)              -0.00006      -0.24682      -0.08807      -0.08233
 --------------------------------------------------------
       Center         ----  Spin Dipole Couplings  ----
                      3XX-RR        3YY-RR        3ZZ-RR
 --------------------------------------------------------
     1   Atom        0.721921     -0.370991     -0.350931
     2   Atom        0.041511     -0.016323     -0.025188
     3   Atom       -0.007619      0.004844      0.002775
     4   Atom       -0.005376      0.003553      0.001824
     5   Atom       -0.003669      0.006690     -0.003021
     6   Atom       -0.002843      0.005992     -0.003149
     7   Atom       -0.001987      0.005230     -0.003244
     8   Atom       -0.000777      0.003040     -0.002263
     9   Atom        0.291735     -0.160348     -0.131387
    10   Atom        1.424934     -0.741732     -0.683201
    11   Atom        0.212743     -0.107028     -0.105716
    12   Atom        0.076370     -0.035668     -0.040702
    13   Atom        0.010004     -0.004816     -0.005187
    14   Atom        0.002528     -0.005139      0.002611
    15   Atom        0.000424      0.003896     -0.004321
    16   Atom        0.000386      0.001177     -0.001564
    17   Atom        0.001826     -0.000035     -0.001791
    18   Atom        0.000268      0.001807     -0.002075
 --------------------------------------------------------
                        XY            XZ            YZ
 --------------------------------------------------------
     1   Atom       -0.062742      0.158466      0.011292
     2   Atom        0.032955     -0.020676     -0.042428
     3   Atom       -0.004108      0.007395     -0.048150
     4   Atom        0.003767     -0.003644     -0.013585
     5   Atom       -0.004051      0.001343      0.002634
     6   Atom       -0.001903      0.000512      0.005221
     7   Atom       -0.001833      0.000130      0.000234
     8   Atom       -0.004663     -0.002090      0.003348
     9   Atom       -0.107844      0.137782      0.001632
    10   Atom       -0.046096      0.357159     -0.012297
    11   Atom       -0.062976      0.073964     -0.014513
    12   Atom        0.029916     -0.018389     -0.007342
    13   Atom       -0.002389      0.003311     -0.003894
    14   Atom        0.001360     -0.005325      0.001377
    15   Atom        0.006068      0.000167      0.000571
    16   Atom        0.002842      0.000907      0.001678
    17   Atom        0.001548      0.000018      0.000172
    18   Atom        0.002279     -0.000264     -0.000885
 --------------------------------------------------------


 ---------------------------------------------------------------------------------
              Anisotropic Spin Dipole Couplings in Principal Axis System
 ---------------------------------------------------------------------------------

       Atom             a.u.   MegaHertz   Gauss  10(-4) cm-1        Axes

              Baa    -0.3942   -52.895   -18.874   -17.644  0.1380  0.7097 -0.6908
     1 C(13)  Bbb    -0.3539   -47.494   -16.947   -15.842 -0.0635  0.7024  0.7089
              Bcc     0.7481   100.389    35.821    33.486  0.9884 -0.0540  0.1420
 
              Baa    -0.0639    -8.578    -3.061    -2.861 -0.0756  0.6921  0.7178
     2 C(13)  Bbb    -0.0076    -1.013    -0.362    -0.338  0.6078 -0.5387  0.5835
              Bcc     0.0715     9.591     3.422     3.199  0.7905  0.4803 -0.3799
 
              Baa    -0.0445   -23.749    -8.474    -7.922 -0.0664  0.6939  0.7170
     3 H(1)   Bbb    -0.0085    -4.558    -1.627    -1.520  0.9889  0.1413 -0.0451
              Bcc     0.0531    28.308    10.101     9.442 -0.1326  0.7060 -0.6956
 
              Baa    -0.0109    -5.829    -2.080    -1.944  0.0175  0.6817  0.7314
     4 H(1)   Bbb    -0.0066    -3.508    -1.252    -1.170  0.9746 -0.1750  0.1398
              Bcc     0.0175     9.338     3.332     3.115  0.2233  0.7104 -0.6675
 
              Baa    -0.0065    -0.871    -0.311    -0.290  0.7578  0.3438 -0.5546
     5 C(13)  Bbb    -0.0020    -0.265    -0.095    -0.088  0.5828  0.0255  0.8122
              Bcc     0.0085     1.136     0.405     0.379 -0.2934  0.9387  0.1810
 
              Baa    -0.0060    -3.220    -1.149    -1.074 -0.3816 -0.4182  0.8243
     6 H(1)   Bbb    -0.0025    -1.350    -0.482    -0.450  0.9146 -0.0421  0.4021
              Bcc     0.0086     4.570     1.631     1.524 -0.1335  0.9074  0.3986
 
              Baa    -0.0033    -1.753    -0.626    -0.585 -0.1947 -0.0688  0.9784
     7 H(1)   Bbb    -0.0024    -1.274    -0.455    -0.425  0.9530  0.2230  0.2053
              Bcc     0.0057     3.027     1.080     1.010 -0.2323  0.9724  0.0221
 
              Baa    -0.0040    -2.130    -0.760    -0.711  0.5628  0.6286 -0.5368
     8 H(1)   Bbb    -0.0037    -1.993    -0.711    -0.665  0.6466  0.0697  0.7596
              Bcc     0.0077     4.123     1.471     1.375 -0.5149  0.7746  0.3673
 
              Baa    -0.2086    15.094     5.386     5.035  0.3221  0.7400 -0.5905
     9 O(17)  Bbb    -0.1448    10.474     3.737     3.494 -0.0815  0.6431  0.7615
              Bcc     0.3533   -25.568    -9.123    -8.529  0.9432 -0.1972  0.2674
 
              Baa    -0.7471    54.056    19.289    18.031 -0.0953  0.7322  0.6743
    10 O(17)  Bbb    -0.7378    53.384    19.049    17.807 -0.1335 -0.6807  0.7203
              Bcc     1.4848  -107.440   -38.337   -35.838  0.9865 -0.0213  0.1626
 
              Baa    -0.1222   -65.180   -23.258   -21.742 -0.1802  0.1778  0.9674
    11 H(1)   Bbb    -0.1189   -63.450   -22.640   -21.164  0.2143  0.9670 -0.1377
              Bcc     0.2411   128.629    45.898    42.906  0.9600 -0.1825  0.2124
 
              Baa    -0.0461    -6.183    -2.206    -2.063 -0.0545  0.6753  0.7355
    12 C(13)  Bbb    -0.0408    -5.475    -1.953    -1.826 -0.2814  0.6964 -0.6602
              Bcc     0.0869    11.658     4.160     3.889  0.9580  0.2430 -0.1521
 
              Baa    -0.0089    -4.766    -1.701    -1.590 -0.0442  0.6728  0.7385
    13 H(1)   Bbb    -0.0024    -1.277    -0.456    -0.426  0.3059  0.7128 -0.6311
              Bcc     0.0113     6.044     2.157     2.016  0.9510 -0.1980  0.2374
 
              Baa    -0.0062    -3.319    -1.184    -1.107 -0.3453  0.8730 -0.3443
    14 H(1)   Bbb    -0.0017    -0.893    -0.319    -0.298  0.6204  0.4877  0.6142
              Bcc     0.0079     4.212     1.503     1.405 -0.7041  0.0015  0.7101
 
              Baa    -0.0045    -0.601    -0.214    -0.201  0.4086 -0.3534  0.8415
    15 C(13)  Bbb    -0.0040    -0.539    -0.192    -0.180  0.6870 -0.4880 -0.5385
              Bcc     0.0085     1.140     0.407     0.380  0.6009  0.7981  0.0434
 
              Baa    -0.0025    -1.347    -0.480    -0.449  0.3700 -0.6041  0.7058
    16 H(1)   Bbb    -0.0017    -0.921    -0.329    -0.307  0.7010 -0.3171 -0.6389
              Bcc     0.0043     2.268     0.809     0.756  0.6097  0.7311  0.3061
 
              Baa    -0.0018    -0.969    -0.346    -0.323  0.0566 -0.1448  0.9878
    17 H(1)   Bbb    -0.0009    -0.474    -0.169    -0.158 -0.4903  0.8579  0.1538
              Bcc     0.0027     1.443     0.515     0.481  0.8697  0.4930  0.0224
 
              Baa    -0.0023    -1.230    -0.439    -0.410 -0.1631  0.2931  0.9421
    18 H(1)   Bbb    -0.0013    -0.679    -0.242    -0.227  0.8062 -0.5108  0.2985
              Bcc     0.0036     1.909     0.681     0.637  0.5687  0.8082 -0.1531
 

 ---------------------------------------------------------------------------------

 Calling FoFJK, ICntrl=  10100127 FMM=F ISym2X=0 I1Cent= 0 IOpClX= 1 NMat=1 NMatS=1 NMatT=0.
 -------------------------------------------------------------------
 Center     Atomic                   Forces (Hartrees/Bohr)
 Number     Number              X              Y              Z
 -------------------------------------------------------------------
      1        6           0.000000601   -0.000001131   -0.000001691
      2        6           0.000000428    0.000000142    0.000001067
      3        1          -0.000000017    0.000000590    0.000000077
      4        1           0.000000088    0.000000627    0.000000566
      5        6           0.000000243    0.000000750    0.000000354
      6        1          -0.000000092    0.000000100    0.000000276
      7        1           0.000000016    0.000000061    0.000000276
      8        1           0.000000401   -0.000000039    0.000000035
      9        8          -0.000002219   -0.000002490    0.000001488
     10        8           0.000000888    0.000002890   -0.000003501
     11        1          -0.000000553   -0.000000815    0.000002004
     12        6           0.000000549   -0.000000185   -0.000000185
     13        1           0.000000344    0.000000352    0.000000168
     14        1          -0.000000464   -0.000000523   -0.000000456
     15        6          -0.000000530   -0.000000225   -0.000000577
     16        1          -0.000000519    0.000000194   -0.000000082
     17        1           0.000000230   -0.000000210    0.000000407
     18        1           0.000000606   -0.000000089   -0.000000224
 -------------------------------------------------------------------
 Cartesian Forces:  Max     0.000003501 RMS     0.000000969
 FormGI is forming the generalized inverse of G from B-inverse, IUseBI=4.

 GradGradGradGradGradGradGradGradGradGradGradGradGradGradGradGradGradGrad
 Berny optimization.
 Internal  Forces:  Max     0.000003984 RMS     0.000000805
 Search for a saddle point.
 Step number   1 out of a maximum of  108 on scan point     1 out of    37
 All quantities printed in internal units (Hartrees-Bohrs-Radians)
 Swapping is turned off.
 Second derivative matrix not updated -- analytic derivatives used.
 ITU=  0
     Eigenvalues ---   -0.05141   0.00222   0.00258   0.00697   0.01217
     Eigenvalues ---    0.01649   0.01996   0.02296   0.03519   0.03999
     Eigenvalues ---    0.04314   0.04587   0.04613   0.04634   0.04881
     Eigenvalues ---    0.07549   0.08066   0.08480   0.08576   0.10323
     Eigenvalues ---    0.11758   0.12264   0.13025   0.13227   0.13722
     Eigenvalues ---    0.16295   0.16592   0.18337   0.19146   0.19720
     Eigenvalues ---    0.21688   0.27572   0.28482   0.30222   0.32307
     Eigenvalues ---    0.33183   0.33599   0.33861   0.33977   0.34235
     Eigenvalues ---    0.34422   0.34594   0.34808   0.35641   0.36334
     Eigenvalues ---    0.40731   0.655401000.000001000.000001000.00000
     Eigenvalues --- 1000.000001000.000001000.000001000.000001000.00000
     Eigenvalues --- 1000.000001000.000001000.000001000.000001000.00000
     Eigenvalues --- 1000.000001000.000001000.000001000.000001000.00000
     Eigenvalues --- 1000.000001000.000001000.000001000.00000
 Eigenvectors required to have negative eigenvalues:
                          R3        R11       A1        R10       A2
   1                    0.80806  -0.52928   0.14475   0.13689  -0.10049
                          A14       D15       A3        A13       A27
   1                   -0.07170  -0.06097  -0.04425  -0.03328   0.03301
 RFO step:  Lambda0=7.425372817D-12 Lambda= 0.00000000D+00.
 Linear search not attempted -- option 19 set.
 Iteration  1 RMS(Cart)=  0.00021727 RMS(Int)=  0.00000002
 Iteration  2 RMS(Cart)=  0.00000003 RMS(Int)=  0.00000000
 Iteration  1 RMS(Cart)=  0.00000000 RMS(Int)=  0.00000000
 Variable       Old X    -DE/DX   Delta X   Delta X   Delta X     New X
                                 (Linear)    (Quad)   (Total)
    R1        2.47759   0.00000   0.00000  -0.00000  -0.00000   2.47759
    R2        2.04154  -0.00000   0.00000  -0.00000  -0.00000   2.04154
    R3        2.72428   0.00000   0.00000   0.00002   0.00002   2.72430
    R4        2.05598  -0.00000   0.00000   0.00000   0.00000   2.05598
    R5        2.85233   0.00000   0.00000   0.00000   0.00000   2.85233
    R6        2.06164   0.00000   0.00000   0.00000   0.00000   2.06164
    R7        2.05665  -0.00000   0.00000  -0.00000  -0.00000   2.05665
    R8        2.05713  -0.00000   0.00000  -0.00000  -0.00000   2.05712
    R9        2.68428   0.00000   0.00000   0.00000   0.00000   2.68428
   R10        2.67728  -0.00000   0.00000  -0.00001  -0.00001   2.67726
   R11        2.07914   0.00000   0.00000  -0.00000  -0.00000   2.07914
   R12        2.05868   0.00000   0.00000   0.00000   0.00000   2.05868
   R13        2.06402   0.00000   0.00000   0.00000   0.00000   2.06402
   R14        2.88953  -0.00000   0.00000  -0.00000  -0.00000   2.88952
   R15        2.05771   0.00000   0.00000   0.00000   0.00000   2.05771
   R16        2.05802   0.00000   0.00000   0.00000   0.00000   2.05802
   R17        2.05912  -0.00000   0.00000  -0.00000  -0.00000   2.05912
    A1        2.32551  -0.00000   0.00000  -0.00001  -0.00001   2.32550
    A2        1.95804   0.00000   0.00000   0.00002   0.00002   1.95806
    A3        1.99964  -0.00000   0.00000  -0.00001  -0.00001   1.99962
    A4        2.06679   0.00000   0.00000   0.00000   0.00000   2.06679
    A5        2.18618  -0.00000   0.00000   0.00000   0.00000   2.18618
    A6        2.03011  -0.00000   0.00000  -0.00000  -0.00000   2.03011
    A7        1.92064  -0.00000   0.00000   0.00000   0.00000   1.92064
    A8        1.91994  -0.00000   0.00000  -0.00000  -0.00000   1.91994
    A9        1.93264   0.00000   0.00000   0.00000   0.00000   1.93264
   A10        1.92347   0.00000   0.00000   0.00000   0.00000   1.92348
   A11        1.83566   0.00000   0.00000   0.00000   0.00000   1.83566
   A12        1.93007  -0.00000   0.00000  -0.00000  -0.00000   1.93007
   A13        1.87368   0.00000   0.00000   0.00000   0.00000   1.87368
   A14        1.80181   0.00000   0.00000   0.00002   0.00002   1.80183
   A15        1.91530   0.00000   0.00000  -0.00000  -0.00000   1.91530
   A16        1.89054   0.00000   0.00000  -0.00001  -0.00001   1.89053
   A17        1.94961  -0.00000   0.00000   0.00000   0.00000   1.94961
   A18        1.86925  -0.00000   0.00000  -0.00000  -0.00000   1.86925
   A19        1.92648   0.00000   0.00000   0.00000   0.00000   1.92648
   A20        1.91055   0.00000   0.00000   0.00000   0.00000   1.91055
   A21        1.93387   0.00000   0.00000   0.00000   0.00000   1.93388
   A22        1.93484  -0.00000   0.00000  -0.00000  -0.00000   1.93484
   A23        1.93649   0.00000   0.00000  -0.00000  -0.00000   1.93649
   A24        1.88921   0.00000   0.00000  -0.00000  -0.00000   1.88921
   A25        1.88319  -0.00000   0.00000   0.00000   0.00000   1.88319
   A26        1.88433  -0.00000   0.00000  -0.00000  -0.00000   1.88433
   A27        3.04319   0.00000   0.00000   0.00003   0.00003   3.04322
   A28        3.03832   0.00000   0.00000  -0.00002  -0.00002   3.03830
    D1       -3.14066   0.00000   0.00000   0.00003   0.00003  -3.14064
    D2       -0.01485   0.00000   0.00000   0.00007   0.00007  -0.01478
    D3        0.00362  -0.00000   0.00000  -0.00003  -0.00003   0.00359
    D4        3.12944  -0.00000   0.00000   0.00001   0.00001   3.12945
    D5       -0.30106  -0.00000   0.00000   0.00000   0.00000  -0.30106
    D6        0.05835  -0.00000   0.00000  -0.00033  -0.00033   0.05802
    D7        2.09354  -0.00000   0.00000  -0.00034  -0.00034   2.09321
    D8       -2.08409  -0.00000   0.00000  -0.00034  -0.00034  -2.08443
    D9       -3.09872  -0.00000   0.00000  -0.00029  -0.00029  -3.09902
   D10       -1.06353  -0.00000   0.00000  -0.00030  -0.00030  -1.06383
   D11        1.04202  -0.00000   0.00000  -0.00030  -0.00030   1.04172
   D12        1.13258  -0.00000   0.00000   0.00001   0.00001   1.13259
   D13       -3.07643   0.00000   0.00000   0.00001   0.00001  -3.07642
   D14       -1.00022   0.00000   0.00000   0.00001   0.00001  -1.00021
   D15       -1.59925   0.00000   0.00000   0.00006   0.00006  -1.59919
   D16        1.08249  -0.00000   0.00000  -0.00015  -0.00015   1.08234
   D17       -3.10267  -0.00000   0.00000  -0.00015  -0.00015  -3.10283
   D18       -1.00905  -0.00000   0.00000  -0.00016  -0.00016  -1.00921
   D19       -1.05357  -0.00000   0.00000  -0.00016  -0.00016  -1.05372
   D20        1.04446  -0.00000   0.00000  -0.00016  -0.00016   1.04430
   D21        3.13808  -0.00000   0.00000  -0.00016  -0.00016   3.13792
   D22       -3.10687  -0.00000   0.00000  -0.00016  -0.00016  -3.10703
   D23       -1.00885  -0.00000   0.00000  -0.00016  -0.00016  -1.00901
   D24        1.08478  -0.00000   0.00000  -0.00016  -0.00016   1.08462
         Item               Value     Threshold  Converged?
 Maximum Force            0.000004     0.000450     YES
 RMS     Force            0.000001     0.000300     YES
 Maximum Displacement     0.000737     0.001800     YES
 RMS     Displacement     0.000217     0.001200     YES
 Predicted change in Energy=-1.090135D-09
 Optimization completed.
    -- Stationary point found.
                           ----------------------------
                           !   Optimized Parameters   !
                           ! (Angstroms and Degrees)  !
 --------------------------                            --------------------------
 ! Name  Definition              Value          Derivative Info.                !
 --------------------------------------------------------------------------------
 ! R1    R(1,2)                  1.3111         -DE/DX =    0.0                 !
 ! R2    R(1,3)                  1.0803         -DE/DX =    0.0                 !
 ! R3    R(1,11)                 1.4416         -DE/DX =    0.0                 !
 ! R4    R(2,4)                  1.088          -DE/DX =    0.0                 !
 ! R5    R(2,12)                 1.5094         -DE/DX =    0.0                 !
 ! R6    R(5,6)                  1.091          -DE/DX =    0.0                 !
 ! R7    R(5,7)                  1.0883         -DE/DX =    0.0                 !
 ! R8    R(5,8)                  1.0886         -DE/DX =    0.0                 !
 ! R9    R(5,9)                  1.4205         -DE/DX =    0.0                 !
 ! R10   R(9,10)                 1.4168         -DE/DX =    0.0                 !
 ! R11   R(10,11)                1.1002         -DE/DX =    0.0                 !
 ! R12   R(12,13)                1.0894         -DE/DX =    0.0                 !
 ! R13   R(12,14)                1.0922         -DE/DX =    0.0                 !
 ! R14   R(12,15)                1.5291         -DE/DX =    0.0                 !
 ! R15   R(15,16)                1.0889         -DE/DX =    0.0                 !
 ! R16   R(15,17)                1.0891         -DE/DX =    0.0                 !
 ! R17   R(15,18)                1.0896         -DE/DX =    0.0                 !
 ! A1    A(2,1,3)              133.2418         -DE/DX =    0.0                 !
 ! A2    A(2,1,11)             112.1873         -DE/DX =    0.0                 !
 ! A3    A(3,1,11)             114.5708         -DE/DX =    0.0                 !
 ! A4    A(1,2,4)              118.4184         -DE/DX =    0.0                 !
 ! A5    A(1,2,12)             125.259          -DE/DX =    0.0                 !
 ! A6    A(4,2,12)             116.3169         -DE/DX =    0.0                 !
 ! A7    A(6,5,7)              110.0445         -DE/DX =    0.0                 !
 ! A8    A(6,5,8)              110.0045         -DE/DX =    0.0                 !
 ! A9    A(6,5,9)              110.7319         -DE/DX =    0.0                 !
 ! A10   A(7,5,8)              110.207          -DE/DX =    0.0                 !
 ! A11   A(7,5,9)              105.1756         -DE/DX =    0.0                 !
 ! A12   A(8,5,9)              110.5849         -DE/DX =    0.0                 !
 ! A13   A(5,9,10)             107.3538         -DE/DX =    0.0                 !
 ! A14   A(9,10,11)            103.2363         -DE/DX =    0.0                 !
 ! A15   A(2,12,13)            109.7387         -DE/DX =    0.0                 !
 ! A16   A(2,12,14)            108.3199         -DE/DX =    0.0                 !
 ! A17   A(2,12,15)            111.7042         -DE/DX =    0.0                 !
 ! A18   A(13,12,14)           107.1004         -DE/DX =    0.0                 !
 ! A19   A(13,12,15)           110.379          -DE/DX =    0.0                 !
 ! A20   A(14,12,15)           109.4666         -DE/DX =    0.0                 !
 ! A21   A(12,15,16)           110.8027         -DE/DX =    0.0                 !
 ! A22   A(12,15,17)           110.8584         -DE/DX =    0.0                 !
 ! A23   A(12,15,18)           110.953          -DE/DX =    0.0                 !
 ! A24   A(16,15,17)           108.2437         -DE/DX =    0.0                 !
 ! A25   A(16,15,18)           107.8986         -DE/DX =    0.0                 !
 ! A26   A(17,15,18)           107.9643         -DE/DX =    0.0                 !
 ! A27   L(1,11,10,6,-1)       174.3621         -DE/DX =    0.0                 !
 ! A28   L(1,11,10,6,-2)       174.083          -DE/DX =    0.0                 !
 ! D1    D(3,1,2,4)           -179.9468         -DE/DX =    0.0                 !
 ! D2    D(3,1,2,12)            -0.8507         -DE/DX =    0.0                 !
 ! D3    D(11,1,2,4)             0.2075         -DE/DX =    0.0                 !
 ! D4    D(11,1,2,12)          179.3036         -DE/DX =    0.0                 !
 ! D5    D(2,1,10,9)           -17.2492         -DE/DX =    0.0                 !
 ! D6    D(1,2,12,13)            3.3431         -DE/DX =    0.0                 !
 ! D7    D(1,2,12,14)          119.9512         -DE/DX =    0.0                 !
 ! D8    D(1,2,12,15)         -119.4098         -DE/DX =    0.0                 !
 ! D9    D(4,2,12,13)         -177.5438         -DE/DX =    0.0                 !
 ! D10   D(4,2,12,14)          -60.9357         -DE/DX =    0.0                 !
 ! D11   D(4,2,12,15)           59.7033         -DE/DX =    0.0                 !
 ! D12   D(6,5,9,10)            64.8922         -DE/DX =    0.0                 !
 ! D13   D(7,5,9,10)          -176.2664         -DE/DX =    0.0                 !
 ! D14   D(8,5,9,10)           -57.3083         -DE/DX =    0.0                 !
 ! D15   D(5,9,10,11)          -91.6304         -DE/DX =    0.0                 !
 ! D16   D(2,12,15,16)          62.022          -DE/DX =    0.0                 !
 ! D17   D(2,12,15,17)        -177.7702         -DE/DX =    0.0                 !
 ! D18   D(2,12,15,18)         -57.8144         -DE/DX =    0.0                 !
 ! D19   D(13,12,15,16)        -60.3648         -DE/DX =    0.0                 !
 ! D20   D(13,12,15,17)         59.843          -DE/DX =    0.0                 !
 ! D21   D(13,12,15,18)        179.7988         -DE/DX =    0.0                 !
 ! D22   D(14,12,15,16)       -178.0106         -DE/DX =    0.0                 !
 ! D23   D(14,12,15,17)        -57.8027         -DE/DX =    0.0                 !
 ! D24   D(14,12,15,18)         62.153          -DE/DX =    0.0                 !
 --------------------------------------------------------------------------------
 Iteration  1 RMS(Cart)=  0.11037267 RMS(Int)=  0.00451721
 Iteration  2 RMS(Cart)=  0.00966105 RMS(Int)=  0.00002218
 Iteration  3 RMS(Cart)=  0.00005841 RMS(Int)=  0.00000000
 Iteration  4 RMS(Cart)=  0.00000000 RMS(Int)=  0.00000000
 Iteration  1 RMS(Cart)=  0.00000000 RMS(Int)=  0.00000000
 GradGradGradGradGradGradGradGradGradGradGradGradGradGradGradGradGradGrad

                          Input orientation:                          
 ---------------------------------------------------------------------
 Center     Atomic      Atomic             Coordinates (Angstroms)
 Number     Number       Type             X           Y           Z
 ---------------------------------------------------------------------
      1          6           0        0.289766   -1.345641    0.483747
      2          6           0        0.946950   -0.463244   -0.229292
      3          1           0        0.599497   -2.136404    1.151497
      4          1           0        0.378817    0.241636   -0.832673
      5          6           0       -2.209708    1.291022    0.287844
      6          1           0       -1.336459    1.306650    0.941609
      7          1           0       -2.227757    2.185472   -0.331917
      8          1           0       -3.119158    1.227330    0.882704
      9          8           0       -2.134005    0.206579   -0.626465
     10          8           0       -2.195745   -0.989425    0.130460
     11          1           0       -1.137651   -1.217934    0.327258
     12          6           0        2.449188   -0.323422   -0.273840
     13          1           0        2.909469   -1.104378    0.330356
     14          1           0        2.778016   -0.478441   -1.303796
     15          6           0        2.903093    1.056397    0.203785
     16          1           0        2.616410    1.220080    1.241429
     17          1           0        3.985016    1.156012    0.129214
     18          1           0        2.450796    1.844946   -0.396988
 ---------------------------------------------------------------------
                    Distance matrix (angstroms):
                    1          2          3          4          5
     1  C    0.000000
     2  C    1.311084   0.000000
     3  H    1.080338   2.196991   0.000000
     4  H    2.064059   1.087979   3.104949   0.000000
     5  C    3.638370   3.648201   4.514951   3.009524   0.000000
     6  H    3.144660   3.117288   3.955578   2.687844   1.090972
     7  H    4.412707   4.135818   5.373313   3.289906   1.088334
     8  H    4.289534   4.541784   5.021489   4.018699   1.088583
     9  O    3.084902   3.177844   4.015315   2.521513   1.420460
    10  O    2.535639   3.206683   3.189272   3.011894   2.285914
    11  H    1.441636   2.285796   2.130877   2.403219   2.728685
    12  C    2.506387   1.509389   2.956324   2.217661   4.962583
    13  H    2.635258   2.139098   2.659948   3.093314   5.652055
    14  H    3.184138   2.123109   3.677397   2.548847   5.526455
    15  C    3.560568   2.514629   4.049530   2.847814   5.118872
    16  H    3.545458   2.789928   3.916888   3.204071   4.919936
    17  H    4.476476   3.461267   4.831854   3.842653   6.198226
    18  H    3.952922   2.759966   4.655778   2.655846   4.743008
                    6          7          8          9         10
     6  H    0.000000
     7  H    1.785668   0.000000
     8  H    1.785435   1.785479   0.000000
     9  O    2.074871   2.002889   2.071243   0.000000
    10  O    2.582304   3.208549   2.516459   1.416747   0.000000
    11  H    2.605854   3.634009   3.195967   1.982813   1.100232
    12  C    4.297159   5.307705   5.894820   4.627192   4.709822
    13  H    4.920832   6.136188   6.487395   5.298183   5.110419
[...]
    14  H    0.001804   0.001555   0.000336   0.001073  -0.000002   0.000007
    15  C    0.001281   0.003830   0.000212   0.000598  -0.000009   0.000027
    16  H    0.000434  -0.001198   0.000093   0.000178  -0.000000   0.000025
    17  H   -0.000251  -0.000135  -0.000035  -0.000108   0.000001  -0.000004
    18  H    0.000040   0.000055   0.000004   0.000072  -0.000002   0.000005
               7          8          9         10         11         12
     1  C    0.000132   0.000979   0.011076  -0.082333   0.045536  -0.019580
     2  C   -0.000024  -0.000089  -0.000879   0.004288   0.000970   0.023245
     3  H   -0.000004  -0.000050  -0.000400   0.003597  -0.000924  -0.004260
     4  H   -0.000095  -0.000160  -0.003745   0.002673   0.000135  -0.006840
     5  C    0.000312  -0.001961   0.000009  -0.001509   0.000757   0.000057
     6  H   -0.000677  -0.000571  -0.000580   0.002956  -0.002883  -0.000173
     7  H   -0.001205   0.000900   0.000155  -0.000185   0.000098   0.000007
     8  H    0.000900   0.002001  -0.000258  -0.000423   0.001138   0.000010
     9  O    0.000155  -0.000258   0.036858  -0.031797   0.008119   0.000204
    10  O   -0.000185  -0.000423  -0.031797   0.459298  -0.031301  -0.000437
    11  H    0.000098   0.001138   0.008119  -0.031301  -0.093711   0.000347
    12  C    0.000007   0.000010   0.000204  -0.000437   0.000347   0.077796
    13  H   -0.000000  -0.000000  -0.000005   0.000018  -0.000051  -0.001468
    14  H   -0.000000  -0.000000  -0.000015   0.000024  -0.000038  -0.004561
    15  C   -0.000002  -0.000001  -0.000010   0.000013  -0.000017  -0.003961
    16  H   -0.000001  -0.000001  -0.000006   0.000006  -0.000011  -0.000460
    17  H    0.000000   0.000000   0.000001  -0.000000   0.000002   0.000003
    18  H   -0.000001  -0.000000  -0.000002   0.000001  -0.000003  -0.000281
              13         14         15         16         17         18
     1  C    0.001188   0.001804   0.001281   0.000434  -0.000251   0.000040
     2  C    0.000202   0.001555   0.003830  -0.001198  -0.000135   0.000055
     3  H    0.000582   0.000336   0.000212   0.000093  -0.000035   0.000004
     4  H    0.000206   0.001073   0.000598   0.000178  -0.000108   0.000072
     5  C   -0.000001  -0.000002  -0.000009  -0.000000   0.000001  -0.000002
     6  H    0.000007   0.000007   0.000027   0.000025  -0.000004   0.000005
     7  H   -0.000000  -0.000000  -0.000002  -0.000001   0.000000  -0.000001
     8  H   -0.000000  -0.000000  -0.000001  -0.000001   0.000000  -0.000000
     9  O   -0.000005  -0.000015  -0.000010  -0.000006   0.000001  -0.000002
    10  O    0.000018   0.000024   0.000013   0.000006  -0.000000   0.000001
    11  H   -0.000051  -0.000038  -0.000017  -0.000011   0.000002  -0.000003
    12  C   -0.001468  -0.004561  -0.003961  -0.000460   0.000003  -0.000281
    13  H   -0.004894   0.001178   0.000590   0.000175  -0.000179  -0.000041
    14  H    0.001178  -0.004635   0.002652  -0.000004  -0.000907   0.000080
    15  C    0.000590   0.002652  -0.009181   0.000997   0.001590   0.000030
    16  H    0.000175  -0.000004   0.000997   0.001036  -0.000930  -0.000024
    17  H   -0.000179  -0.000907   0.001590  -0.000930   0.001735  -0.000056
    18  H   -0.000041   0.000080   0.000030  -0.000024  -0.000056   0.000153
 Mulliken charges and spin densities:
               1          2
     1  C   -0.277750   0.783920
     2  C   -0.111063  -0.160550
     3  H    0.155751   0.025460
     4  H    0.168009   0.025634
     5  C   -0.068002  -0.002319
     6  H    0.074769  -0.000257
     7  H    0.094022  -0.000589
     8  H    0.098625   0.001515
     9  O   -0.194442   0.018725
    10  O   -0.230356   0.324888
    11  H    0.228415  -0.071836
    12  C   -0.146138   0.059648
    13  H    0.096447  -0.002494
    14  H    0.105497  -0.001453
    15  C   -0.295257  -0.001359
    16  H    0.099944   0.000310
    17  H    0.104394   0.000725
    18  H    0.097135   0.000033
 Sum of Mulliken charges =  -0.00000   1.00000
 Mulliken charges and spin densities with hydrogens summed into heavy atoms:
               1          2
     1  C   -0.121999   0.809380
     2  C    0.056946  -0.134916
     5  C    0.199414  -0.001650
     9  O   -0.194442   0.018725
    10  O   -0.001941   0.253052
    12  C    0.055806   0.055701
    15  C    0.006217  -0.000292
 Electronic spatial extent (au):  <R**2>=           1352.1003
 Charge=              0.0000 electrons
 Dipole moment (field-independent basis, Debye):
    X=              2.2889    Y=             -2.1965    Z=              0.1581  Tot=              3.1763
 Quadrupole moment (field-independent basis, Debye-Ang):
   XX=            -44.0833   YY=            -49.6487   ZZ=            -42.0448
   XY=              6.2036   XZ=             -1.8842   YZ=             -0.6013
 Traceless Quadrupole moment (field-independent basis, Debye-Ang):
   XX=              1.1756   YY=             -4.3898   ZZ=              3.2141
   XY=              6.2036   XZ=             -1.8842   YZ=             -0.6013
 Octapole moment (field-independent basis, Debye-Ang**2):
  XXX=            -13.2035  YYY=            -70.5600  ZZZ=             -8.9632  XYY=             -0.0281
  XXY=            -32.8647  XXZ=              4.1384  XZZ=             -5.4881  YZZ=            -19.5929
  YYZ=             -0.6917  XYZ=              1.5826
 Hexadecapole moment (field-independent basis, Debye-Ang**3):
 XXXX=          -1218.5416 YYYY=           -305.4782 ZZZZ=           -204.2778 XXXY=             97.9645
 XXXZ=             -7.0026 YYYX=             79.6912 YYYZ=             58.2913 ZZZX=             -6.9534
 ZZZY=             44.7692 XXYY=           -277.4684 XXZZ=           -247.9059 YYZZ=            -88.5958
 XXYZ=             19.5633 YYXZ=              2.5926 ZZXY=             28.3849
 N-N= 2.983708144236D+02 E-N=-1.407795456885D+03  KE= 3.452870859305D+02
                          Isotropic Fermi Contact Couplings
        Atom                 a.u.       MegaHertz       Gauss      10(-4) cm-1
     1  C(13)              0.19186     215.68384      76.96136      71.94438
     2  C(13)              0.00117       1.31964       0.47088       0.44018
     3  H(1)               0.01312      58.66056      20.93155      19.56706
     4  H(1)               0.01412      63.12983      22.52629      21.05784
     5  C(13)             -0.00276      -3.10523      -1.10802      -1.03579
     6  H(1)               0.00199       8.88656       3.17095       2.96424
     7  H(1)              -0.00004      -0.19439      -0.06936      -0.06484
     8  H(1)               0.00039       1.75508       0.62625       0.58543
     9  O(17)              0.01310      -7.94363      -2.83449      -2.64971
    10  O(17)              0.02484     -15.05897      -5.37341      -5.02313
    11  H(1)              -0.02574    -115.07466     -41.06150     -38.38477
    12  C(13)              0.04465      50.20029      17.91271      16.74501
    13  H(1)              -0.00075      -3.36804      -1.20180      -1.12346
    14  H(1)               0.00013       0.59840       0.21352       0.19961
    15  C(13)             -0.00196      -2.19880      -0.78459      -0.73344
    16  H(1)               0.00023       1.04961       0.37453       0.35011
    17  H(1)               0.00105       4.71102       1.68101       1.57143
    18  H(1)              -0.00006      -0.24678      -0.08806      -0.08232
 --------------------------------------------------------
       Center         ----  Spin Dipole Couplings  ----
                      3XX-RR        3YY-RR        3ZZ-RR
 --------------------------------------------------------
     1   Atom        0.673038     -0.297593     -0.375445
     2   Atom        0.036407     -0.058832      0.022425
     3   Atom       -0.009312     -0.042291      0.051603
     4   Atom       -0.005512     -0.010835      0.016347
     5   Atom       -0.002894      0.003126     -0.000233
     6   Atom       -0.002312      0.005530     -0.003218
     7   Atom       -0.001542      0.000276      0.001266
     8   Atom        0.000816      0.001817     -0.002633
     9   Atom        0.273215     -0.121518     -0.151697
    10   Atom        1.300704     -0.593093     -0.707611
    11   Atom        0.201387     -0.108017     -0.093370
    12   Atom        0.070976     -0.040872     -0.030104
    13   Atom        0.009302     -0.008133     -0.001169
    14   Atom        0.003375     -0.000326     -0.003049
    15   Atom       -0.000933      0.001140     -0.000207
    16   Atom       -0.000408      0.002074     -0.001666
    17   Atom        0.001422     -0.000463     -0.000959
    18   Atom       -0.000200     -0.000811      0.001011
 --------------------------------------------------------
                        XY            XZ            YZ
 --------------------------------------------------------
     1   Atom       -0.240800     -0.141240      0.030729
     2   Atom       -0.022277      0.038164     -0.005282
     3   Atom       -0.008425     -0.007503      0.006173
     4   Atom       -0.000631      0.005152      0.000013
     5   Atom        0.002792     -0.004711     -0.004444
     6   Atom        0.002249     -0.002559     -0.004830
     7   Atom        0.001504     -0.002132     -0.003938
     8   Atom        0.005085     -0.002550     -0.002643
     9   Atom       -0.098655     -0.164629      0.040517
    10   Atom       -0.561370     -0.248161      0.069023
    11   Atom       -0.065362     -0.092483      0.017197
    12   Atom       -0.024679      0.034629     -0.007189
    13   Atom       -0.003816     -0.003810      0.000906
    14   Atom        0.002619      0.005108      0.002925
    15   Atom       -0.003988      0.003728     -0.004826
    16   Atom       -0.002276      0.001275     -0.001810
    17   Atom       -0.001396      0.001011     -0.001073
    18   Atom       -0.001466      0.001566     -0.002098
 --------------------------------------------------------


 ---------------------------------------------------------------------------------
              Anisotropic Spin Dipole Couplings in Principal Axis System
 ---------------------------------------------------------------------------------

       Atom             a.u.   MegaHertz   Gauss  10(-4) cm-1        Axes

              Baa    -0.3942   -52.894   -18.874   -17.643  0.1371  0.0267  0.9902
     1 C(13)  Bbb    -0.3539   -47.492   -16.946   -15.842  0.2205  0.9737 -0.0568
              Bcc     0.7481   100.386    35.820    33.485  0.9657 -0.2261 -0.1276
 
              Baa    -0.0639    -8.578    -3.061    -2.861  0.2322  0.9717 -0.0432
     2 C(13)  Bbb    -0.0075    -1.013    -0.362    -0.338 -0.5928  0.1766  0.7858
              Bcc     0.0715     9.591     3.422     3.199  0.7712 -0.1569  0.6170
 
              Baa    -0.0445   -23.749    -8.474    -7.922  0.2234  0.9737 -0.0451
     3 H(1)   Bbb    -0.0085    -4.558    -1.627    -1.521  0.9661 -0.2151  0.1426
              Bcc     0.0531    28.307    10.101     9.442 -0.1291  0.0754  0.9888
 
              Baa    -0.0109    -5.829    -2.080    -1.944  0.1411  0.9896 -0.0271
     4 H(1)   Bbb    -0.0066    -3.508    -1.252    -1.170  0.9656 -0.1437 -0.2169
              Bcc     0.0175     9.338     3.332     3.115  0.2186 -0.0044  0.9758
 
              Baa    -0.0065    -0.871    -0.311    -0.290  0.7738  0.0665  0.6299
     5 C(13)  Bbb    -0.0020    -0.265    -0.095    -0.088 -0.4799  0.7106  0.5145
              Bcc     0.0085     1.136     0.405     0.379  0.4134  0.7004 -0.5818
 
              Baa    -0.0060    -3.219    -1.149    -1.074  0.4249  0.2772  0.8617
     6 H(1)   Bbb    -0.0025    -1.350    -0.482    -0.450  0.8618 -0.4151 -0.2914
              Bcc     0.0086     4.569     1.630     1.524  0.2769  0.8665 -0.4153
 
              Baa    -0.0033    -1.753    -0.626    -0.585  0.2964  0.6492  0.7005
     7 H(1)   Bbb    -0.0024    -1.274    -0.455    -0.425  0.8930 -0.4485  0.0378
              Bcc     0.0057     3.027     1.080     1.010 -0.3387 -0.6143  0.7127
 
              Baa    -0.0040    -2.130    -0.760    -0.710  0.5484 -0.1023  0.8299
     8 H(1)   Bbb    -0.0037    -1.993    -0.711    -0.665 -0.5436  0.7106  0.4468
              Bcc     0.0077     4.123     1.471     1.375  0.6355  0.6961 -0.3340
 
              Baa    -0.2086    15.097     5.387     5.036  0.3041 -0.0965  0.9478
     9 O(17)  Bbb    -0.1448    10.475     3.738     3.494  0.2380  0.9710  0.0225
              Bcc     0.3534   -25.572    -9.125    -8.530  0.9224 -0.2188 -0.3182
 
              Baa    -0.7471    54.059    19.290    18.032  0.2515  0.9625 -0.1017
    10 O(17)  Bbb    -0.7378    53.385    19.049    17.807  0.1390  0.0681  0.9879
              Bcc     1.4849  -107.444   -38.339   -35.839  0.9578 -0.2626 -0.1167
 
              Baa    -0.1222   -65.178   -23.257   -21.741  0.3077  0.8046  0.5079
    11 H(1)   Bbb    -0.1189   -63.450   -22.641   -21.165  0.1213 -0.5626  0.8178
              Bcc     0.2411   128.629    45.898    42.906  0.9437 -0.1900 -0.2707
 
              Baa    -0.0461    -6.183    -2.206    -2.062  0.2117  0.9772 -0.0191
    12 C(13)  Bbb    -0.0408    -5.474    -1.953    -1.826 -0.2790  0.0792  0.9570
              Bcc     0.0869    11.658     4.160     3.889  0.9367 -0.1972  0.2894
 
              Baa    -0.0089    -4.766    -1.701    -1.590  0.2017  0.9793 -0.0154
    13 H(1)   Bbb    -0.0024    -1.277    -0.456    -0.426  0.2958 -0.0460  0.9541
              Bcc     0.0113     6.044     2.157     2.016  0.9337 -0.1970 -0.2990
 
              Baa    -0.0062    -3.319    -1.184    -1.107 -0.3975 -0.2600  0.8800
    14 H(1)   Bbb    -0.0017    -0.893    -0.319    -0.298 -0.4891  0.8715  0.0365
              Bcc     0.0079     4.212     1.503     1.405  0.7764  0.4159  0.4736
 
              Baa    -0.0045    -0.601    -0.214    -0.201 -0.3464  0.4575  0.8190
    15 C(13)  Bbb    -0.0040    -0.539    -0.192    -0.180  0.7932  0.6090 -0.0047
              Bcc     0.0085     1.140     0.407     0.380 -0.5009  0.6480 -0.5738
 
              Baa    -0.0025    -1.347    -0.480    -0.449 -0.3510  0.1874  0.9174
    16 H(1)   Bbb    -0.0017    -0.921    -0.329    -0.307  0.7998  0.5695  0.1897
              Bcc     0.0042     2.268     0.809     0.756 -0.4869  0.8004 -0.3498
 
              Baa    -0.0018    -0.969    -0.346    -0.323  0.0411  0.6466  0.7617
    17 H(1)   Bbb    -0.0009    -0.474    -0.169    -0.158  0.5957  0.5962 -0.5382
              Bcc     0.0027     1.443     0.515     0.481  0.8021 -0.4759  0.3607
 
              Baa    -0.0023    -1.229    -0.439    -0.410  0.3007  0.8637  0.4046
    18 H(1)   Bbb    -0.0013    -0.679    -0.242    -0.227  0.8180 -0.0155 -0.5750
              Bcc     0.0036     1.909     0.681     0.637  0.4904 -0.5038  0.7111
 

 ---------------------------------------------------------------------------------

 1\1\GINC-N180\Scan\UB2PLYPD3-FC\CC-pVTZ\C5H11O2(2)\ROOT\19-Jun-2019\0\
 \# opt=(calcfc,ts,noeigentest,maxcyc=500,modredundant) uB2PLYPD3/cc-pv
 tz scf=maxcyc=500 nosymm\\Title Card Required\\0,2\C,0.4107377955,0.95
 45102273,-1.2560170358\C,1.0939242016,0.8547502456,-0.1414612799\H,0.6
 743805046,0.8453803545,-2.2979936966\H,0.574076234,1.0156821537,0.8006
 371871\C,-2.376914971,-0.2622917503,0.7411560243\H,-1.6376034921,-0.89
 68049456,0.2502156872\H,-2.420223614,-0.4935385447,1.8037563223\H,-3.3
 54366603,-0.4076436876,0.2845647547\O,-1.9920306729,1.103341511,0.6731
 941851\O,-2.0053890739,1.478674941,-0.6928655323\H,-0.973447846,1.2801
 563407,-1.0188179874\C,2.5606907672,0.511522475,-0.0463088604\H,2.9819
 553423,0.4165393546,-1.0464677437\H,3.0764755431,1.3413024933,0.441954
 629\C,2.7904548325,-0.7719830791,0.7523496426\H,2.3137059192,-1.621153
 8143,0.2652079081\H,3.8542994228,-0.985516861,0.8455215194\H,2.3758107
 102,-0.6856944141,1.7563052766\\Version=ES64L-G16RevB.01\HF=-346.79789
 63,-346.7977388,-346.7973921,-346.7969271,-346.7964643,-346.7961024,-3
 46.7958727,-346.795793,-346.7958704,-346.79611,-346.7964414,-346.79677
 68,-346.7970419,-346.7972127,-346.7972846,-346.7972696,-346.7971887,-3
 46.797058,-346.796899,-346.7967294,-346.7965747,-346.7964552,-346.7963
 85,-346.7963668,-346.7963965,-346.7964604,-346.7965384,-346.7966173,-3
 46.7966957,-346.7967838,-346.796895,-346.7970444,-346.797235,-346.7974
 612,-346.7976896,-346.797861,-346.7978967\MP2=-347.2369714,-347.236836
 2,-347.236442,-347.2358529,-347.2351957,-347.2346287,-347.2342519,-347
 .2340837,-347.2341275,-347.2343652,-347.2347119,-347.2350558,-347.2353
 132,-347.2354592,-347.2355009,-347.2354558,-347.2353441,-347.235188,-3
 47.2350082,-347.2348195,-347.2346391,-347.2344919,-347.2344015,-347.23
 43821,-347.2344242,-347.2345092,-347.2346117,-347.2347142,-347.2348166
 ,-347.2349379,-347.2351064,-347.2353529,-347.2356882,-347.236098,-347.
 2365197,-347.2368452,-347.236971\PUHF=-346.8040557,-346.8039088,-346.8
 035898,-346.8031655,-346.8027482,-346.8024252,-346.8022161,-346.802141
 2,-346.8022111,-346.8024225,-346.8027202,-346.8030246,-346.8032705,-34
 6.8034308,-346.8035027,-346.8034964,-346.8034277,-346.8033127,-346.803
 1698,-346.8030151,-346.80287,-346.8027545,-346.8026822,-346.8026622,-3
 46.8026865,-346.8027436,-346.8028137,-346.802884,-346.8029528,-346.803
 0302,-346.8031298,-346.8032665,-346.8034438,-346.8036558,-346.8038683,
 -346.8040252,-346.8040563\PMP2-0=-347.2378296,-347.2376949,-347.237304
 2,-347.2367215,-347.2360729,-347.2355148,-347.235144,-347.2349792,-347
 .2350241,-347.2352596,-347.2356017,-347.2359401,-347.2361931,-347.2363
 36,-347.2363762,-347.2363311,-347.2362201,-347.2360653,-347.2358871,-3
 47.2357001,-347.235521,-347.2353748,-347.2352849,-347.2352657,-347.235
 3078,-347.2353928,-347.2354951,-347.2355974,-347.2356995,-347.2358201,
 -347.235987,-347.2362308,-347.2365623,-347.2369675,-347.2373842,-347.2
 377055,-347.2378291\S2=0.77881,0.778791,0.778861,0.77903,0.779317,0.77
 9673,0.779959,0.780154,0.780263,0.780234,0.780076,0.779865,0.779681,0.
 779552,0.779477,0.779454,0.779456,0.779479,0.779515,0.779557,0.779593,
 0.779627,0.779653,0.779675,0.779698,0.779719,0.779741,0.779764,0.77978
 2,0.779776,0.779728,0.779621,0.779461,0.77927,0.779075,0.778911,0.7788
 1\S2-1=0.750597,0.750565,0.750554,0.750579,0.750661,0.750787,0.750905,
 0.751005,0.751088,0.751151,0.751151,0.751108,0.751041,0.750981,0.75092
 5,0.75088,0.750844,0.750813,0.75079,0.750777,0.750776,0.750792,0.75081
 9,0.750839,0.750867,0.750897,0.750931,0.750969,0.751008,0.751034,0.751
 035,0.751,0.750927,0.750831,0.750732,0.750652,0.750596\S2A=0.750563,0.
 750563,0.750566,0.750572,0.750583,0.750596,0.750606,0.750612,0.750615,
 0.750613,0.750607,0.750599,0.750592,0.750587,0.750585,0.750584,0.75058
 5,0.750586,0.750588,0.75059,0.750592,0.750593,0.750594,0.750594,0.7505
 95,0.750595,0.750596,0.750596,0.750597,0.750596,0.750594,0.75059,0.750
 585,0.750578,0.750572,0.750567,0.750563\RMSD=6.947e-09,8.068e-09,8.288
 e-09,9.933e-09,5.170e-09,7.475e-09,8.029e-09,8.008e-09,4.804e-09,9.965
 e-09,7.983e-09,8.313e-09,4.044e-09,7.081e-09,9.758e-09,6.067e-09,6.965
 e-09,6.007e-09,7.218e-09,6.912e-09,8.812e-09,5.387e-09,6.304e-09,6.826
 e-09,5.436e-09,4.026e-09,6.209e-09,6.887e-09,6.218e-09,8.959e-09,7.904
 e-09,7.385e-09,5.109e-09,8.148e-09,4.325e-09,7.007e-09,7.523e-09\PG=C0
 1 [X(C5H11O2)]\\@


      THE ONE-EYED VIEW OF OUR UNIVERSE SAYS YOU MUST NOT LOOK
      FAR AFIELD FOR PROBLEMS.  SUCH PROBLEMS MAY NEVER ARRIVE. 
      INSTEAD, TEND TO THE WOLF WITHIN YOUR FENCES.
      THE PACKS RANGING OUTSIDE MAY NOT EVEN EXIST.

                              -- THE AZHAR BOOK SHAMRA I:4
                                 CHILDREN OF DUNE, BY FRANK HERBERT
 Job cpu time:      20 days  4 hours  2 minutes 23.9 seconds.
 Elapsed time:       0 days 17 hours 49 minutes 38.7 seconds.
 File lengths (MBytes):  RWF= 108514 Int=      0 D2E=      0 Chk=     23 Scr=      1
 Normal termination of Gaussian 16 at Wed Jun 19 05:10:08 2019.
