 Entering Gaussian System, Link 0=g16
 Initial command:
 /ichec/packages/gaussian/16b01/l1.exe "/localscratch/347861/Gau-25778.inp" -scrdir="/localscratch/347861/"
 Entering Link 1 = /ichec/packages/gaussian/16b01/l1.exe PID=     26301.
  
 Copyright (c) 1988-2017, Gaussian, Inc.  All Rights Reserved.
  
 This is part of the Gaussian(R) 16 program.  It is based on
 the Gaussian(R) 09 system (copyright 2009, Gaussian, Inc.),
 the Gaussian(R) 03 system (copyright 2003, Gaussian, Inc.),
 the Gaussian(R) 98 system (copyright 1998, Gaussian, Inc.),
 the Gaussian(R) 94 system (copyright 1995, Gaussian, Inc.),
 the Gaussian 92(TM) system (copyright 1992, Gaussian, Inc.),
 the Gaussian 90(TM) system (copyright 1990, Gaussian, Inc.),
 the Gaussian 88(TM) system (copyright 1988, Gaussian, Inc.),
 the Gaussian 86(TM) system (copyright 1986, Carnegie Mellon
 University), and the Gaussian 82(TM) system (copyright 1983,
 Carnegie Mellon University). Gaussian is a federally registered
 trademark of Gaussian, Inc.
  
 This software contains proprietary and confidential information,
 including trade secrets, belonging to Gaussian, Inc.
  
 This software is provided under written license and may be
 used, copied, transmitted, or stored only in accord with that
 written license.
  
 The following legend is applicable only to US Government
 contracts under FAR:
  
                    RESTRICTED RIGHTS LEGEND
  
 Use, reproduction and disclosure by the US Government is
 subject to restrictions as set forth in subparagraphs (a)
 and (c) of the Commercial Computer Software - Restricted
 Rights clause in FAR 52.227-19.
  
 Gaussian, Inc.
 340 Quinnipiac St., Bldg. 40, Wallingford CT 06492
  
  
 ---------------------------------------------------------------
 Warning -- This program may not be used in any manner that
 competes with the business of Gaussian, Inc. or will provide
 assistance to any competitor of Gaussian, Inc.  The licensee
 of this program is prohibited from giving any competitor of
 Gaussian, Inc. access to this program.  By using this program,
 the user acknowledges that Gaussian, Inc. is engaged in the
 business of creating and licensing software in the field of
 computational chemistry and represents and warrants to the
 licensee that it is not a competitor of Gaussian, Inc. and that
 it will not use this program in any manner prohibited above.
 ---------------------------------------------------------------
  

 Cite this work as:
 Gaussian 16, Revision B.01,
 M. J. Frisch, G. W. Trucks, H. B. Schlegel, G. E. Scuseria, 
 M. A. Robb, J. R. Cheeseman, G. Scalmani, V. Barone, 
 G. A. Petersson, H. Nakatsuji, X. Li, M. Caricato, A. V. Marenich, 
 J. Bloino, B. G. Janesko, R. Gomperts, B. Mennucci, H. P. Hratchian, 
 J. V. Ortiz, A. F. Izmaylov, J. L. Sonnenberg, D. Williams-Young, 
 F. Ding, F. Lipparini, F. Egidi, J. Goings, B. Peng, A. Petrone, 
 T. Henderson, D. Ranasinghe, V. G. Zakrzewski, J. Gao, N. Rega, 
 G. Zheng, W. Liang, M. Hada, M. Ehara, K. Toyota, R. Fukuda, 
 J. Hasegawa, M. Ishida, T. Nakajima, Y. Honda, O. Kitao, H. Nakai, 
 T. Vreven, K. Throssell, J. A. Montgomery, Jr., J. E. Peralta, 
 F. Ogliaro, M. J. Bearpark, J. J. Heyd, E. N. Brothers, K. N. Kudin, 
 V. N. Staroverov, T. A. Keith, R. Kobayashi, J. Normand, 
 K. Raghavachari, A. P. Rendell, J. C. Burant, S. S. Iyengar, 
 J. Tomasi, M. Cossi, J. M. Millam, M. Klene, C. Adamo, R. Cammi, 
 J. W. Ochterski, R. L. Martin, K. Morokuma, O. Farkas, 
 J. B. Foresman, and D. J. Fox, Gaussian, Inc., Wallingford CT, 2016.
 
 ******************************************
 Gaussian 16:  ES64L-G16RevB.01 20-Dec-2017
                12-Jun-2019 
 ******************************************
 %mem=80GB
 %nproc=40
 Will use up to   40 processors via shared memory.
 ----------------------------------------------------------------------
 # opt=(calcfc,ts,noeigentest,maxcyc=500,modredundant) uB2PLYPD3/cc-pvt
 z scf=maxcyc=500 nosymm
 ----------------------------------------------------------------------
 1/5=1,6=500,10=4,11=1,18=120,38=1/1,3;
 2/9=110,12=2,15=1,17=6,18=5,40=1/2;
 3/5=16,6=1,11=2,25=1,30=1,71=2,74=-60,116=2,140=1/1,2,3;
 4//1;
 5/5=2,7=500,38=5/2;
 8/6=3,8=1,10=1,19=11,30=-1/1;
 9/15=3,16=-3/6;
 11/6=1,8=1,15=11,17=12,24=-1,27=1,28=-2,29=300,31=1,32=6,42=3/1,2,10;
 10/6=2,21=1,31=1/2;
 8/6=4,8=1,10=1,19=11,30=-1/11,4;
 10/5=1,20=4,31=1/2;
 11/12=2,14=11,16=1,17=2,28=-2,31=1,42=3,76=2/2,10,12;
 6/7=2,8=2,9=2,10=2/1;
 7/10=1,12=2,25=1,30=1,44=2/1,2,3,16;
 1/5=1,6=500,10=4,11=1,18=20/3(2);
 2/9=110,15=1/2;
 99//99;
 2/9=110,15=1/2;
 3/5=16,6=1,11=2,25=1,30=1,71=1,74=-60,116=2/1,2,3;
 4/5=5,16=3,69=1/1;
 5/5=2,7=500,38=5/2;
 8/6=4,10=1/1;
 9/15=2,16=-3/6;
 10/5=1,31=1/2;
 7/12=2,30=1/1,2,3,16;
 1/5=1,6=500,11=1,18=20/3(-8);
 2/9=110,15=1/2;
 6/7=2,8=2,9=2,10=2/1;
 99/9=10/99;
 -------------------
 Title Card Required
 -------------------
 Symbolic Z-matrix:
 Charge =  0 Multiplicity = 2
 C                     0.40671   1.65585  -0.22706 
 C                     1.49868   0.92436  -0.31265 
 H                     0.18177   2.65789  -0.5588 
 C                    -2.27307  -0.76379  -0.84202 
 H                    -1.67486  -0.23142  -1.58372 
 H                    -2.32006  -1.82122  -1.09405 
 H                    -3.27516  -0.34089  -0.79694 
 O                    -1.65095  -0.71384   0.43294 
 O                    -1.65936   0.63609   0.86403 
 H                    -0.75331   1.06567   0.42226 
 H                     2.36982   1.3667   -0.79865 
 C                     1.66117  -0.43595   0.19024 
 C                     2.80353  -1.11281   0.07675 
 H                     0.79917  -0.88552   0.66352 
 H                     2.90087  -2.11796   0.45778 
 H                     3.67215  -0.67717  -0.39875 
 
 Add virtual bond connecting atoms H10        and C1         Dist= 2.75D+00.
 The following ModRedundant input section has been read:
 D    *          1       9    *    R                                           
 D       3       1       9       8 S  36 10.000                                
 

 GradGradGradGradGradGradGradGradGradGradGradGradGradGradGradGradGradGrad
 Berny optimization.
 Initialization pass.
                           ----------------------------
                           !    Initial Parameters    !
                           ! (Angstroms and Degrees)  !
 --------------------------                            --------------------------
 ! Name  Definition              Value          Derivative Info.                !
 --------------------------------------------------------------------------------
 ! R1    R(1,2)                  1.3171         calculate D2E/DX2 analytically  !
 ! R2    R(1,3)                  1.0792         calculate D2E/DX2 analytically  !
 ! R3    R(1,10)                 1.4545         calculate D2E/DX2 analytically  !
 ! R4    R(2,11)                 1.0912         calculate D2E/DX2 analytically  !
 ! R5    R(2,12)                 1.4594         calculate D2E/DX2 analytically  !
 ! R6    R(4,5)                  1.0915         calculate D2E/DX2 analytically  !
 ! R7    R(4,6)                  1.0881         calculate D2E/DX2 analytically  !
 ! R8    R(4,7)                  1.0886         calculate D2E/DX2 analytically  !
 ! R9    R(4,8)                  1.4195         calculate D2E/DX2 analytically  !
 ! R10   R(8,9)                  1.4171         calculate D2E/DX2 analytically  !
 ! R11   R(9,10)                 1.0957         calculate D2E/DX2 analytically  !
 ! R12   R(12,13)                1.3327         calculate D2E/DX2 analytically  !
 ! R13   R(12,14)                1.0813         calculate D2E/DX2 analytically  !
 ! R14   R(13,15)                1.0793         calculate D2E/DX2 analytically  !
 ! R15   R(13,16)                1.0818         calculate D2E/DX2 analytically  !
 ! A1    A(2,1,3)              131.9497         calculate D2E/DX2 analytically  !
 ! A2    A(2,1,10)             117.7013         calculate D2E/DX2 analytically  !
 ! A3    A(3,1,10)             110.3489         calculate D2E/DX2 analytically  !
 ! A4    A(1,2,11)             117.7534         calculate D2E/DX2 analytically  !
 ! A5    A(1,2,12)             125.9868         calculate D2E/DX2 analytically  !
 ! A6    A(11,2,12)            116.2593         calculate D2E/DX2 analytically  !
 ! A7    A(5,4,6)              109.8937         calculate D2E/DX2 analytically  !
 ! A8    A(5,4,7)              110.0694         calculate D2E/DX2 analytically  !
 ! A9    A(5,4,8)              110.6685         calculate D2E/DX2 analytically  !
 ! A10   A(6,4,7)              110.3273         calculate D2E/DX2 analytically  !
 ! A11   A(6,4,8)              105.1393         calculate D2E/DX2 analytically  !
 ! A12   A(7,4,8)              110.6446         calculate D2E/DX2 analytically  !
 ! A13   A(4,8,9)              107.7064         calculate D2E/DX2 analytically  !
 ! A14   A(8,9,10)             104.2356         calculate D2E/DX2 analytically  !
 ! A15   A(2,12,13)            122.6513         calculate D2E/DX2 analytically  !
 ! A16   A(2,12,14)            116.7194         calculate D2E/DX2 analytically  !
 ! A17   A(13,12,14)           120.6283         calculate D2E/DX2 analytically  !
 ! A18   A(12,13,15)           121.3474         calculate D2E/DX2 analytically  !
 ! A19   A(12,13,16)           121.4096         calculate D2E/DX2 analytically  !
 ! A20   A(15,13,16)           117.2429         calculate D2E/DX2 analytically  !
 ! A21   L(1,10,9,5,-1)        177.8226         calculate D2E/DX2 analytically  !
 ! A22   L(1,10,9,5,-2)        182.2313         calculate D2E/DX2 analytically  !
 ! D1    D(3,1,2,11)             0.171          calculate D2E/DX2 analytically  !
 ! D2    D(3,1,2,12)           179.9119         calculate D2E/DX2 analytically  !
 ! D3    D(10,1,2,11)         -179.934          calculate D2E/DX2 analytically  !
 ! D4    D(10,1,2,12)           -0.1931         calculate D2E/DX2 analytically  !
 ! D5    D(3,1,9,8)            141.0014         Scan                            !
 ! D6    D(1,2,12,13)         -179.4406         calculate D2E/DX2 analytically  !
 ! D7    D(1,2,12,14)            0.9085         calculate D2E/DX2 analytically  !
 ! D8    D(11,2,12,13)           0.3038         calculate D2E/DX2 analytically  !
 ! D9    D(11,2,12,14)        -179.3471         calculate D2E/DX2 analytically  !
 ! D10   D(5,4,8,9)             66.0371         calculate D2E/DX2 analytically  !
 ! D11   D(6,4,8,9)           -175.3543         calculate D2E/DX2 analytically  !
 ! D12   D(7,4,8,9)            -56.2432         calculate D2E/DX2 analytically  !
 ! D13   D(4,8,9,10)           -86.2299         calculate D2E/DX2 analytically  !
 ! D14   D(2,12,13,15)         179.9096         calculate D2E/DX2 analytically  !
 ! D15   D(2,12,13,16)           0.0547         calculate D2E/DX2 analytically  !
 ! D16   D(14,12,13,15)         -0.4528         calculate D2E/DX2 analytically  !
 ! D17   D(14,12,13,16)        179.6923         calculate D2E/DX2 analytically  !
 --------------------------------------------------------------------------------
 Trust Radius=3.00D-01 FncErr=1.00D-07 GrdErr=1.00D-07 EigMax=2.50D+02 EigMin=1.00D-04
 Number of optimizations in scan=  37
 Number of steps in this run=    100 maximum allowed number of steps=    100.
 Search for a saddle point of order  1.
 GradGradGradGradGradGradGradGradGradGradGradGradGradGradGradGradGradGrad

                          Input orientation:                          
 ---------------------------------------------------------------------
 Center     Atomic      Atomic             Coordinates (Angstroms)
 Number     Number       Type             X           Y           Z
 ---------------------------------------------------------------------
      1          6           0        0.406710    1.655849   -0.227060
      2          6           0        1.498676    0.924357   -0.312647
      3          1           0        0.181768    2.657890   -0.558798
      4          6           0       -2.273073   -0.763790   -0.842017
      5          1           0       -1.674860   -0.231416   -1.583720
      6          1           0       -2.320061   -1.821222   -1.094048
      7          1           0       -3.275156   -0.340888   -0.796944
      8          8           0       -1.650952   -0.713838    0.432944
      9          8           0       -1.659361    0.636085    0.864028
     10          1           0       -0.753305    1.065666    0.422257
     11          1           0        2.369823    1.366701   -0.798651
     12          6           0        1.661171   -0.435950    0.190238
     13          6           0        2.803534   -1.112810    0.076750
     14          1           0        0.799168   -0.885522    0.663520
     15          1           0        2.900871   -2.117965    0.457780
     16          1           0        3.672147   -0.677166   -0.398752
 ---------------------------------------------------------------------
                    Distance matrix (angstroms):
                    1          2          3          4          5
     1  C    0.000000
     2  C    1.317116   0.000000
     3  H    1.079229   2.190884   0.000000
     4  C    3.662521   4.166073   4.220705   0.000000
     5  H    3.120133   3.608707   3.584079   1.091515   0.000000
     6  H    4.502996   4.767761   5.158303   1.088067   1.784249
     7  H    4.227040   4.962344   4.582544   1.088599   1.786602
     8  O    3.207023   3.627636   3.963706   1.419526   2.073701
     9  O    2.549322   3.382434   3.082513   2.290607   2.596973
    10  H    1.454498   2.373072   2.090935   2.693509   2.560396
    11  H    2.064978   1.091222   2.551918   5.108557   4.419250
    12  C    2.474557   1.459361   3.510204   4.080601   3.783895
    13  C    3.674580   2.450374   4.636352   5.170869   4.856957
    14  H    2.721346   2.172067   3.798817   3.423467   3.405695
    15  H    4.575097   3.437358   5.588895   5.503904   5.353887
    16  H    4.016904   2.701160   4.830213   5.962351   5.494845
                    6          7          8          9         10
     6  H    0.000000
     7  H    1.786579   0.000000
     8  O    2.001427   2.071172   0.000000
     9  O    3.210754   2.514776   1.417108   0.000000
    10  H    3.617738   3.134418   1.993118   1.095737   0.000000
    11  H    5.678479   5.897597   4.691705   4.419573   3.366774
    12  C    4.406651   5.034967   3.332610   3.553756   2.852784
    13  C    5.303192   6.189481   4.486480   4.857558   4.185240
    14  H    3.700563   4.362304   2.466927   2.898251   2.505098
    15  H    5.454755   6.547950   4.763537   5.342803   4.846625
    16  H    6.139940   6.966826   5.387805   5.634201   4.826608
                   11         12         13         14         15
    11  H    0.000000
    12  C    2.174773   0.000000
    13  C    2.665034   1.332671   0.000000
    14  H    3.110854   1.081277   2.100819   0.000000
    15  H    3.742129   2.106563   1.079349   2.445077   0.000000
    16  H    2.456290   2.109293   1.081839   3.070153   1.845106
                   16
    16  H    0.000000
 Symmetry turned off by external request.
 Stoichiometry    C5H9O2(2)
 Framework group  C1[X(C5H9O2)]
 Deg. of freedom    42
 Full point group                 C1      NOp   1
 Rotational constants (GHZ):           3.7948090           1.3094450           1.1095740
 Standard basis: CC-pVTZ (5D, 7F)
   336 basis functions,   517 primitive gaussians,   380 cartesian basis functions
    28 alpha electrons       27 beta electrons
       nuclear repulsion energy       284.6465454722 Hartrees.
 NAtoms=   16 NActive=   16 NUniq=   16 SFac= 1.00D+00 NAtFMM=   60 NAOKFM=F Big=F
 Integral buffers will be    131072 words long.
 Raffenetti 2 integral format.
 Two-electron integral symmetry is turned off.
 Nuclear repulsion after empirical dispersion term =      284.6378930745 Hartrees.
 One-electron integrals computed using PRISM.
 NBasis=   336 RedAO= T EigKep=  2.58D-04  NBF=   336
 NBsUse=   336 1.00D-06 EigRej= -1.00D+00 NBFU=   336
 ExpMin= 1.03D-01 ExpMax= 1.53D+04 ExpMxC= 5.22D+02 IAcc=3 IRadAn=         5 AccDes= 0.00D+00
 Harris functional with IExCor=  419 and IRadAn=       5 diagonalized for initial guess.
 HarFok:  IExCor=  419 AccDes= 0.00D+00 IRadAn=         5 IDoV= 1 UseB2=F ITyADJ=14
 ICtDFT=  3500011 ScaDFX=  1.000000  1.000000  1.000000  1.000000
 FoFCou: FMM=F IPFlag=           0 FMFlag=      100000 FMFlg1=           0
         NFxFlg=           0 DoJE=T BraDBF=F KetDBF=T FulRan=T
         wScrn=  0.000000 ICntrl=       500 IOpCl=  0 I1Cent=   200000004 NGrid=           0
         NMat0=    1 NMatS0=      1 NMatT0=    0 NMatD0=    1 NMtDS0=    0 NMtDT0=    0
 Symmetry not used in FoFCou.
 Initial guess <Sx>= 0.0000 <Sy>= 0.0000 <Sz>= 0.5000 <S**2>= 0.7500 S= 0.5000
 Requested convergence on RMS density matrix=1.00D-08 within 500 cycles.
 Requested convergence on MAX density matrix=1.00D-06.
 Requested convergence on             energy=1.00D-06.
 No special actions if energy rises.
 Integral accuracy reduced to 1.0D-05 until final iterations.
 Initial convergence to 1.0D-05 achieved.  Increase integral accuracy.
 SCF Done:  E(UB2PLYPD3) =  -345.584448425     A.U. after   25 cycles
            NFock= 25  Conv=0.70D-08     -V/T= 2.0043
 <Sx>= 0.0000 <Sy>= 0.0000 <Sz>= 0.5000 <S**2>= 0.8017 S= 0.5255
 <L.S>=  0.00000000000    
 Annihilation of the first spin contaminant:
 S**2 before annihilation     0.8017,   after     0.7516
 DoSCS=T DFT=T ScalE2(SS,OS)=  0.270000  0.270000
 ExpMin= 1.03D-01 ExpMax= 1.53D+04 ExpMxC= 5.22D+02 IAcc=3 IRadAn=         5 AccDes= 0.00D+00
 HarFok:  IExCor=  205 AccDes= 0.00D+00 IRadAn=         5 IDoV=-2 UseB2=F ITyADJ=14
 ICtDFT= 12500011 ScaDFX=  1.000000  1.000000  1.000000  1.000000
 Range of M.O.s used for correlation:     8   336
 NBasis=   336 NAE=    28 NBE=    27 NFC=     7 NFV=     0
 NROrb=    329 NOA=    21 NOB=    20 NVA=   308 NVB=   309

 **** Warning!!: The largest alpha MO coefficient is  0.12710158D+02


 **** Warning!!: The largest beta MO coefficient is  0.12179946D+02

 DoSCS=T DFT=T ScalE2(SS,OS)=  0.270000  0.270000
 Disk-based method using ON**2 memory for 21 occupieds at a time.
 Permanent disk used for amplitudes=   106523802 words.
 Estimated scratch disk usage=  1946629432 words.
 Actual    scratch disk usage=  1882431288 words.
 JobTyp=2 Pass  1:  I=   8 to  28 NPSUse= 40 ParTrn=T ParDer=T DoDerP=T.
 (rs|ai) integrals will be sorted in core.
 Actual    scratch disk usage=  1882431288 words.
 JobTyp=3 Pass  1:  I=   8 to  27 NPSUse= 40 ParTrn=T ParDer=T DoDerP=T.
 (rs|ai) integrals will be sorted in core.
 Spin components of T(2) and E(2):
     alpha-alpha T2 =       0.7660802665D-01 E2=     -0.5303081814D-01
     alpha-beta  T2 =       0.4658812176D+00 E2=     -0.3242977095D+00
     beta-beta   T2 =       0.8034790263D-01 E2=     -0.5145111929D-01
 (S**2,0)=  0.80175D+00           (S**2,1)=  0.76398D+00
 Scaling Projection term by:   0.270000
 E(PUHF)=      -0.34559182393D+03        E(PMP2)=      -0.34601450630D+03
 E2(B2PLYPD3) =    -0.4287796469D+00 E(B2PLYPD3) =    -0.34601322807201D+03
 G2DrvN: will do    17 centers at a time, making    1 passes.
 Calling FoFCou, ICntrl=  3107 FMM=F I1Cent=   0 AccDes= 0.00D+00.
 End of G2Drv F.D. properties file   721 does not exist.
 End of G2Drv F.D. properties file   722 does not exist.
 End of G2Drv F.D. properties file   788 does not exist.
          IDoAtm=1111111111111111
          Differentiating once with respect to electric field.
                with respect to dipole field.
          Differentiating once with respect to nuclear coordinates.
 Keep R1 and R2 ints in memory in canonical form, NReq=3251641620.
          There are    51 degrees of freedom in the 1st order CPHF.  IDoFFX=6 NUNeed=    51.
     48 vectors produced by pass  0 Test12= 3.33D-14 1.96D-09 XBig12= 1.12D+02 4.91D+00.
 AX will form    48 AO Fock derivatives at one time.
     48 vectors produced by pass  1 Test12= 3.33D-14 1.96D-09 XBig12= 8.95D+00 6.45D-01.
     48 vectors produced by pass  2 Test12= 3.33D-14 1.96D-09 XBig12= 5.37D-01 1.03D-01.
     48 vectors produced by pass  3 Test12= 3.33D-14 1.96D-09 XBig12= 9.29D-03 1.52D-02.
     48 vectors produced by pass  4 Test12= 3.33D-14 1.96D-09 XBig12= 9.68D-05 9.00D-04.
     48 vectors produced by pass  5 Test12= 3.33D-14 1.96D-09 XBig12= 7.51D-07 8.80D-05.
     48 vectors produced by pass  6 Test12= 3.33D-14 1.96D-09 XBig12= 7.74D-09 8.20D-06.
     28 vectors produced by pass  7 Test12= 3.33D-14 1.96D-09 XBig12= 4.70D-11 5.43D-07.
      4 vectors produced by pass  8 Test12= 3.33D-14 1.96D-09 XBig12= 3.07D-13 6.09D-08.
      3 vectors produced by pass  9 Test12= 3.33D-14 1.96D-09 XBig12= 2.99D-15 4.33D-09.
 InvSVY:  IOpt=1 It=  1 EMax= 5.33D-15
 Solved reduced A of dimension   371 with    51 vectors.
 End of Minotr F.D. properties file   721 does not exist.
 End of Minotr F.D. properties file   722 does not exist.
 End of Minotr F.D. properties file   788 does not exist.
 MDV= 10737418240.
 DoSCS=T DFT=T ScalE2(SS,OS)=  0.270000  0.270000
 Form MO integral derivatives with frozen-active canonical formalism.
 Discarding MO integrals.
 Reordered first order wavefunction length =    428928697
 In DefCFB: NBatch=  1 ICI= 28 ICA=309 LFMax= 78
            Large arrays: LIAPS=  8665386240 LIARS=  1611002400 words.
 In DefCFB: NBatch=  1 ICI= 28 ICA=309 LFMax= 78
            Large arrays: LIAPS=  8665386240 LIARS=  1611002400 words.
 Semi-Direct transformation.
 ModeAB=           4 MOrb=            28 LenV=   10734097599
 LASXX=    503301435 LTotXX=   503301435 LenRXX=  1014543915
 LTotAB=   511242480 MaxLAS=   608133120 LenRXY=           0
 NonZer=  1517845350 LenScr=  2285697024 LnRSAI=   608133120
 LnScr1=   915777536 LExtra=           0 Total=   4824151595
 MaxDsk=          -1 SrtSym=           T ITran=            4
 JobTyp=1 Pass  1:  I=   1 to  28.
 (rs|ai) integrals will be sorted in core.
 ModeAB=           4 MOrb=            27 LenV=   10734097599
 LASXX=    486308502 LTotXX=   486308502 LenRXX=   901306008
 LTotAB=   414997506 MaxLAS=   586414080 LenRXY=           0
 NonZer=  1387614510 LenScr=  2089584640 LnRSAI=   586414080
 LnScr1=   883070976 LExtra=           0 Total=   4460375704
 MaxDsk=          -1 SrtSym=           T ITran=            4
 JobTyp=2 Pass  1:  I=   1 to  27.
 (rs|ai) integrals will be sorted in core.
 DoSCS=T DFT=T ScalE2(SS,OS)=  0.270000  0.270000
 Spin components of T(2) and E(2):
     alpha-alpha T2 =       0.7660802665D-01 E2=     -0.5303081814D-01
     alpha-beta  T2 =       0.4658812176D+00 E2=     -0.3242977095D+00
     beta-beta   T2 =       0.8034790263D-01 E2=     -0.5145111929D-01
 E2(B2PLYPD3) =    -0.4287796469D+00 E(B2PLYPD3) =    -0.34601322807201D+03
 (S**2,0)=  0.80175D+00           (S**2,1)=  0.76398D+00
 Scaling Projection term by:   0.270000
 E(PUHF)=      -0.34559182393D+03        E(PMP2)=      -0.34601450630D+03
          IDoAtm=1111111111111111
          Differentiating once with respect to electric field.
                with respect to dipole field.
          Differentiating once with respect to nuclear coordinates.
 Keep R1 and R2 ints in memory in canonical form, NReq=3251777228.
          There are     1 degrees of freedom in the 1st order CPHF.  IDoFFX=0 NUNeed=     1.
 LinEq1:  Iter=  0 NonCon=     1 RMS=9.57D-04 Max=6.68D-02 NDo=     1
 AX will form     1 AO Fock derivatives at one time.
 LinEq1:  Iter=  1 NonCon=     1 RMS=3.49D-04 Max=2.10D-02 NDo=     1
 LinEq1:  Iter=  2 NonCon=     1 RMS=2.50D-04 Max=1.76D-02 NDo=     1
 LinEq1:  Iter=  3 NonCon=     1 RMS=1.30D-04 Max=7.80D-03 NDo=     1
 LinEq1:  Iter=  4 NonCon=     1 RMS=8.53D-05 Max=4.93D-03 NDo=     1
 LinEq1:  Iter=  5 NonCon=     1 RMS=3.08D-05 Max=1.20D-03 NDo=     1
 LinEq1:  Iter=  6 NonCon=     1 RMS=2.23D-05 Max=7.32D-04 NDo=     1
 LinEq1:  Iter=  7 NonCon=     1 RMS=9.51D-06 Max=4.60D-04 NDo=     1
 LinEq1:  Iter=  8 NonCon=     1 RMS=6.99D-06 Max=2.42D-04 NDo=     1
 LinEq1:  Iter=  9 NonCon=     1 RMS=3.60D-06 Max=1.46D-04 NDo=     1
 LinEq1:  Iter= 10 NonCon=     1 RMS=1.22D-06 Max=4.05D-05 NDo=     1
 LinEq1:  Iter= 11 NonCon=     1 RMS=8.68D-07 Max=3.91D-05 NDo=     1
 LinEq1:  Iter= 12 NonCon=     1 RMS=3.63D-07 Max=1.18D-05 NDo=     1
 LinEq1:  Iter= 13 NonCon=     1 RMS=1.60D-07 Max=4.48D-06 NDo=     1
 LinEq1:  Iter= 14 NonCon=     1 RMS=6.60D-08 Max=1.43D-06 NDo=     1
 LinEq1:  Iter= 15 NonCon=     1 RMS=2.68D-08 Max=3.83D-07 NDo=     1
 LinEq1:  Iter= 16 NonCon=     1 RMS=8.19D-09 Max=1.94D-07 NDo=     1
 LinEq1:  Iter= 17 NonCon=     1 RMS=3.04D-09 Max=6.32D-08 NDo=     1
 LinEq1:  Iter= 18 NonCon=     1 RMS=1.30D-09 Max=2.66D-08 NDo=     1
 LinEq1:  Iter= 19 NonCon=     1 RMS=5.60D-10 Max=8.83D-09 NDo=     1
 LinEq1:  Iter= 20 NonCon=     1 RMS=2.01D-10 Max=4.34D-09 NDo=     1
 LinEq1:  Iter= 21 NonCon=     1 RMS=6.88D-11 Max=1.40D-09 NDo=     1
 LinEq1:  Iter= 22 NonCon=     0 RMS=1.94D-11 Max=4.58D-10 NDo=     1
 Linear equations converged to 1.000D-10 1.000D-09 after    22 iterations.
 End of Minotr F.D. properties file   721 does not exist.
 End of Minotr F.D. properties file   722 does not exist.
 End of Minotr F.D. properties file   788 does not exist.
 Symmetrizing basis deriv contribution to polar:
 IMax=3 JMax=2 DiffMx= 0.00D+00
 G2DrvN: will do    17 centers at a time, making    1 passes.
 Calling FoFCou, ICntrl=  3107 FMM=F I1Cent=   0 AccDes= 0.00D+00.
 End of G2Drv F.D. properties file   721 does not exist.
 End of G2Drv F.D. properties file   722 does not exist.
 End of G2Drv F.D. properties file   788 does not exist.
 DoSCS=T DFT=T ScalE2(SS,OS)=  0.270000  0.270000
 R2 and R3 integrals will be kept in memory, NReq=  5268037470.
 DD1Dir will call FoFMem   1 times, MxPair=      2242
 NAB=   756 NAA=   378 NBB=   351.
 Discarding MO integrals.

 **********************************************************************

            Population analysis using the SCF Density.

 **********************************************************************

 Alpha  occ. eigenvalues --  -19.78714 -19.78536 -10.66043 -10.65528 -10.64281
 Alpha  occ. eigenvalues --  -10.63100 -10.62060  -1.27385  -1.02846  -0.94470
 Alpha  occ. eigenvalues --   -0.86579  -0.77942  -0.71255  -0.65810  -0.60476
 Alpha  occ. eigenvalues --   -0.57180  -0.55630  -0.54543  -0.53274  -0.49393
 Alpha  occ. eigenvalues --   -0.48654  -0.44093  -0.43812  -0.39653  -0.37663
 Alpha  occ. eigenvalues --   -0.36545  -0.31689  -0.29577
 Alpha virt. eigenvalues --    0.01137   0.08674   0.09506   0.10394   0.11238
 Alpha virt. eigenvalues --    0.12681   0.13182   0.14988   0.16209   0.16606
 Alpha virt. eigenvalues --    0.18656   0.19822   0.24259   0.26349   0.28603
 Alpha virt. eigenvalues --    0.30681   0.32827   0.33387   0.35296   0.35958
 Alpha virt. eigenvalues --    0.37459   0.38779   0.40762   0.42560   0.43268
 Alpha virt. eigenvalues --    0.46527   0.46993   0.47984   0.48311   0.48839
 Alpha virt. eigenvalues --    0.51380   0.51848   0.51942   0.53139   0.54105
 Alpha virt. eigenvalues --    0.55284   0.55835   0.56600   0.57925   0.60502
 Alpha virt. eigenvalues --    0.61494   0.63505   0.65827   0.67846   0.69078
 Alpha virt. eigenvalues --    0.69591   0.71927   0.72370   0.74076   0.75197
 Alpha virt. eigenvalues --    0.77162   0.79876   0.81178   0.82541   0.85736
 Alpha virt. eigenvalues --    0.90353   0.91228   0.92948   0.93753   0.96283
 Alpha virt. eigenvalues --    0.97794   0.98114   0.99388   1.00382   1.03531
 Alpha virt. eigenvalues --    1.04573   1.04821   1.07766   1.09788   1.11340
 Alpha virt. eigenvalues --    1.12094   1.12722   1.15431   1.16324   1.17789
 Alpha virt. eigenvalues --    1.19332   1.22075   1.25627   1.27422   1.27463
 Alpha virt. eigenvalues --    1.29412   1.29837   1.31838   1.34330   1.37332
 Alpha virt. eigenvalues --    1.38765   1.39071   1.40160   1.42099   1.45981
 Alpha virt. eigenvalues --    1.46700   1.48442   1.49451   1.52085   1.53311
 Alpha virt. eigenvalues --    1.55564   1.56819   1.59705   1.62811   1.67175
 Alpha virt. eigenvalues --    1.69124   1.73993   1.79965   1.81592   1.88414
 Alpha virt. eigenvalues --    1.93010   1.96593   1.98394   2.04009   2.04815
 Alpha virt. eigenvalues --    2.13861   2.14839   2.15388   2.20202   2.22575
 Alpha virt. eigenvalues --    2.23398   2.28104   2.31798   2.34243   2.35847
 Alpha virt. eigenvalues --    2.38224   2.40596   2.41660   2.45979   2.48539
 Alpha virt. eigenvalues --    2.49430   2.49952   2.55496   2.57229   2.59608
 Alpha virt. eigenvalues --    2.64982   2.65973   2.69647   2.70823   2.74907
 Alpha virt. eigenvalues --    2.77998   2.80792   2.83976   2.84914   2.86292
 Alpha virt. eigenvalues --    2.87619   2.89115   2.90268   2.92173   2.92885
 Alpha virt. eigenvalues --    2.93477   2.94342   2.97417   2.98683   2.99428
 Alpha virt. eigenvalues --    3.01052   3.01748   3.04669   3.06566   3.08042
 Alpha virt. eigenvalues --    3.10630   3.11215   3.13009   3.14168   3.14897
 Alpha virt. eigenvalues --    3.15501   3.16860   3.17469   3.19843   3.20513
 Alpha virt. eigenvalues --    3.21394   3.22892   3.24969   3.25957   3.28567
 Alpha virt. eigenvalues --    3.29875   3.32820   3.34805   3.39172   3.40493
 Alpha virt. eigenvalues --    3.41073   3.42185   3.43260   3.45522   3.47474
 Alpha virt. eigenvalues --    3.49962   3.51404   3.53142   3.53949   3.55552
 Alpha virt. eigenvalues --    3.58847   3.59937   3.62706   3.63761   3.64269
 Alpha virt. eigenvalues --    3.67007   3.68867   3.72311   3.73480   3.75625
 Alpha virt. eigenvalues --    3.80201   3.81369   3.83086   3.86171   3.88031
 Alpha virt. eigenvalues --    3.88217   3.89151   3.89389   3.92089   3.95001
 Alpha virt. eigenvalues --    3.95157   3.96928   3.97845   3.98907   4.00104
 Alpha virt. eigenvalues --    4.03730   4.06438   4.08682   4.10698   4.11437
 Alpha virt. eigenvalues --    4.13235   4.13829   4.16909   4.18267   4.18986
 Alpha virt. eigenvalues --    4.19885   4.21269   4.24935   4.26163   4.28588
 Alpha virt. eigenvalues --    4.32031   4.33735   4.36285   4.39266   4.42231
 Alpha virt. eigenvalues --    4.46110   4.49078   4.50836   4.54329   4.56339
 Alpha virt. eigenvalues --    4.58297   4.61846   4.66025   4.66571   4.68161
 Alpha virt. eigenvalues --    4.72208   4.78066   4.80090   4.83485   4.84362
 Alpha virt. eigenvalues --    4.86838   4.91922   4.92985   4.94502   4.99015
 Alpha virt. eigenvalues --    5.01144   5.03025   5.06205   5.09086   5.10696
 Alpha virt. eigenvalues --    5.12274   5.16364   5.22627   5.25300   5.27003
 Alpha virt. eigenvalues --    5.29173   5.30387   5.32232   5.32572   5.35979
 Alpha virt. eigenvalues --    5.37769   5.39617   5.41471   5.47398   5.50997
 Alpha virt. eigenvalues --    5.52828   5.58044   5.66031   5.68570   5.75249
 Alpha virt. eigenvalues --    5.79898   5.92869   5.96748   6.01028   6.03807
 Alpha virt. eigenvalues --    6.08120   6.10019   6.13180   6.26033   6.28548
 Alpha virt. eigenvalues --    6.36266   6.41004   6.48710   6.64278   6.69442
 Alpha virt. eigenvalues --    6.77028   6.80195   6.87590   6.96241   7.05662
 Alpha virt. eigenvalues --    7.07790   7.23284   7.39663   7.43748   7.60044
 Alpha virt. eigenvalues --    7.79235   9.97303  10.70511  10.95922  11.86224
 Alpha virt. eigenvalues --   13.44114  14.15827  14.68007
  Beta  occ. eigenvalues --  -19.78622 -19.77270 -10.66046 -10.64583 -10.63791
  Beta  occ. eigenvalues --  -10.62874 -10.62262  -1.25880  -1.00556  -0.93675
  Beta  occ. eigenvalues --   -0.85158  -0.77596  -0.69638  -0.63839  -0.58150
  Beta  occ. eigenvalues --   -0.56329  -0.54707  -0.54232  -0.51999  -0.48189
  Beta  occ. eigenvalues --   -0.46749  -0.43592  -0.43050  -0.39482  -0.36179
  Beta  occ. eigenvalues --   -0.34113  -0.28807
  Beta virt. eigenvalues --   -0.05925   0.01875   0.08841   0.09582   0.10551
  Beta virt. eigenvalues --    0.11420   0.13006   0.13628   0.15048   0.16296
  Beta virt. eigenvalues --    0.16751   0.19209   0.20190   0.24679   0.26982
  Beta virt. eigenvalues --    0.29031   0.31045   0.33398   0.33900   0.35461
  Beta virt. eigenvalues --    0.36418   0.37310   0.39162   0.40664   0.43087
  Beta virt. eigenvalues --    0.43685   0.46920   0.47266   0.48295   0.48749
  Beta virt. eigenvalues --    0.49403   0.51827   0.52289   0.52766   0.53294
  Beta virt. eigenvalues --    0.55040   0.55739   0.56470   0.57506   0.58666
  Beta virt. eigenvalues --    0.60966   0.61917   0.63550   0.66380   0.68103
  Beta virt. eigenvalues --    0.69569   0.70240   0.72628   0.72989   0.74191
  Beta virt. eigenvalues --    0.75677   0.77559   0.80550   0.81380   0.82782
  Beta virt. eigenvalues --    0.85970   0.90692   0.91572   0.93419   0.93959
  Beta virt. eigenvalues --    0.96585   0.98036   0.98529   0.99923   1.00638
  Beta virt. eigenvalues --    1.03660   1.04811   1.04973   1.07867   1.09903
  Beta virt. eigenvalues --    1.11599   1.12243   1.12898   1.15577   1.16647
  Beta virt. eigenvalues --    1.18116   1.19681   1.22445   1.26366   1.27641
  Beta virt. eigenvalues --    1.27981   1.29641   1.30281   1.32164   1.34553
  Beta virt. eigenvalues --    1.37573   1.38799   1.39225   1.40653   1.42273
  Beta virt. eigenvalues --    1.46618   1.47490   1.48809   1.49760   1.52329
  Beta virt. eigenvalues --    1.53745   1.55732   1.56914   1.59939   1.62916
  Beta virt. eigenvalues --    1.67445   1.69344   1.74939   1.80262   1.82716
  Beta virt. eigenvalues --    1.89553   1.94005   1.97188   1.98873   2.04385
  Beta virt. eigenvalues --    2.05818   2.14213   2.15124   2.16647   2.20662
  Beta virt. eigenvalues --    2.22712   2.23784   2.28819   2.32731   2.34704
  Beta virt. eigenvalues --    2.36187   2.38574   2.41073   2.41985   2.46466
  Beta virt. eigenvalues --    2.48731   2.49609   2.50069   2.56061   2.57672
  Beta virt. eigenvalues --    2.59732   2.65227   2.66333   2.70055   2.72094
  Beta virt. eigenvalues --    2.75068   2.78210   2.81594   2.84597   2.85125
  Beta virt. eigenvalues --    2.86587   2.88049   2.89769   2.90363   2.92275
  Beta virt. eigenvalues --    2.93288   2.93977   2.95943   2.97762   2.98906
  Beta virt. eigenvalues --    2.99823   3.01646   3.02669   3.04925   3.07044
  Beta virt. eigenvalues --    3.08398   3.10982   3.11271   3.13192   3.14273
  Beta virt. eigenvalues --    3.15209   3.16419   3.17143   3.18370   3.19999
  Beta virt. eigenvalues --    3.20566   3.21528   3.23411   3.25707   3.26740
  Beta virt. eigenvalues --    3.30674   3.31187   3.34249   3.35557   3.39086
  Beta virt. eigenvalues --    3.40776   3.41147   3.42338   3.43943   3.45591
  Beta virt. eigenvalues --    3.47701   3.50076   3.51914   3.53741   3.53985
  Beta virt. eigenvalues --    3.55516   3.59185   3.60081   3.63051   3.63854
  Beta virt. eigenvalues --    3.64638   3.67316   3.69326   3.72561   3.73926
  Beta virt. eigenvalues --    3.76102   3.80424   3.81754   3.83211   3.86454
  Beta virt. eigenvalues --    3.88207   3.88391   3.89115   3.89598   3.92043
  Beta virt. eigenvalues --    3.94952   3.95354   3.97194   3.98044   3.99262
  Beta virt. eigenvalues --    4.00207   4.03870   4.06624   4.09022   4.10768
  Beta virt. eigenvalues --    4.11744   4.13471   4.14278   4.17029   4.18391
  Beta virt. eigenvalues --    4.19205   4.20059   4.21616   4.25223   4.26483
  Beta virt. eigenvalues --    4.29091   4.32832   4.34177   4.36368   4.39449
  Beta virt. eigenvalues --    4.42512   4.46556   4.49254   4.51262   4.54879
  Beta virt. eigenvalues --    4.56755   4.58560   4.61950   4.66671   4.66950
  Beta virt. eigenvalues --    4.68544   4.72737   4.78794   4.80237   4.83670
  Beta virt. eigenvalues --    4.84820   4.86903   4.92484   4.93408   4.94929
  Beta virt. eigenvalues --    4.99136   5.01303   5.03147   5.06369   5.09288
  Beta virt. eigenvalues --    5.11557   5.12252   5.16827   5.23345   5.26221
  Beta virt. eigenvalues --    5.27545   5.29301   5.30394   5.32426   5.33054
  Beta virt. eigenvalues --    5.36198   5.38153   5.39745   5.42179   5.47685
  Beta virt. eigenvalues --    5.51118   5.53230   5.58469   5.66733   5.69100
  Beta virt. eigenvalues --    5.76797   5.80130   5.92915   5.96977   6.02056
  Beta virt. eigenvalues --    6.04503   6.08476   6.10262   6.13593   6.26492
  Beta virt. eigenvalues --    6.28737   6.36815   6.42681   6.49686   6.65114
  Beta virt. eigenvalues --    6.70691   6.78414   6.81251   6.88851   6.97648
  Beta virt. eigenvalues --    7.06658   7.08230   7.24913   7.40448   7.44973
  Beta virt. eigenvalues --    7.61827   7.79759   9.97711  10.71464  10.96546
  Beta virt. eigenvalues --   11.86344  13.44113  14.16240  14.68116
          Condensed to atoms (all electrons):
               1          2          3          4          5          6
     1  C    5.345651   0.528901   0.409444  -0.005801   0.002959   0.000086
     2  C    0.528901   4.933479  -0.053262   0.001185   0.000534   0.000276
     3  H    0.409444  -0.053262   0.496073   0.000049  -0.000259  -0.000021
     4  C   -0.005801   0.001185   0.000049   4.596846   0.397701   0.397780
     5  H    0.002959   0.000534  -0.000259   0.397701   0.670806  -0.035467
     6  H    0.000086   0.000276  -0.000021   0.397780  -0.035467   0.591072
     7  H   -0.000447   0.000290  -0.000008   0.408266  -0.059109  -0.027456
     8  O    0.003774   0.002207   0.000276   0.300183  -0.048672  -0.027591
     9  O   -0.063126  -0.008072   0.000313  -0.040679  -0.005479   0.006826
    10  H    0.158979  -0.003291  -0.006959   0.005393   0.004759  -0.000876
    11  H   -0.048270   0.407530  -0.006780   0.000008   0.000051   0.000004
    12  C   -0.046959   0.352562   0.006184  -0.000623  -0.000968   0.000232
    13  C    0.002290  -0.071824  -0.000301  -0.000043  -0.000064  -0.000009
    14  H   -0.004633  -0.027174  -0.000102  -0.001828   0.000259  -0.000673
    15  H   -0.000357   0.005982   0.000013   0.000005  -0.000008   0.000007
    16  H    0.000392  -0.003094  -0.000039  -0.000003   0.000007  -0.000001
               7          8          9         10         11         12
     1  C   -0.000447   0.003774  -0.063126   0.158979  -0.048270  -0.046959
     2  C    0.000290   0.002207  -0.008072  -0.003291   0.407530   0.352562
     3  H   -0.000008   0.000276   0.000313  -0.006959  -0.006780   0.006184
     4  C    0.408266   0.300183  -0.040679   0.005393   0.000008  -0.000623
     5  H   -0.059109  -0.048672  -0.005479   0.004759   0.000051  -0.000968
     6  H   -0.027456  -0.027591   0.006826  -0.000876   0.000004   0.000232
     7  H    0.616598  -0.036919   0.005255  -0.000223   0.000001  -0.000127
     8  O   -0.036919   7.961916   0.066656  -0.034461  -0.000005  -0.009501
     9  O    0.005255   0.066656   7.996460   0.261517  -0.000302   0.007503
    10  H   -0.000223  -0.034461   0.261517   0.386052   0.001499  -0.003657
    11  H    0.000001  -0.000005  -0.000302   0.001499   0.544159  -0.046045
    12  C   -0.000127  -0.009501   0.007503  -0.003657  -0.046045   4.905709
    13  C   -0.000004  -0.000341   0.000246  -0.000043  -0.000708   0.603189
    14  H    0.000426   0.016931  -0.002989   0.003523   0.004245   0.400053
    15  H    0.000000   0.000009  -0.000006  -0.000018  -0.000153  -0.044356
    16  H   -0.000000  -0.000018   0.000004   0.000006   0.005338  -0.053726
              13         14         15         16
     1  C    0.002290  -0.004633  -0.000357   0.000392
     2  C   -0.071824  -0.027174   0.005982  -0.003094
     3  H   -0.000301  -0.000102   0.000013  -0.000039
     4  C   -0.000043  -0.001828   0.000005  -0.000003
     5  H   -0.000064   0.000259  -0.000008   0.000007
     6  H   -0.000009  -0.000673   0.000007  -0.000001
     7  H   -0.000004   0.000426   0.000000  -0.000000
     8  O   -0.000341   0.016931   0.000009  -0.000018
     9  O    0.000246  -0.002989  -0.000006   0.000004
    10  H   -0.000043   0.003523  -0.000018   0.000006
    11  H   -0.000708   0.004245  -0.000153   0.005338
    12  C    0.603189   0.400053  -0.044356  -0.053726
    13  C    4.976130  -0.039035   0.421162   0.416965
    14  H   -0.039035   0.486973  -0.006056   0.004913
    15  H    0.421162  -0.006056   0.524919  -0.033822
    16  H    0.416965   0.004913  -0.033822   0.542549
          Atomic-Atomic Spin Densities.
               1          2          3          4          5          6
     1  C    0.911935  -0.008884  -0.000691   0.000205  -0.003794   0.000097
     2  C   -0.008884  -0.213327   0.001702  -0.000281   0.000030  -0.000005
     3  H   -0.000691   0.001702   0.020635   0.000034   0.000469  -0.000004
     4  C    0.000205  -0.000281   0.000034  -0.002494   0.003863   0.000259
     5  H   -0.003794   0.000030   0.000469   0.003863   0.000249  -0.000460
     6  H    0.000097  -0.000005  -0.000004   0.000259  -0.000460  -0.001299
     7  H    0.001111  -0.000065  -0.000094  -0.002078  -0.000736   0.000855
     8  O    0.009452  -0.000466  -0.000390  -0.000746  -0.000448   0.000089
     9  O   -0.079388   0.002846   0.003981  -0.000887   0.003091  -0.000158
    10  H    0.044630   0.003250  -0.001376   0.000445  -0.002750   0.000068
    11  H   -0.016926   0.016775  -0.005615   0.000011  -0.000117   0.000002
    12  C   -0.017627   0.013075   0.002275   0.000135   0.000270  -0.000026
    13  C   -0.000366   0.009132  -0.000028   0.000010  -0.000010  -0.000002
    14  H    0.003118   0.001273  -0.000146   0.000038  -0.000092   0.000039
    15  H   -0.000007  -0.000158   0.000001  -0.000001   0.000001  -0.000001
    16  H   -0.000003   0.000423  -0.000004   0.000001  -0.000002   0.000000
               7          8          9         10         11         12
     1  C    0.001111   0.009452  -0.079388   0.044630  -0.016926  -0.017627
     2  C   -0.000065  -0.000466   0.002846   0.003250   0.016775   0.013075
     3  H   -0.000094  -0.000390   0.003981  -0.001376  -0.005615   0.002275
     4  C   -0.002078  -0.000746  -0.000887   0.000445   0.000011   0.000135
     5  H   -0.000736  -0.000448   0.003091  -0.002750  -0.000117   0.000270
     6  H    0.000855   0.000089  -0.000158   0.000068   0.000002  -0.000026
     7  H    0.002657  -0.000279  -0.000859   0.001179   0.000008  -0.000014
     8  O   -0.000279   0.032419  -0.029473   0.007459   0.000116  -0.000972
     9  O   -0.000859  -0.029473   0.447798  -0.029790  -0.000499   0.002287
    10  H    0.001179   0.007459  -0.029790  -0.090820   0.000768  -0.003708
    11  H    0.000008   0.000116  -0.000499   0.000768   0.080858  -0.018948
    12  C   -0.000014  -0.000972   0.002287  -0.003708  -0.018948   0.134527
    13  C    0.000002   0.000091  -0.000038  -0.000037   0.000768  -0.001236
    14  H    0.000026   0.000601  -0.001087   0.000562   0.000549  -0.003602
    15  H   -0.000000  -0.000002   0.000002  -0.000000  -0.000054   0.000474
    16  H    0.000000   0.000002  -0.000002  -0.000001   0.000402  -0.000491
              13         14         15         16
     1  C   -0.000366   0.003118  -0.000007  -0.000003
     2  C    0.009132   0.001273  -0.000158   0.000423
     3  H   -0.000028  -0.000146   0.000001  -0.000004
     4  C    0.000010   0.000038  -0.000001   0.000001
     5  H   -0.000010  -0.000092   0.000001  -0.000002
     6  H   -0.000002   0.000039  -0.000001   0.000000
     7  H    0.000002   0.000026  -0.000000   0.000000
     8  O    0.000091   0.000601  -0.000002   0.000002
     9  O   -0.000038  -0.001087   0.000002  -0.000002
    10  H   -0.000037   0.000562  -0.000000  -0.000001
    11  H    0.000768   0.000549  -0.000054   0.000402
    12  C   -0.001236  -0.003602   0.000474  -0.000491
    13  C   -0.132649   0.001171  -0.001196  -0.001457
    14  H    0.001171  -0.004974  -0.000106   0.000024
    15  H   -0.001196  -0.000106   0.007613  -0.000855
    16  H   -0.001457   0.000024  -0.000855   0.006850
 Mulliken charges and spin densities:
               1          2
     1  C   -0.282881   0.842861
     2  C   -0.066230  -0.174680
     3  H    0.155379   0.020749
     4  C   -0.058437  -0.001487
     5  H    0.072949  -0.000435
     6  H    0.095810  -0.000546
     7  H    0.093457   0.001712
     8  O   -0.194443   0.017453
     9  O   -0.224126   0.317825
    10  H    0.227801  -0.070121
    11  H    0.139427   0.058099
    12  C   -0.069469   0.106421
    13  C   -0.307610  -0.125846
    14  H    0.165167  -0.002605
    15  H    0.132678   0.005713
    16  H    0.120528   0.004888
 Sum of Mulliken charges =  -0.00000   1.00000
 Mulliken charges and spin densities with hydrogens summed into heavy atoms:
               1          2
     1  C   -0.127502   0.863610
     2  C    0.073197  -0.116581
     4  C    0.203779  -0.000756
     8  O   -0.194443   0.017453
     9  O    0.003675   0.247704
    12  C    0.095698   0.103815
    13  C   -0.054403  -0.115245
 APT charges:
               1
     1  C    0.221421
     2  C   -0.061852
     3  H    0.010859
     4  C    0.432545
     5  H   -0.040828
     6  H   -0.002062
     7  H   -0.031977
     8  O   -0.388271
     9  O    0.082940
    10  H   -0.288605
    11  H    0.023665
    12  C   -0.014008
    13  C   -0.077000
    14  H    0.065621
    15  H    0.035290
    16  H    0.032262
 Sum of APT charges =  -0.00000
 APT charges with hydrogens summed into heavy atoms:
               1
     1  C    0.232279
     2  C   -0.038188
     4  C    0.357678
     8  O   -0.388271
     9  O   -0.205665
    12  C    0.051614
    13  C   -0.009448
 Electronic spatial extent (au):  <R**2>=           1093.7020
 Charge=             -0.0000 electrons
 Dipole moment (field-independent basis, Debye):
    X=              1.2818    Y=              0.2903    Z=             -2.4068  Tot=              2.7423
 Quadrupole moment (field-independent basis, Debye-Ang):
   XX=            -40.2625   YY=            -39.3873   ZZ=            -46.1153
   XY=              1.2702   XZ=              3.0480   YZ=             -1.3564
 Traceless Quadrupole moment (field-independent basis, Debye-Ang):
   XX=              1.6592   YY=              2.5344   ZZ=             -4.1936
   XY=              1.2702   XZ=              3.0480   YZ=             -1.3564
 Octapole moment (field-independent basis, Debye-Ang**2):
  XXX=             -8.6199  YYY=              3.0787  ZZZ=              2.7445  XYY=             -3.2264
  XXY=             -7.2084  XXZ=            -12.7457  XZZ=             -7.0462  YZZ=             -1.4295
  YYZ=             -1.8702  XYZ=             -5.0578
 Hexadecapole moment (field-independent basis, Debye-Ang**3):
 XXXX=           -930.5649 YYYY=           -294.5476 ZZZZ=           -136.7253 XXXY=              8.0120
 XXXZ=             -8.5649 YYYX=             -2.3074 YYYZ=             -9.7608 ZZZX=             -5.2328
 ZZZY=              0.3711 XXYY=           -211.5702 XXZZ=           -196.4810 YYZZ=            -78.2938
 XXYZ=             -3.7465 YYXZ=              2.9845 ZZXY=              4.6813
 N-N= 2.846378930745D+02 E-N=-1.377832402796D+03  KE= 3.441043388700D+02
  Exact polarizability: 115.137  -6.335  84.660  -4.863  -3.739  51.679
 Approx polarizability: 104.365 -15.913  96.361  -6.510  -2.744  62.564
                          Isotropic Fermi Contact Couplings
        Atom                 a.u.       MegaHertz       Gauss      10(-4) cm-1
     1  C(13)              0.18290     205.60923      73.36649      68.58386
     2  C(13)              0.00868       9.75380       3.48040       3.25352
     3  H(1)               0.01333      59.58485      21.26135      19.87537
     4  C(13)             -0.00294      -3.30027      -1.17762      -1.10085
     5  H(1)               0.00237      10.58125       3.77565       3.52953
     6  H(1)              -0.00002      -0.09373      -0.03344      -0.03126
     7  H(1)               0.00041       1.84322       0.65771       0.61483
     8  O(17)              0.01242      -7.52749      -2.68600      -2.51090
     9  O(17)              0.02306     -13.97678      -4.98726      -4.66215
    10  H(1)              -0.02645    -118.21013     -42.18031     -39.43065
    11  H(1)               0.02575     115.10447      41.07214      38.39472
    12  C(13)              0.01958      22.01084       7.85402       7.34203
    13  C(13)              0.00789       8.86557       3.16346       2.95724
    14  H(1)               0.00131       5.85273       2.08840       1.95226
    15  H(1)              -0.00166      -7.42792      -2.65047      -2.47769
    16  H(1)              -0.00165      -7.39147      -2.63746      -2.46553
 --------------------------------------------------------
       Center         ----  Spin Dipole Couplings  ----
                      3XX-RR        3YY-RR        3ZZ-RR
 --------------------------------------------------------
     1   Atom        0.333896     -0.158579     -0.175317
     2   Atom        0.039761     -0.020851     -0.018910
     3   Atom       -0.002691      0.036143     -0.033452
     4   Atom       -0.003112      0.000242      0.002870
     5   Atom       -0.001738     -0.002330      0.004068
     6   Atom       -0.001405      0.001528     -0.000123
     7   Atom        0.002301     -0.002327      0.000026
     8   Atom        0.148302     -0.089792     -0.058509
     9   Atom        0.825251     -0.626002     -0.199249
    10   Atom        0.117630     -0.057018     -0.060612
    11   Atom        0.008998     -0.003724     -0.005273
    12   Atom        0.020869      0.044751     -0.065620
    13   Atom       -0.027061     -0.022299      0.049360
    14   Atom       -0.001186      0.008842     -0.007656
    15   Atom       -0.004693      0.005427     -0.000734
    16   Atom        0.002738     -0.001740     -0.000999
 --------------------------------------------------------
                        XY            XZ            YZ
 --------------------------------------------------------
     1   Atom        0.394925     -0.425639     -0.245150
     2   Atom       -0.028647     -0.011398      0.011180
     3   Atom       -0.022417     -0.005942     -0.025737
     4   Atom        0.005499      0.002442      0.002169
     5   Atom        0.004088      0.002786      0.004391
     6   Atom        0.002500      0.001448      0.003407
     7   Atom        0.003153      0.004654      0.002144
     8   Atom        0.191326     -0.137748     -0.099575
     9   Atom        0.403622     -0.923225     -0.238793
    10   Atom        0.123559     -0.120867     -0.060815
    11   Atom        0.002075     -0.006791     -0.002499
    12   Atom       -0.032313     -0.025551     -0.046132
    13   Atom        0.010159      0.029347      0.036485
    14   Atom       -0.008399      0.001754     -0.004510
    15   Atom       -0.001196      0.001702     -0.002339
    16   Atom        0.001733     -0.002281     -0.000631
 --------------------------------------------------------


 ---------------------------------------------------------------------------------
              Anisotropic Spin Dipole Couplings in Principal Axis System
 ---------------------------------------------------------------------------------

       Atom             a.u.   MegaHertz   Gauss  10(-4) cm-1        Axes

              Baa    -0.4236   -56.845   -20.284   -18.962  0.3153  0.3471  0.8832
     1 C(13)  Bbb    -0.3767   -50.548   -18.037   -16.861 -0.5412  0.8303 -0.1331
              Bcc     0.8003   107.393    38.321    35.823  0.7795  0.4360 -0.4497
 
              Baa    -0.0350    -4.703    -1.678    -1.569  0.2705  0.8702 -0.4118
     2 C(13)  Bbb    -0.0191    -2.563    -0.914    -0.855  0.3275  0.3191  0.8893
              Bcc     0.0541     7.266     2.593     2.424  0.9053 -0.3754 -0.1987
 
              Baa    -0.0460   -24.558    -8.763    -8.192  0.3069  0.3597  0.8812
     3 H(1)   Bbb    -0.0058    -3.070    -1.095    -1.024  0.8869  0.2277 -0.4019
              Bcc     0.0518    27.628     9.858     9.216 -0.3452  0.9049 -0.2492
 
              Baa    -0.0072    -0.971    -0.346    -0.324  0.8133 -0.5772 -0.0727
     4 C(13)  Bbb     0.0004     0.047     0.017     0.016 -0.3171 -0.5446  0.7764
              Bcc     0.0069     0.923     0.330     0.308  0.4878  0.6085  0.6260
 
              Baa    -0.0064    -3.397    -1.212    -1.133 -0.5911  0.7877 -0.1736
     5 H(1)   Bbb    -0.0019    -1.015    -0.362    -0.339  0.6935  0.3865 -0.6079
              Bcc     0.0083     4.411     1.574     1.472  0.4117  0.4798  0.7748
 
              Baa    -0.0031    -1.651    -0.589    -0.551 -0.5675  0.6649 -0.4857
     6 H(1)   Bbb    -0.0023    -1.236    -0.441    -0.412  0.7263  0.1263 -0.6756
              Bcc     0.0054     2.888     1.030     0.963  0.3878  0.7362  0.5546
 
              Baa    -0.0040    -2.122    -0.757    -0.708 -0.5834  0.7668  0.2676
     7 H(1)   Bbb    -0.0035    -1.846    -0.659    -0.616 -0.3387 -0.5293  0.7779
              Bcc     0.0074     3.968     1.416     1.324  0.7381  0.3632  0.5685
 
              Baa    -0.2012    14.555     5.194     4.855 -0.3905  0.8880  0.2428
     8 O(17)  Bbb    -0.1272     9.205     3.285     3.071  0.4669 -0.0363  0.8835
              Bcc     0.3284   -23.760    -8.478    -7.926  0.7934  0.4584 -0.4005
 
              Baa    -0.7429    53.755    19.181    17.931  0.4909  0.0778  0.8678
     9 O(17)  Bbb    -0.7307    52.871    18.866    17.636 -0.2277  0.9728  0.0416
              Bcc     1.4736  -106.626   -38.047   -35.567  0.8410  0.2180 -0.4952
 
              Baa    -0.1225   -65.347   -23.318   -21.798  0.5792 -0.4840  0.6559
    10 H(1)   Bbb    -0.1196   -63.816   -22.771   -21.287 -0.0768  0.7687  0.6350
              Bcc     0.2421   129.163    46.089    43.084  0.8115  0.4182 -0.4081
 
              Baa    -0.0085    -4.553    -1.625    -1.519  0.3065  0.3314  0.8923
    11 H(1)   Bbb    -0.0037    -1.971    -0.703    -0.657 -0.2835  0.9267 -0.2468
              Bcc     0.0122     6.524     2.328     2.176  0.9087  0.1774 -0.3780
 
              Baa    -0.0934   -12.533    -4.472    -4.181  0.3002  0.3646  0.8815
    12 C(13)  Bbb     0.0211     2.834     1.011     0.945  0.8444  0.3282 -0.4233
              Bcc     0.0723     9.700     3.461     3.235 -0.4437  0.8714 -0.2093
 
              Baa    -0.0391    -5.240    -1.870    -1.748  0.5795  0.6673 -0.4678
    13 C(13)  Bbb    -0.0351    -4.711    -1.681    -1.572  0.7605 -0.6491  0.0161
              Bcc     0.0742     9.952     3.551     3.319  0.2929  0.3651  0.8837
 
              Baa    -0.0088    -4.720    -1.684    -1.575  0.1005  0.2903  0.9516
    14 H(1)   Bbb    -0.0058    -3.091    -1.103    -1.031  0.8735  0.4323 -0.2241
              Bcc     0.0146     7.811     2.787     2.605 -0.4764  0.8537 -0.2102
 
              Baa    -0.0053    -2.846    -1.016    -0.949  0.9426  0.0326 -0.3323
    15 H(1)   Bbb    -0.0011    -0.606    -0.216    -0.202  0.2978  0.3682  0.8808
              Bcc     0.0065     3.452     1.232     1.152 -0.1510  0.9292 -0.3374
 
              Baa    -0.0024    -1.270    -0.453    -0.424 -0.4299  0.8425 -0.3247
    16 H(1)   Bbb    -0.0020    -1.062    -0.379    -0.354  0.2460  0.4553  0.8557
              Bcc     0.0044     2.332     0.832     0.778  0.8687  0.2880 -0.4029
 

 ---------------------------------------------------------------------------------

 Calling FoFJK, ICntrl=  10100127 FMM=F ISym2X=0 I1Cent= 0 IOpClX= 1 NMat=1 NMatS=1 NMatT=0.
 -------------------------------------------------------------------
 Center     Atomic                   Forces (Hartrees/Bohr)
 Number     Number              X              Y              Z
 -------------------------------------------------------------------
      1        6           0.000030147    0.000000762   -0.000026220
      2        6           0.000004590    0.000001732    0.000023542
      3        1          -0.000017953   -0.000005617   -0.000003319
      4        6          -0.000002079   -0.000002243    0.000011113
      5        1           0.000008799    0.000002822   -0.000000990
      6        1           0.000003245    0.000000158   -0.000001253
      7        1          -0.000001632   -0.000004537   -0.000001169
      8        8          -0.000002263    0.000000472   -0.000026118
      9        8           0.000043396    0.000024558    0.000015710
     10        1          -0.000050883   -0.000010619    0.000020569
     11        1          -0.000002273   -0.000001710   -0.000007966
     12        6           0.000001801    0.000002815    0.000015167
     13        6          -0.000000349    0.000003633   -0.000000318
     14        1          -0.000015974   -0.000011874   -0.000019521
     15        1           0.000000632    0.000000357    0.000002144
     16        1           0.000000797   -0.000000709   -0.000001371
 -------------------------------------------------------------------
 Cartesian Forces:  Max     0.000050883 RMS     0.000014757
 FormGI is forming the generalized inverse of G from B-inverse, IUseBI=4.

 GradGradGradGradGradGradGradGradGradGradGradGradGradGradGradGradGradGrad
 Berny optimization.
 Internal  Forces:  Max     0.000052978 RMS     0.000014995
 Search for a saddle point.
 Step number   1 out of a maximum of  100 on scan point     1 out of    37
 All quantities printed in internal units (Hartrees-Bohrs-Radians)
 Swapping is turned off.
 Second derivative matrix not updated -- analytic derivatives used.
 ITU=  0
     Eigenvalues ---   -0.05275   0.00680   0.00701   0.01122   0.01426
     Eigenvalues ---    0.01707   0.02373   0.02524   0.02876   0.03362
     Eigenvalues ---    0.03990   0.04140   0.05747   0.08451   0.08551
     Eigenvalues ---    0.09715   0.10616   0.11160   0.11342   0.13044
     Eigenvalues ---    0.13409   0.14814   0.16583   0.18153   0.18292
     Eigenvalues ---    0.20960   0.21737   0.27276   0.32235   0.33535
     Eigenvalues ---    0.33709   0.34483   0.35004   0.35601   0.36086
     Eigenvalues ---    0.36456   0.36597   0.36689   0.40350   0.63586
     Eigenvalues ---    0.683191000.000001000.000001000.000001000.00000
     Eigenvalues --- 1000.000001000.000001000.000001000.000001000.00000
     Eigenvalues --- 1000.000001000.000001000.000001000.00000
 Eigenvectors required to have negative eigenvalues:
                          R3        R11       A1        R10       A14
   1                    0.81046  -0.52445   0.14628   0.13974  -0.09067
                          A3        A2        D13       A13       R1
   1                   -0.08502  -0.06125  -0.04320  -0.03116  -0.02891
 RFO step:  Lambda0=3.260785263D-08 Lambda=-2.14103632D-07.
 Linear search not attempted -- option 19 set.
 Iteration  1 RMS(Cart)=  0.00131678 RMS(Int)=  0.00000090
 Iteration  2 RMS(Cart)=  0.00000114 RMS(Int)=  0.00000006
 Iteration  3 RMS(Cart)=  0.00000000 RMS(Int)=  0.00000006
 Iteration  1 RMS(Cart)=  0.00000000 RMS(Int)=  0.00000000
 Variable       Old X    -DE/DX   Delta X   Delta X   Delta X     New X
                                 (Linear)    (Quad)   (Total)
    R1        2.48899  -0.00001   0.00000   0.00002   0.00002   2.48901
    R2        2.03945  -0.00000   0.00000   0.00000   0.00000   2.03945
    R3        2.74860   0.00001   0.00000  -0.00076  -0.00076   2.74784
    R4        2.06211   0.00000   0.00000  -0.00000  -0.00000   2.06211
    R5        2.75779   0.00000   0.00000   0.00001   0.00001   2.75780
    R6        2.06266   0.00001   0.00000   0.00002   0.00002   2.06269
    R7        2.05615  -0.00000   0.00000  -0.00000  -0.00000   2.05615
    R8        2.05715  -0.00000   0.00000  -0.00000  -0.00000   2.05715
    R9        2.68252  -0.00001   0.00000  -0.00003  -0.00003   2.68249
   R10        2.67795   0.00001   0.00000  -0.00006  -0.00006   2.67789
   R11        2.07064  -0.00005   0.00000   0.00034   0.00034   2.07098
   R12        2.51838  -0.00000   0.00000   0.00001   0.00001   2.51839
   R13        2.04332   0.00001   0.00000   0.00002   0.00002   2.04334
   R14        2.03967   0.00000   0.00000   0.00000   0.00000   2.03968
   R15        2.04438   0.00000   0.00000   0.00000   0.00000   2.04438
    A1        2.30296   0.00003   0.00000   0.00005   0.00005   2.30300
    A2        2.05428  -0.00003   0.00000   0.00007   0.00007   2.05435
    A3        1.92595  -0.00000   0.00000  -0.00012  -0.00012   1.92583
    A4        2.05518   0.00001   0.00000   0.00003   0.00003   2.05521
    A5        2.19888  -0.00001   0.00000  -0.00004  -0.00004   2.19885
    A6        2.02911   0.00001   0.00000   0.00001   0.00001   2.02912
    A7        1.91801  -0.00000   0.00000  -0.00003  -0.00003   1.91798
    A8        1.92107   0.00001   0.00000   0.00004   0.00004   1.92112
    A9        1.93153  -0.00001   0.00000  -0.00009  -0.00009   1.93144
   A10        1.92557  -0.00000   0.00000   0.00001   0.00001   1.92559
   A11        1.83503  -0.00000   0.00000  -0.00001  -0.00001   1.83502
   A12        1.93111   0.00001   0.00000   0.00006   0.00006   1.93117
   A13        1.87983   0.00002   0.00000   0.00010   0.00010   1.87993
   A14        1.81925  -0.00005   0.00000  -0.00007  -0.00007   1.81918
   A15        2.14067  -0.00000   0.00000  -0.00005  -0.00005   2.14062
   A16        2.03714   0.00000   0.00000   0.00001   0.00001   2.03714
   A17        2.10536   0.00000   0.00000   0.00004   0.00004   2.10541
   A18        2.11791  -0.00000   0.00000   0.00000   0.00000   2.11791
   A19        2.11900   0.00000   0.00000   0.00001   0.00001   2.11900
   A20        2.04627  -0.00000   0.00000  -0.00001  -0.00001   2.04626
   A21        3.10359  -0.00001   0.00000   0.00014   0.00014   3.10373
   A22        3.18054  -0.00004   0.00000  -0.00072  -0.00072   3.17982
    D1        0.00298   0.00000   0.00000  -0.00014  -0.00014   0.00284
    D2        3.14005   0.00001   0.00000   0.00014   0.00014   3.14020
    D3       -3.14044   0.00002   0.00000   0.00130   0.00130  -3.13914
    D4       -0.00337   0.00002   0.00000   0.00159   0.00159  -0.00178
    D5        2.46094  -0.00001   0.00000   0.00000   0.00000   2.46094
    D6       -3.13183   0.00000   0.00000   0.00111   0.00111  -3.13072
    D7        0.01586   0.00001   0.00000   0.00142   0.00142   0.01728
    D8        0.00530   0.00001   0.00000   0.00139   0.00139   0.00669
    D9       -3.13020   0.00002   0.00000   0.00171   0.00171  -3.12849
   D10        1.15256  -0.00000   0.00000  -0.00047  -0.00047   1.15210
   D11       -3.06051  -0.00001   0.00000  -0.00055  -0.00055  -3.06106
   D12       -0.98163  -0.00000   0.00000  -0.00050  -0.00050  -0.98213
   D13       -1.50500   0.00002   0.00000   0.00122   0.00122  -1.50377
   D14        3.14001   0.00000   0.00000   0.00005   0.00005   3.14006
   D15        0.00095   0.00000   0.00000   0.00011   0.00011   0.00107
   D16       -0.00790  -0.00001   0.00000  -0.00028  -0.00028  -0.00819
   D17        3.13622  -0.00001   0.00000  -0.00022  -0.00022   3.13601
         Item               Value     Threshold  Converged?
 Maximum Force            0.000053     0.000450     YES
 RMS     Force            0.000015     0.000300     YES
 Maximum Displacement     0.005561     0.001800     NO 
 RMS     Displacement     0.001317     0.001200     NO 
 Predicted change in Energy=-9.074788D-08
 GradGradGradGradGradGradGradGradGradGradGradGradGradGradGradGradGradGrad

                          Input orientation:                          
 ---------------------------------------------------------------------
 Center     Atomic      Atomic             Coordinates (Angstroms)
 Number     Number       Type             X           Y           Z
 ---------------------------------------------------------------------
      1          6           0        0.406279    1.655458   -0.227866
      2          6           0        1.498372    0.924100   -0.313123
      3          1           0        0.181365    2.657588   -0.559360
      4          6           0       -2.272713   -0.763428   -0.841541
      5          1           0       -1.674588   -0.230547   -1.582971
      6          1           0       -2.319306   -1.820768   -1.094030
      7          1           0       -3.274943   -0.340889   -0.796353
      8          8           0       -1.650610   -0.713804    0.433426
      9          8           0       -1.658798    0.635968    0.864883
     10          1           0       -0.753181    1.065858    0.422072
     11          1           0        2.369705    1.366624   -0.798625
     12          6           0        1.660632   -0.436429    0.189250
     13          6           0        2.803510   -1.112669    0.077237
     14          1           0        0.797948   -0.886771    0.660577
     15          1           0        2.900702   -2.118019    0.457794
     16          1           0        3.672727   -0.676291   -0.396491
 ---------------------------------------------------------------------
                    Distance matrix (angstroms):
                    1          2          3          4          5
     1  C    0.000000
     2  C    1.317126   0.000000
     3  H    1.079231   2.190918   0.000000
     4  C    3.661229   4.165099   4.219654   0.000000
     5  H    3.118225   3.607408   3.582411   1.091528   0.000000
     6  H    4.501466   4.766421   5.157024   1.088067   1.784244
     7  H    4.226106   4.961677   4.581823   1.088599   1.786640
     8  O    3.206478   3.627141   3.963338   1.419513   2.073637
     9  O    2.549118   3.382076   3.082470   2.290651   2.596745
    10  H    1.454096   2.372783   2.090501   2.692950   2.559267
    11  H    2.065002   1.091220   2.551992   5.107935   4.418422
    12  C    2.474546   1.459364   3.510212   4.079296   3.782439
    13  C    3.674553   2.450346   4.636350   5.170509   4.856726
    14  H    2.721336   2.172082   3.798803   3.420604   3.402583
    15  H    4.575085   3.437343   5.588901   5.503399   5.353554
    16  H    4.016861   2.701115   4.830205   5.962710   5.495471
                    6          7          8          9         10
     6  H    0.000000
     7  H    1.786588   0.000000
     8  O    2.001411   2.071203   0.000000
     9  O    3.210788   2.515130   1.417077   0.000000
    10  H    3.617170   3.134131   1.993164   1.095915   0.000000
    11  H    5.677460   5.897259   4.691382   4.419271   3.366449
    12  C    4.404896   5.033929   3.331799   3.553186   2.852642
    13  C    5.302501   6.189217   4.486107   4.856986   4.185086
    14  H    3.697062   4.359940   2.465148   2.897599   2.505125
    15  H    5.453897   6.547493   4.763072   5.342210   4.846567
    16  H    6.140101   6.967245   5.387772   5.633671   4.826364
                   11         12         13         14         15
    11  H    0.000000
    12  C    2.174783   0.000000
    13  C    2.664998   1.332674   0.000000
    14  H    3.110865   1.081287   2.100856   0.000000
    15  H    3.742096   2.106569   1.079351   2.445131   0.000000
    16  H    2.456233   2.109302   1.081842   3.070187   1.845103
                   16
    16  H    0.000000
 Symmetry turned off by external request.
 Stoichiometry    C5H9O2(2)
 Framework group  C1[X(C5H9O2)]
 Deg. of freedom    42
 Full point group                 C1      NOp   1
 Rotational constants (GHZ):           3.7953141           1.3097661           1.1099190
 Standard basis: CC-pVTZ (5D, 7F)
   336 basis functions,   517 primitive gaussians,   380 cartesian basis functions
    28 alpha electrons       27 beta electrons
       nuclear repulsion energy       284.6662278265 Hartrees.
 NAtoms=   16 NActive=   16 NUniq=   16 SFac= 1.00D+00 NAtFMM=   60 NAOKFM=F Big=F
 Integral buffers will be    131072 words long.
 Raffenetti 2 integral format.
 Two-electron integral symmetry is turned off.
 Nuclear repulsion after empirical dispersion term =      284.6575738541 Hartrees.
 One-electron integrals computed using PRISM.
 NBasis=   336 RedAO= T EigKep=  2.57D-04  NBF=   336
 NBsUse=   336 1.00D-06 EigRej= -1.00D+00 NBFU=   336
 Initial guess from the checkpoint file:  "/localscratch/347861/Gau-26301.chk"
 B after Tr=     0.000056   -0.000127    0.000097
         Rot=    1.000000    0.000051   -0.000070    0.000007 Ang=   0.01 deg.
 Initial guess <Sx>= 0.0000 <Sy>= 0.0000 <Sz>= 0.5000 <S**2>= 0.8017 S= 0.5255
 Requested convergence on RMS density matrix=1.00D-08 within 500 cycles.
 Requested convergence on MAX density matrix=1.00D-06.
 Requested convergence on             energy=1.00D-06.
 No special actions if energy rises.
 SCF Done:  E(UB2PLYPD3) =  -345.584438125     A.U. after   10 cycles
            NFock= 10  Conv=0.75D-08     -V/T= 2.0043
 <Sx>= 0.0000 <Sy>= 0.0000 <Sz>= 0.5000 <S**2>= 0.8017 S= 0.5255
 <L.S>=  0.00000000000    
 Annihilation of the first spin contaminant:
 S**2 before annihilation     0.8017,   after     0.7516
 DoSCS=T DFT=T ScalE2(SS,OS)=  0.270000  0.270000
 ExpMin= 1.03D-01 ExpMax= 1.53D+04 ExpMxC= 5.22D+02 IAcc=3 IRadAn=         5 AccDes= 0.00D+00
 HarFok:  IExCor=  205 AccDes= 0.00D+00 IRadAn=         5 IDoV=-2 UseB2=F ITyADJ=14
 ICtDFT= 12500011 ScaDFX=  1.000000  1.000000  1.000000  1.000000
 Range of M.O.s used for correlation:     8   336
 NBasis=   336 NAE=    28 NBE=    27 NFC=     7 NFV=     0
 NROrb=    329 NOA=    21 NOB=    20 NVA=   308 NVB=   309

 **** Warning!!: The largest alpha MO coefficient is  0.12734476D+02


 **** Warning!!: The largest beta MO coefficient is  0.12196117D+02

 DoSCS=T DFT=T ScalE2(SS,OS)=  0.270000  0.270000
 Disk-based method using ON**2 memory for 21 occupieds at a time.
 Estimated scratch disk usage=  1976946848 words.
 Actual    scratch disk usage=  1812029600 words.
 JobTyp=2 Pass  1:  I=   8 to  28 NPSUse= 40 ParTrn=T ParDer=T DoDerP=T.
 (rs|ai) integrals will be sorted in core.
 Actual    scratch disk usage=  1812029600 words.
 JobTyp=3 Pass  1:  I=   8 to  27 NPSUse= 40 ParTrn=T ParDer=T DoDerP=T.
 (rs|ai) integrals will be sorted in core.
 Spin components of T(2) and E(2):
     alpha-alpha T2 =       0.7660792215D-01 E2=     -0.5303137711D-01
     alpha-beta  T2 =       0.4658984716D+00 E2=     -0.3243034233D+00
     beta-beta   T2 =       0.8036067453D-01 E2=     -0.5145495884D-01
 (S**2,0)=  0.80174D+00           (S**2,1)=  0.76397D+00
 Scaling Projection term by:   0.270000
 E(PUHF)=      -0.34559181777D+03        E(PMP2)=      -0.34601450655D+03
 E2(B2PLYPD3) =    -0.4287897593D+00 E(B2PLYPD3) =    -0.34601322788463D+03
          IDoAtm=1111111111111111
          Differentiating once with respect to electric field.
                with respect to dipole field.
          Differentiating once with respect to nuclear coordinates.
 Keep R1 and R2 ints in memory in canonical form, NReq=3251777228.
          There are     1 degrees of freedom in the 1st order CPHF.  IDoFFX=0 NUNeed=     1.
 LinEq1:  Iter=  0 NonCon=     1 RMS=9.57D-04 Max=6.67D-02 NDo=     1
 AX will form     1 AO Fock derivatives at one time.
 LinEq1:  Iter=  1 NonCon=     1 RMS=3.49D-04 Max=2.10D-02 NDo=     1
 LinEq1:  Iter=  2 NonCon=     1 RMS=2.50D-04 Max=1.76D-02 NDo=     1
 LinEq1:  Iter=  3 NonCon=     1 RMS=1.30D-04 Max=7.80D-03 NDo=     1
 LinEq1:  Iter=  4 NonCon=     1 RMS=8.54D-05 Max=4.93D-03 NDo=     1
 LinEq1:  Iter=  5 NonCon=     1 RMS=3.09D-05 Max=1.21D-03 NDo=     1
 LinEq1:  Iter=  6 NonCon=     1 RMS=2.23D-05 Max=7.30D-04 NDo=     1
 LinEq1:  Iter=  7 NonCon=     1 RMS=9.53D-06 Max=4.60D-04 NDo=     1
 LinEq1:  Iter=  8 NonCon=     1 RMS=7.04D-06 Max=2.43D-04 NDo=     1
 LinEq1:  Iter=  9 NonCon=     1 RMS=3.61D-06 Max=1.46D-04 NDo=     1
 LinEq1:  Iter= 10 NonCon=     1 RMS=1.22D-06 Max=4.06D-05 NDo=     1
 LinEq1:  Iter= 11 NonCon=     1 RMS=8.69D-07 Max=3.91D-05 NDo=     1
 LinEq1:  Iter= 12 NonCon=     1 RMS=3.63D-07 Max=1.18D-05 NDo=     1
 LinEq1:  Iter= 13 NonCon=     1 RMS=1.60D-07 Max=4.48D-06 NDo=     1
 LinEq1:  Iter= 14 NonCon=     1 RMS=6.60D-08 Max=1.43D-06 NDo=     1
 LinEq1:  Iter= 15 NonCon=     1 RMS=2.68D-08 Max=3.83D-07 NDo=     1
 LinEq1:  Iter= 16 NonCon=     1 RMS=8.19D-09 Max=1.95D-07 NDo=     1
 LinEq1:  Iter= 17 NonCon=     1 RMS=3.04D-09 Max=6.33D-08 NDo=     1
 LinEq1:  Iter= 18 NonCon=     1 RMS=1.30D-09 Max=2.65D-08 NDo=     1
 LinEq1:  Iter= 19 NonCon=     1 RMS=5.58D-10 Max=8.81D-09 NDo=     1
 LinEq1:  Iter= 20 NonCon=     1 RMS=2.00D-10 Max=4.32D-09 NDo=     1
 LinEq1:  Iter= 21 NonCon=     1 RMS=6.86D-11 Max=1.38D-09 NDo=     1
 LinEq1:  Iter= 22 NonCon=     0 RMS=1.94D-11 Max=4.51D-10 NDo=     1
 Linear equations converged to 1.000D-10 1.000D-09 after    22 iterations.
 End of Minotr F.D. properties file   721 does not exist.
 End of Minotr F.D. properties file   722 does not exist.
 End of Minotr F.D. properties file   788 does not exist.
 Calling FoFJK, ICntrl=  10002127 FMM=F ISym2X=0 I1Cent= 0 IOpClX= 1 NMat=1 NMatS=1 NMatT=0.
 -------------------------------------------------------------------
 Center     Atomic                   Forces (Hartrees/Bohr)
 Number     Number              X              Y              Z
 -------------------------------------------------------------------
      1        6           0.000004049    0.000004886    0.000010939
      2        6          -0.000000462    0.000000591   -0.000000065
      3        1          -0.000003404   -0.000004301   -0.000010951
      4        6           0.000000065   -0.000000016   -0.000000063
      5        1           0.000000085   -0.000000135   -0.000000118
      6        1           0.000000026   -0.000000023    0.000000048
      7        1           0.000000043   -0.000000003   -0.000000220
      8        8          -0.000004962    0.000002282   -0.000007207
      9        8           0.000005037   -0.000002825    0.000006241
     10        1          -0.000000284   -0.000000081   -0.000000097
     11        1           0.000000035   -0.000000135   -0.000000129
     12        6           0.000000557   -0.000000633    0.000000269
     13        6          -0.000000635    0.000000322    0.000000398
     14        1          -0.000000046    0.000000116    0.000000178
     15        1          -0.000000105    0.000000044    0.000000454
     16        1           0.000000003   -0.000000088    0.000000323
 -------------------------------------------------------------------
 Cartesian Forces:  Max     0.000010951 RMS     0.000003118

 GradGradGradGradGradGradGradGradGradGradGradGradGradGradGradGradGradGrad
 Berny optimization.
 FormGI is forming the generalized inverse of G from B-inverse, IUseBI=4.
 Internal  Forces:  Max     0.000023130 RMS     0.000003151
 Search for a saddle point.
 Step number   2 out of a maximum of  100 on scan point     1 out of    37
 All quantities printed in internal units (Hartrees-Bohrs-Radians)
 Swapping is turned off.
 Update second derivatives using D2CorX and points    1    2
 ITU=  0  0
     Eigenvalues ---   -0.05273   0.00678   0.00701   0.01124   0.01429
     Eigenvalues ---    0.01707   0.02372   0.02524   0.02876   0.03362
     Eigenvalues ---    0.03989   0.04140   0.05747   0.08451   0.08551
     Eigenvalues ---    0.09715   0.10616   0.11160   0.11342   0.13044
     Eigenvalues ---    0.13409   0.14813   0.16583   0.18153   0.18292
     Eigenvalues ---    0.20960   0.21737   0.27277   0.32235   0.33535
     Eigenvalues ---    0.33709   0.34483   0.35004   0.35601   0.36086
     Eigenvalues ---    0.36456   0.36597   0.36689   0.40350   0.63586
     Eigenvalues ---    0.683191000.000001000.000001000.000001000.00000
     Eigenvalues --- 1000.000001000.000001000.000001000.000001000.00000
     Eigenvalues --- 1000.000001000.000001000.000001000.00000
 Eigenvectors required to have negative eigenvalues:
                          R3        R11       A1        R10       A14
   1                    0.81046  -0.52444   0.14631   0.13974  -0.09066
                          A3        A2        D13       A13       R1
   1                   -0.08503  -0.06128  -0.04299  -0.03115  -0.02887
 RFO step:  Lambda0=1.148733886D-12 Lambda= 0.00000000D+00.
 Linear search not attempted -- option 19 set.
 Iteration  1 RMS(Cart)=  0.00001071 RMS(Int)=  0.00000000
 Iteration  2 RMS(Cart)=  0.00000000 RMS(Int)=  0.00000000
 Iteration  1 RMS(Cart)=  0.00000000 RMS(Int)=  0.00000000
 Variable       Old X    -DE/DX   Delta X   Delta X   Delta X     New X
                                 (Linear)    (Quad)   (Total)
    R1        2.48901  -0.00000   0.00000  -0.00000  -0.00000   2.48901
    R2        2.03945   0.00000   0.00000   0.00000   0.00000   2.03945
    R3        2.74784   0.00000   0.00000  -0.00000  -0.00000   2.74784
    R4        2.06211   0.00000   0.00000   0.00000   0.00000   2.06211
    R5        2.75780   0.00000   0.00000   0.00000   0.00000   2.75780
    R6        2.06269  -0.00000   0.00000  -0.00000  -0.00000   2.06269
    R7        2.05615  -0.00000   0.00000  -0.00000  -0.00000   2.05615
    R8        2.05715  -0.00000   0.00000  -0.00000  -0.00000   2.05715
    R9        2.68249  -0.00000   0.00000  -0.00000  -0.00000   2.68249
   R10        2.67789   0.00000   0.00000  -0.00000  -0.00000   2.67789
   R11        2.07098  -0.00000   0.00000   0.00000   0.00000   2.07098
   R12        2.51839  -0.00000   0.00000  -0.00000  -0.00000   2.51839
   R13        2.04334  -0.00000   0.00000  -0.00000  -0.00000   2.04334
   R14        2.03968  -0.00000   0.00000  -0.00000  -0.00000   2.03968
   R15        2.04438   0.00000   0.00000   0.00000   0.00000   2.04438
    A1        2.30300  -0.00000   0.00000  -0.00000  -0.00000   2.30300
    A2        2.05435   0.00000   0.00000   0.00000   0.00000   2.05435
    A3        1.92583  -0.00000   0.00000  -0.00000  -0.00000   1.92583
    A4        2.05521  -0.00000   0.00000   0.00000   0.00000   2.05521
    A5        2.19885   0.00000   0.00000   0.00000   0.00000   2.19885
    A6        2.02912  -0.00000   0.00000  -0.00000  -0.00000   2.02912
    A7        1.91798  -0.00000   0.00000   0.00000   0.00000   1.91798
    A8        1.92112  -0.00000   0.00000   0.00000   0.00000   1.92112
    A9        1.93144   0.00000   0.00000   0.00000   0.00000   1.93144
   A10        1.92559  -0.00000   0.00000  -0.00000  -0.00000   1.92559
   A11        1.83502  -0.00000   0.00000  -0.00000  -0.00000   1.83502
   A12        1.93117  -0.00000   0.00000  -0.00000  -0.00000   1.93117
   A13        1.87993  -0.00000   0.00000   0.00000   0.00000   1.87993
   A14        1.81918  -0.00000   0.00000   0.00000   0.00000   1.81918
   A15        2.14062  -0.00000   0.00000  -0.00000  -0.00000   2.14062
   A16        2.03714   0.00000   0.00000  -0.00000  -0.00000   2.03714
   A17        2.10541   0.00000   0.00000   0.00000   0.00000   2.10541
   A18        2.11791   0.00000   0.00000   0.00000   0.00000   2.11791
   A19        2.11900  -0.00000   0.00000  -0.00000  -0.00000   2.11900
   A20        2.04626   0.00000   0.00000  -0.00000  -0.00000   2.04626
   A21        3.10373  -0.00000   0.00000  -0.00001  -0.00001   3.10373
   A22        3.17982   0.00000   0.00000   0.00000   0.00000   3.17982
    D1        0.00284  -0.00000   0.00000  -0.00000  -0.00000   0.00284
    D2        3.14020  -0.00000   0.00000  -0.00000  -0.00000   3.14019
    D3       -3.13914  -0.00000   0.00000  -0.00001  -0.00001  -3.13915
    D4       -0.00178  -0.00000   0.00000  -0.00001  -0.00001  -0.00179
    D5        2.46094  -0.00002   0.00000   0.00000   0.00000   2.46094
    D6       -3.13072  -0.00000   0.00000  -0.00000  -0.00000  -3.13072
    D7        0.01728  -0.00000   0.00000  -0.00000  -0.00000   0.01728
    D8        0.00669  -0.00000   0.00000  -0.00000  -0.00000   0.00669
    D9       -3.12849  -0.00000   0.00000  -0.00000  -0.00000  -3.12849
   D10        1.15210  -0.00000   0.00000  -0.00000  -0.00000   1.15209
   D11       -3.06106   0.00000   0.00000  -0.00000  -0.00000  -3.06106
   D12       -0.98213  -0.00000   0.00000  -0.00000  -0.00000  -0.98213
   D13       -1.50377   0.00000   0.00000  -0.00000  -0.00000  -1.50377
   D14        3.14006  -0.00000   0.00000  -0.00000  -0.00000   3.14006
   D15        0.00107  -0.00000   0.00000  -0.00000  -0.00000   0.00107
[...]
    16  H   -0.000000  -0.000018   0.000004   0.000006   0.005338  -0.053726
              13         14         15         16
     1  C    0.002289  -0.004696  -0.000356   0.000390
     2  C   -0.071777  -0.027081   0.005978  -0.003090
     3  H   -0.000301  -0.000102   0.000013  -0.000039
     4  C   -0.000044  -0.001848   0.000005  -0.000003
     5  H   -0.000065   0.000254  -0.000008   0.000007
     6  H   -0.000009  -0.000677   0.000007  -0.000001
     7  H   -0.000004   0.000430   0.000000  -0.000000
     8  O   -0.000333   0.017077   0.000009  -0.000018
     9  O    0.000245  -0.003040  -0.000006   0.000004
    10  H   -0.000043   0.003518  -0.000018   0.000006
    11  H   -0.000709   0.004241  -0.000153   0.005338
    12  C    0.603174   0.399936  -0.044370  -0.053726
    13  C    4.976094  -0.039044   0.421178   0.416963
    14  H   -0.039044   0.486977  -0.006051   0.004910
    15  H    0.421178  -0.006051   0.524918  -0.033821
    16  H    0.416963   0.004910  -0.033821   0.542560
          Atomic-Atomic Spin Densities.
               1          2          3          4          5          6
     1  C    0.911535  -0.008885  -0.000700   0.000209  -0.003809   0.000097
     2  C   -0.008885  -0.213262   0.001707  -0.000283   0.000031  -0.000005
     3  H   -0.000700   0.001707   0.020609   0.000034   0.000471  -0.000004
     4  C    0.000209  -0.000283   0.000034  -0.002500   0.003872   0.000258
     5  H   -0.003809   0.000031   0.000471   0.003872   0.000252  -0.000460
     6  H    0.000097  -0.000005  -0.000004   0.000258  -0.000460  -0.001304
     7  H    0.001113  -0.000065  -0.000095  -0.002081  -0.000740   0.000855
     8  O    0.009470  -0.000469  -0.000391  -0.000746  -0.000448   0.000090
     9  O   -0.079460   0.002857   0.003985  -0.000891   0.003098  -0.000159
    10  H    0.044645   0.003250  -0.001373   0.000450  -0.002755   0.000068
    11  H   -0.016906   0.016752  -0.005608   0.000011  -0.000117   0.000002
    12  C   -0.017637   0.013095   0.002274   0.000136   0.000271  -0.000026
    13  C   -0.000365   0.009127  -0.000028   0.000010  -0.000010  -0.000002
    14  H    0.003125   0.001259  -0.000146   0.000038  -0.000092   0.000039
    15  H   -0.000007  -0.000158   0.000001  -0.000001   0.000001  -0.000001
    16  H   -0.000003   0.000421  -0.000004   0.000001  -0.000002   0.000000
               7          8          9         10         11         12
     1  C    0.001113   0.009470  -0.079460   0.044645  -0.016906  -0.017637
     2  C   -0.000065  -0.000469   0.002857   0.003250   0.016752   0.013095
     3  H   -0.000095  -0.000391   0.003985  -0.001373  -0.005608   0.002274
     4  C   -0.002081  -0.000746  -0.000891   0.000450   0.000011   0.000136
     5  H   -0.000740  -0.000448   0.003098  -0.002755  -0.000117   0.000271
     6  H    0.000855   0.000090  -0.000159   0.000068   0.000002  -0.000026
     7  H    0.002675  -0.000283  -0.000859   0.001179   0.000008  -0.000014
     8  O   -0.000283   0.032479  -0.029520   0.007466   0.000116  -0.000972
     9  O   -0.000859  -0.029520   0.448423  -0.029841  -0.000499   0.002289
    10  H    0.001179   0.007466  -0.029841  -0.090887   0.000768  -0.003709
    11  H    0.000008   0.000116  -0.000499   0.000768   0.080802  -0.018936
    12  C   -0.000014  -0.000972   0.002289  -0.003709  -0.018936   0.134473
    13  C    0.000002   0.000091  -0.000039  -0.000036   0.000771  -0.001251
    14  H    0.000026   0.000602  -0.001089   0.000566   0.000549  -0.003600
    15  H   -0.000000  -0.000002   0.000002  -0.000000  -0.000054   0.000475
    16  H    0.000000   0.000002  -0.000002  -0.000001   0.000400  -0.000490
              13         14         15         16
     1  C   -0.000365   0.003125  -0.000007  -0.000003
     2  C    0.009127   0.001259  -0.000158   0.000421
     3  H   -0.000028  -0.000146   0.000001  -0.000004
     4  C    0.000010   0.000038  -0.000001   0.000001
     5  H   -0.000010  -0.000092   0.000001  -0.000002
     6  H   -0.000002   0.000039  -0.000001   0.000000
     7  H    0.000002   0.000026  -0.000000   0.000000
     8  O    0.000091   0.000602  -0.000002   0.000002
     9  O   -0.000039  -0.001089   0.000002  -0.000002
    10  H   -0.000036   0.000566  -0.000000  -0.000001
    11  H    0.000771   0.000549  -0.000054   0.000400
    12  C   -0.001251  -0.003600   0.000475  -0.000490
    13  C   -0.132568   0.001176  -0.001196  -0.001455
    14  H    0.001176  -0.004975  -0.000106   0.000024
    15  H   -0.001196  -0.000106   0.007610  -0.000855
    16  H   -0.001455   0.000024  -0.000855   0.006845
 Mulliken charges and spin densities:
               1          2
     1  C   -0.282998   0.842422
     2  C   -0.066132  -0.174628
     3  H    0.155375   0.020732
     4  C   -0.058523  -0.001484
     5  H    0.072965  -0.000438
     6  H    0.095835  -0.000550
     7  H    0.093524   0.001722
     8  O   -0.194419   0.017485
     9  O   -0.223979   0.318298
    10  H    0.227728  -0.070211
    11  H    0.139419   0.058058
    12  C   -0.069573   0.106377
    13  C   -0.307614  -0.125773
    14  H    0.165197  -0.002603
    15  H    0.132674   0.005710
    16  H    0.120519   0.004884
 Sum of Mulliken charges =  -0.00000   1.00000
 Mulliken charges and spin densities with hydrogens summed into heavy atoms:
               1          2
     1  C   -0.127622   0.863154
     2  C    0.073287  -0.116570
     4  C    0.203801  -0.000751
     8  O   -0.194419   0.017485
     9  O    0.003750   0.248087
    12  C    0.095624   0.103774
    13  C   -0.054420  -0.115180
 Electronic spatial extent (au):  <R**2>=           1117.4512
 Charge=             -0.0000 electrons
 Dipole moment (field-independent basis, Debye):
    X=              0.7396    Y=              2.6353    Z=              0.1478  Tot=              2.7411
 Quadrupole moment (field-independent basis, Debye-Ang):
   XX=            -38.8964   YY=            -48.6659   ZZ=            -39.7345
   XY=             -1.3014   XZ=              0.8090   YZ=              1.4819
 Traceless Quadrupole moment (field-independent basis, Debye-Ang):
   XX=              3.5359   YY=             -6.2337   ZZ=              2.6977
   XY=             -1.3014   XZ=              0.8090   YZ=              1.4819
 Octapole moment (field-independent basis, Debye-Ang**2):
  XXX=            -27.2473  YYY=             37.7518  ZZZ=             21.8482  XYY=             -2.4176
  XXY=             23.5044  XXZ=             -1.5973  XZZ=             -3.7613  YZZ=             11.8710
  YYZ=              6.8550  XYZ=              1.9248
 Hexadecapole moment (field-independent basis, Debye-Ang**3):
 XXXX=           -896.9483 YYYY=           -195.2367 ZZZZ=           -311.6068 XXXY=            -55.9620
 XXXZ=             45.5335 YYYX=            -87.8429 YYYZ=              7.1846 ZZZX=             39.1131
 ZZZY=             13.3844 XXYY=           -197.4752 XXZZ=           -204.7105 YYZZ=            -93.8937
 XXYZ=              2.0478 YYXZ=             18.4689 ZZXY=            -30.1596
 N-N= 2.846536119279D+02 E-N=-1.377863520802D+03  KE= 3.441043967287D+02
                          Isotropic Fermi Contact Couplings
        Atom                 a.u.       MegaHertz       Gauss      10(-4) cm-1
     1  C(13)              0.18279     205.48583      73.32245      68.54269
     2  C(13)              0.00867       9.74905       3.47870       3.25193
     3  H(1)               0.01332      59.53058      21.24199      19.85727
     4  C(13)             -0.00294      -3.30719      -1.18009      -1.10316
     5  H(1)               0.00237      10.60637       3.78462       3.53791
     6  H(1)              -0.00002      -0.10457      -0.03731      -0.03488
     7  H(1)               0.00042       1.86290       0.66473       0.62140
     8  O(17)              0.01245      -7.54612      -2.69264      -2.51712
     9  O(17)              0.02309     -13.99654      -4.99431      -4.66874
    10  H(1)              -0.02645    -118.22871     -42.18694     -39.43685
    11  H(1)               0.02573     115.00488      41.03660      38.36150
    12  C(13)              0.01959      22.01818       7.85664       7.34448
    13  C(13)              0.00789       8.86695       3.16395       2.95770
    14  H(1)               0.00131       5.85015       2.08748       1.95140
    15  H(1)              -0.00166      -7.42828      -2.65059      -2.47781
    16  H(1)              -0.00165      -7.39140      -2.63743      -2.46550
 --------------------------------------------------------
       Center         ----  Spin Dipole Couplings  ----
                      3XX-RR        3YY-RR        3ZZ-RR
 --------------------------------------------------------
     1   Atom        0.201266      0.044507     -0.245773
     2   Atom        0.024707     -0.011751     -0.012956
     3   Atom       -0.012948     -0.028604      0.041552
     4   Atom       -0.000272      0.001504     -0.001232
     5   Atom        0.000974      0.002450     -0.003424
     6   Atom        0.000118     -0.000916      0.000798
     7   Atom        0.005000     -0.001928     -0.003072
     8   Atom        0.116072      0.016628     -0.132700
     9   Atom        0.439141      0.263486     -0.702626
    10   Atom        0.080528      0.003950     -0.084478
    11   Atom        0.005563     -0.001551     -0.004013
    12   Atom       -0.004079     -0.049129      0.053208
    13   Atom       -0.006414      0.031928     -0.025514
    14   Atom       -0.002880     -0.007993      0.010873
    15   Atom       -0.004041     -0.001572      0.005613
    16   Atom        0.001904      0.000194     -0.002097
 --------------------------------------------------------
                        XY            XZ            YZ
 --------------------------------------------------------
     1   Atom        0.536024      0.274854      0.257232
     2   Atom        0.020028     -0.031544     -0.020071
     3   Atom        0.014035     -0.021661      0.019779
     4   Atom       -0.003468      0.005983     -0.000481
     5   Atom       -0.004080      0.004640     -0.002981
     6   Atom       -0.001852      0.003417     -0.002513
     7   Atom       -0.003785      0.002703     -0.000934
     8   Atom        0.188214      0.134559      0.114815
     9   Atom        1.091585      0.184524      0.170425
    10   Atom        0.159223      0.086265      0.066140
    11   Atom        0.009506      0.000116      0.001676
    12   Atom        0.045430     -0.036432      0.034261
    13   Atom       -0.046473      0.016850     -0.028827
    14   Atom        0.000008     -0.007718      0.002880
    15   Atom       -0.002127     -0.000454      0.002434
    16   Atom        0.002988      0.001039      0.000591
 --------------------------------------------------------


 ---------------------------------------------------------------------------------
              Anisotropic Spin Dipole Couplings in Principal Axis System
 ---------------------------------------------------------------------------------

       Atom             a.u.   MegaHertz   Gauss  10(-4) cm-1        Axes

              Baa    -0.4235   -56.826   -20.277   -18.955 -0.5436  0.7854 -0.2961
     1 C(13)  Bbb    -0.3765   -50.518   -18.026   -16.851 -0.4490  0.0260  0.8931
              Bcc     0.7999   107.344    38.303    35.806  0.7092  0.6185  0.3385
 
              Baa    -0.0350    -4.703    -1.678    -1.569  0.2799  0.4771  0.8331
     2 C(13)  Bbb    -0.0190    -2.553    -0.911    -0.852 -0.5534  0.7893 -0.2661
              Bcc     0.0541     7.256     2.589     2.420  0.7845  0.3866 -0.4849
 
              Baa    -0.0460   -24.547    -8.759    -8.188 -0.5364  0.7850 -0.3100
     3 H(1)   Bbb    -0.0057    -3.062    -1.093    -1.022  0.7976  0.5916  0.1179
              Bcc     0.0517    27.609     9.852     9.209 -0.2759  0.1840  0.9434
 
              Baa    -0.0072    -0.973    -0.347    -0.324  0.6979  0.2395 -0.6749
     4 C(13)  Bbb     0.0004     0.050     0.018     0.017  0.2033  0.8374  0.5073
              Bcc     0.0069     0.923     0.329     0.308  0.6867 -0.4913  0.5358
 
              Baa    -0.0064    -3.403    -1.214    -1.135 -0.5117  0.0531  0.8575
     5 H(1)   Bbb    -0.0019    -1.014    -0.362    -0.338  0.5836  0.7540  0.3016
              Bcc     0.0083     4.417     1.576     1.473 -0.6306  0.6547 -0.4168
 
              Baa    -0.0031    -1.653    -0.590    -0.552 -0.5740  0.3599  0.7355
     6 H(1)   Bbb    -0.0023    -1.237    -0.441    -0.413  0.5677  0.8223  0.0407
              Bcc     0.0054     2.891     1.031     0.964  0.5901 -0.4409  0.6763
 
              Baa    -0.0040    -2.123    -0.757    -0.708 -0.4089 -0.3764  0.8313
     7 H(1)   Bbb    -0.0035    -1.847    -0.659    -0.616  0.2206  0.8432  0.4903
              Bcc     0.0074     3.970     1.417     1.324  0.8855 -0.3839  0.2618
 
              Baa    -0.2013    14.565     5.197     4.858 -0.2122 -0.3057  0.9282
     8 O(17)  Bbb    -0.1274     9.219     3.290     3.075 -0.6433  0.7587  0.1028
              Bcc     0.3287   -23.784    -8.487    -7.933  0.7356  0.5753  0.3577
 
              Baa    -0.7438    53.821    19.205    17.953 -0.6774  0.7356 -0.0089
     9 O(17)  Bbb    -0.7316    52.938    18.889    17.658 -0.0903 -0.0711  0.9934
              Bcc     1.4754  -106.759   -38.094   -35.611  0.7301  0.6737  0.1146
 
              Baa    -0.1225   -65.373   -23.327   -21.806  0.6454 -0.5197 -0.5598
    10 H(1)   Bbb    -0.1196   -63.837   -22.779   -21.294  0.1641 -0.6214  0.7661
              Bcc     0.2422   129.210    46.105    43.100  0.7460  0.5863  0.3157
 
              Baa    -0.0085    -4.550    -1.624    -1.518 -0.5350  0.7965 -0.2818
    11 H(1)   Bbb    -0.0037    -1.972    -0.704    -0.658 -0.2129  0.1957  0.9573
              Bcc     0.0122     6.522     2.327     2.176  0.8176  0.5721  0.0649
 
              Baa    -0.0934   -12.532    -4.472    -4.180 -0.5293  0.7875 -0.3156
    12 C(13)  Bbb     0.0211     2.834     1.011     0.945  0.7650  0.6039  0.2238
              Bcc     0.0723     9.698     3.460     3.235 -0.3669  0.1230  0.9221
 
              Baa    -0.0391    -5.241    -1.870    -1.748  0.5408  0.5953  0.5942
    13 C(13)  Bbb    -0.0351    -4.712    -1.681    -1.572 -0.6591 -0.1391  0.7391
              Bcc     0.0742     9.954     3.552     3.320 -0.5227  0.7913 -0.3172
 
              Baa    -0.0089    -4.722    -1.685    -1.575 -0.3461  0.8995 -0.2668
    14 H(1)   Bbb    -0.0058    -3.089    -1.102    -1.030  0.8485  0.4214  0.3202
              Bcc     0.0146     7.811     2.787     2.605 -0.4004  0.1155  0.9090
 
              Baa    -0.0053    -2.846    -1.016    -0.949  0.8436  0.5305 -0.0830
    15 H(1)   Bbb    -0.0011    -0.606    -0.216    -0.202 -0.5268  0.7877 -0.3195
              Bcc     0.0065     3.452     1.232     1.152 -0.1042  0.3132  0.9440
 
              Baa    -0.0024    -1.272    -0.454    -0.424 -0.3823  0.2384  0.8927
    16 H(1)   Bbb    -0.0020    -1.061    -0.379    -0.354 -0.4826  0.7724 -0.4129
              Bcc     0.0044     2.334     0.833     0.778  0.7880  0.5888  0.1803
 

 ---------------------------------------------------------------------------------

 1\1\GINC-N138\Scan\UB2PLYPD3-FC\CC-pVTZ\C5H9O2(2)\ROOT\13-Jun-2019\0\\
 # opt=(calcfc,ts,noeigentest,maxcyc=500,modredundant) uB2PLYPD3/cc-pvt
 z scf=maxcyc=500 nosymm\\Title Card Required\\0,2\C,0.6099151755,0.045
 0180811,1.4421470144\C,1.5557521184,0.3552614949,0.5796211895\H,0.4441
 252781,0.3378268271,2.4675762141\C,-2.4200218499,0.0038847762,-0.61325
 24466\H,-1.939649155,0.8694943402,-0.1534871327\H,-2.6532934753,0.2192
 75483,-1.6539640718\H,-3.3263403989,-0.2538220763,-0.0680693156\O,-1.5
 292034544,-1.1005618374,-0.6539388541\O,-1.2723632963,-1.4967572195,0.
 6821679308\H,-0.4407189236,-0.8566314557,0.9978240947\H,2.3462996157,1
 .0295762377,0.9129247022\C,1.6536147318,-0.1250714533,-0.7949563376\C,
 2.6496404018,0.223060348,-1.6090524008\H,0.8671234547,-0.7835973282,-1
 .1369877657\H,2.7020301339,-0.1460395168,-2.6219778792\H,3.4401896435,
 0.8850642992,-1.2816949416\\Version=ES64L-G16RevB.01\HF=-345.5844381,-
 345.584303,-345.584059,-345.5837147,-345.5832845,-345.5827889,-345.582
 2749,-345.5817985,-345.5814253,-345.5812018,-345.5812545,-345.5817578,
 -345.582578,-345.5833661,-345.5839364,-345.5842542,-345.5843801,-345.5
 84376,-345.5842767,-345.5840957,-345.583873,-345.583649,-345.5834624,-
 345.5833331,-345.5832717,-345.583282,-345.5833511,-345.5834598,-345.58
 35816,-345.5837019,-345.5838138,-345.5839184,-345.5840329,-345.5841809
 ,-345.5843454,-345.5844534,-345.5844389\MP2=-346.0132279,-346.0131682,
 -346.0129877,-346.0126764,-346.0122477,-346.011738,-346.011195,-346.01
 06718,-346.0102298,-346.009937,-346.0099011,-346.0103697,-346.0112169,
 -346.0120325,-346.0125972,-346.012876,-346.0129352,-346.0128609,-346.0
 126945,-346.0124477,-346.0121429,-346.0118279,-346.0115653,-346.011402
 8,-346.0113595,-346.0114203,-346.0115488,-346.0117096,-346.0118738,-34
 6.0120273,-346.012172,-346.0123301,-346.0125405,-346.0128015,-346.0130
 35,-346.013182,-346.0132289\PUHF=-345.5918178,-345.591711,-345.5914969
 ,-345.5911808,-345.5907747,-345.5903032,-345.5898157,-345.5893674,-345
 .5890196,-345.5888127,-345.5888413,-345.5892133,-345.5899294,-345.5906
 955,-345.591271,-345.5915894,-345.5917086,-345.591698,-345.5915953,-34
 5.5914177,-345.5912021,-345.5909905,-345.5908213,-345.5907086,-345.590
 6614,-345.5906792,-345.5907513,-345.5908593,-345.5909773,-345.5910919,
 -345.5911944,-345.5912891,-345.591393,-345.5915302,-345.5916934,-345.5
 918094,-345.5918178\PMP2-0=-346.0145065,-346.014451,-346.0142751,-346.
 0139679,-346.0135421,-346.0130346,-346.0124939,-346.0119737,-346.01153
 58,-346.0112468,-346.0112105,-346.011663,-346.0124955,-346.0133081,-34
 6.0138735,-346.0141514,-346.0142082,-346.0141314,-346.0139633,-346.013
 7162,-346.0134125,-346.0131,-346.0128408,-346.0126818,-346.012641,-346
 .0127029,-346.0128322,-346.0129934,-346.0131579,-346.0133116,-346.0134
 556,-346.0136126,-346.0138208,-346.0140787,-346.0143104,-346.0144575,-
 346.0145073\S2=0.801744,0.80187,0.802021,0.802126,0.80213,0.802063,0.8
 01968,0.801928,0.802044,0.802277,0.802608,0.802531,0.802144,0.802043,0
 .802016,0.801889,0.801683,0.801473,0.801316,0.801225,0.801242,0.801351
 ,0.801514,0.801687,0.801792,0.801841,0.801895,0.801979,0.802082,0.8021
 83,0.802242,0.802243,0.802143,0.801932,0.801755,0.80167,0.801726\S2-1=
 0.763967,0.763958,0.763966,0.763951,0.763879,0.763759,0.763615,0.76350
 8,0.763517,0.763625,0.763912,0.764247,0.764331,0.764357,0.764336,0.764
 25,0.764126,0.763997,0.763897,0.763825,0.763823,0.763867,0.763933,0.76
 4007,0.764033,0.764039,0.764063,0.76412,0.764201,0.764288,0.764357,0.7
 64386,0.764346,0.764225,0.764094,0.763998,0.763956\S2A=0.751646,0.7516
 57,0.75167,0.751679,0.751684,0.751685,0.751686,0.751689,0.751699,0.751
 712,0.751724,0.751698,0.75166,0.75165,0.751648,0.751643,0.751633,0.751
 623,0.751616,0.751612,0.751615,0.751622,0.751632,0.751643,0.75165,0.75
 1653,0.751655,0.751659,0.751663,0.751667,0.751667,0.751665,0.751658,0.
 751646,0.751638,0.751637,0.751645\RMSD=7.526e-09,3.638e-09,7.174e-09,7
 .547e-09,4.942e-09,5.699e-09,3.486e-09,9.724e-09,9.554e-09,4.340e-09,8
 .675e-09,3.868e-09,5.803e-09,7.385e-09,5.834e-09,3.722e-09,8.786e-09,6
 .647e-09,9.769e-09,4.953e-09,9.431e-09,9.541e-09,9.273e-09,7.994e-09,6
 .424e-09,7.173e-09,5.358e-09,5.400e-09,7.685e-09,4.667e-09,3.901e-09,5
 .994e-09,8.112e-09,8.700e-09,7.702e-09,7.576e-09,9.390e-09\PG=C01 [X(C
 5H9O2)]\\@


 IMAGINATION WILL OFTEN CARRY US TO WORLDS THAT NEVER WERE.
 BUT WITHOUT IT, WE GO NOWHERE. -- CARL SAGAN (COSMOS)
 Job cpu time:      20 days 19 hours  4 minutes 45.5 seconds.
 Elapsed time:       0 days 18 hours 18 minutes 59.8 seconds.
 File lengths (MBytes):  RWF=  83476 Int=      0 D2E=      0 Chk=     20 Scr=      1
 Normal termination of Gaussian 16 at Thu Jun 13 06:01:05 2019.
