 Entering Gaussian System, Link 0=g16
 Initial command:
 /ichec/packages/gaussian/16b01/l1.exe "/localscratch/352090/Gau-36153.inp" -scrdir="/localscratch/352090/"
 Entering Link 1 = /ichec/packages/gaussian/16b01/l1.exe PID=     42319.
  
 Copyright (c) 1988-2017, Gaussian, Inc.  All Rights Reserved.
  
 This is part of the Gaussian(R) 16 program.  It is based on
 the Gaussian(R) 09 system (copyright 2009, Gaussian, Inc.),
 the Gaussian(R) 03 system (copyright 2003, Gaussian, Inc.),
 the Gaussian(R) 98 system (copyright 1998, Gaussian, Inc.),
 the Gaussian(R) 94 system (copyright 1995, Gaussian, Inc.),
 the Gaussian 92(TM) system (copyright 1992, Gaussian, Inc.),
 the Gaussian 90(TM) system (copyright 1990, Gaussian, Inc.),
 the Gaussian 88(TM) system (copyright 1988, Gaussian, Inc.),
 the Gaussian 86(TM) system (copyright 1986, Carnegie Mellon
 University), and the Gaussian 82(TM) system (copyright 1983,
 Carnegie Mellon University). Gaussian is a federally registered
 trademark of Gaussian, Inc.
  
 This software contains proprietary and confidential information,
 including trade secrets, belonging to Gaussian, Inc.
  
 This software is provided under written license and may be
 used, copied, transmitted, or stored only in accord with that
 written license.
  
 The following legend is applicable only to US Government
 contracts under FAR:
  
                    RESTRICTED RIGHTS LEGEND
  
 Use, reproduction and disclosure by the US Government is
 subject to restrictions as set forth in subparagraphs (a)
 and (c) of the Commercial Computer Software - Restricted
 Rights clause in FAR 52.227-19.
  
 Gaussian, Inc.
 340 Quinnipiac St., Bldg. 40, Wallingford CT 06492
  
  
 ---------------------------------------------------------------
 Warning -- This program may not be used in any manner that
 competes with the business of Gaussian, Inc. or will provide
 assistance to any competitor of Gaussian, Inc.  The licensee
 of this program is prohibited from giving any competitor of
 Gaussian, Inc. access to this program.  By using this program,
 the user acknowledges that Gaussian, Inc. is engaged in the
 business of creating and licensing software in the field of
 computational chemistry and represents and warrants to the
 licensee that it is not a competitor of Gaussian, Inc. and that
 it will not use this program in any manner prohibited above.
 ---------------------------------------------------------------
  

 Cite this work as:
 Gaussian 16, Revision B.01,
 M. J. Frisch, G. W. Trucks, H. B. Schlegel, G. E. Scuseria, 
 M. A. Robb, J. R. Cheeseman, G. Scalmani, V. Barone, 
 G. A. Petersson, H. Nakatsuji, X. Li, M. Caricato, A. V. Marenich, 
 J. Bloino, B. G. Janesko, R. Gomperts, B. Mennucci, H. P. Hratchian, 
 J. V. Ortiz, A. F. Izmaylov, J. L. Sonnenberg, D. Williams-Young, 
 F. Ding, F. Lipparini, F. Egidi, J. Goings, B. Peng, A. Petrone, 
 T. Henderson, D. Ranasinghe, V. G. Zakrzewski, J. Gao, N. Rega, 
 G. Zheng, W. Liang, M. Hada, M. Ehara, K. Toyota, R. Fukuda, 
 J. Hasegawa, M. Ishida, T. Nakajima, Y. Honda, O. Kitao, H. Nakai, 
 T. Vreven, K. Throssell, J. A. Montgomery, Jr., J. E. Peralta, 
 F. Ogliaro, M. J. Bearpark, J. J. Heyd, E. N. Brothers, K. N. Kudin, 
 V. N. Staroverov, T. A. Keith, R. Kobayashi, J. Normand, 
 K. Raghavachari, A. P. Rendell, J. C. Burant, S. S. Iyengar, 
 J. Tomasi, M. Cossi, J. M. Millam, M. Klene, C. Adamo, R. Cammi, 
 J. W. Ochterski, R. L. Martin, K. Morokuma, O. Farkas, 
 J. B. Foresman, and D. J. Fox, Gaussian, Inc., Wallingford CT, 2016.
 
 ******************************************
 Gaussian 16:  ES64L-G16RevB.01 20-Dec-2017
                20-Jun-2019 
 ******************************************
 %mem=80GB
 %nproc=40
 Will use up to   40 processors via shared memory.
 ----------------------------------------------------------------------
 # opt=(calcfc,ts,noeigentest,maxcyc=500,modredundant) uB2PLYPD3/cc-pvt
 z scf=maxcyc=500 nosymm
 ----------------------------------------------------------------------
 1/5=1,6=500,10=4,11=1,18=120,38=1/1,3;
 2/9=110,12=2,15=1,17=6,18=5,40=1/2;
 3/5=16,6=1,11=2,25=1,30=1,71=2,74=-60,116=2,140=1/1,2,3;
 4//1;
 5/5=2,7=500,38=5/2;
 8/6=3,8=1,10=1,19=11,30=-1/1;
 9/15=3,16=-3/6;
 11/6=1,8=1,15=11,17=12,24=-1,27=1,28=-2,29=300,31=1,32=6,42=3/1,2,10;
 10/6=2,21=1,31=1/2;
 8/6=4,8=1,10=1,19=11,30=-1/11,4;
 10/5=1,20=4,31=1/2;
 11/12=2,14=11,16=1,17=2,28=-2,31=1,42=3,76=2/2,10,12;
 6/7=2,8=2,9=2,10=2/1;
 7/10=1,12=2,25=1,30=1,44=2/1,2,3,16;
 1/5=1,6=500,10=4,11=1,18=20/3(2);
 2/9=110,15=1/2;
 99//99;
 2/9=110,15=1/2;
 3/5=16,6=1,11=2,25=1,30=1,71=1,74=-60,116=2/1,2,3;
 4/5=5,16=3,69=1/1;
 5/5=2,7=500,38=5/2;
 8/6=4,10=1/1;
 9/15=2,16=-3/6;
 10/5=1,31=1/2;
 7/12=2,30=1/1,2,3,16;
 1/5=1,6=500,11=1,18=20/3(-8);
 2/9=110,15=1/2;
 6/7=2,8=2,9=2,10=2/1;
 99/9=10/99;
 -------------------
 Title Card Required
 -------------------
 Symbolic Z-matrix:
 Charge =  0 Multiplicity = 2
 C                    -1.27711   0.18517  -0.36204 
 H                    -0.77689   1.10928  -0.65821 
 H                    -1.40485  -0.41789  -1.26104 
 C                    -0.42802  -0.55179   0.6433 
 H                    -0.10491   0.0189    1.50994 
 H                    -0.76762  -1.55079   0.89819 
 C                     2.86046   1.02859  -0.1415 
 H                     1.93048   1.58676  -0.01788 
 H                     3.64378   1.47951   0.46427 
 H                     3.15082   1.02378  -1.19072 
 O                     2.72544  -0.29677   0.34843 
 O                     1.79703  -0.96597  -0.4734 
 H                     0.77588  -0.80192   0.05019 
 C                    -2.62681   0.50552   0.22067 
 C                    -3.77422  -0.01309  -0.20637 
 H                    -2.63261   1.19076   1.06111 
 H                    -4.71576   0.24157   0.25756 
 H                    -3.80383  -0.70443  -1.03801 
 
 Add virtual bond connecting atoms H13        and O12        Dist= 2.19D+00.
 Add virtual bond connecting atoms H13        and C4         Dist= 2.58D+00.
 The following ModRedundant input section has been read:
 D    *          4      12    *    R                                           
 D       1       4      12      11 S  36 10.000                                
 

 GradGradGradGradGradGradGradGradGradGradGradGradGradGradGradGradGradGrad
 Berny optimization.
 Initialization pass.
                           ----------------------------
                           !    Initial Parameters    !
                           ! (Angstroms and Degrees)  !
 --------------------------                            --------------------------
 ! Name  Definition              Value          Derivative Info.                !
 --------------------------------------------------------------------------------
 ! R1    R(1,2)                  1.0917         calculate D2E/DX2 analytically  !
 ! R2    R(1,3)                  1.09           calculate D2E/DX2 analytically  !
 ! R3    R(1,4)                  1.5082         calculate D2E/DX2 analytically  !
 ! R4    R(1,14)                 1.5046         calculate D2E/DX2 analytically  !
 ! R5    R(4,5)                  1.0868         calculate D2E/DX2 analytically  !
 ! R6    R(4,6)                  1.0855         calculate D2E/DX2 analytically  !
 ! R7    R(4,13)                 1.3652         calculate D2E/DX2 analytically  !
 ! R8    R(7,8)                  1.0917         calculate D2E/DX2 analytically  !
 ! R9    R(7,9)                  1.0881         calculate D2E/DX2 analytically  !
 ! R10   R(7,10)                 1.0887         calculate D2E/DX2 analytically  !
 ! R11   R(7,11)                 1.4195         calculate D2E/DX2 analytically  !
 ! R12   R(11,12)                1.409          calculate D2E/DX2 analytically  !
 ! R13   R(12,13)                1.1592         calculate D2E/DX2 analytically  !
 ! R14   R(14,15)                1.3296         calculate D2E/DX2 analytically  !
 ! R15   R(14,16)                1.0844         calculate D2E/DX2 analytically  !
 ! R16   R(15,17)                1.0801         calculate D2E/DX2 analytically  !
 ! R17   R(15,18)                1.0819         calculate D2E/DX2 analytically  !
 ! A1    A(2,1,3)              107.3525         calculate D2E/DX2 analytically  !
 ! A2    A(2,1,4)              109.6628         calculate D2E/DX2 analytically  !
 ! A3    A(2,1,14)             109.6243         calculate D2E/DX2 analytically  !
 ! A4    A(3,1,4)              110.2054         calculate D2E/DX2 analytically  !
 ! A5    A(3,1,14)             109.3946         calculate D2E/DX2 analytically  !
 ! A6    A(4,1,14)             110.5418         calculate D2E/DX2 analytically  !
 ! A7    A(1,4,5)              116.2525         calculate D2E/DX2 analytically  !
 ! A8    A(1,4,6)              115.4731         calculate D2E/DX2 analytically  !
 ! A9    A(1,4,13)             107.2412         calculate D2E/DX2 analytically  !
 ! A10   A(5,4,6)              112.894          calculate D2E/DX2 analytically  !
 ! A11   A(5,4,13)             100.3972         calculate D2E/DX2 analytically  !
 ! A12   A(6,4,13)             102.0803         calculate D2E/DX2 analytically  !
 ! A13   A(8,7,9)              109.7767         calculate D2E/DX2 analytically  !
 ! A14   A(8,7,10)             109.7921         calculate D2E/DX2 analytically  !
 ! A15   A(8,7,11)             110.9345         calculate D2E/DX2 analytically  !
 ! A16   A(9,7,10)             110.2662         calculate D2E/DX2 analytically  !
 ! A17   A(9,7,11)             105.2648         calculate D2E/DX2 analytically  !
 ! A18   A(10,7,11)            110.7257         calculate D2E/DX2 analytically  !
 ! A19   A(7,11,12)            107.7479         calculate D2E/DX2 analytically  !
 ! A20   A(11,12,13)           104.4643         calculate D2E/DX2 analytically  !
 ! A21   A(1,14,15)            124.5193         calculate D2E/DX2 analytically  !
 ! A22   A(1,14,16)            116.0708         calculate D2E/DX2 analytically  !
 ! A23   A(15,14,16)           119.3923         calculate D2E/DX2 analytically  !
 ! A24   A(14,15,17)           121.49           calculate D2E/DX2 analytically  !
 ! A25   A(14,15,18)           121.3159         calculate D2E/DX2 analytically  !
 ! A26   A(17,15,18)           117.1933         calculate D2E/DX2 analytically  !
 ! A27   L(4,13,12,8,-1)       177.7782         calculate D2E/DX2 analytically  !
 ! A28   L(4,13,12,8,-2)       181.3665         calculate D2E/DX2 analytically  !
 ! D1    D(2,1,4,5)             52.5796         calculate D2E/DX2 analytically  !
 ! D2    D(2,1,4,6)           -171.7413         calculate D2E/DX2 analytically  !
 ! D3    D(2,1,4,13)           -58.7513         calculate D2E/DX2 analytically  !
 ! D4    D(3,1,4,5)            170.5485         calculate D2E/DX2 analytically  !
 ! D5    D(3,1,4,6)            -53.7724         calculate D2E/DX2 analytically  !
 ! D6    D(3,1,4,13)            59.2176         calculate D2E/DX2 analytically  !
 ! D7    D(14,1,4,5)           -68.4017         calculate D2E/DX2 analytically  !
 ! D8    D(14,1,4,6)            67.2774         calculate D2E/DX2 analytically  !
 ! D9    D(14,1,4,13)         -179.7326         calculate D2E/DX2 analytically  !
 ! D10   D(2,1,14,15)          125.267          calculate D2E/DX2 analytically  !
 ! D11   D(2,1,14,16)          -56.2721         calculate D2E/DX2 analytically  !
 ! D12   D(3,1,14,15)            7.8012         calculate D2E/DX2 analytically  !
 ! D13   D(3,1,14,16)         -173.7378         calculate D2E/DX2 analytically  !
 ! D14   D(4,1,14,15)         -113.7289         calculate D2E/DX2 analytically  !
 ! D15   D(4,1,14,16)           64.7321         calculate D2E/DX2 analytically  !
 ! D16   D(1,4,12,11)          119.5433         Scan                            !
 ! D17   D(8,7,11,12)           66.0318         calculate D2E/DX2 analytically  !
 ! D18   D(9,7,11,12)         -175.2881         calculate D2E/DX2 analytically  !
 ! D19   D(10,7,11,12)         -56.1342         calculate D2E/DX2 analytically  !
 ! D20   D(7,11,12,13)         -91.9519         calculate D2E/DX2 analytically  !
 ! D21   D(1,14,15,17)         179.1511         calculate D2E/DX2 analytically  !
 ! D22   D(1,14,15,18)          -1.2038         calculate D2E/DX2 analytically  !
 ! D23   D(16,14,15,17)          0.7379         calculate D2E/DX2 analytically  !
 ! D24   D(16,14,15,18)       -179.617          calculate D2E/DX2 analytically  !
 --------------------------------------------------------------------------------
 Trust Radius=3.00D-01 FncErr=1.00D-07 GrdErr=1.00D-07 EigMax=2.50D+02 EigMin=1.00D-04
 Number of optimizations in scan=  37
 Number of steps in this run=    108 maximum allowed number of steps=    108.
 Search for a saddle point of order  1.
 GradGradGradGradGradGradGradGradGradGradGradGradGradGradGradGradGradGrad

                          Input orientation:                          
 ---------------------------------------------------------------------
 Center     Atomic      Atomic             Coordinates (Angstroms)
 Number     Number       Type             X           Y           Z
 ---------------------------------------------------------------------
      1          6           0       -1.277108    0.185172   -0.362038
      2          1           0       -0.776892    1.109281   -0.658209
      3          1           0       -1.404848   -0.417886   -1.261035
      4          6           0       -0.428021   -0.551788    0.643298
      5          1           0       -0.104910    0.018895    1.509935
      6          1           0       -0.767616   -1.550791    0.898188
      7          6           0        2.860457    1.028588   -0.141497
      8          1           0        1.930477    1.586762   -0.017878
      9          1           0        3.643777    1.479514    0.464270
     10          1           0        3.150819    1.023783   -1.190718
     11          8           0        2.725438   -0.296773    0.348428
     12          8           0        1.797033   -0.965967   -0.473401
     13          1           0        0.775882   -0.801919    0.050189
     14          6           0       -2.626814    0.505519    0.220672
     15          6           0       -3.774223   -0.013094   -0.206371
     16          1           0       -2.632605    1.190761    1.061106
     17          1           0       -4.715764    0.241565    0.257562
     18          1           0       -3.803831   -0.704431   -1.038014
 ---------------------------------------------------------------------
                    Distance matrix (angstroms):
                    1          2          3          4          5
     1  C    0.000000
     2  H    1.091747   0.000000
     3  H    1.090042   1.757830   0.000000
     4  C    1.508231   2.138874   2.144436   0.000000
     5  H    2.214944   2.518204   3.091746   1.086802   0.000000
     6  H    2.204840   3.081954   2.520274   1.085496   1.810339
     7  C    4.228408   3.674753   4.640957   3.731967   3.541202
     8  H    3.517315   2.822740   4.085149   3.251625   2.989184
     9  H    5.154921   4.575953   5.662634   4.553875   4.156859
    10  H    4.582196   3.964567   4.778855   4.319043   4.347769
    11  O    4.093581   3.905973   4.434445   3.177465   3.075649
    12  O    3.284489   3.311480   3.342574   2.523772   2.919069
    13  H    2.314962   2.562347   2.573397   1.365184   1.892191
    14  C    1.504619   2.135222   2.131040   2.476126   2.873848
    15  C    2.509806   3.232317   2.624902   3.494166   4.050998
    16  H    2.207696   2.531078   3.080174   2.840991   2.822049
    17  H    3.494487   4.135974   3.701780   4.377550   4.783095
    18  H    2.762728   3.549107   2.426307   3.774414   4.549424
                    6          7          8          9         10
     6  H    0.000000
     7  C    4.571330   0.000000
     8  H    4.238292   1.091651   0.000000
     9  H    5.369490   1.088062   1.783078   0.000000
    10  H    5.132844   1.088668   1.783741   1.785969   0.000000
    11  O    3.751829   1.419450   2.076980   2.002988   2.072146
    12  O    2.966597   2.284574   2.596485   3.204695   2.511252
    13  H    1.913713   2.780819   2.653963   3.687983   3.242432
    14  C    2.853779   5.524030   4.689871   6.350458   5.970064
    15  C    3.553062   6.716270   5.927788   7.596339   7.071086
    16  H    3.319764   5.625503   4.705607   6.311304   6.208590
    17  H    4.383014   7.627436   6.786600   8.453234   8.036946
    18  H    3.699163   6.944050   6.258796   7.905273   7.167789
                   11         12         13         14         15
    11  O    0.000000
    12  O    1.408957   0.000000
    13  H    2.035900   1.159227   0.000000
    14  C    5.413557   4.713537   3.649219   0.000000
    15  C    6.529462   5.658460   4.625097   1.329614   0.000000
    16  H    5.606183   5.160221   4.075599   1.084398   2.087835
    17  H    7.461203   6.664005   5.593750   2.105883   1.080085
    18  H    6.687283   5.635323   4.708233   2.105621   1.081875
                   16         17         18
    16  H    0.000000
    17  H    2.426151   0.000000
    18  H    3.061017   1.845277   0.000000
 Symmetry turned off by external request.
 Stoichiometry    C5H11O2(2)
 Framework group  C1[X(C5H11O2)]
 Deg. of freedom    48
 Full point group                 C1      NOp   1
 Rotational constants (GHZ):           7.1532797           0.7877495           0.7574336
 Standard basis: CC-pVTZ (5D, 7F)
   364 basis functions,   551 primitive gaussians,   410 cartesian basis functions
    29 alpha electrons       28 beta electrons
       nuclear repulsion energy       292.8132856417 Hartrees.
 NAtoms=   18 NActive=   18 NUniq=   18 SFac= 1.00D+00 NAtFMM=   60 NAOKFM=F Big=F
 Integral buffers will be    131072 words long.
 Raffenetti 2 integral format.
 Two-electron integral symmetry is turned off.
 Nuclear repulsion after empirical dispersion term =      292.8042507924 Hartrees.
 One-electron integrals computed using PRISM.
 NBasis=   364 RedAO= T EigKep=  4.26D-04  NBF=   364
 NBsUse=   364 1.00D-06 EigRej= -1.00D+00 NBFU=   364
 ExpMin= 1.03D-01 ExpMax= 1.53D+04 ExpMxC= 5.22D+02 IAcc=3 IRadAn=         5 AccDes= 0.00D+00
 Harris functional with IExCor=  419 and IRadAn=       5 diagonalized for initial guess.
 HarFok:  IExCor=  419 AccDes= 0.00D+00 IRadAn=         5 IDoV= 1 UseB2=F ITyADJ=14
 ICtDFT=  3500011 ScaDFX=  1.000000  1.000000  1.000000  1.000000
 FoFCou: FMM=F IPFlag=           0 FMFlag=      100000 FMFlg1=           0
         NFxFlg=           0 DoJE=T BraDBF=F KetDBF=T FulRan=T
         wScrn=  0.000000 ICntrl=       500 IOpCl=  0 I1Cent=   200000004 NGrid=           0
         NMat0=    1 NMatS0=      1 NMatT0=    0 NMatD0=    1 NMtDS0=    0 NMtDT0=    0
 Symmetry not used in FoFCou.
 Initial guess <Sx>= 0.0000 <Sy>= 0.0000 <Sz>= 0.5000 <S**2>= 0.7500 S= 0.5000
 Requested convergence on RMS density matrix=1.00D-08 within 500 cycles.
 Requested convergence on MAX density matrix=1.00D-06.
 Requested convergence on             energy=1.00D-06.
 No special actions if energy rises.
 Integral accuracy reduced to 1.0D-05 until final iterations.
 Initial convergence to 1.0D-05 achieved.  Increase integral accuracy.
 SCF Done:  E(UB2PLYPD3) =  -346.804270927     A.U. after   21 cycles
            NFock= 21  Conv=0.90D-08     -V/T= 2.0044
 <Sx>= 0.0000 <Sy>= 0.0000 <Sz>= 0.5000 <S**2>= 0.7689 S= 0.5094
 <L.S>=  0.00000000000    
 Annihilation of the first spin contaminant:
 S**2 before annihilation     0.7689,   after     0.7502
 DoSCS=T DFT=T ScalE2(SS,OS)=  0.270000  0.270000
 ExpMin= 1.03D-01 ExpMax= 1.53D+04 ExpMxC= 5.22D+02 IAcc=3 IRadAn=         5 AccDes= 0.00D+00
 HarFok:  IExCor=  205 AccDes= 0.00D+00 IRadAn=         5 IDoV=-2 UseB2=F ITyADJ=14
 ICtDFT= 12500011 ScaDFX=  1.000000  1.000000  1.000000  1.000000
 Range of M.O.s used for correlation:     8   364
 NBasis=   364 NAE=    29 NBE=    28 NFC=     7 NFV=     0
 NROrb=    357 NOA=    22 NOB=    21 NVA=   335 NVB=   336

 **** Warning!!: The largest alpha MO coefficient is  0.11005720D+02


 **** Warning!!: The largest beta MO coefficient is  0.10848795D+02

 DoSCS=T DFT=T ScalE2(SS,OS)=  0.270000  0.270000
 Disk-based method using ON**2 memory for 22 occupieds at a time.
 Permanent disk used for amplitudes=   135386230 words.
 Estimated scratch disk usage=  2430593036 words.
 Actual    scratch disk usage=  2350713356 words.
 JobTyp=2 Pass  1:  I=   8 to  29 NPSUse= 40 ParTrn=T ParDer=T DoDerP=T.
 (rs|ai) integrals will be sorted in core.
 Actual    scratch disk usage=  2350713356 words.
 JobTyp=3 Pass  1:  I=   8 to  28 NPSUse= 40 ParTrn=T ParDer=T DoDerP=T.
 (rs|ai) integrals will be sorted in core.
 Spin components of T(2) and E(2):
     alpha-alpha T2 =       0.7521004287D-01 E2=     -0.5338134578D-01
     alpha-beta  T2 =       0.4623718395D+00 E2=     -0.3339415707D+00
     beta-beta   T2 =       0.7946739127D-01 E2=     -0.5167656641D-01
 (S**2,0)=  0.76895D+00           (S**2,1)=  0.74299D+00
 Scaling Projection term by:   0.270000
 E(PUHF)=      -0.34681045421D+03        E(PMP2)=      -0.34724380276D+03
 E2(B2PLYPD3) =    -0.4389994829D+00 E(B2PLYPD3) =    -0.34724327040987D+03
 G2DrvN: will do    19 centers at a time, making    1 passes.
 Calling FoFCou, ICntrl=  3107 FMM=F I1Cent=   0 AccDes= 0.00D+00.
 End of G2Drv F.D. properties file   721 does not exist.
 End of G2Drv F.D. properties file   722 does not exist.
 End of G2Drv F.D. properties file   788 does not exist.
          IDoAtm=111111111111111111
          Differentiating once with respect to electric field.
                with respect to dipole field.
          Differentiating once with respect to nuclear coordinates.
 Keep R1 and R2 ints in memory in canonical form, NReq=4459303749.
          There are    57 degrees of freedom in the 1st order CPHF.  IDoFFX=6 NUNeed=    57.
     54 vectors produced by pass  0 Test12= 3.35D-14 1.75D-09 XBig12= 1.14D+02 4.62D+00.
 AX will form    54 AO Fock derivatives at one time.
     54 vectors produced by pass  1 Test12= 3.35D-14 1.75D-09 XBig12= 7.40D+00 4.11D-01.
     54 vectors produced by pass  2 Test12= 3.35D-14 1.75D-09 XBig12= 4.12D-01 1.01D-01.
     54 vectors produced by pass  3 Test12= 3.35D-14 1.75D-09 XBig12= 6.98D-03 8.07D-03.
     54 vectors produced by pass  4 Test12= 3.35D-14 1.75D-09 XBig12= 6.90D-05 8.47D-04.
     54 vectors produced by pass  5 Test12= 3.35D-14 1.75D-09 XBig12= 9.26D-07 8.80D-05.
     54 vectors produced by pass  6 Test12= 3.35D-14 1.75D-09 XBig12= 8.01D-09 7.58D-06.
     20 vectors produced by pass  7 Test12= 3.35D-14 1.75D-09 XBig12= 4.74D-11 4.45D-07.
      3 vectors produced by pass  8 Test12= 3.35D-14 1.75D-09 XBig12= 3.35D-13 4.38D-08.
      2 vectors produced by pass  9 Test12= 3.35D-14 1.75D-09 XBig12= 2.73D-15 4.10D-09.
 InvSVY:  IOpt=1 It=  1 EMax= 2.67D-15
 Solved reduced A of dimension   403 with    57 vectors.
 End of Minotr F.D. properties file   721 does not exist.
 End of Minotr F.D. properties file   722 does not exist.
 End of Minotr F.D. properties file   788 does not exist.
 MDV= 10737418240.
 DoSCS=T DFT=T ScalE2(SS,OS)=  0.270000  0.270000
 Form MO integral derivatives with frozen-active canonical formalism.
 Discarding MO integrals.
 Reordered first order wavefunction length =    545006183
 In DefCFB: NBatch=  1 ICI= 29 ICA=336 LFMax= 68
            Large arrays: LIAPS= 11415666080 LIARS=  1957569600 words.
 In DefCFB: NBatch=  1 ICI= 29 ICA=336 LFMax= 68
            Large arrays: LIAPS= 11415666080 LIARS=  1957569600 words.
 Semi-Direct transformation.
 ModeAB=           4 MOrb=            29 LenV=   10733580575
 LASXX=    664627481 LTotXX=   664627481 LenRXX=  1338891981
 LTotAB=   674264500 MaxLAS=   742741272 LenRXY=           0
 NonZer=  2003519462 LenScr=  3017065472 LnRSAI=   742741272
 LnScr1=  1118481408 LExtra=           0 Total=   6217180133
 MaxDsk=          -1 SrtSym=           T ITran=            4
 JobTyp=1 Pass  1:  I=   1 to  29.
 (rs|ai) integrals will be sorted in core.
 ModeAB=           4 MOrb=            28 LenV=   10733580575
 LASXX=    642894399 LTotXX=   642894399 LenRXX=  1195226319
 LTotAB=   552331920 MaxLAS=   717129504 LenRXY=           0
 NonZer=  1838120718 LenScr=  2767993856 LnRSAI=   717129504
 LnScr1=  1079913472 LExtra=           0 Total=   5760263151
 MaxDsk=          -1 SrtSym=           T ITran=            4
 JobTyp=2 Pass  1:  I=   1 to  28.
 (rs|ai) integrals will be sorted in core.
 DoSCS=T DFT=T ScalE2(SS,OS)=  0.270000  0.270000
 Spin components of T(2) and E(2):
     alpha-alpha T2 =       0.7521004287D-01 E2=     -0.5338134578D-01
     alpha-beta  T2 =       0.4623718395D+00 E2=     -0.3339415707D+00
     beta-beta   T2 =       0.7946739127D-01 E2=     -0.5167656641D-01
 E2(B2PLYPD3) =    -0.4389994829D+00 E(B2PLYPD3) =    -0.34724327040987D+03
 (S**2,0)=  0.76895D+00           (S**2,1)=  0.74299D+00
 Scaling Projection term by:   0.270000
 E(PUHF)=      -0.34681045421D+03        E(PMP2)=      -0.34724380276D+03
          IDoAtm=111111111111111111
          Differentiating once with respect to electric field.
                with respect to dipole field.
          Differentiating once with respect to nuclear coordinates.
 Keep R1 and R2 ints in memory in canonical form, NReq=4459438754.
          There are     1 degrees of freedom in the 1st order CPHF.  IDoFFX=0 NUNeed=     1.
 LinEq1:  Iter=  0 NonCon=     1 RMS=8.35D-04 Max=6.64D-02 NDo=     1
 AX will form     1 AO Fock derivatives at one time.
 LinEq1:  Iter=  1 NonCon=     1 RMS=2.69D-04 Max=7.41D-03 NDo=     1
 LinEq1:  Iter=  2 NonCon=     1 RMS=1.49D-04 Max=9.13D-03 NDo=     1
 LinEq1:  Iter=  3 NonCon=     1 RMS=7.12D-05 Max=3.16D-03 NDo=     1
 LinEq1:  Iter=  4 NonCon=     1 RMS=3.73D-05 Max=1.71D-03 NDo=     1
 LinEq1:  Iter=  5 NonCon=     1 RMS=2.16D-05 Max=8.48D-04 NDo=     1
 LinEq1:  Iter=  6 NonCon=     1 RMS=1.77D-05 Max=6.39D-04 NDo=     1
 LinEq1:  Iter=  7 NonCon=     1 RMS=7.59D-06 Max=3.75D-04 NDo=     1
 LinEq1:  Iter=  8 NonCon=     1 RMS=5.14D-06 Max=2.86D-04 NDo=     1
 LinEq1:  Iter=  9 NonCon=     1 RMS=2.76D-06 Max=9.09D-05 NDo=     1
 LinEq1:  Iter= 10 NonCon=     1 RMS=1.26D-06 Max=2.79D-05 NDo=     1
 LinEq1:  Iter= 11 NonCon=     1 RMS=5.43D-07 Max=9.04D-06 NDo=     1
 LinEq1:  Iter= 12 NonCon=     1 RMS=2.28D-07 Max=3.79D-06 NDo=     1
 LinEq1:  Iter= 13 NonCon=     1 RMS=1.01D-07 Max=2.06D-06 NDo=     1
 LinEq1:  Iter= 14 NonCon=     1 RMS=3.29D-08 Max=7.98D-07 NDo=     1
 LinEq1:  Iter= 15 NonCon=     1 RMS=1.40D-08 Max=2.21D-07 NDo=     1
 LinEq1:  Iter= 16 NonCon=     1 RMS=5.96D-09 Max=1.39D-07 NDo=     1
 LinEq1:  Iter= 17 NonCon=     1 RMS=1.82D-09 Max=3.32D-08 NDo=     1
 LinEq1:  Iter= 18 NonCon=     1 RMS=4.80D-10 Max=1.65D-08 NDo=     1
 LinEq1:  Iter= 19 NonCon=     1 RMS=1.66D-10 Max=7.05D-09 NDo=     1
 LinEq1:  Iter= 20 NonCon=     1 RMS=7.84D-11 Max=4.54D-09 NDo=     1
 LinEq1:  Iter= 21 NonCon=     1 RMS=3.34D-11 Max=2.21D-09 NDo=     1
 LinEq1:  Iter= 22 NonCon=     0 RMS=1.12D-11 Max=4.94D-10 NDo=     1
 Linear equations converged to 1.000D-10 1.000D-09 after    22 iterations.
 End of Minotr F.D. properties file   721 does not exist.
 End of Minotr F.D. properties file   722 does not exist.
 End of Minotr F.D. properties file   788 does not exist.
 Symmetrizing basis deriv contribution to polar:
 IMax=3 JMax=2 DiffMx= 0.00D+00
 G2DrvN: will do    19 centers at a time, making    1 passes.
 Calling FoFCou, ICntrl=  3107 FMM=F I1Cent=   0 AccDes= 0.00D+00.
 End of G2Drv F.D. properties file   721 does not exist.
 End of G2Drv F.D. properties file   722 does not exist.
 End of G2Drv F.D. properties file   788 does not exist.
 DoSCS=T DFT=T ScalE2(SS,OS)=  0.270000  0.270000
 R2 and R3 integrals will be kept in memory, NReq=  7133702340.
 DD1Dir will call FoFMem   1 times, MxPair=      2408
 NAB=   812 NAA=   406 NBB=   378.
 Discarding MO integrals.

 **********************************************************************

            Population analysis using the SCF Density.

 **********************************************************************

 Alpha  occ. eigenvalues --  -19.78529 -19.78450 -10.66099 -10.64164 -10.63038
 Alpha  occ. eigenvalues --  -10.62991 -10.61541  -1.27323  -1.02109  -0.93718
 Alpha  occ. eigenvalues --   -0.85685  -0.77760  -0.74047  -0.65249  -0.60855
 Alpha  occ. eigenvalues --   -0.56542  -0.55586  -0.54430  -0.52430  -0.50821
 Alpha  occ. eigenvalues --   -0.49003  -0.46929  -0.44203  -0.43318  -0.42228
 Alpha  occ. eigenvalues --   -0.36909  -0.36620  -0.32378  -0.29624
 Alpha virt. eigenvalues --    0.06137   0.07383   0.09879   0.10380   0.11234
 Alpha virt. eigenvalues --    0.12346   0.12882   0.15396   0.15585   0.15798
 Alpha virt. eigenvalues --    0.17076   0.19104   0.21532   0.22864   0.23934
 Alpha virt. eigenvalues --    0.27166   0.29989   0.30986   0.31432   0.33080
 Alpha virt. eigenvalues --    0.33982   0.35901   0.36513   0.38439   0.39450
 Alpha virt. eigenvalues --    0.42396   0.45844   0.46015   0.47007   0.48045
 Alpha virt. eigenvalues --    0.50009   0.50231   0.50797   0.51656   0.52164
 Alpha virt. eigenvalues --    0.52806   0.53248   0.53938   0.54622   0.55943
 Alpha virt. eigenvalues --    0.57476   0.57627   0.59488   0.60600   0.62304
 Alpha virt. eigenvalues --    0.64923   0.68012   0.68304   0.69497   0.70583
 Alpha virt. eigenvalues --    0.73453   0.73945   0.76579   0.77324   0.78945
 Alpha virt. eigenvalues --    0.80634   0.84513   0.85146   0.86540   0.89380
 Alpha virt. eigenvalues --    0.91256   0.93977   0.94487   0.96628   0.97974
 Alpha virt. eigenvalues --    0.99548   1.00455   1.02931   1.05327   1.06751
 Alpha virt. eigenvalues --    1.07724   1.10099   1.11032   1.12023   1.12902
 Alpha virt. eigenvalues --    1.14622   1.15364   1.16820   1.17095   1.18596
 Alpha virt. eigenvalues --    1.20375   1.21162   1.23308   1.23708   1.25761
 Alpha virt. eigenvalues --    1.26485   1.27647   1.31217   1.34109   1.34454
 Alpha virt. eigenvalues --    1.35849   1.37021   1.37919   1.38820   1.40006
 Alpha virt. eigenvalues --    1.42068   1.42705   1.44556   1.47305   1.47966
 Alpha virt. eigenvalues --    1.50748   1.52490   1.53552   1.55013   1.57202
 Alpha virt. eigenvalues --    1.60082   1.60567   1.62581   1.64178   1.68150
 Alpha virt. eigenvalues --    1.71219   1.76174   1.79165   1.79735   1.86971
 Alpha virt. eigenvalues --    1.94057   1.97643   1.99075   2.04821   2.12289
 Alpha virt. eigenvalues --    2.17780   2.19161   2.20815   2.24352   2.28617
 Alpha virt. eigenvalues --    2.35233   2.37049   2.38186   2.40263   2.42488
 Alpha virt. eigenvalues --    2.43236   2.45497   2.46523   2.48318   2.51368
 Alpha virt. eigenvalues --    2.56646   2.57067   2.58866   2.61984   2.65479
 Alpha virt. eigenvalues --    2.67544   2.68774   2.69727   2.71149   2.77723
 Alpha virt. eigenvalues --    2.78790   2.80803   2.84620   2.85192   2.87506
 Alpha virt. eigenvalues --    2.89303   2.90456   2.91228   2.92640   2.94511
 Alpha virt. eigenvalues --    2.94594   2.98631   2.99286   3.00115   3.01032
 Alpha virt. eigenvalues --    3.02980   3.03139   3.04179   3.06552   3.07739
 Alpha virt. eigenvalues --    3.09142   3.11868   3.12719   3.13209   3.14054
 Alpha virt. eigenvalues --    3.15541   3.15653   3.17801   3.17951   3.20303
 Alpha virt. eigenvalues --    3.21591   3.23303   3.25356   3.27827   3.28916
 Alpha virt. eigenvalues --    3.30510   3.31755   3.33039   3.36559   3.39102
 Alpha virt. eigenvalues --    3.40670   3.41344   3.41742   3.43290   3.44436
 Alpha virt. eigenvalues --    3.46756   3.48308   3.49733   3.51601   3.53016
 Alpha virt. eigenvalues --    3.54364   3.55634   3.56314   3.58784   3.61332
 Alpha virt. eigenvalues --    3.61809   3.63747   3.66348   3.68076   3.72934
 Alpha virt. eigenvalues --    3.73687   3.78390   3.78546   3.80060   3.82990
 Alpha virt. eigenvalues --    3.84049   3.85020   3.87049   3.87085   3.88019
 Alpha virt. eigenvalues --    3.89241   3.91117   3.94161   3.95215   3.95901
 Alpha virt. eigenvalues --    3.96968   3.97779   3.98845   4.00740   4.03942
 Alpha virt. eigenvalues --    4.04283   4.05109   4.06983   4.08790   4.09527
 Alpha virt. eigenvalues --    4.12090   4.13922   4.15796   4.16618   4.17955
 Alpha virt. eigenvalues --    4.19186   4.19622   4.20677   4.22832   4.23839
 Alpha virt. eigenvalues --    4.25133   4.29972   4.32224   4.35096   4.36293
 Alpha virt. eigenvalues --    4.37149   4.39124   4.39906   4.42546   4.44317
 Alpha virt. eigenvalues --    4.46191   4.49521   4.55250   4.56830   4.60045
 Alpha virt. eigenvalues --    4.62080   4.62774   4.65727   4.68173   4.71252
 Alpha virt. eigenvalues --    4.76505   4.79216   4.81631   4.82978   4.85363
 Alpha virt. eigenvalues --    4.87126   4.91319   4.93283   4.94587   4.97189
 Alpha virt. eigenvalues --    4.99949   5.02099   5.03914   5.04206   5.06903
 Alpha virt. eigenvalues --    5.07496   5.11888   5.13147   5.13793   5.17089
 Alpha virt. eigenvalues --    5.23100   5.26608   5.29051   5.29850   5.30845
 Alpha virt. eigenvalues --    5.33521   5.34502   5.36971   5.38446   5.39931
 Alpha virt. eigenvalues --    5.40742   5.41437   5.45415   5.47162   5.50676
 Alpha virt. eigenvalues --    5.57054   5.58667   5.63698   5.67740   5.68425
 Alpha virt. eigenvalues --    5.77970   5.81685   5.86427   5.93998   5.96500
 Alpha virt. eigenvalues --    6.02337   6.04700   6.08429   6.09218   6.10279
 Alpha virt. eigenvalues --    6.18538   6.25297   6.32040   6.37906   6.42177
 Alpha virt. eigenvalues --    6.43274   6.63854   6.75096   6.75890   6.83306
 Alpha virt. eigenvalues --    6.95986   7.05121   7.06724   7.19748   7.42115
 Alpha virt. eigenvalues --    7.43905   7.58536   7.73143   9.91014  10.60229
 Alpha virt. eigenvalues --   11.22671  12.52780  13.37685  13.41113  14.35641
  Beta  occ. eigenvalues --  -19.78398 -19.76855 -10.66108 -10.63079 -10.62943
  Beta  occ. eigenvalues --  -10.62892 -10.61464  -1.25481  -0.99249  -0.92955
  Beta  occ. eigenvalues --   -0.84133  -0.77355  -0.71866  -0.65047  -0.57561
  Beta  occ. eigenvalues --   -0.56175  -0.54480  -0.54131  -0.51838  -0.49698
  Beta  occ. eigenvalues --   -0.46715  -0.45873  -0.43257  -0.42723  -0.41739
  Beta  occ. eigenvalues --   -0.35417  -0.33689  -0.31341
  Beta virt. eigenvalues --   -0.04923   0.06613   0.07490   0.09981   0.10485
  Beta virt. eigenvalues --    0.11578   0.12489   0.13427   0.15496   0.15686
  Beta virt. eigenvalues --    0.16001   0.17330   0.19262   0.22191   0.23348
  Beta virt. eigenvalues --    0.24144   0.27560   0.30100   0.31201   0.31756
  Beta virt. eigenvalues --    0.33700   0.34365   0.36281   0.36876   0.38953
  Beta virt. eigenvalues --    0.39783   0.43115   0.46022   0.46282   0.47374
  Beta virt. eigenvalues --    0.48149   0.50187   0.50399   0.51284   0.51990
  Beta virt. eigenvalues --    0.52853   0.53151   0.53901   0.54369   0.55139
  Beta virt. eigenvalues --    0.57267   0.58017   0.58317   0.59908   0.60905
  Beta virt. eigenvalues --    0.62900   0.65354   0.68246   0.68548   0.69796
  Beta virt. eigenvalues --    0.70768   0.74014   0.74170   0.76831   0.77703
  Beta virt. eigenvalues --    0.79330   0.80853   0.85001   0.85329   0.86691
  Beta virt. eigenvalues --    0.89695   0.91705   0.94258   0.94692   0.96749
  Beta virt. eigenvalues --    0.98087   0.99871   1.00855   1.03125   1.05510
  Beta virt. eigenvalues --    1.06926   1.07973   1.10250   1.11151   1.12266
  Beta virt. eigenvalues --    1.13142   1.14852   1.15497   1.16977   1.17415
  Beta virt. eigenvalues --    1.19020   1.20738   1.21951   1.23485   1.23866
  Beta virt. eigenvalues --    1.26036   1.26662   1.27871   1.31562   1.34498
  Beta virt. eigenvalues --    1.34776   1.35985   1.37319   1.38159   1.38902
  Beta virt. eigenvalues --    1.40087   1.42483   1.42974   1.44954   1.47583
  Beta virt. eigenvalues --    1.48328   1.51295   1.52731   1.53761   1.55282
  Beta virt. eigenvalues --    1.57556   1.60440   1.60975   1.62728   1.64542
  Beta virt. eigenvalues --    1.68692   1.71726   1.76745   1.79438   1.79935
  Beta virt. eigenvalues --    1.89935   1.94904   1.97807   1.99690   2.05711
  Beta virt. eigenvalues --    2.12586   2.18019   2.20761   2.21249   2.25072
  Beta virt. eigenvalues --    2.29200   2.35428   2.37184   2.38437   2.41169
  Beta virt. eigenvalues --    2.42831   2.43725   2.45792   2.46620   2.48618
  Beta virt. eigenvalues --    2.51523   2.56896   2.57714   2.59327   2.63002
  Beta virt. eigenvalues --    2.65689   2.67830   2.69184   2.70271   2.71463
  Beta virt. eigenvalues --    2.77938   2.79403   2.81304   2.84775   2.85389
  Beta virt. eigenvalues --    2.87914   2.89679   2.90865   2.91598   2.92758
  Beta virt. eigenvalues --    2.94689   2.95255   2.99044   2.99598   3.00513
  Beta virt. eigenvalues --    3.01594   3.03250   3.03536   3.04391   3.07142
  Beta virt. eigenvalues --    3.08106   3.09316   3.11978   3.12826   3.13993
  Beta virt. eigenvalues --    3.14189   3.15796   3.16127   3.18016   3.18350
  Beta virt. eigenvalues --    3.20772   3.21724   3.24366   3.25474   3.27900
  Beta virt. eigenvalues --    3.29249   3.31346   3.32465   3.33689   3.36825
  Beta virt. eigenvalues --    3.39216   3.41008   3.41530   3.42173   3.43458
  Beta virt. eigenvalues --    3.44608   3.47562   3.48653   3.50549   3.51823
  Beta virt. eigenvalues --    3.53225   3.54499   3.56116   3.56427   3.58932
  Beta virt. eigenvalues --    3.61727   3.62000   3.63955   3.66408   3.68378
  Beta virt. eigenvalues --    3.73034   3.73789   3.78520   3.78937   3.80214
  Beta virt. eigenvalues --    3.83189   3.84287   3.85178   3.87066   3.87183
  Beta virt. eigenvalues --    3.88274   3.89272   3.91210   3.94396   3.95196
  Beta virt. eigenvalues --    3.96042   3.96976   3.97978   3.99094   4.01021
  Beta virt. eigenvalues --    4.03976   4.04386   4.05246   4.07076   4.08866
  Beta virt. eigenvalues --    4.09772   4.12082   4.14337   4.15962   4.16751
  Beta virt. eigenvalues --    4.18161   4.19381   4.19680   4.20705   4.22946
  Beta virt. eigenvalues --    4.23993   4.25171   4.30292   4.32528   4.35163
  Beta virt. eigenvalues --    4.36298   4.37569   4.39191   4.40186   4.42949
  Beta virt. eigenvalues --    4.44542   4.46394   4.49811   4.55583   4.57163
  Beta virt. eigenvalues --    4.60407   4.62534   4.63345   4.66112   4.68703
  Beta virt. eigenvalues --    4.71776   4.76964   4.79731   4.81791   4.83181
  Beta virt. eigenvalues --    4.85533   4.87713   4.91554   4.93554   4.94755
  Beta virt. eigenvalues --    4.97496   5.00091   5.02364   5.04102   5.04561
  Beta virt. eigenvalues --    5.07044   5.07768   5.12134   5.13505   5.14104
  Beta virt. eigenvalues --    5.17663   5.23571   5.27504   5.29367   5.30122
  Beta virt. eigenvalues --    5.31057   5.33830   5.34812   5.37369   5.38578
  Beta virt. eigenvalues --    5.40264   5.41265   5.41896   5.45760   5.47407
  Beta virt. eigenvalues --    5.50925   5.57235   5.58815   5.64034   5.68170
  Beta virt. eigenvalues --    5.69072   5.78469   5.81836   5.88169   5.94051
  Beta virt. eigenvalues --    5.96795   6.03582   6.04815   6.08852   6.09565
  Beta virt. eigenvalues --    6.10665   6.18607   6.25706   6.33999   6.38455
  Beta virt. eigenvalues --    6.42943   6.44172   6.64819   6.77121   6.78205
  Beta virt. eigenvalues --    6.84612   6.97671   7.05782   7.08280   7.21957
  Beta virt. eigenvalues --    7.42360   7.45991   7.60452   7.73767   9.91869
  Beta virt. eigenvalues --   10.61285  11.22714  12.53581  13.37903  13.41163
  Beta virt. eigenvalues --   14.35707
          Condensed to atoms (all electrons):
               1          2          3          4          5          6
     1  C    4.855032   0.422893   0.415809   0.319929  -0.035585  -0.031594
     2  H    0.422893   0.580200  -0.029221  -0.041650  -0.003961   0.006375
     3  H    0.415809  -0.029221   0.572151  -0.032757   0.005754  -0.003837
     4  C    0.319929  -0.041650  -0.032757   5.172826   0.395354   0.397665
     5  H   -0.035585  -0.003961   0.005754   0.395354   0.547601  -0.025158
     6  H   -0.031594   0.006375  -0.003837   0.397665  -0.025158   0.530720
     7  C   -0.000344  -0.000304   0.000088  -0.003239   0.000014   0.000021
     8  H   -0.000530  -0.001029   0.000089   0.000562  -0.002199  -0.000113
     9  H    0.000086   0.000061  -0.000006   0.000287  -0.000095   0.000005
    10  H   -0.000018   0.000263  -0.000003  -0.000534   0.000328   0.000006
    11  O    0.000125   0.000208  -0.000066   0.004856   0.004173   0.000428
    12  O    0.006018   0.001245   0.000873  -0.081913  -0.001491   0.000494
    13  H   -0.008461  -0.002162  -0.001683   0.208347  -0.006206  -0.006722
    14  C    0.304589  -0.040558  -0.042004  -0.049383  -0.002958   0.000844
    15  C   -0.057123   0.002029  -0.001703   0.000025   0.000407   0.002179
    16  H   -0.040362  -0.003286   0.005689   0.000634   0.001820   0.000334
    17  H    0.006359  -0.000355  -0.000034  -0.000465  -0.000010  -0.000065
    18  H   -0.006031   0.000194   0.004115   0.000154   0.000014   0.000224
               7          8          9         10         11         12
     1  C   -0.000344  -0.000530   0.000086  -0.000018   0.000125   0.006018
     2  H   -0.000304  -0.001029   0.000061   0.000263   0.000208   0.001245
     3  H    0.000088   0.000089  -0.000006  -0.000003  -0.000066   0.000873
     4  C   -0.003239   0.000562   0.000287  -0.000534   0.004856  -0.081913
     5  H    0.000014  -0.002199  -0.000095   0.000328   0.004173  -0.001491
     6  H    0.000021  -0.000113   0.000005   0.000006   0.000428   0.000494
     7  C    4.578660   0.388866   0.402089   0.409086   0.312396  -0.038510
     8  H    0.388866   0.704612  -0.036190  -0.065248  -0.049261  -0.005446
     9  H    0.402089  -0.036190   0.584492  -0.029428  -0.025856   0.006589
    10  H    0.409086  -0.065248  -0.029428   0.638412  -0.043062   0.004857
    11  O    0.312396  -0.049261  -0.025856  -0.043062   7.942657   0.070214
    12  O   -0.038510  -0.005446   0.006589   0.004857   0.070214   8.055441
    13  H    0.004086   0.003943  -0.001206   0.001168  -0.028978   0.203805
    14  C   -0.000025   0.000275   0.000012  -0.000018  -0.000066   0.000730
    15  C   -0.000001   0.000010  -0.000000  -0.000000  -0.000001  -0.000006
    16  H    0.000001   0.000027   0.000001  -0.000002  -0.000005   0.000025
    17  H    0.000000   0.000000  -0.000000  -0.000000  -0.000000  -0.000000
    18  H   -0.000000   0.000000   0.000000  -0.000000  -0.000000   0.000003
              13         14         15         16         17         18
     1  C   -0.008461   0.304589  -0.057123  -0.040362   0.006359  -0.006031
     2  H   -0.002162  -0.040558   0.002029  -0.003286  -0.000355   0.000194
     3  H   -0.001683  -0.042004  -0.001703   0.005689  -0.000034   0.004115
     4  C    0.208347  -0.049383   0.000025   0.000634  -0.000465   0.000154
     5  H   -0.006206  -0.002958   0.000407   0.001820  -0.000010   0.000014
     6  H   -0.006722   0.000844   0.002179   0.000334  -0.000065   0.000224
     7  C    0.004086  -0.000025  -0.000001   0.000001   0.000000  -0.000000
     8  H    0.003943   0.000275   0.000010   0.000027   0.000000   0.000000
     9  H   -0.001206   0.000012  -0.000000   0.000001  -0.000000   0.000000
    10  H    0.001168  -0.000018  -0.000000  -0.000002  -0.000000  -0.000000
    11  O   -0.028978  -0.000066  -0.000001  -0.000005  -0.000000  -0.000000
    12  O    0.203805   0.000730  -0.000006   0.000025  -0.000000   0.000003
    13  H    0.417218  -0.000118   0.000005  -0.000158   0.000005  -0.000040
    14  C   -0.000118   4.994824   0.624371   0.407945  -0.045671  -0.051085
    15  C    0.000005   0.624371   4.946263  -0.039343   0.420060   0.411705
    16  H   -0.000158   0.407945  -0.039343   0.534537  -0.007992   0.006511
    17  H    0.000005  -0.045671   0.420060  -0.007992   0.533595  -0.034578
    18  H   -0.000040  -0.051085   0.411705   0.006511  -0.034578   0.544280
          Atomic-Atomic Spin Densities.
               1          2          3          4          5          6
     1  C   -0.028769   0.001189   0.000330  -0.029295  -0.001603   0.000267
     2  H    0.001189   0.004472   0.001208  -0.002625   0.000807  -0.000022
     3  H    0.000330   0.001208   0.006672  -0.003351  -0.000076   0.000938
     4  C   -0.029295  -0.002625  -0.003351   0.708757   0.007775   0.004895
     5  H   -0.001603   0.000807  -0.000076   0.007775  -0.028714   0.002466
     6  H    0.000267  -0.000022   0.000938   0.004895   0.002466  -0.023712
     7  C   -0.000154  -0.000057  -0.000010   0.001304  -0.000359  -0.000032
     8  H    0.000722   0.000606   0.000095  -0.004570   0.000846   0.000108
     9  H   -0.000011  -0.000009  -0.000000   0.000081  -0.000009  -0.000002
    10  H   -0.000170  -0.000105  -0.000032   0.001217  -0.000107  -0.000018
    11  O   -0.000427  -0.000134  -0.000041   0.010679  -0.001167  -0.000282
    12  O    0.004354   0.000771   0.000873  -0.085892   0.002414   0.002190
    13  H   -0.000127  -0.000356  -0.000466   0.058069   0.003595   0.001245
    14  C    0.024369  -0.002459  -0.002485  -0.016048   0.000125  -0.001438
    15  C   -0.002854   0.000564   0.000779   0.000800   0.000146  -0.000098
    16  H   -0.000858   0.000289   0.000195   0.002077   0.000162   0.000190
    17  H    0.000420  -0.000034  -0.000073  -0.000323  -0.000010  -0.000027
    18  H   -0.000292   0.000044   0.000309   0.000343   0.000015   0.000054
               7          8          9         10         11         12
     1  C   -0.000154   0.000722  -0.000011  -0.000170  -0.000427   0.004354
     2  H   -0.000057   0.000606  -0.000009  -0.000105  -0.000134   0.000771
     3  H   -0.000010   0.000095  -0.000000  -0.000032  -0.000041   0.000873
     4  C    0.001304  -0.004570   0.000081   0.001217   0.010679  -0.085892
     5  H   -0.000359   0.000846  -0.000009  -0.000107  -0.001167   0.002414
     6  H   -0.000032   0.000108  -0.000002  -0.000018  -0.000282   0.002190
     7  C   -0.004356   0.002519   0.000355  -0.002513   0.001438  -0.002992
     8  H    0.002519   0.003827  -0.000510  -0.001799  -0.001142   0.004134
     9  H    0.000355  -0.000510  -0.001803   0.000929   0.000075  -0.000178
    10  H   -0.002513  -0.001799   0.000929   0.004453  -0.000738  -0.000383
    11  O    0.001438  -0.001142   0.000075  -0.000738   0.045323  -0.039452
    12  O   -0.002992   0.004134  -0.000178  -0.000383  -0.039452   0.572615
    13  H    0.000995  -0.003310   0.000108   0.001389   0.009551  -0.049570
    14  C    0.000024  -0.000137  -0.000001   0.000009   0.000020  -0.000302
    15  C   -0.000000   0.000005  -0.000000  -0.000000  -0.000000   0.000006
    16  H   -0.000003   0.000027  -0.000000  -0.000001  -0.000004   0.000025
    17  H    0.000000  -0.000000   0.000000   0.000000   0.000000  -0.000000
    18  H   -0.000000   0.000001  -0.000000  -0.000000  -0.000000   0.000004
              13         14         15         16         17         18
     1  C   -0.000127   0.024369  -0.002854  -0.000858   0.000420  -0.000292
     2  H   -0.000356  -0.002459   0.000564   0.000289  -0.000034   0.000044
     3  H   -0.000466  -0.002485   0.000779   0.000195  -0.000073   0.000309
     4  C    0.058069  -0.016048   0.000800   0.002077  -0.000323   0.000343
     5  H    0.003595   0.000125   0.000146   0.000162  -0.000010   0.000015
     6  H    0.001245  -0.001438  -0.000098   0.000190  -0.000027   0.000054
     7  C    0.000995   0.000024  -0.000000  -0.000003   0.000000  -0.000000
     8  H   -0.003310  -0.000137   0.000005   0.000027  -0.000000   0.000001
     9  H    0.000108  -0.000001  -0.000000  -0.000000   0.000000  -0.000000
    10  H    0.001389   0.000009  -0.000000  -0.000001   0.000000  -0.000000
    11  O    0.009551   0.000020  -0.000000  -0.000004   0.000000  -0.000000
    12  O   -0.049570  -0.000302   0.000006   0.000025  -0.000000   0.000004
    13  H   -0.095747  -0.000155  -0.000037  -0.000056   0.000001  -0.000011
    14  C   -0.000155  -0.001571  -0.003516  -0.002691   0.000767  -0.000788
    15  C   -0.000037  -0.003516   0.050205   0.001316  -0.000896   0.000980
    16  H   -0.000056  -0.002691   0.001316   0.001247  -0.000340   0.000085
    17  H    0.000001   0.000767  -0.000896  -0.000340   0.000231  -0.000129
    18  H   -0.000011  -0.000788   0.000980   0.000085  -0.000129  -0.002182
 Mulliken charges and spin densities:
               1          2
     1  C   -0.150792  -0.032908
     2  H    0.109059   0.004147
     3  H    0.106747   0.004864
     4  C   -0.290698   0.653894
     5  H    0.122198  -0.013695
     6  H    0.128193  -0.013276
     7  C   -0.052884  -0.003839
     8  H    0.061633   0.001420
     9  H    0.099158  -0.000974
    10  H    0.084194   0.002129
    11  O   -0.187762   0.023699
    12  O   -0.222927   0.408618
    13  H    0.217157  -0.074880
    14  C   -0.101704  -0.006277
    15  C   -0.308878   0.047400
    16  H    0.133624   0.001660
    17  H    0.129151  -0.000412
    18  H    0.124532  -0.001568
 Sum of Mulliken charges =  -0.00000   1.00000
 Mulliken charges and spin densities with hydrogens summed into heavy atoms:
               1          2
     1  C    0.065014  -0.023897
     4  C   -0.040307   0.626923
     7  C    0.192100  -0.001264
    11  O   -0.187762   0.023699
    12  O   -0.005770   0.333737
    14  C    0.031920  -0.004617
    15  C   -0.055195   0.045420
 APT charges:
               1
     1  C   -0.055257
     2  H   -0.020156
     3  H   -0.015688
     4  C    0.471094
     5  H   -0.050777
     6  H   -0.040506
     7  C    0.431229
     8  H   -0.041633
     9  H   -0.007822
    10  H   -0.027752
    11  O   -0.486312
    12  O    0.239965
    13  H   -0.389865
    14  C    0.053090
    15  C   -0.124867
    16  H    0.005450
    17  H    0.027920
    18  H    0.031888
 Sum of APT charges =  -0.00000
 APT charges with hydrogens summed into heavy atoms:
               1
     1  C   -0.091100
     4  C    0.379810
     7  C    0.354022
    11  O   -0.486312
    12  O   -0.149901
    14  C    0.058540
    15  C   -0.065059
 Electronic spatial extent (au):  <R**2>=           1502.1077
 Charge=              0.0000 electrons
 Dipole moment (field-independent basis, Debye):
    X=             -1.5500    Y=              2.0223    Z=              0.2883  Tot=              2.5642
 Quadrupole moment (field-independent basis, Debye-Ang):
   XX=            -45.7899   YY=            -44.7409   ZZ=            -44.8943
   XY=              6.9491   XZ=             -0.6397   YZ=              0.9545
 Traceless Quadrupole moment (field-independent basis, Debye-Ang):
   XX=             -0.6482   YY=              0.4008   ZZ=              0.2474
   XY=              6.9491   XZ=             -0.6397   YZ=              0.9545
 Octapole moment (field-independent basis, Debye-Ang**2):
  XXX=             14.1209  YYY=             -3.0787  ZZZ=             -0.6504  XYY=              8.6125
  XXY=             14.3399  XXZ=             -2.0468  XZZ=              6.6598  YZZ=             -0.7930
  YYZ=              1.5852  XYZ=             -5.1632
 Hexadecapole moment (field-independent basis, Debye-Ang**3):
 XXXX=          -1607.2717 YYYY=           -184.5114 ZZZZ=           -116.8125 XXXY=             49.8258
 XXXZ=            -15.4670 YYYX=              2.2805 YYYZ=              1.3433 ZZZX=              0.2357
 ZZZY=              4.6719 XXYY=           -317.4351 XXZZ=           -302.1589 YYZZ=            -48.7968
 XXYZ=             20.0066 YYXZ=              0.0840 ZZXY=              1.5195
 N-N= 2.928042507924D+02 E-N=-1.396613438910D+03  KE= 3.452905637180D+02
  Exact polarizability: 137.183   7.860  63.349  -2.959   3.745  61.831
 Approx polarizability: 109.940   6.614  74.057   1.595   6.720  73.647
                          Isotropic Fermi Contact Couplings
        Atom                 a.u.       MegaHertz       Gauss      10(-4) cm-1
     1  C(13)             -0.01180     -13.26621      -4.73371      -4.42513
     2  H(1)               0.00228      10.17007       3.62893       3.39237
     3  H(1)               0.00290      12.96849       4.62748       4.32582
     4  C(13)              0.09344     105.04524      37.48276      35.03932
     5  H(1)              -0.00443     -19.81506      -7.07051      -6.60959
     6  H(1)              -0.00386     -17.23728      -6.15069      -5.74974
     7  C(13)             -0.00347      -3.90440      -1.39319      -1.30237
     8  H(1)               0.00216       9.66630       3.44918       3.22433
     9  H(1)              -0.00011      -0.48647      -0.17358      -0.16227
    10  H(1)               0.00051       2.26060       0.80664       0.75405
    11  O(17)              0.01404      -8.51323      -3.03773      -2.83971
    12  O(17)              0.04268     -25.86979      -9.23098      -8.62923
    13  H(1)              -0.02383    -106.50022     -38.00193     -35.52465
    14  C(13)              0.03741      42.05616      15.00668      14.02843
    15  C(13)              0.00085       0.95787       0.34179       0.31951
    16  H(1)              -0.00054      -2.43284      -0.86810      -0.81151
    17  H(1)               0.00050       2.24113       0.79969       0.74756
    18  H(1)              -0.00015      -0.64912      -0.23162      -0.21652
 --------------------------------------------------------
       Center         ----  Spin Dipole Couplings  ----
                      3XX-RR        3YY-RR        3ZZ-RR
 --------------------------------------------------------
     1   Atom        0.018274     -0.008711     -0.009563
     2   Atom       -0.003949      0.005560     -0.001611
     3   Atom        0.001688     -0.008122      0.006434
     4   Atom        0.448375     -0.337070     -0.111305
     5   Atom        0.002920     -0.020038      0.017119
     6   Atom       -0.007543      0.039687     -0.032144
     7   Atom        0.000264      0.006235     -0.006498
     8   Atom       -0.002144      0.007693     -0.005549
     9   Atom        0.000719      0.002390     -0.003108
    10   Atom       -0.000218      0.003071     -0.002853
    11   Atom        0.272207     -0.149358     -0.122850
    12   Atom        0.694403     -0.700761      0.006357
    13   Atom        0.171295     -0.114839     -0.056456
    14   Atom        0.044940     -0.020792     -0.024149
    15   Atom       -0.008138      0.013399     -0.005261
    16   Atom        0.002138      0.000308     -0.002446
    17   Atom        0.003436     -0.000864     -0.002571
    18   Atom        0.001054     -0.000563     -0.000491
 --------------------------------------------------------
                        XY            XZ            YZ
 --------------------------------------------------------
     1   Atom       -0.017565      0.005188     -0.005637
     2   Atom       -0.005426      0.001987     -0.008550
     3   Atom       -0.000978      0.008827     -0.001074
     4   Atom       -0.161537     -0.459788      0.092071
     5   Atom        0.011948      0.006934      0.040426
     6   Atom        0.014142     -0.023052     -0.011712
     7   Atom        0.005648      0.000653     -0.000862
     8   Atom        0.003183     -0.000975     -0.000008
     9   Atom        0.004351      0.000462      0.001130
    10   Atom        0.005340     -0.002552     -0.003641
    11   Atom       -0.107861     -0.232515      0.024147
    12   Atom       -0.549355     -1.184840      0.413685
    13   Atom       -0.045898     -0.137826      0.023654
    14   Atom       -0.018822     -0.012284      0.005716
    15   Atom        0.009354     -0.004112     -0.017545
    16   Atom       -0.005837     -0.001881      0.003548
    17   Atom       -0.001691     -0.000814     -0.000130
    18   Atom        0.000748      0.001912      0.001268
 --------------------------------------------------------


 ---------------------------------------------------------------------------------
              Anisotropic Spin Dipole Couplings in Principal Axis System
 ---------------------------------------------------------------------------------

       Atom             a.u.   MegaHertz   Gauss  10(-4) cm-1        Axes

              Baa    -0.0184    -2.464    -0.879    -0.822  0.3674  0.8663  0.3383
     1 C(13)  Bbb    -0.0099    -1.332    -0.475    -0.444 -0.3118 -0.2280  0.9224
              Bcc     0.0283     3.796     1.354     1.266  0.8762 -0.4444  0.1863
 
              Baa    -0.0080    -4.290    -1.531    -1.431  0.4773  0.5963  0.6455
     2 H(1)   Bbb    -0.0051    -2.704    -0.965    -0.902  0.8206 -0.0397 -0.5701
              Bcc     0.0131     6.993     2.495     2.333 -0.3143  0.8018 -0.5083
 
              Baa    -0.0082    -4.388    -1.566    -1.464  0.0717  0.9970  0.0299
     3 H(1)   Bbb    -0.0051    -2.707    -0.966    -0.903  0.7912 -0.0386 -0.6104
              Bcc     0.0133     7.095     2.532     2.367  0.6074 -0.0674  0.7915
 
              Baa    -0.3706   -49.730   -17.745   -16.588  0.2920 -0.6118  0.7351
     4 C(13)  Bbb    -0.3683   -49.426   -17.636   -16.487  0.4206  0.7724  0.4758
              Bcc     0.7389    99.155    35.381    33.075  0.8589 -0.1703 -0.4829
 
              Baa    -0.0468   -24.961    -8.907    -8.326 -0.1304  0.8442 -0.5199
     5 H(1)   Bbb     0.0003     0.136     0.049     0.045  0.9530 -0.0380 -0.3007
              Bcc     0.0465    24.825     8.858     8.281  0.2736  0.5347  0.7995
 
              Baa    -0.0461   -24.580    -8.771    -8.199  0.5037  0.0348  0.8632
     6 H(1)   Bbb    -0.0017    -0.882    -0.315    -0.294  0.7983 -0.4005 -0.4497
              Bcc     0.0477    25.462     9.085     8.493  0.3301  0.9156 -0.2295
 
              Baa    -0.0068    -0.910    -0.325    -0.304 -0.2153  0.1572  0.9638
     7 C(13)  Bbb    -0.0029    -0.384    -0.137    -0.128  0.8302 -0.4903  0.2654
              Bcc     0.0096     1.295     0.462     0.432  0.5142  0.8573 -0.0250
 
              Baa    -0.0059    -3.130    -1.117    -1.044  0.3100 -0.0722  0.9480
     8 H(1)   Bbb    -0.0028    -1.479    -0.528    -0.493  0.9071 -0.2761 -0.3177
              Bcc     0.0086     4.609     1.645     1.538  0.2847  0.9584 -0.0201
 
              Baa    -0.0035    -1.853    -0.661    -0.618  0.3322 -0.4103  0.8493
     9 H(1)   Bbb    -0.0027    -1.418    -0.506    -0.473  0.7037 -0.4917 -0.5128
              Bcc     0.0061     3.272     1.167     1.091  0.6280  0.7680  0.1253
 
              Baa    -0.0046    -2.446    -0.873    -0.816  0.0176  0.4194  0.9076
    10 H(1)   Bbb    -0.0041    -2.207    -0.787    -0.736  0.8336 -0.5073  0.2183
              Bcc     0.0087     4.653     1.660     1.552  0.5520  0.7528 -0.3585
 
              Baa    -0.2382    17.237     6.151     5.750  0.4478  0.3163  0.8363
    11 O(17)  Bbb    -0.1628    11.779     4.203     3.929  0.0331  0.9288 -0.3690
              Bcc     0.4010   -29.017   -10.354    -9.679  0.8935 -0.1929 -0.4055
 
              Baa    -0.8919    64.535    23.028    21.526  0.1504  0.9583 -0.2429
    12 O(17)  Bbb    -0.8833    63.915    22.806    21.320  0.6195  0.1001  0.7786
              Bcc     1.7752  -128.450   -45.834   -42.846  0.7704 -0.2676 -0.5787
 
              Baa    -0.1237   -65.999   -23.550   -22.015 -0.1616  0.7793 -0.6054
    13 H(1)   Bbb    -0.1199   -63.992   -22.834   -21.345  0.4154  0.6102  0.6746
              Bcc     0.2436   129.990    46.384    43.360  0.8952 -0.1425 -0.4224
 
              Baa    -0.0285    -3.824    -1.364    -1.275 -0.0457 -0.6650  0.7454
    14 C(13)  Bbb    -0.0238    -3.192    -1.139    -1.065  0.3070  0.7007  0.6440
              Bcc     0.0523     7.015     2.503     2.340  0.9506 -0.2583 -0.1721
 
              Baa    -0.0161    -2.162    -0.771    -0.721 -0.2321  0.5504  0.8020
    15 C(13)  Bbb    -0.0108    -1.445    -0.515    -0.482  0.9320 -0.1101  0.3453
              Bcc     0.0269     3.607     1.287     1.203  0.2783  0.8276 -0.4874
 
              Baa    -0.0057    -3.037    -1.084    -1.013  0.4065  0.7246 -0.5566
    16 H(1)   Bbb    -0.0027    -1.463    -0.522    -0.488  0.5954  0.2520  0.7629
              Bcc     0.0084     4.500     1.606     1.501  0.6930 -0.6415 -0.3290
 
              Baa    -0.0028    -1.475    -0.526    -0.492  0.1889  0.2334  0.9539
    17 H(1)   Bbb    -0.0013    -0.713    -0.254    -0.238  0.2779  0.9189 -0.2798
              Bcc     0.0041     2.188     0.781     0.730  0.9419 -0.3179 -0.1087
 
              Baa    -0.0021    -1.133    -0.404    -0.378 -0.3700 -0.4725  0.7999
    18 H(1)   Bbb    -0.0007    -0.398    -0.142    -0.133 -0.5596  0.8006  0.2141
              Bcc     0.0029     1.532     0.547     0.511  0.7416  0.3684  0.5606
 

 ---------------------------------------------------------------------------------

 Calling FoFJK, ICntrl=  10100127 FMM=F ISym2X=0 I1Cent= 0 IOpClX= 1 NMat=1 NMatS=1 NMatT=0.
 -------------------------------------------------------------------
 Center     Atomic                   Forces (Hartrees/Bohr)
 Number     Number              X              Y              Z
 -------------------------------------------------------------------
      1        6          -0.000001338    0.000001485    0.000000754
      2        1          -0.000000318   -0.000000406   -0.000001129
      3        1           0.000000099   -0.000001299    0.000000808
      4        6          -0.000006441    0.000001455    0.000001545
      5        1          -0.000001925   -0.000000823    0.000000331
      6        1          -0.000001194    0.000000769    0.000001265
      7        6           0.000000309    0.000000172   -0.000000010
      8        1          -0.000000210    0.000000097   -0.000000045
      9        1          -0.000000111   -0.000000113   -0.000000071
     10        1           0.000000057    0.000000398   -0.000000362
     11        8           0.000002509    0.000001044    0.000001701
     12        8           0.000004466   -0.000001125   -0.000004716
     13        1           0.000003874   -0.000001202   -0.000000845
     14        6          -0.000000103    0.000000325    0.000000077
     15        6           0.000000498    0.000001289   -0.000000654
     16        1           0.000000299   -0.000001682    0.000001439
     17        1          -0.000000391   -0.000000362    0.000000452
     18        1          -0.000000080   -0.000000023   -0.000000540
 -------------------------------------------------------------------
 Cartesian Forces:  Max     0.000006441 RMS     0.000001623
 FormGI is forming the generalized inverse of G from B-inverse, IUseBI=4.

 GradGradGradGradGradGradGradGradGradGradGradGradGradGradGradGradGradGrad
 Berny optimization.
 Internal  Forces:  Max     0.000011723 RMS     0.000001875
 Search for a saddle point.
 Step number   1 out of a maximum of  108 on scan point     1 out of    37
 All quantities printed in internal units (Hartrees-Bohrs-Radians)
 Swapping is turned off.
 Second derivative matrix not updated -- analytic derivatives used.
 ITU=  0
     Eigenvalues ---   -0.07432   0.00169   0.00252   0.00642   0.01512
     Eigenvalues ---    0.01894   0.02065   0.02722   0.03144   0.03189
     Eigenvalues ---    0.03434   0.03965   0.04172   0.04233   0.06646
     Eigenvalues ---    0.07642   0.08498   0.08540   0.09910   0.10590
     Eigenvalues ---    0.11196   0.11398   0.12744   0.12956   0.14138
     Eigenvalues ---    0.15160   0.15877   0.16643   0.17483   0.17943
     Eigenvalues ---    0.18527   0.25590   0.28840   0.31045   0.31924
     Eigenvalues ---    0.33334   0.33469   0.34354   0.34458   0.34802
     Eigenvalues ---    0.35177   0.35381   0.35544   0.36042   0.36454
     Eigenvalues ---    0.40583   0.621401000.000001000.000001000.00000
     Eigenvalues --- 1000.000001000.000001000.000001000.000001000.00000
     Eigenvalues --- 1000.000001000.000001000.000001000.000001000.00000
     Eigenvalues --- 1000.000001000.000001000.000001000.000001000.00000
     Eigenvalues --- 1000.000001000.000001000.000001000.00000
 Eigenvectors required to have negative eigenvalues:
                          R7        R13       R12       A20       D1
   1                    0.69092  -0.65988   0.15460  -0.09585  -0.08018
                          D5        D7        A11       D8        D4
   1                    0.07728  -0.07510  -0.06758   0.06748  -0.06530
 RFO step:  Lambda0=9.070616480D-11 Lambda= 0.00000000D+00.
 Linear search not attempted -- option 19 set.
 Iteration  1 RMS(Cart)=  0.00024580 RMS(Int)=  0.00000003
 Iteration  2 RMS(Cart)=  0.00000004 RMS(Int)=  0.00000000
 Iteration  1 RMS(Cart)=  0.00000000 RMS(Int)=  0.00000000
 Variable       Old X    -DE/DX   Delta X   Delta X   Delta X     New X
                                 (Linear)    (Quad)   (Total)
    R1        2.06310  -0.00000   0.00000   0.00000   0.00000   2.06311
    R2        2.05988   0.00000   0.00000   0.00000   0.00000   2.05988
    R3        2.85014   0.00000   0.00000  -0.00000  -0.00000   2.85014
    R4        2.84332  -0.00000   0.00000  -0.00000  -0.00000   2.84332
    R5        2.05376  -0.00000   0.00000   0.00000   0.00000   2.05376
    R6        2.05129  -0.00000   0.00000   0.00000   0.00000   2.05129
    R7        2.57982   0.00001   0.00000   0.00005   0.00005   2.57987
    R8        2.06292   0.00000   0.00000  -0.00000  -0.00000   2.06292
    R9        2.05614  -0.00000   0.00000  -0.00000  -0.00000   2.05614
   R10        2.05728   0.00000   0.00000   0.00000   0.00000   2.05729
   R11        2.68237   0.00000   0.00000   0.00000   0.00000   2.68237
   R12        2.66254   0.00000   0.00000  -0.00000  -0.00000   2.66254
   R13        2.19062   0.00001   0.00000   0.00006   0.00006   2.19068
   R14        2.51261  -0.00000   0.00000  -0.00000  -0.00000   2.51260
   R15        2.04922   0.00000   0.00000   0.00000   0.00000   2.04922
   R16        2.04107   0.00000   0.00000   0.00000   0.00000   2.04107
   R17        2.04445   0.00000   0.00000   0.00000   0.00000   2.04445
    A1        1.87365  -0.00000   0.00000  -0.00000  -0.00000   1.87365
    A2        1.91398   0.00000   0.00000   0.00000   0.00000   1.91398
    A3        1.91331   0.00000   0.00000  -0.00000  -0.00000   1.91330
    A4        1.92345  -0.00000   0.00000  -0.00000  -0.00000   1.92345
    A5        1.90930   0.00000   0.00000  -0.00000  -0.00000   1.90929
    A6        1.92932  -0.00000   0.00000   0.00001   0.00001   1.92933
    A7        2.02899  -0.00000   0.00000  -0.00002  -0.00002   2.02897
    A8        2.01539  -0.00000   0.00000  -0.00000  -0.00000   2.01538
    A9        1.87171   0.00000   0.00000   0.00003   0.00003   1.87174
   A10        1.97037  -0.00000   0.00000  -0.00003  -0.00003   1.97035
   A11        1.75226   0.00000   0.00000   0.00001   0.00001   1.75227
   A12        1.78164   0.00000   0.00000   0.00003   0.00003   1.78167
   A13        1.91596   0.00000   0.00000   0.00000   0.00000   1.91597
   A14        1.91623  -0.00000   0.00000   0.00000   0.00000   1.91623
   A15        1.93617   0.00000   0.00000  -0.00000  -0.00000   1.93617
   A16        1.92451  -0.00000   0.00000   0.00000   0.00000   1.92451
   A17        1.83722  -0.00000   0.00000  -0.00000  -0.00000   1.83722
   A18        1.93253   0.00000   0.00000   0.00000   0.00000   1.93253
   A19        1.88056  -0.00000   0.00000  -0.00000  -0.00000   1.88055
   A20        1.82325   0.00000   0.00000   0.00002   0.00002   1.82327
   A21        2.17327  -0.00000   0.00000   0.00001   0.00001   2.17328
   A22        2.02582  -0.00000   0.00000  -0.00001  -0.00001   2.02581
   A23        2.08379   0.00000   0.00000  -0.00000  -0.00000   2.08379
   A24        2.12040   0.00000   0.00000  -0.00000  -0.00000   2.12040
   A25        2.11736  -0.00000   0.00000   0.00000   0.00000   2.11736
   A26        2.04541  -0.00000   0.00000  -0.00000  -0.00000   2.04541
   A27        3.10282   0.00000   0.00000  -0.00001  -0.00001   3.10281
   A28        3.16544   0.00000   0.00000   0.00004   0.00004   3.16549
    D1        0.91769   0.00000   0.00000   0.00013   0.00013   0.91782
    D2       -2.99745  -0.00000   0.00000   0.00006   0.00006  -2.99739
    D3       -1.02540   0.00000   0.00000   0.00011   0.00011  -1.02529
    D4        2.97663   0.00000   0.00000   0.00013   0.00013   2.97676
    D5       -0.93850  -0.00000   0.00000   0.00005   0.00005  -0.93845
    D6        1.03354   0.00000   0.00000   0.00010   0.00010   1.03365
    D7       -1.19383   0.00000   0.00000   0.00013   0.00013  -1.19371
    D8        1.17421  -0.00000   0.00000   0.00006   0.00006   1.17427
    D9       -3.13692   0.00000   0.00000   0.00011   0.00011  -3.13682
   D10        2.18632  -0.00000   0.00000  -0.00048  -0.00048   2.18584
   D11       -0.98213  -0.00000   0.00000  -0.00046  -0.00046  -0.98259
   D12        0.13616  -0.00000   0.00000  -0.00047  -0.00047   0.13568
   D13       -3.03230  -0.00000   0.00000  -0.00045  -0.00045  -3.03275
   D14       -1.98494  -0.00000   0.00000  -0.00048  -0.00048  -1.98542
   D15        1.12979  -0.00000   0.00000  -0.00046  -0.00046   1.12933
   D16        2.08642  -0.00000   0.00000   0.00000   0.00000   2.08642
   D17        1.15247  -0.00000   0.00000  -0.00001  -0.00001   1.15246
   D18       -3.05936  -0.00000   0.00000  -0.00001  -0.00001  -3.05936
   D19       -0.97973  -0.00000   0.00000  -0.00001  -0.00001  -0.97974
   D20       -1.60486  -0.00000   0.00000  -0.00005  -0.00005  -1.60491
   D21        3.12678  -0.00000   0.00000   0.00003   0.00003   3.12680
   D22       -0.02101  -0.00000   0.00000   0.00003   0.00003  -0.02098
   D23        0.01288  -0.00000   0.00000   0.00001   0.00001   0.01288
   D24       -3.13491  -0.00000   0.00000   0.00001   0.00001  -3.13490
         Item               Value     Threshold  Converged?
 Maximum Force            0.000012     0.000450     YES
 RMS     Force            0.000002     0.000300     YES
 Maximum Displacement     0.000878     0.001800     YES
 RMS     Displacement     0.000246     0.001200     YES
 Predicted change in Energy=-2.530063D-09
 Optimization completed.
    -- Stationary point found.
                           ----------------------------
                           !   Optimized Parameters   !
                           ! (Angstroms and Degrees)  !
 --------------------------                            --------------------------
 ! Name  Definition              Value          Derivative Info.                !
 --------------------------------------------------------------------------------
 ! R1    R(1,2)                  1.0917         -DE/DX =    0.0                 !
 ! R2    R(1,3)                  1.09           -DE/DX =    0.0                 !
 ! R3    R(1,4)                  1.5082         -DE/DX =    0.0                 !
 ! R4    R(1,14)                 1.5046         -DE/DX =    0.0                 !
 ! R5    R(4,5)                  1.0868         -DE/DX =    0.0                 !
 ! R6    R(4,6)                  1.0855         -DE/DX =    0.0                 !
 ! R7    R(4,13)                 1.3652         -DE/DX =    0.0                 !
 ! R8    R(7,8)                  1.0917         -DE/DX =    0.0                 !
 ! R9    R(7,9)                  1.0881         -DE/DX =    0.0                 !
 ! R10   R(7,10)                 1.0887         -DE/DX =    0.0                 !
 ! R11   R(7,11)                 1.4195         -DE/DX =    0.0                 !
 ! R12   R(11,12)                1.409          -DE/DX =    0.0                 !
 ! R13   R(12,13)                1.1592         -DE/DX =    0.0                 !
 ! R14   R(14,15)                1.3296         -DE/DX =    0.0                 !
 ! R15   R(14,16)                1.0844         -DE/DX =    0.0                 !
 ! R16   R(15,17)                1.0801         -DE/DX =    0.0                 !
 ! R17   R(15,18)                1.0819         -DE/DX =    0.0                 !
 ! A1    A(2,1,3)              107.3525         -DE/DX =    0.0                 !
 ! A2    A(2,1,4)              109.6628         -DE/DX =    0.0                 !
 ! A3    A(2,1,14)             109.6243         -DE/DX =    0.0                 !
 ! A4    A(3,1,4)              110.2054         -DE/DX =    0.0                 !
 ! A5    A(3,1,14)             109.3946         -DE/DX =    0.0                 !
 ! A6    A(4,1,14)             110.5418         -DE/DX =    0.0                 !
 ! A7    A(1,4,5)              116.2525         -DE/DX =    0.0                 !
 ! A8    A(1,4,6)              115.4731         -DE/DX =    0.0                 !
 ! A9    A(1,4,13)             107.2412         -DE/DX =    0.0                 !
 ! A10   A(5,4,6)              112.894          -DE/DX =    0.0                 !
 ! A11   A(5,4,13)             100.3972         -DE/DX =    0.0                 !
 ! A12   A(6,4,13)             102.0803         -DE/DX =    0.0                 !
 ! A13   A(8,7,9)              109.7767         -DE/DX =    0.0                 !
 ! A14   A(8,7,10)             109.7921         -DE/DX =    0.0                 !
 ! A15   A(8,7,11)             110.9345         -DE/DX =    0.0                 !
 ! A16   A(9,7,10)             110.2662         -DE/DX =    0.0                 !
 ! A17   A(9,7,11)             105.2648         -DE/DX =    0.0                 !
 ! A18   A(10,7,11)            110.7257         -DE/DX =    0.0                 !
 ! A19   A(7,11,12)            107.7479         -DE/DX =    0.0                 !
 ! A20   A(11,12,13)           104.4643         -DE/DX =    0.0                 !
 ! A21   A(1,14,15)            124.5193         -DE/DX =    0.0                 !
 ! A22   A(1,14,16)            116.0708         -DE/DX =    0.0                 !
 ! A23   A(15,14,16)           119.3923         -DE/DX =    0.0                 !
 ! A24   A(14,15,17)           121.49           -DE/DX =    0.0                 !
 ! A25   A(14,15,18)           121.3159         -DE/DX =    0.0                 !
 ! A26   A(17,15,18)           117.1933         -DE/DX =    0.0                 !
 ! A27   L(4,13,12,8,-1)       177.7782         -DE/DX =    0.0                 !
 ! A28   L(4,13,12,8,-2)       181.3665         -DE/DX =    0.0                 !
 ! D1    D(2,1,4,5)             52.5796         -DE/DX =    0.0                 !
 ! D2    D(2,1,4,6)           -171.7413         -DE/DX =    0.0                 !
 ! D3    D(2,1,4,13)           -58.7513         -DE/DX =    0.0                 !
 ! D4    D(3,1,4,5)            170.5485         -DE/DX =    0.0                 !
 ! D5    D(3,1,4,6)            -53.7724         -DE/DX =    0.0                 !
 ! D6    D(3,1,4,13)            59.2176         -DE/DX =    0.0                 !
 ! D7    D(14,1,4,5)           -68.4017         -DE/DX =    0.0                 !
 ! D8    D(14,1,4,6)            67.2774         -DE/DX =    0.0                 !
 ! D9    D(14,1,4,13)         -179.7326         -DE/DX =    0.0                 !
 ! D10   D(2,1,14,15)          125.267          -DE/DX =    0.0                 !
 ! D11   D(2,1,14,16)          -56.2721         -DE/DX =    0.0                 !
 ! D12   D(3,1,14,15)            7.8012         -DE/DX =    0.0                 !
 ! D13   D(3,1,14,16)         -173.7378         -DE/DX =    0.0                 !
 ! D14   D(4,1,14,15)         -113.7289         -DE/DX =    0.0                 !
 ! D15   D(4,1,14,16)           64.7321         -DE/DX =    0.0                 !
 ! D16   D(1,4,12,11)          119.5433         -DE/DX =    0.0                 !
 ! D17   D(8,7,11,12)           66.0318         -DE/DX =    0.0                 !
 ! D18   D(9,7,11,12)         -175.2881         -DE/DX =    0.0                 !
 ! D19   D(10,7,11,12)         -56.1342         -DE/DX =    0.0                 !
 ! D20   D(7,11,12,13)         -91.9519         -DE/DX =    0.0                 !
 ! D21   D(1,14,15,17)         179.1511         -DE/DX =    0.0                 !
 ! D22   D(1,14,15,18)          -1.2038         -DE/DX =    0.0                 !
 ! D23   D(16,14,15,17)          0.7379         -DE/DX =    0.0                 !
 ! D24   D(16,14,15,18)       -179.617          -DE/DX =    0.0                 !
 --------------------------------------------------------------------------------
 Iteration  1 RMS(Cart)=  0.11417877 RMS(Int)=  0.00352721
 Iteration  2 RMS(Cart)=  0.00623275 RMS(Int)=  0.00000763
 Iteration  3 RMS(Cart)=  0.00002584 RMS(Int)=  0.00000000
 Iteration  4 RMS(Cart)=  0.00000000 RMS(Int)=  0.00000000
 Iteration  1 RMS(Cart)=  0.00000000 RMS(Int)=  0.00000000
 GradGradGradGradGradGradGradGradGradGradGradGradGradGradGradGradGradGrad

                          Input orientation:                          
 ---------------------------------------------------------------------
 Center     Atomic      Atomic             Coordinates (Angstroms)
 Number     Number       Type             X           Y           Z
 ---------------------------------------------------------------------
      1          6           0       -1.330974    0.178411   -0.416698
      2          1           0       -0.867079    1.094816   -0.786724
      3          1           0       -1.476658   -0.480726   -1.272564
      4          6           0       -0.425081   -0.475723    0.596329
      5          1           0       -0.084712    0.153878    1.414188
      6          1           0       -0.728078   -1.465483    0.923241
      7          6           0        2.939533    0.997077   -0.065957
      8          1           0        2.040833    1.589101    0.117206
      9          1           0        3.747834    1.347723    0.572458
     10          1           0        3.225358    1.075330   -1.113515
     11          8           0        2.736423   -0.359444    0.299341
     12          8           0        1.770892   -0.899280   -0.573287
     13          1           0        0.761758   -0.731828   -0.027864
     14          6           0       -2.665639    0.500530    0.198755
     15          6           0       -3.814317   -0.070201   -0.151495
     16          1           0       -2.657685    1.234585    0.996891
     17          1           0       -4.744017    0.189094    0.333284
     18          1           0       -3.857139   -0.810669   -0.939104
 ---------------------------------------------------------------------
                    Distance matrix (angstroms):
                    1          2          3          4          5
     1  C    0.000000
     2  H    1.091748   0.000000
     3  H    1.090042   1.757829   0.000000
     4  C    1.508230   2.138876   2.144435   0.000000
     5  H    2.214929   2.518228   3.091742   1.086803   0.000000
     6  H    2.204838   3.081952   2.520254   1.085496   1.810325
     7  C    4.362391   3.875481   4.810670   3.732076   3.471004
     8  H    3.693803   3.085022   4.311426   3.251737   2.874016
     9  H    5.304716   4.817547   5.834608   4.553982   4.101486
    10  H    4.695762   4.105511   4.955358   4.319148   4.265551
    11  O    4.164820   4.034803   4.498406   3.177552   3.076555
    12  O    3.287478   3.313739   3.348247   2.523827   2.915899
    13  H    2.315006   2.562344   2.573488   1.365209   1.892220
    14  C    1.504618   2.135219   2.131037   2.476133   2.873783
    15  C    2.509808   3.232181   2.624876   3.494368   4.051114
    16  H    2.207692   2.531222   3.080186   2.840797   2.821747
    17  H    3.494488   4.135867   3.701762   4.377714   4.783169
    18  H    2.762734   3.548881   2.426262   3.774754   4.549674
                    6          7          8          9         10
     6  H    0.000000
     7  C    4.527038   0.000000
     8  H    4.200838   1.091651   0.000000
     9  H    5.298204   1.088061   1.783079   0.000000
    10  H    5.121890   1.088668   1.783742   1.785969   0.000000
    11  O    3.689897   1.419452   2.076980   2.002988   2.072147
[...]
    11  O   -0.000427  -0.000135  -0.000041   0.010681  -0.001169  -0.000282
    12  O    0.004354   0.000775   0.000869  -0.085882   0.002413   0.002191
    13  H   -0.000123  -0.000358  -0.000465   0.058075   0.003602   0.001242
    14  C    0.024372  -0.002468  -0.002475  -0.016045   0.000129  -0.001439
    15  C   -0.002859   0.000567   0.000776   0.000802   0.000145  -0.000097
    16  H   -0.000854   0.000290   0.000194   0.002075   0.000162   0.000190
    17  H    0.000421  -0.000034  -0.000073  -0.000323  -0.000010  -0.000027
    18  H   -0.000292   0.000044   0.000308   0.000343   0.000015   0.000054
               7          8          9         10         11         12
     1  C   -0.000154   0.000722  -0.000011  -0.000170  -0.000427   0.004354
     2  H   -0.000058   0.000609  -0.000009  -0.000105  -0.000135   0.000775
     3  H   -0.000010   0.000094  -0.000000  -0.000032  -0.000041   0.000869
     4  C    0.001308  -0.004570   0.000081   0.001215   0.010681  -0.085882
     5  H   -0.000360   0.000847  -0.000009  -0.000107  -0.001169   0.002413
     6  H   -0.000032   0.000108  -0.000002  -0.000018  -0.000282   0.002191
     7  C   -0.004360   0.002515   0.000355  -0.002511   0.001446  -0.002998
     8  H    0.002515   0.003835  -0.000510  -0.001802  -0.001143   0.004135
     9  H    0.000355  -0.000510  -0.001805   0.000929   0.000076  -0.000178
    10  H   -0.002511  -0.001802   0.000929   0.004456  -0.000740  -0.000380
    11  O    0.001446  -0.001143   0.000076  -0.000740   0.045311  -0.039455
    12  O   -0.002998   0.004135  -0.000178  -0.000380  -0.039455   0.572721
    13  H    0.000997  -0.003311   0.000108   0.001388   0.009553  -0.049584
    14  C    0.000024  -0.000137  -0.000001   0.000009   0.000020  -0.000302
    15  C   -0.000000   0.000005  -0.000000  -0.000000  -0.000000   0.000006
    16  H   -0.000003   0.000027  -0.000000  -0.000001  -0.000004   0.000026
    17  H    0.000000  -0.000000   0.000000   0.000000   0.000000  -0.000000
    18  H   -0.000000   0.000001  -0.000000  -0.000000  -0.000000   0.000004
              13         14         15         16         17         18
     1  C   -0.000123   0.024372  -0.002859  -0.000854   0.000421  -0.000292
     2  H   -0.000358  -0.002468   0.000567   0.000290  -0.000034   0.000044
     3  H   -0.000465  -0.002475   0.000776   0.000194  -0.000073   0.000308
     4  C    0.058075  -0.016045   0.000802   0.002075  -0.000323   0.000343
     5  H    0.003602   0.000129   0.000145   0.000162  -0.000010   0.000015
     6  H    0.001242  -0.001439  -0.000097   0.000190  -0.000027   0.000054
     7  C    0.000997   0.000024  -0.000000  -0.000003   0.000000  -0.000000
     8  H   -0.003311  -0.000137   0.000005   0.000027  -0.000000   0.000001
     9  H    0.000108  -0.000001  -0.000000  -0.000000   0.000000  -0.000000
    10  H    0.001388   0.000009  -0.000000  -0.000001   0.000000  -0.000000
    11  O    0.009553   0.000020  -0.000000  -0.000004   0.000000  -0.000000
    12  O   -0.049584  -0.000302   0.000006   0.000026  -0.000000   0.000004
    13  H   -0.095757  -0.000157  -0.000037  -0.000056   0.000001  -0.000011
    14  C   -0.000157  -0.001545  -0.003511  -0.002688   0.000766  -0.000788
    15  C   -0.000037  -0.003511   0.050148   0.001314  -0.000897   0.000980
    16  H   -0.000056  -0.002688   0.001314   0.001243  -0.000340   0.000085
    17  H    0.000001   0.000766  -0.000897  -0.000340   0.000237  -0.000130
    18  H   -0.000011  -0.000788   0.000980   0.000085  -0.000130  -0.002179
 Mulliken charges and spin densities:
               1          2
     1  C   -0.150776  -0.032907
     2  H    0.109078   0.004174
     3  H    0.106731   0.004837
     4  C   -0.290706   0.653817
     5  H    0.122204  -0.013695
     6  H    0.128190  -0.013270
     7  C   -0.052886  -0.003841
     8  H    0.061638   0.001423
     9  H    0.099153  -0.000976
    10  H    0.084210   0.002131
    11  O   -0.187769   0.023690
    12  O   -0.222916   0.408715
    13  H    0.217141  -0.074890
    14  C   -0.101713  -0.006234
    15  C   -0.308869   0.047344
    16  H    0.133617   0.001657
    17  H    0.129148  -0.000408
    18  H    0.124524  -0.001566
 Sum of Mulliken charges =  -0.00000   1.00000
 Mulliken charges and spin densities with hydrogens summed into heavy atoms:
               1          2
     1  C    0.065034  -0.023896
     4  C   -0.040312   0.626852
     7  C    0.192115  -0.001263
    11  O   -0.187769   0.023690
    12  O   -0.005775   0.333825
    14  C    0.031904  -0.004577
    15  C   -0.055197   0.045369
 Electronic spatial extent (au):  <R**2>=           1528.7742
 Charge=             -0.0000 electrons
 Dipole moment (field-independent basis, Debye):
    X=             -1.4813    Y=             -1.5741    Z=             -1.3787  Tot=              2.5637
 Quadrupole moment (field-independent basis, Debye-Ang):
   XX=            -44.8436   YY=            -48.7751   ZZ=            -43.0965
   XY=             -5.8073   XZ=             -4.0787   YZ=             -0.4684
 Traceless Quadrupole moment (field-independent basis, Debye-Ang):
   XX=              0.7281   YY=             -3.2034   ZZ=              2.4752
   XY=             -5.8073   XZ=             -4.0787   YZ=             -0.4684
 Octapole moment (field-independent basis, Debye-Ang**2):
  XXX=             19.2908  YYY=            -40.8930  ZZZ=            -12.0793  XYY=              4.2133
  XXY=            -28.0689  XXZ=            -13.1519  XZZ=              4.4344  YZZ=            -14.4493
  YYZ=             -4.0446  XYZ=             -1.5058
 Hexadecapole moment (field-independent basis, Debye-Ang**3):
 XXXX=          -1525.5794 YYYY=           -233.1845 ZZZZ=           -162.8654 XXXY=           -142.0175
 XXXZ=             72.3029 YYYX=           -142.5831 YYYZ=              0.3769 ZZZX=             89.2283
 ZZZY=             -6.4263 XXYY=           -348.5108 XXZZ=           -279.0429 YYZZ=            -68.2646
 XXYZ=             -5.8641 YYXZ=             35.1315 ZZXY=            -39.7609
 N-N= 2.928072646565D+02 E-N=-1.396619306742D+03  KE= 3.452905104037D+02
                          Isotropic Fermi Contact Couplings
        Atom                 a.u.       MegaHertz       Gauss      10(-4) cm-1
     1  C(13)             -0.01180     -13.26481      -4.73322      -4.42467
     2  H(1)               0.00229      10.22257       3.64767       3.40988
     3  H(1)               0.00289      12.91013       4.60666       4.30636
     4  C(13)              0.09343     105.03470      37.47899      35.03581
     5  H(1)              -0.00443     -19.81415      -7.07018      -6.60929
     6  H(1)              -0.00385     -17.22980      -6.14802      -5.74724
     7  C(13)             -0.00347      -3.90421      -1.39312      -1.30231
     8  H(1)               0.00216       9.66077       3.44720       3.22249
     9  H(1)              -0.00011      -0.49126      -0.17530      -0.16387
    10  H(1)               0.00051       2.26375       0.80776       0.75511
    11  O(17)              0.01404      -8.51360      -3.03787      -2.83983
    12  O(17)              0.04267     -25.86383      -9.22886      -8.62724
    13  H(1)              -0.02383    -106.49703     -38.00079     -35.52358
    14  C(13)              0.03741      42.05544      15.00643      14.02819
    15  C(13)              0.00086       0.96433       0.34410       0.32166
    16  H(1)              -0.00054      -2.43271      -0.86805      -0.81147
    17  H(1)               0.00050       2.24513       0.80112       0.74889
    18  H(1)              -0.00014      -0.64802      -0.23123      -0.21616
 --------------------------------------------------------
       Center         ----  Spin Dipole Couplings  ----
                      3XX-RR        3YY-RR        3ZZ-RR
 --------------------------------------------------------
     1   Atom        0.013409      0.002867     -0.016276
     2   Atom       -0.004965      0.012303     -0.007338
     3   Atom       -0.001787      0.001645      0.000142
     4   Atom        0.593386     -0.368746     -0.224640
     5   Atom        0.000963     -0.043944      0.042981
     6   Atom        0.002391      0.010124     -0.012515
     7   Atom        0.000229      0.000166     -0.000395
     8   Atom       -0.001592      0.000736      0.000855
     9   Atom        0.000731     -0.002101      0.001369
    10   Atom        0.001265      0.002000     -0.003265
    11   Atom        0.338997     -0.173612     -0.165384
    12   Atom        1.089516     -0.883956     -0.205560
    13   Atom        0.212497     -0.123602     -0.088895
    14   Atom        0.044945     -0.023654     -0.021291
    15   Atom       -0.005063      0.018309     -0.013246
    16   Atom        0.002095     -0.003145      0.001050
    17   Atom        0.003342     -0.001083     -0.002259
    18   Atom        0.000249     -0.001460      0.001211
 --------------------------------------------------------
                        XY            XZ            YZ
 --------------------------------------------------------
     1   Atom        0.019309      0.004092     -0.001361
     2   Atom        0.002841      0.001379      0.002485
     3   Atom        0.005490     -0.004499     -0.009040
     4   Atom       -0.041007      0.371793     -0.015408
     5   Atom        0.001942     -0.005491     -0.015892
     6   Atom       -0.024343     -0.000026      0.038416
     7   Atom       -0.003075     -0.005505      0.005815
     8   Atom       -0.002723     -0.002266      0.006628
     9   Atom       -0.002149     -0.003717      0.002555
    10   Atom       -0.005760     -0.002689      0.002923
    11   Atom        0.009910      0.186255      0.031796
    12   Atom       -0.102774      1.159383     -0.064835
    13   Atom       -0.004986      0.101588     -0.001766
    14   Atom        0.018767      0.013120      0.003805
    15   Atom       -0.013519     -0.005495      0.008193
    16   Atom        0.004371      0.004902      0.002168
    17   Atom        0.001657      0.000890      0.000920
    18   Atom        0.001114     -0.001859     -0.000360
 --------------------------------------------------------


 ---------------------------------------------------------------------------------
              Anisotropic Spin Dipole Couplings in Principal Axis System
 ---------------------------------------------------------------------------------

       Atom             a.u.   MegaHertz   Gauss  10(-4) cm-1        Axes

              Baa    -0.0184    -2.464    -0.879    -0.822 -0.3284  0.3548  0.8754
     1 C(13)  Bbb    -0.0099    -1.332    -0.475    -0.444 -0.5077  0.7153 -0.4803
              Bcc     0.0283     3.796     1.354     1.266  0.7965  0.6021  0.0548
 
              Baa    -0.0080    -4.290    -1.531    -1.431 -0.3590 -0.0636  0.9312
     2 H(1)   Bbb    -0.0051    -2.705    -0.965    -0.902  0.9189 -0.1990  0.3407
              Bcc     0.0131     6.994     2.496     2.333  0.1636  0.9779  0.1299
 
              Baa    -0.0082    -4.387    -1.565    -1.463 -0.1100  0.7040  0.7016
     3 H(1)   Bbb    -0.0051    -2.707    -0.966    -0.903  0.8983 -0.2317  0.3733
              Bcc     0.0133     7.094     2.531     2.366  0.4254  0.6713 -0.6069
 
              Baa    -0.3706   -49.725   -17.743   -16.587  0.1032  0.9818 -0.1593
     4 C(13)  Bbb    -0.3683   -49.421   -17.635   -16.485 -0.3474  0.1856  0.9191
              Bcc     0.7388    99.146    35.378    33.072  0.9320 -0.0395  0.3603
 
              Baa    -0.0468   -24.958    -8.906    -8.325 -0.0201  0.9847  0.1731
     5 H(1)   Bbb     0.0003     0.138     0.049     0.046  0.9919 -0.0020  0.1267
              Bcc     0.0465    24.821     8.857     8.279 -0.1251 -0.1743  0.9767
 
              Baa    -0.0461   -24.577    -8.770    -8.198 -0.3135 -0.6247  0.7151
     6 H(1)   Bbb    -0.0017    -0.882    -0.315    -0.294  0.8552  0.1415  0.4985
              Bcc     0.0477    25.459     9.085     8.492 -0.4127  0.7679  0.4899
 
              Baa    -0.0068    -0.910    -0.325    -0.304  0.4054 -0.4745  0.7814
     7 C(13)  Bbb    -0.0029    -0.385    -0.137    -0.128  0.7327  0.6798  0.0327
              Bcc     0.0097     1.295     0.462     0.432 -0.5466  0.5593  0.6232
 
              Baa    -0.0059    -3.130    -1.117    -1.044  0.1011  0.7253 -0.6810
     8 H(1)   Bbb    -0.0028    -1.480    -0.528    -0.494  0.9399  0.1547  0.3043
              Bcc     0.0086     4.610     1.645     1.538 -0.3260  0.6709  0.6661
 
              Baa    -0.0035    -1.854    -0.661    -0.618  0.1278  0.9144 -0.3842
     9 H(1)   Bbb    -0.0027    -1.418    -0.506    -0.473  0.7724  0.1513  0.6169
              Bcc     0.0061     3.272     1.168     1.091 -0.6222  0.3755  0.6869
 
              Baa    -0.0046    -2.446    -0.873    -0.816  0.1540 -0.2852  0.9460
    10 H(1)   Bbb    -0.0041    -2.207    -0.788    -0.736  0.7452  0.6622  0.0783
              Bcc     0.0087     4.653     1.660     1.552 -0.6488  0.6929  0.3146
 
              Baa    -0.2382    17.235     6.150     5.749 -0.2767 -0.3900  0.8783
    11 O(17)  Bbb    -0.1628    11.779     4.203     3.929 -0.1521  0.9202  0.3607
              Bcc     0.4010   -29.014   -10.353    -9.678  0.9488  0.0337  0.3139
 
              Baa    -0.8920    64.546    23.031    21.530 -0.2414  0.8394  0.4870
    12 O(17)  Bbb    -0.8835    63.927    22.811    21.324 -0.4467 -0.5416  0.7122
              Bcc     1.7755  -128.473   -45.842   -42.854  0.8615 -0.0456  0.5057
 
              Baa    -0.1237   -65.996   -23.549   -22.014 -0.0043  0.9980  0.0631
    13 H(1)   Bbb    -0.1199   -63.986   -22.832   -21.344 -0.2925 -0.0616  0.9543
              Bcc     0.2436   129.983    46.381    43.358  0.9562 -0.0144  0.2922
 
              Baa    -0.0285    -3.823    -1.364    -1.275 -0.2314  0.9687 -0.0901
    14 C(13)  Bbb    -0.0238    -3.192    -1.139    -1.065 -0.1988  0.0436  0.9791
              Bcc     0.0523     7.015     2.503     2.340  0.9523  0.2445  0.1825
 
              Baa    -0.0161    -2.161    -0.771    -0.721  0.3683 -0.0759  0.9266
    15 C(13)  Bbb    -0.0108    -1.444    -0.515    -0.482  0.8329  0.4698 -0.2925
              Bcc     0.0269     3.604     1.286     1.202 -0.4131  0.8795  0.2363
 
              Baa    -0.0057    -3.037    -1.084    -1.013 -0.5472  0.8265  0.1321
    16 H(1)   Bbb    -0.0027    -1.463    -0.522    -0.488 -0.4345 -0.4154  0.7991
              Bcc     0.0084     4.500     1.606     1.501  0.7154  0.3799  0.5864
 
              Baa    -0.0028    -1.474    -0.526    -0.492  0.0035 -0.4831  0.8755
    17 H(1)   Bbb    -0.0013    -0.713    -0.254    -0.238 -0.3731  0.8117  0.4494
              Bcc     0.0041     2.187     0.780     0.729  0.9278  0.3282  0.1775
 
              Baa    -0.0021    -1.133    -0.404    -0.378 -0.5505  0.8053 -0.2200
    18 H(1)   Bbb    -0.0007    -0.399    -0.142    -0.133  0.5534  0.5493  0.6261
              Bcc     0.0029     1.532     0.547     0.511 -0.6251 -0.2229  0.7480
 

 ---------------------------------------------------------------------------------

 1\1\GINC-N83\Scan\UB2PLYPD3-FC\CC-pVTZ\C5H11O2(2)\ROOT\21-Jun-2019\0\\
 # opt=(calcfc,ts,noeigentest,maxcyc=500,modredundant) uB2PLYPD3/cc-pvt
 z scf=maxcyc=500 nosymm\\Title Card Required\\0,2\C,-1.1768917815,-0.2
 499365298,0.3863034795\H,-0.5829723714,-1.0378995834,-0.0809153326\H,-
 1.1429728806,-0.4127148304,1.4635887111\C,-0.5913538145,1.097265494,0.
 0443514817\H,-0.4302275916,1.2973437838,-1.0116517871\H,-1.0224952862,
 1.9415593315,0.5731220591\C,2.8570474667,-0.0076980627,-0.8575253516\H
 ,1.94829361,-0.5014152833,-1.2069616632\H,3.5154584795,0.1911601327,-1
 .700630932\H,3.3607027956,-0.6373852059,-0.1260701177\O,2.5618644405,1
 .2661847176,-0.3053036206\O,1.796730033,1.0622857835,0.8600983745\H,0.
 6970714475,1.1047803732,0.4955419513\C,-2.6016797407,-0.3422709955,-0.
 0883837824\C,-3.6581823801,-0.4386240074,0.7131048409\H,-2.7499808838,
 -0.3009045335,-1.1617988406\H,-4.6625784101,-0.4886314939,0.3190577873
 \H,-3.5465821323,-0.4759080905,1.7885597424\\Version=ES64L-G16RevB.01\
 HF=-346.8042709,-346.8042923,-346.8042922,-346.8042848,-346.8042813,-3
 46.8042836,-346.8042993,-346.8043308,-346.8043778,-346.8044346,-346.80
 44949,-346.8045479,-346.8045946,-346.804638,-346.8046881,-346.8047496,
 -346.8048236,-346.8049002,-346.8049539,-346.8049645,-346.8049349,-346.
 8048896,-346.8048246,-346.8047362,-346.8046259,-346.8045182,-346.80442
 56,-346.8043577,-346.8042929,-346.8042294,-346.8041676,-346.8041157,-3
 46.8040912,-346.804103,-346.8041534,-346.8042199,-346.8042707\MP2=-347
 .2432704,-347.2432502,-347.2432075,-347.2431635,-347.2431275,-347.2431
 037,-347.2431001,-347.243123,-347.2431749,-347.2432505,-347.2433366,-3
 47.2434199,-347.2434924,-347.2435614,-347.2436422,-347.2437514,-347.24
 39011,-347.2440794,-347.2442434,-347.2443451,-347.2443683,-347.244341,
 -347.2442898,-347.2442081,-347.2441003,-347.2439945,-347.243893,-347.2
 437782,-347.2436359,-347.2434737,-347.2433192,-347.2432013,-347.243136
 7,-347.2431324,-347.2431805,-347.2432442,-347.2432709\PUHF=-346.810454
 2,-346.8104705,-346.8104656,-346.810454,-346.8104457,-346.8104448,-346
 .8104595,-346.8104902,-346.8105377,-346.8105963,-346.8106591,-346.8107
 152,-346.8107644,-346.8108096,-346.8108606,-346.8109232,-346.810998,-3
 46.8110735,-346.8111189,-346.8111173,-346.8110766,-346.8110252,-346.81
 09603,-346.8108766,-346.8107718,-346.8106707,-346.8105888,-346.8105373
 ,-346.8104904,-346.8104401,-346.8103836,-346.8103317,-346.8103037,-346
 .8103098,-346.8103521,-346.8104103,-346.8104548\PMP2-0=-347.2438028,-3
 47.2437812,-347.2437375,-347.2436927,-347.243656,-347.2436317,-347.243
 6278,-347.2436504,-347.2437023,-347.243778,-347.2438643,-347.2439482,-
 347.2440212,-347.2440908,-347.244172,-347.2442812,-347.2444306,-347.24
 46083,-347.2447707,-347.2448706,-347.2448923,-347.244864,-347.2448122,
 -347.2447302,-347.244622,-347.2445159,-347.2444152,-347.2443029,-347.2
 441639,-347.2440056,-347.243854,-347.2437383,-347.2436745,-347.24367,-
 347.2437169,-347.2437785,-347.2438033\S2=0.768948,0.768908,0.768877,0.
 768853,0.768832,0.768817,0.768813,0.768812,0.768815,0.768825,0.768836,
 0.768852,0.768864,0.768873,0.768875,0.768868,0.768855,0.76884,0.768807
 ,0.76877,0.768739,0.768714,0.768695,0.768686,0.768675,0.76867,0.768683
 ,0.768736,0.768811,0.768903,0.768983,0.769046,0.769082,0.769088,0.7690
 6,0.769005,0.768949\S2-1=0.742992,0.742987,0.742985,0.742985,0.742986,
 0.742985,0.742982,0.742978,0.742974,0.74297,0.742967,0.742967,0.74297,
 0.742976,0.742981,0.742983,0.742979,0.742972,0.742966,0.742963,0.74296
 3,0.742962,0.742956,0.742945,0.742929,0.742914,0.742906,0.74291,0.7429
 22,0.742947,0.742973,0.742996,0.743009,0.743013,0.74301,0.743001,0.742
 99\S2A=0.750177,0.750176,0.750175,0.750174,0.750174,0.750174,0.750174,
 0.750174,0.750174,0.750174,0.750174,0.750175,0.750175,0.750175,0.75017
 6,0.750175,0.750175,0.750175,0.750174,0.750173,0.750173,0.750172,0.750
 171,0.750169,0.750168,0.750166,0.750166,0.750168,0.75017,0.750173,0.75
 0176,0.750178,0.750179,0.75018,0.75018,0.750178,0.750177\RMSD=8.990e-0
 9,5.376e-09,7.716e-09,5.354e-09,5.992e-09,5.154e-09,4.478e-09,5.021e-0
 9,8.878e-09,5.491e-09,5.599e-09,8.620e-09,6.119e-09,5.720e-09,6.277e-0
 9,8.472e-09,6.268e-09,7.304e-09,7.318e-09,8.876e-09,8.702e-09,6.075e-0
 9,7.479e-09,9.617e-09,6.906e-09,8.742e-09,3.347e-09,7.895e-09,9.013e-0
 9,6.647e-09,6.326e-09,8.150e-09,6.454e-09,7.993e-09,8.380e-09,7.610e-0
 9,5.373e-09\PG=C01 [X(C5H11O2)]\\@


 THERE IS NO SUBJECT, HOWEVER COMPLEX,
 WHICH, IF STUDIED WITH PATIENCE AND INTELLIGIENCE
 WILL NOT BECOME
 MORE COMPLEX
                        QUOTED BY D. GORDON ROHMAN
 Job cpu time:      22 days 14 hours 38 minutes 50.5 seconds.
 Elapsed time:       0 days 20 hours  2 minutes 32.4 seconds.
 File lengths (MBytes):  RWF= 108514 Int=      0 D2E=      0 Chk=     23 Scr=      1
 Normal termination of Gaussian 16 at Fri Jun 21 06:03:53 2019.
