 Entering Gaussian System, Link 0=g16
 Initial command:
 /ichec/packages/gaussian/16b01/l1.exe "/localscratch/350160/Gau-65293.inp" -scrdir="/localscratch/350160/"
 Entering Link 1 = /ichec/packages/gaussian/16b01/l1.exe PID=     65539.
  
 Copyright (c) 1988-2017, Gaussian, Inc.  All Rights Reserved.
  
 This is part of the Gaussian(R) 16 program.  It is based on
 the Gaussian(R) 09 system (copyright 2009, Gaussian, Inc.),
 the Gaussian(R) 03 system (copyright 2003, Gaussian, Inc.),
 the Gaussian(R) 98 system (copyright 1998, Gaussian, Inc.),
 the Gaussian(R) 94 system (copyright 1995, Gaussian, Inc.),
 the Gaussian 92(TM) system (copyright 1992, Gaussian, Inc.),
 the Gaussian 90(TM) system (copyright 1990, Gaussian, Inc.),
 the Gaussian 88(TM) system (copyright 1988, Gaussian, Inc.),
 the Gaussian 86(TM) system (copyright 1986, Carnegie Mellon
 University), and the Gaussian 82(TM) system (copyright 1983,
 Carnegie Mellon University). Gaussian is a federally registered
 trademark of Gaussian, Inc.
  
 This software contains proprietary and confidential information,
 including trade secrets, belonging to Gaussian, Inc.
  
 This software is provided under written license and may be
 used, copied, transmitted, or stored only in accord with that
 written license.
  
 The following legend is applicable only to US Government
 contracts under FAR:
  
                    RESTRICTED RIGHTS LEGEND
  
 Use, reproduction and disclosure by the US Government is
 subject to restrictions as set forth in subparagraphs (a)
 and (c) of the Commercial Computer Software - Restricted
 Rights clause in FAR 52.227-19.
  
 Gaussian, Inc.
 340 Quinnipiac St., Bldg. 40, Wallingford CT 06492
  
  
 ---------------------------------------------------------------
 Warning -- This program may not be used in any manner that
 competes with the business of Gaussian, Inc. or will provide
 assistance to any competitor of Gaussian, Inc.  The licensee
 of this program is prohibited from giving any competitor of
 Gaussian, Inc. access to this program.  By using this program,
 the user acknowledges that Gaussian, Inc. is engaged in the
 business of creating and licensing software in the field of
 computational chemistry and represents and warrants to the
 licensee that it is not a competitor of Gaussian, Inc. and that
 it will not use this program in any manner prohibited above.
 ---------------------------------------------------------------
  

 Cite this work as:
 Gaussian 16, Revision B.01,
 M. J. Frisch, G. W. Trucks, H. B. Schlegel, G. E. Scuseria, 
 M. A. Robb, J. R. Cheeseman, G. Scalmani, V. Barone, 
 G. A. Petersson, H. Nakatsuji, X. Li, M. Caricato, A. V. Marenich, 
 J. Bloino, B. G. Janesko, R. Gomperts, B. Mennucci, H. P. Hratchian, 
 J. V. Ortiz, A. F. Izmaylov, J. L. Sonnenberg, D. Williams-Young, 
 F. Ding, F. Lipparini, F. Egidi, J. Goings, B. Peng, A. Petrone, 
 T. Henderson, D. Ranasinghe, V. G. Zakrzewski, J. Gao, N. Rega, 
 G. Zheng, W. Liang, M. Hada, M. Ehara, K. Toyota, R. Fukuda, 
 J. Hasegawa, M. Ishida, T. Nakajima, Y. Honda, O. Kitao, H. Nakai, 
 T. Vreven, K. Throssell, J. A. Montgomery, Jr., J. E. Peralta, 
 F. Ogliaro, M. J. Bearpark, J. J. Heyd, E. N. Brothers, K. N. Kudin, 
 V. N. Staroverov, T. A. Keith, R. Kobayashi, J. Normand, 
 K. Raghavachari, A. P. Rendell, J. C. Burant, S. S. Iyengar, 
 J. Tomasi, M. Cossi, J. M. Millam, M. Klene, C. Adamo, R. Cammi, 
 J. W. Ochterski, R. L. Martin, K. Morokuma, O. Farkas, 
 J. B. Foresman, and D. J. Fox, Gaussian, Inc., Wallingford CT, 2016.
 
 ******************************************
 Gaussian 16:  ES64L-G16RevB.01 20-Dec-2017
                17-Jun-2019 
 ******************************************
 %mem=80GB
 %nproc=40
 Will use up to   40 processors via shared memory.
 ----------------------------------------------------------------------
 # opt=(calcfc,ts,noeigentest,maxcyc=500,modredundant) uB2PLYPD3/cc-pvt
 z scf=maxcyc=500 nosymm
 ----------------------------------------------------------------------
 1/5=1,6=500,10=4,11=1,18=120,38=1/1,3;
 2/9=110,12=2,15=1,17=6,18=5,40=1/2;
 3/5=16,6=1,11=2,25=1,30=1,71=2,74=-60,116=2,140=1/1,2,3;
 4//1;
 5/5=2,7=500,38=5/2;
 8/6=3,8=1,10=1,19=11,30=-1/1;
 9/15=3,16=-3/6;
 11/6=1,8=1,15=11,17=12,24=-1,27=1,28=-2,29=300,31=1,32=6,42=3/1,2,10;
 10/6=2,21=1,31=1/2;
 8/6=4,8=1,10=1,19=11,30=-1/11,4;
 10/5=1,20=4,31=1/2;
 11/12=2,14=11,16=1,17=2,28=-2,31=1,42=3,76=2/2,10,12;
 6/7=2,8=2,9=2,10=2/1;
 7/10=1,12=2,25=1,30=1,44=2/1,2,3,16;
 1/5=1,6=500,10=4,11=1,18=20/3(2);
 2/9=110,15=1/2;
 99//99;
 2/9=110,15=1/2;
 3/5=16,6=1,11=2,25=1,30=1,71=1,74=-60,116=2/1,2,3;
 4/5=5,16=3,69=1/1;
 5/5=2,7=500,38=5/2;
 8/6=4,10=1/1;
 9/15=2,16=-3/6;
 10/5=1,31=1/2;
 7/12=2,30=1/1,2,3,16;
 1/5=1,6=500,11=1,18=20/3(-8);
 2/9=110,15=1/2;
 6/7=2,8=2,9=2,10=2/1;
 99/9=10/99;
 -------------------
 Title Card Required
 -------------------
 Symbolic Z-matrix:
 Charge =  0 Multiplicity = 2
 C                     0.91857   0.41169   0.34486 
 H                     0.80665   0.13445   1.39201 
 C                    -2.73133  -0.41761   0.68237 
 H                    -2.06856  -0.27885   1.53776 
 H                    -3.61664   0.20491   0.79223 
 H                    -3.01195  -1.46573   0.59875 
 O                    -2.10361   0.0252   -0.51508 
 O                    -1.00928  -0.80402  -0.76406 
 H                    -0.03786  -0.2555   -0.21531 
 C                     2.1269   -0.12782  -0.26853 
 C                     2.91409  -1.05565   0.28669 
 H                     2.36861   0.24135  -1.25948 
 H                     3.78444  -1.43698  -0.22566 
 H                     2.70425  -1.45305   1.27057 
 C                     0.54319   1.84091   0.03483 
 H                    -0.48631   2.04949   0.3201 
 H                     1.19132   2.53762   0.57174 
 H                     0.64069   2.04372  -1.03079 
 
 Add virtual bond connecting atoms H9         and O8         Dist= 2.35D+00.
 The following ModRedundant input section has been read:
 D    *          1       8    *    R                                           
 D       2       1       8       7 S  36 10.000                                
 

 GradGradGradGradGradGradGradGradGradGradGradGradGradGradGradGradGradGrad
 Berny optimization.
 Initialization pass.
                           ----------------------------
                           !    Initial Parameters    !
                           ! (Angstroms and Degrees)  !
 --------------------------                            --------------------------
 ! Name  Definition              Value          Derivative Info.                !
 --------------------------------------------------------------------------------
 ! R1    R(1,2)                  1.089          calculate D2E/DX2 analytically  !
 ! R2    R(1,9)                  1.2937         calculate D2E/DX2 analytically  !
 ! R3    R(1,10)                 1.4586         calculate D2E/DX2 analytically  !
 ! R4    R(1,15)                 1.5099         calculate D2E/DX2 analytically  !
 ! R5    R(3,4)                  1.091          calculate D2E/DX2 analytically  !
 ! R6    R(3,5)                  1.0878         calculate D2E/DX2 analytically  !
 ! R7    R(3,6)                  1.0883         calculate D2E/DX2 analytically  !
 ! R8    R(3,7)                  1.4227         calculate D2E/DX2 analytically  !
 ! R9    R(7,8)                  1.3954         calculate D2E/DX2 analytically  !
 ! R10   R(8,9)                  1.2433         calculate D2E/DX2 analytically  !
 ! R11   R(10,11)                1.3375         calculate D2E/DX2 analytically  !
 ! R12   R(10,12)                1.0847         calculate D2E/DX2 analytically  !
 ! R13   R(11,13)                1.0795         calculate D2E/DX2 analytically  !
 ! R14   R(11,14)                1.0817         calculate D2E/DX2 analytically  !
 ! R15   R(15,16)                1.0885         calculate D2E/DX2 analytically  !
 ! R16   R(15,17)                1.0926         calculate D2E/DX2 analytically  !
 ! R17   R(15,18)                1.0891         calculate D2E/DX2 analytically  !
 ! A1    A(2,1,9)              102.0682         calculate D2E/DX2 analytically  !
 ! A2    A(2,1,10)             113.2887         calculate D2E/DX2 analytically  !
 ! A3    A(2,1,15)             114.386          calculate D2E/DX2 analytically  !
 ! A4    A(9,1,10)             103.8633         calculate D2E/DX2 analytically  !
 ! A5    A(9,1,15)             102.4424         calculate D2E/DX2 analytically  !
 ! A6    A(10,1,15)            118.018          calculate D2E/DX2 analytically  !
 ! A7    A(4,3,5)              110.0252         calculate D2E/DX2 analytically  !
 ! A8    A(4,3,6)              109.8401         calculate D2E/DX2 analytically  !
 ! A9    A(4,3,7)              110.6284         calculate D2E/DX2 analytically  !
 ! A10   A(5,3,6)              110.4297         calculate D2E/DX2 analytically  !
 ! A11   A(5,3,7)              105.4248         calculate D2E/DX2 analytically  !
 ! A12   A(6,3,7)              110.4187         calculate D2E/DX2 analytically  !
 ! A13   A(3,7,8)              108.1344         calculate D2E/DX2 analytically  !
 ! A14   A(7,8,9)              105.7733         calculate D2E/DX2 analytically  !
 ! A15   A(1,10,11)            124.7237         calculate D2E/DX2 analytically  !
 ! A16   A(1,10,12)            116.2885         calculate D2E/DX2 analytically  !
 ! A17   A(11,10,12)           118.9586         calculate D2E/DX2 analytically  !
 ! A18   A(10,11,13)           121.5028         calculate D2E/DX2 analytically  !
 ! A19   A(10,11,14)           121.2179         calculate D2E/DX2 analytically  !
 ! A20   A(13,11,14)           117.2792         calculate D2E/DX2 analytically  !
 ! A21   A(1,15,16)            111.2679         calculate D2E/DX2 analytically  !
 ! A22   A(1,15,17)            110.8066         calculate D2E/DX2 analytically  !
 ! A23   A(1,15,18)            110.7883         calculate D2E/DX2 analytically  !
 ! A24   A(16,15,17)           108.0645         calculate D2E/DX2 analytically  !
 ! A25   A(16,15,18)           107.7834         calculate D2E/DX2 analytically  !
 ! A26   A(17,15,18)           107.9966         calculate D2E/DX2 analytically  !
 ! A27   L(1,9,8,4,-1)         178.459          calculate D2E/DX2 analytically  !
 ! A28   L(1,9,8,4,-2)         175.1024         calculate D2E/DX2 analytically  !
 ! D1    D(2,1,8,7)             80.7576         Scan                            !
 ! D2    D(2,1,10,11)           11.2242         calculate D2E/DX2 analytically  !
 ! D3    D(2,1,10,12)         -170.7693         calculate D2E/DX2 analytically  !
 ! D4    D(9,1,10,11)          -98.6941         calculate D2E/DX2 analytically  !
 ! D5    D(9,1,10,12)           79.3124         calculate D2E/DX2 analytically  !
 ! D6    D(15,1,10,11)         148.8044         calculate D2E/DX2 analytically  !
 ! D7    D(15,1,10,12)         -33.1891         calculate D2E/DX2 analytically  !
 ! D8    D(2,1,15,16)          -57.9655         calculate D2E/DX2 analytically  !
 ! D9    D(2,1,15,17)           62.2911         calculate D2E/DX2 analytically  !
 ! D10   D(2,1,15,18)         -177.8551         calculate D2E/DX2 analytically  !
 ! D11   D(9,1,15,16)           51.6131         calculate D2E/DX2 analytically  !
 ! D12   D(9,1,15,17)          171.8697         calculate D2E/DX2 analytically  !
 ! D13   D(9,1,15,18)          -68.2765         calculate D2E/DX2 analytically  !
 ! D14   D(10,1,15,16)         164.9008         calculate D2E/DX2 analytically  !
 ! D15   D(10,1,15,17)         -74.8426         calculate D2E/DX2 analytically  !
 ! D16   D(10,1,15,18)          45.0112         calculate D2E/DX2 analytically  !
 ! D17   D(4,3,7,8)             65.3743         calculate D2E/DX2 analytically  !
 ! D18   D(5,3,7,8)           -175.7161         calculate D2E/DX2 analytically  !
 ! D19   D(6,3,7,8)            -56.4353         calculate D2E/DX2 analytically  !
 ! D20   D(3,7,8,9)            -91.6267         calculate D2E/DX2 analytically  !
 ! D21   D(1,10,11,13)         178.4192         calculate D2E/DX2 analytically  !
 ! D22   D(1,10,11,14)          -1.7166         calculate D2E/DX2 analytically  !
 ! D23   D(12,10,11,13)          0.4619         calculate D2E/DX2 analytically  !
 ! D24   D(12,10,11,14)       -179.6738         calculate D2E/DX2 analytically  !
 --------------------------------------------------------------------------------
 Trust Radius=3.00D-01 FncErr=1.00D-07 GrdErr=1.00D-07 EigMax=2.50D+02 EigMin=1.00D-04
 Number of optimizations in scan=  37
 Number of steps in this run=    108 maximum allowed number of steps=    108.
 Search for a saddle point of order  1.
 GradGradGradGradGradGradGradGradGradGradGradGradGradGradGradGradGradGrad

                          Input orientation:                          
 ---------------------------------------------------------------------
 Center     Atomic      Atomic             Coordinates (Angstroms)
 Number     Number       Type             X           Y           Z
 ---------------------------------------------------------------------
      1          6           0        0.918571    0.411690    0.344862
      2          1           0        0.806645    0.134448    1.392006
      3          6           0       -2.731333   -0.417611    0.682365
      4          1           0       -2.068565   -0.278853    1.537757
      5          1           0       -3.616639    0.204909    0.792230
      6          1           0       -3.011954   -1.465729    0.598746
      7          8           0       -2.103610    0.025200   -0.515083
      8          8           0       -1.009278   -0.804019   -0.764062
      9          1           0       -0.037855   -0.255497   -0.215305
     10          6           0        2.126902   -0.127821   -0.268531
     11          6           0        2.914088   -1.055653    0.286686
     12          1           0        2.368605    0.241345   -1.259475
     13          1           0        3.784440   -1.436976   -0.225660
     14          1           0        2.704246   -1.453052    1.270567
     15          6           0        0.543186    1.840913    0.034827
     16          1           0       -0.486310    2.049495    0.320097
     17          1           0        1.191321    2.537619    0.571736
     18          1           0        0.640687    2.043720   -1.030791
 ---------------------------------------------------------------------
                    Distance matrix (angstroms):
                    1          2          3          4          5
     1  C    0.000000
     2  H    1.088991   0.000000
     3  C    3.758118   3.650431   0.000000
     4  H    3.289807   2.908418   1.090968   0.000000
     5  H    4.561910   4.464318   1.087827   1.785040   0.000000
     6  H    4.363277   4.215629   1.088252   1.783367   1.787208
     7  O    3.165827   3.481165   1.422673   2.075531   2.007640
     8  O    2.534613   2.971014   2.281871   2.587713   3.199736
     9  H    1.293706   1.857064   2.843750   2.682826   3.746304
    10  C    1.458556   2.137580   4.958894   4.570277   5.850144
    11  C    2.477613   2.660712   5.695124   5.195712   6.670456
    12  H    2.169219   3.079204   5.496757   5.271014   6.327240
    13  H    3.457783   3.735436   6.657245   6.221620   7.649043
    14  H    2.742777   2.477053   5.564498   4.922383   6.552193
    15  C    1.509872   2.196217   4.030225   3.684216   4.533686
    16  H    2.157941   2.547180   3.355291   3.067154   3.663928
    17  H    2.155328   2.568278   4.912518   4.415039   5.348517
    18  H    2.152478   3.089143   4.512602   4.396798   4.982916
                    6          7          8          9         10
     6  H    0.000000
     7  O    2.070887   0.000000
     8  O    2.511139   1.395406   0.000000
     9  H    3.312492   2.106182   1.243251   0.000000
    10  C    5.380521   4.240452   3.246293   2.169172   0.000000
    11  C    5.948405   5.195033   4.069422   3.099389   1.337460
    12  H    5.942853   4.538892   3.570478   2.669868   1.084746
    13  H    6.846272   6.073784   4.865207   4.000742   2.112619
    14  H    5.755558   5.337533   4.283832   3.340819   2.111489
    15  C    4.887832   3.256493   3.169232   2.189774   2.544817
    16  H    4.337433   2.722307   3.097005   2.408476   3.451965
    17  H    5.804743   4.283689   4.218239   3.151477   2.947190
    18  H    5.321035   3.445511   3.301991   2.532160   2.739610
                   11         12         13         14         15
    11  C    0.000000
    12  H    2.090543   0.000000
    13  H    1.079545   2.426958   0.000000
    14  H    1.081657   3.063454   1.845474   0.000000
    15  C    3.751627   2.750634   4.617157   4.128854   0.000000
    16  H    4.604972   3.730281   5.540094   4.832274   1.088461
    17  H    3.995095   3.164207   4.812225   4.324669   1.092588
    18  H    4.063276   2.507300   4.758851   4.667112   1.089118
                   16         17         18
    16  H    0.000000
    17  H    1.765229   0.000000
    18  H    1.759277   1.765001   0.000000
 Symmetry turned off by external request.
 Stoichiometry    C5H11O2(2)
 Framework group  C1[X(C5H11O2)]
 Deg. of freedom    48
 Full point group                 C1      NOp   1
 Rotational constants (GHZ):           4.1229426           1.1601685           1.0236132
 Standard basis: CC-pVTZ (5D, 7F)
   364 basis functions,   551 primitive gaussians,   410 cartesian basis functions
    29 alpha electrons       28 beta electrons
       nuclear repulsion energy       304.1142539448 Hartrees.
 NAtoms=   18 NActive=   18 NUniq=   18 SFac= 1.00D+00 NAtFMM=   60 NAOKFM=F Big=F
 Integral buffers will be    131072 words long.
 Raffenetti 2 integral format.
 Two-electron integral symmetry is turned off.
 Nuclear repulsion after empirical dispersion term =      304.1048520345 Hartrees.
 One-electron integrals computed using PRISM.
 NBasis=   364 RedAO= T EigKep=  3.72D-04  NBF=   364
 NBsUse=   364 1.00D-06 EigRej= -1.00D+00 NBFU=   364
 ExpMin= 1.03D-01 ExpMax= 1.53D+04 ExpMxC= 5.22D+02 IAcc=3 IRadAn=         5 AccDes= 0.00D+00
 Harris functional with IExCor=  419 and IRadAn=       5 diagonalized for initial guess.
 HarFok:  IExCor=  419 AccDes= 0.00D+00 IRadAn=         5 IDoV= 1 UseB2=F ITyADJ=14
 ICtDFT=  3500011 ScaDFX=  1.000000  1.000000  1.000000  1.000000
 FoFCou: FMM=F IPFlag=           0 FMFlag=      100000 FMFlg1=           0
         NFxFlg=           0 DoJE=T BraDBF=F KetDBF=T FulRan=T
         wScrn=  0.000000 ICntrl=       500 IOpCl=  0 I1Cent=   200000004 NGrid=           0
         NMat0=    1 NMatS0=      1 NMatT0=    0 NMatD0=    1 NMtDS0=    0 NMtDT0=    0
 Symmetry not used in FoFCou.
 Initial guess <Sx>= 0.0000 <Sy>= 0.0000 <Sz>= 0.5000 <S**2>= 0.7500 S= 0.5000
 Requested convergence on RMS density matrix=1.00D-08 within 500 cycles.
 Requested convergence on MAX density matrix=1.00D-06.
 Requested convergence on             energy=1.00D-06.
 No special actions if energy rises.
 Integral accuracy reduced to 1.0D-05 until final iterations.
 Initial convergence to 1.0D-05 achieved.  Increase integral accuracy.
 SCF Done:  E(UB2PLYPD3) =  -346.815239844     A.U. after   22 cycles
            NFock= 22  Conv=0.97D-08     -V/T= 2.0043
 <Sx>= 0.0000 <Sy>= 0.0000 <Sz>= 0.5000 <S**2>= 0.8041 S= 0.5267
 <L.S>=  0.00000000000    
 Annihilation of the first spin contaminant:
 S**2 before annihilation     0.8041,   after     0.7515
 DoSCS=T DFT=T ScalE2(SS,OS)=  0.270000  0.270000
 ExpMin= 1.03D-01 ExpMax= 1.53D+04 ExpMxC= 5.22D+02 IAcc=3 IRadAn=         5 AccDes= 0.00D+00
 HarFok:  IExCor=  205 AccDes= 0.00D+00 IRadAn=         5 IDoV=-2 UseB2=F ITyADJ=14
 ICtDFT= 12500011 ScaDFX=  1.000000  1.000000  1.000000  1.000000
 Range of M.O.s used for correlation:     8   364
 NBasis=   364 NAE=    29 NBE=    28 NFC=     7 NFV=     0
 NROrb=    357 NOA=    22 NOB=    21 NVA=   335 NVB=   336

 **** Warning!!: The largest alpha MO coefficient is  0.12004366D+02


 **** Warning!!: The largest beta MO coefficient is  0.12004052D+02

 DoSCS=T DFT=T ScalE2(SS,OS)=  0.270000  0.270000
 Disk-based method using ON**2 memory for 22 occupieds at a time.
 Permanent disk used for amplitudes=   135386230 words.
 Estimated scratch disk usage=  2537279556 words.
 Actual    scratch disk usage=  2453555780 words.
 JobTyp=2 Pass  1:  I=   8 to  29 NPSUse= 40 ParTrn=T ParDer=T DoDerP=T.
 (rs|ai) integrals will be sorted in core.
 Actual    scratch disk usage=  2453555780 words.
 JobTyp=3 Pass  1:  I=   8 to  28 NPSUse= 40 ParTrn=T ParDer=T DoDerP=T.
 (rs|ai) integrals will be sorted in core.
 Spin components of T(2) and E(2):
     alpha-alpha T2 =       0.7481302854D-01 E2=     -0.5329368909D-01
     alpha-beta  T2 =       0.4622345498D+00 E2=     -0.3341573814D+00
     beta-beta   T2 =       0.8373928209D-01 E2=     -0.5299528101D-01
 (S**2,0)=  0.80414D+00           (S**2,1)=  0.75411D+00
 Scaling Projection term by:   0.270000
 E(PUHF)=      -0.34682454614D+03        E(PMP2)=      -0.34725705699D+03
 E2(B2PLYPD3) =    -0.4404463515D+00 E(B2PLYPD3) =    -0.34725568619546D+03
 G2DrvN: will do    19 centers at a time, making    1 passes.
 Calling FoFCou, ICntrl=  3107 FMM=F I1Cent=   0 AccDes= 0.00D+00.
 End of G2Drv F.D. properties file   721 does not exist.
 End of G2Drv F.D. properties file   722 does not exist.
 End of G2Drv F.D. properties file   788 does not exist.
          IDoAtm=111111111111111111
          Differentiating once with respect to electric field.
                with respect to dipole field.
          Differentiating once with respect to nuclear coordinates.
 Keep R1 and R2 ints in memory in canonical form, NReq=4459303749.
          There are    57 degrees of freedom in the 1st order CPHF.  IDoFFX=6 NUNeed=    57.
     54 vectors produced by pass  0 Test12= 3.35D-14 1.75D-09 XBig12= 1.37D+02 8.74D+00.
 AX will form    54 AO Fock derivatives at one time.
     54 vectors produced by pass  1 Test12= 3.35D-14 1.75D-09 XBig12= 9.49D+00 7.30D-01.
     54 vectors produced by pass  2 Test12= 3.35D-14 1.75D-09 XBig12= 7.04D-01 1.55D-01.
     54 vectors produced by pass  3 Test12= 3.35D-14 1.75D-09 XBig12= 1.08D-02 9.67D-03.
     54 vectors produced by pass  4 Test12= 3.35D-14 1.75D-09 XBig12= 9.54D-05 1.06D-03.
     54 vectors produced by pass  5 Test12= 3.35D-14 1.75D-09 XBig12= 1.39D-06 1.31D-04.
     54 vectors produced by pass  6 Test12= 3.35D-14 1.75D-09 XBig12= 1.20D-08 9.79D-06.
     25 vectors produced by pass  7 Test12= 3.35D-14 1.75D-09 XBig12= 6.76D-11 7.05D-07.
      3 vectors produced by pass  8 Test12= 3.35D-14 1.75D-09 XBig12= 4.05D-13 4.70D-08.
      2 vectors produced by pass  9 Test12= 3.35D-14 1.75D-09 XBig12= 4.17D-15 6.56D-09.
 InvSVY:  IOpt=1 It=  1 EMax= 5.33D-15
 Solved reduced A of dimension   408 with    57 vectors.
 End of Minotr F.D. properties file   721 does not exist.
 End of Minotr F.D. properties file   722 does not exist.
 End of Minotr F.D. properties file   788 does not exist.
 MDV= 10737418240.
 DoSCS=T DFT=T ScalE2(SS,OS)=  0.270000  0.270000
 Form MO integral derivatives with frozen-active canonical formalism.
 Discarding MO integrals.
 Reordered first order wavefunction length =    545006183
 In DefCFB: NBatch=  1 ICI= 29 ICA=336 LFMax= 68
            Large arrays: LIAPS= 11415666080 LIARS=  1957569600 words.
 In DefCFB: NBatch=  1 ICI= 29 ICA=336 LFMax= 68
            Large arrays: LIAPS= 11415666080 LIARS=  1957569600 words.
 Semi-Direct transformation.
 ModeAB=           4 MOrb=            29 LenV=   10733559233
 LASXX=    664627481 LTotXX=   664627481 LenRXX=  1338891981
 LTotAB=   674264500 MaxLAS=   783666884 LenRXY=           0
 NonZer=  2003519462 LenScr=  3017065472 LnRSAI=   783666884
 LnScr1=  1180110848 LExtra=           0 Total=   6319735185
 MaxDsk=          -1 SrtSym=           T ITran=            4
 JobTyp=1 Pass  1:  I=   1 to  29.
 (rs|ai) integrals will be sorted in core.
 ModeAB=           4 MOrb=            28 LenV=   10733559233
 LASXX=    642894399 LTotXX=   642894399 LenRXX=  1195226319
 LTotAB=   552331920 MaxLAS=   756643888 LenRXY=           0
 NonZer=  1838120718 LenScr=  2767993856 LnRSAI=   756643888
 LnScr1=  1139417088 LExtra=           0 Total=   5859281151
 MaxDsk=          -1 SrtSym=           T ITran=            4
 JobTyp=2 Pass  1:  I=   1 to  28.
 (rs|ai) integrals will be sorted in core.
 DoSCS=T DFT=T ScalE2(SS,OS)=  0.270000  0.270000
 Spin components of T(2) and E(2):
     alpha-alpha T2 =       0.7481302854D-01 E2=     -0.5329368909D-01
     alpha-beta  T2 =       0.4622345498D+00 E2=     -0.3341573814D+00
     beta-beta   T2 =       0.8373928209D-01 E2=     -0.5299528101D-01
 E2(B2PLYPD3) =    -0.4404463515D+00 E(B2PLYPD3) =    -0.34725568619546D+03
 (S**2,0)=  0.80414D+00           (S**2,1)=  0.75411D+00
 Scaling Projection term by:   0.270000
 E(PUHF)=      -0.34682454614D+03        E(PMP2)=      -0.34725705699D+03
          IDoAtm=111111111111111111
          Differentiating once with respect to electric field.
                with respect to dipole field.
          Differentiating once with respect to nuclear coordinates.
 Keep R1 and R2 ints in memory in canonical form, NReq=4459438754.
          There are     1 degrees of freedom in the 1st order CPHF.  IDoFFX=0 NUNeed=     1.
 LinEq1:  Iter=  0 NonCon=     1 RMS=9.09D-04 Max=5.46D-02 NDo=     1
 AX will form     1 AO Fock derivatives at one time.
 LinEq1:  Iter=  1 NonCon=     1 RMS=3.25D-04 Max=1.16D-02 NDo=     1
 LinEq1:  Iter=  2 NonCon=     1 RMS=2.22D-04 Max=9.97D-03 NDo=     1
 LinEq1:  Iter=  3 NonCon=     1 RMS=1.23D-04 Max=5.90D-03 NDo=     1
 LinEq1:  Iter=  4 NonCon=     1 RMS=8.35D-05 Max=4.10D-03 NDo=     1
 LinEq1:  Iter=  5 NonCon=     1 RMS=5.08D-05 Max=2.40D-03 NDo=     1
 LinEq1:  Iter=  6 NonCon=     1 RMS=2.67D-05 Max=7.79D-04 NDo=     1
 LinEq1:  Iter=  7 NonCon=     1 RMS=8.12D-06 Max=1.81D-04 NDo=     1
 LinEq1:  Iter=  8 NonCon=     1 RMS=6.00D-06 Max=3.84D-04 NDo=     1
 LinEq1:  Iter=  9 NonCon=     1 RMS=2.60D-06 Max=7.87D-05 NDo=     1
 LinEq1:  Iter= 10 NonCon=     1 RMS=9.88D-07 Max=2.10D-05 NDo=     1
 LinEq1:  Iter= 11 NonCon=     1 RMS=4.42D-07 Max=8.26D-06 NDo=     1
 LinEq1:  Iter= 12 NonCon=     1 RMS=1.74D-07 Max=4.28D-06 NDo=     1
 LinEq1:  Iter= 13 NonCon=     1 RMS=7.33D-08 Max=1.76D-06 NDo=     1
 LinEq1:  Iter= 14 NonCon=     1 RMS=2.96D-08 Max=9.77D-07 NDo=     1
 LinEq1:  Iter= 15 NonCon=     1 RMS=1.13D-08 Max=4.17D-07 NDo=     1
 LinEq1:  Iter= 16 NonCon=     1 RMS=5.26D-09 Max=2.58D-07 NDo=     1
 LinEq1:  Iter= 17 NonCon=     1 RMS=2.50D-09 Max=1.37D-07 NDo=     1
 LinEq1:  Iter= 18 NonCon=     1 RMS=9.81D-10 Max=5.85D-08 NDo=     1
 LinEq1:  Iter= 19 NonCon=     1 RMS=3.17D-10 Max=1.32D-08 NDo=     1
 LinEq1:  Iter= 20 NonCon=     1 RMS=1.11D-10 Max=2.66D-09 NDo=     1
 LinEq1:  Iter= 21 NonCon=     1 RMS=5.42D-11 Max=1.51D-09 NDo=     1
 LinEq1:  Iter= 22 NonCon=     0 RMS=1.87D-11 Max=5.54D-10 NDo=     1
 Linear equations converged to 1.000D-10 1.000D-09 after    22 iterations.
 End of Minotr F.D. properties file   721 does not exist.
 End of Minotr F.D. properties file   722 does not exist.
 End of Minotr F.D. properties file   788 does not exist.
 Symmetrizing basis deriv contribution to polar:
 IMax=3 JMax=2 DiffMx= 0.00D+00
 G2DrvN: will do    19 centers at a time, making    1 passes.
 Calling FoFCou, ICntrl=  3107 FMM=F I1Cent=   0 AccDes= 0.00D+00.
 End of G2Drv F.D. properties file   721 does not exist.
 End of G2Drv F.D. properties file   722 does not exist.
 End of G2Drv F.D. properties file   788 does not exist.
 DoSCS=T DFT=T ScalE2(SS,OS)=  0.270000  0.270000
 R2 and R3 integrals will be kept in memory, NReq=  7133702340.
 DD1Dir will call FoFMem   1 times, MxPair=      2408
 NAB=   812 NAA=   406 NBB=   378.
 Discarding MO integrals.

 **********************************************************************

            Population analysis using the SCF Density.

 **********************************************************************

 Alpha  occ. eigenvalues --  -19.78987 -19.78553 -10.66156 -10.63738 -10.62612
 Alpha  occ. eigenvalues --  -10.62081 -10.61078  -1.27890  -1.01496  -0.93606
 Alpha  occ. eigenvalues --   -0.85511  -0.77812  -0.73688  -0.65523  -0.60745
 Alpha  occ. eigenvalues --   -0.56057  -0.54776  -0.54185  -0.52897  -0.50944
 Alpha  occ. eigenvalues --   -0.47394  -0.45317  -0.44563  -0.43971  -0.41590
 Alpha  occ. eigenvalues --   -0.39080  -0.36380  -0.34106  -0.27759
 Alpha virt. eigenvalues --    0.06336   0.07803   0.09800   0.10333   0.11350
 Alpha virt. eigenvalues --    0.13463   0.14190   0.15292   0.15918   0.16750
 Alpha virt. eigenvalues --    0.17999   0.18554   0.21381   0.23624   0.25376
 Alpha virt. eigenvalues --    0.27287   0.29257   0.31555   0.32301   0.33091
 Alpha virt. eigenvalues --    0.34072   0.35897   0.36893   0.37184   0.39825
 Alpha virt. eigenvalues --    0.42692   0.45499   0.45979   0.48076   0.49050
 Alpha virt. eigenvalues --    0.50607   0.50929   0.52178   0.52487   0.52724
 Alpha virt. eigenvalues --    0.53120   0.54057   0.54148   0.54667   0.56611
 Alpha virt. eigenvalues --    0.56943   0.59280   0.60583   0.61151   0.62540
 Alpha virt. eigenvalues --    0.66668   0.67326   0.68434   0.70259   0.70644
 Alpha virt. eigenvalues --    0.71360   0.75431   0.76145   0.78195   0.81048
 Alpha virt. eigenvalues --    0.82880   0.84771   0.86829   0.88447   0.91381
 Alpha virt. eigenvalues --    0.92256   0.93720   0.95384   0.97406   0.99161
 Alpha virt. eigenvalues --    1.00879   1.03168   1.03682   1.04770   1.06357
 Alpha virt. eigenvalues --    1.07707   1.08919   1.09982   1.10728   1.13470
 Alpha virt. eigenvalues --    1.14475   1.15703   1.15994   1.17544   1.19727
 Alpha virt. eigenvalues --    1.20940   1.23199   1.23642   1.24684   1.27721
 Alpha virt. eigenvalues --    1.28544   1.29649   1.32317   1.32905   1.34714
 Alpha virt. eigenvalues --    1.36366   1.38638   1.39120   1.39761   1.40937
 Alpha virt. eigenvalues --    1.42336   1.43630   1.44760   1.48874   1.49947
 Alpha virt. eigenvalues --    1.50727   1.52695   1.54017   1.55608   1.57394
 Alpha virt. eigenvalues --    1.59688   1.60318   1.64018   1.65926   1.67140
 Alpha virt. eigenvalues --    1.72502   1.74460   1.79544   1.81397   1.87588
 Alpha virt. eigenvalues --    1.92407   2.00174   2.02290   2.05414   2.12041
 Alpha virt. eigenvalues --    2.17957   2.19339   2.21950   2.25786   2.30559
 Alpha virt. eigenvalues --    2.35709   2.37437   2.38289   2.40562   2.42951
 Alpha virt. eigenvalues --    2.45329   2.47475   2.47718   2.50118   2.51324
 Alpha virt. eigenvalues --    2.55973   2.57336   2.59373   2.64364   2.66113
 Alpha virt. eigenvalues --    2.67780   2.69214   2.73124   2.77375   2.79607
 Alpha virt. eigenvalues --    2.81936   2.82419   2.84667   2.85744   2.88494
 Alpha virt. eigenvalues --    2.90594   2.91336   2.92065   2.92512   2.92900
 Alpha virt. eigenvalues --    2.96498   2.98041   2.99176   3.00123   3.00468
 Alpha virt. eigenvalues --    3.02684   3.03938   3.05350   3.06659   3.08616
 Alpha virt. eigenvalues --    3.08886   3.11913   3.12143   3.13500   3.15378
 Alpha virt. eigenvalues --    3.16123   3.17832   3.18788   3.19559   3.20874
 Alpha virt. eigenvalues --    3.21552   3.22166   3.24789   3.27512   3.29320
 Alpha virt. eigenvalues --    3.31401   3.33680   3.34921   3.37066   3.38868
 Alpha virt. eigenvalues --    3.41575   3.41822   3.42782   3.44502   3.48172
 Alpha virt. eigenvalues --    3.48518   3.49747   3.51309   3.52697   3.53130
 Alpha virt. eigenvalues --    3.56781   3.57400   3.59816   3.60900   3.62172
 Alpha virt. eigenvalues --    3.63877   3.64713   3.67831   3.68480   3.71017
 Alpha virt. eigenvalues --    3.73334   3.75825   3.78417   3.79926   3.81486
 Alpha virt. eigenvalues --    3.83727   3.85785   3.86796   3.88472   3.90734
 Alpha virt. eigenvalues --    3.91502   3.93360   3.93983   3.95533   3.96827
 Alpha virt. eigenvalues --    3.97680   3.98309   3.99606   4.03311   4.04656
 Alpha virt. eigenvalues --    4.07338   4.08305   4.09743   4.11471   4.12069
 Alpha virt. eigenvalues --    4.14594   4.14975   4.17192   4.18075   4.18766
 Alpha virt. eigenvalues --    4.19992   4.21158   4.22620   4.23826   4.26997
 Alpha virt. eigenvalues --    4.27962   4.31071   4.34214   4.35151   4.37475
 Alpha virt. eigenvalues --    4.37601   4.38822   4.42528   4.44470   4.47897
 Alpha virt. eigenvalues --    4.48205   4.50739   4.53070   4.55134   4.61166
 Alpha virt. eigenvalues --    4.63448   4.64346   4.68291   4.69892   4.74252
 Alpha virt. eigenvalues --    4.76521   4.78038   4.80878   4.83115   4.84716
 Alpha virt. eigenvalues --    4.86282   4.92367   4.93977   4.98175   4.99723
 Alpha virt. eigenvalues --    5.00872   5.01588   5.02650   5.05914   5.08783
 Alpha virt. eigenvalues --    5.09964   5.11971   5.16173   5.18905   5.22465
 Alpha virt. eigenvalues --    5.24448   5.26560   5.29748   5.31152   5.33026
 Alpha virt. eigenvalues --    5.33516   5.35278   5.37968   5.38719   5.39288
 Alpha virt. eigenvalues --    5.41036   5.42831   5.47289   5.50969   5.51541
 Alpha virt. eigenvalues --    5.57382   5.60327   5.63831   5.65944   5.68137
 Alpha virt. eigenvalues --    5.76701   5.82114   5.91637   5.94011   5.95854
 Alpha virt. eigenvalues --    5.98622   6.05109   6.06120   6.07312   6.12282
 Alpha virt. eigenvalues --    6.14623   6.22162   6.27014   6.38558   6.40082
 Alpha virt. eigenvalues --    6.46680   6.65852   6.72624   6.72883   6.81396
 Alpha virt. eigenvalues --    6.95177   7.02866   7.06505   7.14764   7.43564
 Alpha virt. eigenvalues --    7.50592   7.57911   7.68291   9.80947  10.59479
 Alpha virt. eigenvalues --   11.36534  12.60396  13.42940  13.81560  14.44562
  Beta  occ. eigenvalues --  -19.78735 -19.76716 -10.66170 -10.62997 -10.62759
  Beta  occ. eigenvalues --  -10.61538 -10.61128  -1.25724  -0.98201  -0.92558
  Beta  occ. eigenvalues --   -0.84553  -0.77299  -0.72270  -0.64780  -0.57638
  Beta  occ. eigenvalues --   -0.54679  -0.54369  -0.53649  -0.52476  -0.49355
  Beta  occ. eigenvalues --   -0.45230  -0.44613  -0.43548  -0.42819  -0.41327
  Beta  occ. eigenvalues --   -0.36421  -0.34946  -0.29734
  Beta virt. eigenvalues --   -0.05216   0.07521   0.08016   0.09799   0.10556
  Beta virt. eigenvalues --    0.11444   0.14128   0.14296   0.15425   0.16001
  Beta virt. eigenvalues --    0.16866   0.18101   0.18826   0.21779   0.23993
  Beta virt. eigenvalues --    0.25813   0.27632   0.29525   0.31656   0.32531
  Beta virt. eigenvalues --    0.33416   0.34446   0.35996   0.37301   0.37522
  Beta virt. eigenvalues --    0.40993   0.43941   0.45804   0.46524   0.48363
  Beta virt. eigenvalues --    0.49429   0.50742   0.51040   0.52445   0.52569
  Beta virt. eigenvalues --    0.53124   0.53608   0.54370   0.54855   0.54998
  Beta virt. eigenvalues --    0.56820   0.58141   0.59715   0.60842   0.61552
  Beta virt. eigenvalues --    0.62978   0.66901   0.67570   0.68852   0.70676
  Beta virt. eigenvalues --    0.71080   0.72121   0.75534   0.76397   0.78410
  Beta virt. eigenvalues --    0.81387   0.83267   0.85198   0.87231   0.88723
  Beta virt. eigenvalues --    0.91512   0.92455   0.94053   0.95489   0.97574
  Beta virt. eigenvalues --    0.99369   1.01152   1.03321   1.03878   1.04963
  Beta virt. eigenvalues --    1.06701   1.07882   1.09116   1.10272   1.10976
  Beta virt. eigenvalues --    1.13617   1.15004   1.16077   1.16240   1.17665
  Beta virt. eigenvalues --    1.20039   1.21154   1.23631   1.23789   1.24956
  Beta virt. eigenvalues --    1.28089   1.29103   1.29853   1.32495   1.33172
  Beta virt. eigenvalues --    1.35025   1.36631   1.38678   1.39210   1.39893
  Beta virt. eigenvalues --    1.41237   1.42576   1.43816   1.44910   1.49160
  Beta virt. eigenvalues --    1.50327   1.51112   1.53200   1.54326   1.56071
  Beta virt. eigenvalues --    1.57641   1.60117   1.60605   1.64250   1.66473
  Beta virt. eigenvalues --    1.67447   1.72923   1.75304   1.79866   1.81662
  Beta virt. eigenvalues --    1.89353   1.93383   2.00751   2.02771   2.06391
  Beta virt. eigenvalues --    2.12494   2.18787   2.20789   2.22492   2.26663
  Beta virt. eigenvalues --    2.31102   2.36223   2.37653   2.38637   2.40861
  Beta virt. eigenvalues --    2.43322   2.46202   2.47640   2.48024   2.50633
  Beta virt. eigenvalues --    2.51836   2.56254   2.58025   2.59574   2.65176
  Beta virt. eigenvalues --    2.66552   2.68620   2.69572   2.73533   2.77556
  Beta virt. eigenvalues --    2.80012   2.82373   2.82665   2.84823   2.86046
  Beta virt. eigenvalues --    2.88760   2.90685   2.91873   2.92106   2.92866
  Beta virt. eigenvalues --    2.93037   2.96849   2.98419   2.99400   3.00396
  Beta virt. eigenvalues --    3.01211   3.02829   3.04587   3.05670   3.06927
  Beta virt. eigenvalues --    3.08512   3.09189   3.12146   3.12201   3.13624
  Beta virt. eigenvalues --    3.15715   3.16242   3.17895   3.19390   3.19708
  Beta virt. eigenvalues --    3.21164   3.21693   3.22448   3.25102   3.28277
  Beta virt. eigenvalues --    3.29770   3.32039   3.33926   3.35273   3.37114
  Beta virt. eigenvalues --    3.39302   3.41672   3.42225   3.43026   3.44798
  Beta virt. eigenvalues --    3.48588   3.48964   3.49972   3.51455   3.52949
  Beta virt. eigenvalues --    3.53482   3.56931   3.57689   3.60042   3.61022
  Beta virt. eigenvalues --    3.62341   3.64210   3.64974   3.68300   3.68757
  Beta virt. eigenvalues --    3.71271   3.73671   3.75877   3.78868   3.80221
  Beta virt. eigenvalues --    3.81570   3.84032   3.85968   3.87125   3.88579
  Beta virt. eigenvalues --    3.90938   3.91678   3.93744   3.94228   3.95850
  Beta virt. eigenvalues --    3.96979   3.97969   3.98480   3.99788   4.03532
  Beta virt. eigenvalues --    4.04823   4.07335   4.08373   4.09908   4.11462
  Beta virt. eigenvalues --    4.12247   4.14757   4.15115   4.17324   4.18130
  Beta virt. eigenvalues --    4.18899   4.20107   4.21169   4.22756   4.24173
  Beta virt. eigenvalues --    4.27139   4.28141   4.31196   4.34472   4.35268
  Beta virt. eigenvalues --    4.37497   4.37781   4.39110   4.42857   4.44946
  Beta virt. eigenvalues --    4.48099   4.48348   4.51139   4.53256   4.55622
  Beta virt. eigenvalues --    4.61688   4.63820   4.64716   4.68682   4.70528
  Beta virt. eigenvalues --    4.74772   4.76977   4.78919   4.81083   4.83274
  Beta virt. eigenvalues --    4.84968   4.86905   4.92627   4.94111   4.98418
  Beta virt. eigenvalues --    4.99951   5.01081   5.01761   5.02932   5.06087
  Beta virt. eigenvalues --    5.09040   5.10201   5.12274   5.17242   5.19249
  Beta virt. eigenvalues --    5.22972   5.24803   5.26964   5.30276   5.31519
  Beta virt. eigenvalues --    5.33336   5.33796   5.35467   5.38536   5.39311
  Beta virt. eigenvalues --    5.39520   5.41292   5.43116   5.47624   5.51154
  Beta virt. eigenvalues --    5.51676   5.57632   5.60685   5.64056   5.66680
  Beta virt. eigenvalues --    5.68848   5.77207   5.82745   5.92201   5.94450
  Beta virt. eigenvalues --    5.96747   5.99658   6.05298   6.06572   6.07818
  Beta virt. eigenvalues --    6.12687   6.15523   6.23234   6.27526   6.39608
  Beta virt. eigenvalues --    6.41045   6.46856   6.66802   6.75131   6.76642
  Beta virt. eigenvalues --    6.82877   6.97589   7.05106   7.07183   7.16995
  Beta virt. eigenvalues --    7.43778   7.52933   7.59664   7.69176   9.82158
  Beta virt. eigenvalues --   10.60530  11.36470  12.61139  13.42940  13.81619
  Beta virt. eigenvalues --   14.44853
          Condensed to atoms (all electrons):
               1          2          3          4          5          6
     1  C    5.059252   0.401196  -0.002684  -0.000247   0.000328  -0.000433
     2  H    0.401196   0.576757   0.000328  -0.000994  -0.000064   0.000044
     3  C   -0.002684   0.000328   4.609451   0.393462   0.396175   0.412989
     4  H   -0.000247  -0.000994   0.393462   0.679876  -0.035456  -0.056990
     5  H    0.000328  -0.000064   0.396175  -0.035456   0.588444  -0.027432
     6  H   -0.000433   0.000044   0.412989  -0.056990  -0.027432   0.606250
     7  O    0.003898   0.000197   0.297935  -0.050207  -0.025314  -0.036580
     8  O   -0.071858  -0.000919  -0.045051  -0.002104   0.006653   0.004217
     9  H    0.261540  -0.011812   0.002541   0.003843  -0.000515   0.000443
    10  C    0.384931  -0.038106  -0.000011  -0.000358  -0.000011   0.000044
    11  C   -0.071245  -0.001668   0.000004   0.000008  -0.000001  -0.000002
    12  H   -0.038635   0.005681   0.000003  -0.000005  -0.000000   0.000001
    13  H    0.006006  -0.000019   0.000000  -0.000001  -0.000000   0.000000
    14  H   -0.003783   0.004064   0.000001   0.000011   0.000000  -0.000001
    15  C    0.330559  -0.036075  -0.000401   0.000909  -0.000052   0.000002
    16  H   -0.036425  -0.003627  -0.001230  -0.002207  -0.000016   0.000460
    17  H   -0.036696  -0.004208  -0.000058  -0.000003  -0.000009   0.000001
    18  H   -0.036302   0.006218   0.000081   0.000032  -0.000018  -0.000013
               7          8          9         10         11         12
     1  C    0.003898  -0.071858   0.261540   0.384931  -0.071245  -0.038635
     2  H    0.000197  -0.000919  -0.011812  -0.038106  -0.001668   0.005681
     3  C    0.297935  -0.045051   0.002541  -0.000011   0.000004   0.000003
     4  H   -0.050207  -0.002104   0.003843  -0.000358   0.000008  -0.000005
     5  H   -0.025314   0.006653  -0.000515  -0.000011  -0.000001  -0.000000
     6  H   -0.036580   0.004217   0.000443   0.000044  -0.000002   0.000001
     7  O    7.937143   0.071946  -0.026107   0.000975  -0.000014  -0.000001
     8  O    0.071946   8.094648   0.161751  -0.001191   0.000659   0.000185
     9  H   -0.026107   0.161751   0.429318  -0.011402  -0.001396  -0.000999
    10  C    0.000975  -0.001191  -0.011402   4.888833   0.600595   0.409140
    11  C   -0.000014   0.000659  -0.001396   0.600595   4.972187  -0.041638
    12  H   -0.000001   0.000185  -0.000999   0.409140  -0.041638   0.531349
    13  H   -0.000000   0.000013  -0.000041  -0.045552   0.421330  -0.007458
    14  H    0.000002  -0.000020  -0.000339  -0.049701   0.411597   0.006135
    15  C   -0.003703   0.000444  -0.011605  -0.054212   0.002973  -0.002115
    16  H    0.010931  -0.001564  -0.004437   0.006681  -0.000413  -0.000051
    17  H    0.000118  -0.000025   0.003664  -0.001609   0.001021  -0.000092
    18  H   -0.000476   0.001948  -0.003729  -0.002976   0.000323   0.004082
              13         14         15         16         17         18
     1  C    0.006006  -0.003783   0.330559  -0.036425  -0.036696  -0.036302
     2  H   -0.000019   0.004064  -0.036075  -0.003627  -0.004208   0.006218
     3  C    0.000000   0.000001  -0.000401  -0.001230  -0.000058   0.000081
     4  H   -0.000001   0.000011   0.000909  -0.002207  -0.000003   0.000032
     5  H   -0.000000   0.000000  -0.000052  -0.000016  -0.000009  -0.000018
     6  H    0.000000  -0.000001   0.000002   0.000460   0.000001  -0.000013
     7  O   -0.000000   0.000002  -0.003703   0.010931   0.000118  -0.000476
     8  O    0.000013  -0.000020   0.000444  -0.001564  -0.000025   0.001948
     9  H   -0.000041  -0.000339  -0.011605  -0.004437   0.003664  -0.003729
    10  C   -0.045552  -0.049701  -0.054212   0.006681  -0.001609  -0.002976
    11  C    0.421330   0.411597   0.002973  -0.000413   0.001021   0.000323
    12  H   -0.007458   0.006135  -0.002115  -0.000051  -0.000092   0.004082
    13  H    0.529459  -0.034008  -0.000325   0.000020  -0.000022  -0.000014
    14  H   -0.034008   0.543532   0.000067  -0.000021   0.000032   0.000022
    15  C   -0.000325   0.000067   4.845057   0.411177   0.397496   0.408955
    16  H    0.000020  -0.000021   0.411177   0.567533  -0.032849  -0.026195
    17  H   -0.000022   0.000032   0.397496  -0.032849   0.601569  -0.031469
    18  H   -0.000014   0.000022   0.408955  -0.026195  -0.031469   0.576402
          Atomic-Atomic Spin Densities.
               1          2          3          4          5          6
     1  C    0.531088   0.003631   0.001230  -0.004518   0.000086   0.001080
     2  H    0.003631  -0.021423  -0.000276   0.001190  -0.000002  -0.000152
     3  C    0.001230  -0.000276  -0.008788   0.003121   0.000826  -0.001894
     4  H   -0.004518   0.001190   0.003121   0.004455  -0.000956  -0.001802
     5  H    0.000086  -0.000002   0.000826  -0.000956  -0.002102   0.001079
     6  H    0.001080  -0.000152  -0.001894  -0.001802   0.001079   0.004755
     7  O    0.011823  -0.000749   0.001605  -0.001502   0.000082  -0.000979
     8  O   -0.075724   0.003251  -0.002272   0.004165  -0.000214   0.000018
     9  H    0.058757   0.002745   0.001022  -0.003312   0.000056   0.001240
    10  C   -0.015498   0.002290  -0.000028   0.000199  -0.000001  -0.000052
    11  C   -0.017038  -0.000576  -0.000004   0.000035  -0.000000  -0.000015
    12  H   -0.000808  -0.000081   0.000000   0.000000   0.000000   0.000000
    13  H   -0.000002   0.000046  -0.000000   0.000001  -0.000000  -0.000000
    14  H   -0.000057  -0.000149   0.000001  -0.000005   0.000000   0.000001
    15  C   -0.024649   0.003383  -0.000375   0.000902  -0.000032  -0.000133
    16  H   -0.002562   0.000139  -0.000251   0.000464  -0.000026  -0.000059
    17  H   -0.009306  -0.001636   0.000075  -0.000191   0.000005   0.000013
    18  H   -0.003768   0.000091  -0.000030   0.000056  -0.000000  -0.000010
               7          8          9         10         11         12
     1  C    0.011823  -0.075724   0.058757  -0.015498  -0.017038  -0.000808
     2  H   -0.000749   0.003251   0.002745   0.002290  -0.000576  -0.000081
     3  C    0.001605  -0.002272   0.001022  -0.000028  -0.000004   0.000000
     4  H   -0.001502   0.004165  -0.003312   0.000199   0.000035   0.000000
     5  H    0.000082  -0.000214   0.000056  -0.000001  -0.000000   0.000000
     6  H   -0.000979   0.000018   0.001240  -0.000052  -0.000015   0.000000
     7  O    0.084846  -0.052323   0.009824  -0.000488  -0.000031   0.000002
     8  O   -0.052323   0.644053  -0.054334   0.005140   0.001221  -0.000025
     9  H    0.009824  -0.054334  -0.092684   0.001398  -0.000898   0.000050
    10  C   -0.000488   0.005140   0.001398  -0.226316   0.004583  -0.001977
    11  C   -0.000031   0.001221  -0.000898   0.004583   0.345971  -0.000992
    12  H    0.000002  -0.000025   0.000050  -0.001977  -0.000992   0.011463
    13  H   -0.000000   0.000018  -0.000010  -0.001327   0.003648   0.000212
    14  H    0.000001  -0.000025   0.000027   0.000382   0.003262  -0.000043
    15  C   -0.003391   0.008573  -0.002790   0.006365   0.000149  -0.000020
    16  H   -0.001279   0.000584   0.000854  -0.000133   0.000004  -0.000009
    17  H    0.000332  -0.000799   0.000435  -0.001064   0.000803   0.000023
    18  H   -0.000346   0.000937  -0.000458   0.000844  -0.000067   0.000007
              13         14         15         16         17         18
     1  C   -0.000002  -0.000057  -0.024649  -0.002562  -0.009306  -0.003768
     2  H    0.000046  -0.000149   0.003383   0.000139  -0.001636   0.000091
     3  C   -0.000000   0.000001  -0.000375  -0.000251   0.000075  -0.000030
     4  H    0.000001  -0.000005   0.000902   0.000464  -0.000191   0.000056
     5  H   -0.000000   0.000000  -0.000032  -0.000026   0.000005  -0.000000
     6  H   -0.000000   0.000001  -0.000133  -0.000059   0.000013  -0.000010
     7  O   -0.000000   0.000001  -0.003391  -0.001279   0.000332  -0.000346
     8  O    0.000018  -0.000025   0.008573   0.000584  -0.000799   0.000937
     9  H   -0.000010   0.000027  -0.002790   0.000854   0.000435  -0.000458
    10  C   -0.001327   0.000382   0.006365  -0.000133  -0.001064   0.000844
    11  C    0.003648   0.003262   0.000149   0.000004   0.000803  -0.000067
    12  H    0.000212  -0.000043  -0.000020  -0.000009   0.000023   0.000007
    13  H   -0.019783   0.002198   0.000020  -0.000000  -0.000018   0.000006
    14  H    0.002198  -0.018963  -0.000030   0.000001   0.000012  -0.000002
    15  C    0.000020  -0.000030  -0.019622   0.004778  -0.000287   0.003521
    16  H   -0.000000   0.000001   0.004778   0.002740  -0.002036   0.000491
    17  H   -0.000018   0.000012  -0.000287  -0.002036   0.046220  -0.003565
    18  H    0.000006  -0.000002   0.003521   0.000491  -0.003565   0.004187
 Mulliken charges and spin densities:
               1          2
     1  C   -0.149401   0.453767
     2  H    0.103008  -0.008280
     3  C   -0.063535  -0.006039
     4  H    0.070431   0.002304
     5  H    0.097288  -0.001201
     6  H    0.097000   0.003091
     7  O   -0.180742   0.047427
     8  O   -0.219731   0.482245
     9  H    0.209282  -0.078077
    10  C   -0.086069  -0.225683
    11  C   -0.294320   0.340054
    12  H    0.134420   0.007803
    13  H    0.130611  -0.014993
    14  H    0.122410  -0.013390
    15  C   -0.289149  -0.023636
    16  H    0.112234   0.003698
    17  H    0.103139   0.029015
    18  H    0.103127   0.001895
 Sum of Mulliken charges =  -0.00000   1.00000
 Mulliken charges and spin densities with hydrogens summed into heavy atoms:
               1          2
     1  C   -0.046393   0.445487
     3  C    0.201183  -0.001845
     7  O   -0.180742   0.047427
     8  O   -0.010450   0.404168
    10  C    0.048351  -0.217880
    11  C   -0.041300   0.311671
    15  C    0.029351   0.010971
 APT charges:
               1
     1  C    0.641407
     2  H   -0.080346
     3  C    0.463910
     4  H   -0.035663
     5  H   -0.012795
     6  H   -0.028183
     7  O   -0.628263
     8  O    0.395039
     9  H   -0.475267
    10  C   -0.205292
    11  C   -0.068260
    12  H    0.016973
    13  H    0.047016
    14  H    0.021885
    15  C   -0.056676
    16  H    0.012476
    17  H   -0.006133
    18  H   -0.001827
 Sum of APT charges =  -0.00000
 APT charges with hydrogens summed into heavy atoms:
               1
     1  C    0.561061
     3  C    0.387269
     7  O   -0.628263
     8  O   -0.080228
    10  C   -0.188319
    11  C    0.000641
    15  C   -0.052160
 Electronic spatial extent (au):  <R**2>=           1191.8547
 Charge=             -0.0000 electrons
 Dipole moment (field-independent basis, Debye):
    X=              0.5532    Y=              0.5430    Z=              2.0773  Tot=              2.2172
 Quadrupole moment (field-independent basis, Debye-Ang):
   XX=            -40.3113   YY=            -45.1310   ZZ=            -44.4757
   XY=             -0.5876   XZ=             -4.9334   YZ=             -1.6645
 Traceless Quadrupole moment (field-independent basis, Debye-Ang):
   XX=              2.9947   YY=             -1.8250   ZZ=             -1.1697
   XY=             -0.5876   XZ=             -4.9334   YZ=             -1.6645
 Octapole moment (field-independent basis, Debye-Ang**2):
  XXX=            -28.0965  YYY=             -1.2022  ZZZ=             -2.6643  XYY=             -4.3471
  XXY=            -10.1209  XXZ=              3.7690  XZZ=             -1.6319  YZZ=             -0.4877
  YYZ=              0.3287  XYZ=             -1.0058
 Hexadecapole moment (field-independent basis, Debye-Ang**3):
 XXXX=          -1070.3038 YYYY=           -320.8383 ZZZZ=           -137.1607 XXXY=            -19.4053
 XXXZ=            -35.0406 YYYX=              7.2105 YYYZ=              0.5504 ZZZX=              2.9709
 ZZZY=             -2.8640 XXYY=           -230.2185 XXZZ=           -211.3194 YYZZ=            -75.1416
 XXYZ=             -1.6145 YYXZ=              3.4211 ZZXY=              0.3745
 N-N= 3.041048520345D+02 E-N=-1.419370075652D+03  KE= 3.453240344691D+02
  Exact polarizability: 144.955  -4.948  73.912   5.104  -2.063  63.023
 Approx polarizability: 115.763  -7.451  80.963   8.104  -1.627  76.127
                          Isotropic Fermi Contact Couplings
        Atom                 a.u.       MegaHertz       Gauss      10(-4) cm-1
     1  C(13)              0.06888      77.43236      27.62979      25.82865
     2  H(1)              -0.00273     -12.19495      -4.35146      -4.06780
     3  C(13)             -0.00495      -5.56737      -1.98658      -1.85708
     4  H(1)               0.00278      12.42768       4.43451       4.14543
     5  H(1)              -0.00020      -0.88733      -0.31662      -0.29598
     6  H(1)               0.00116       5.19474       1.85361       1.73278
     7  O(17)              0.01996     -12.10088      -4.31790      -4.03642
     8  O(17)              0.04211     -25.52561      -9.10817      -8.51443
     9  H(1)              -0.01688     -75.46647     -26.92831     -25.17291
    10  C(13)             -0.00722      -8.12053      -2.89761      -2.70872
    11  C(13)              0.00480       5.39519       1.92514       1.79964
    12  H(1)               0.00021       0.93748       0.33452       0.31271
    13  H(1)              -0.00208      -9.30749      -3.32114      -3.10464
    14  H(1)              -0.00214      -9.55506      -3.40948      -3.18722
    15  C(13)             -0.00655      -7.36577      -2.62829      -2.45696
    16  H(1)               0.00377      16.83890       6.00854       5.61685
    17  H(1)               0.01429      63.88621      22.79619      21.31015
    18  H(1)               0.00120       5.35224       1.90981       1.78531
 --------------------------------------------------------
       Center         ----  Spin Dipole Couplings  ----
                      3XX-RR        3YY-RR        3ZZ-RR
 --------------------------------------------------------
     1   Atom        0.162686     -0.050765     -0.111921
     2   Atom       -0.012659     -0.018364      0.031023
     3   Atom        0.003836     -0.007045      0.003209
     4   Atom       -0.000551     -0.005446      0.005997
     5   Atom        0.003940     -0.003510     -0.000430
     6   Atom        0.003629     -0.003045     -0.000584
     7   Atom        0.127135     -0.087884     -0.039251
     8   Atom        0.109282      0.060506     -0.169788
     9   Atom        0.085044     -0.037967     -0.047077
    10   Atom        0.023273     -0.023614      0.000342
    11   Atom       -0.025461      0.081304     -0.055843
    12   Atom        0.005108     -0.003873     -0.001235
    13   Atom        0.011248     -0.003620     -0.007628
    14   Atom       -0.005890     -0.001492      0.007382
    15   Atom       -0.004154      0.017480     -0.013327
    16   Atom       -0.000382      0.006601     -0.006219
    17   Atom       -0.002904      0.005965     -0.003060
    18   Atom       -0.004008      0.004913     -0.000905
 --------------------------------------------------------
                        XY            XZ            YZ
 --------------------------------------------------------
     1   Atom        0.306622      0.260252      0.183169
     2   Atom        0.013936      0.001665     -0.010103
     3   Atom       -0.000584     -0.007514     -0.001444
     4   Atom        0.000269     -0.005412      0.000714
     5   Atom       -0.001146     -0.004779      0.001223
     6   Atom        0.003692     -0.006009     -0.003120
     7   Atom        0.322939      0.298720      0.217491
     8   Atom        1.069821      0.945765      0.916612
     9   Atom        0.106948      0.101996      0.060194
    10   Atom       -0.045579     -0.025210     -0.027350
    11   Atom        0.119648      0.063738      0.101596
    12   Atom       -0.002190     -0.004211     -0.001086
    13   Atom       -0.002343     -0.007390      0.008279
    14   Atom        0.005053     -0.000687     -0.006955
    15   Atom        0.012059      0.002942      0.001347
    16   Atom       -0.005344     -0.000003      0.002918
    17   Atom        0.002693      0.002732      0.001968
    18   Atom        0.002363      0.000073     -0.006501
 --------------------------------------------------------


 ---------------------------------------------------------------------------------
              Anisotropic Spin Dipole Couplings in Principal Axis System
 ---------------------------------------------------------------------------------

       Atom             a.u.   MegaHertz   Gauss  10(-4) cm-1        Axes

              Baa    -0.2697   -36.197   -12.916   -12.074  0.6770 -0.4844 -0.5541
     1 C(13)  Bbb    -0.2670   -35.831   -12.785   -11.952  0.0745 -0.7039  0.7064
              Bcc     0.5368    72.028    25.701    24.026  0.7322  0.5195  0.4405
 
              Baa    -0.0310   -16.554    -5.907    -5.522 -0.6064  0.7821  0.1436
     2 H(1)   Bbb    -0.0020    -1.073    -0.383    -0.358  0.7947  0.5905  0.1405
              Bcc     0.0330    17.626     6.290     5.880 -0.0251 -0.1993  0.9796
 
              Baa    -0.0076    -1.025    -0.366    -0.342  0.2348  0.9289  0.2863
     3 C(13)  Bbb    -0.0034    -0.460    -0.164    -0.153  0.6540 -0.3689  0.6605
              Bcc     0.0111     1.484     0.530     0.495  0.7192  0.0322 -0.6941
 
              Baa    -0.0056    -3.004    -1.072    -1.002 -0.2255  0.9604 -0.1639
     4 H(1)   Bbb    -0.0034    -1.832    -0.654    -0.611  0.8424  0.2767  0.4624
              Bcc     0.0091     4.837     1.726     1.613 -0.4894  0.0338  0.8714
 
              Baa    -0.0041    -2.162    -0.772    -0.721 -0.2212  0.7976 -0.5612
     5 H(1)   Bbb    -0.0032    -1.709    -0.610    -0.570  0.5139  0.5844  0.6280
              Bcc     0.0073     3.871     1.381     1.291  0.8288 -0.1495 -0.5392
 
              Baa    -0.0052    -2.795    -0.997    -0.932  0.2034  0.6714  0.7127
     6 H(1)   Bbb    -0.0045    -2.386    -0.851    -0.796 -0.6206  0.6514 -0.4365
              Bcc     0.0097     5.181     1.849     1.728  0.7573  0.3535 -0.5491
 
              Baa    -0.3208    23.211     8.282     7.742 -0.5754  0.8176 -0.0210
     7 O(17)  Bbb    -0.2596    18.783     6.702     6.265 -0.4293 -0.2801  0.8586
              Bcc     0.5803   -41.994   -14.984   -14.008  0.6961  0.5031  0.5122
 
              Baa    -0.9885    71.528    25.523    23.859  0.7877 -0.3791 -0.4855
     8 O(17)  Bbb    -0.9783    70.791    25.260    23.613 -0.0896  0.7093 -0.6992
              Bcc     1.9668  -142.319   -50.783   -47.473  0.6095  0.5943  0.5247
 
              Baa    -0.1034   -55.172   -19.687   -18.403 -0.2317 -0.4258  0.8746
     9 H(1)   Bbb    -0.0996   -53.137   -18.961   -17.725 -0.5792  0.7828  0.2276
              Bcc     0.2030   108.309    38.648    36.128  0.7816  0.4538  0.4280
 
              Baa    -0.0704    -9.442    -3.369    -3.149  0.4857  0.7430  0.4606
    10 C(13)  Bbb     0.0179     2.406     0.859     0.803 -0.0753 -0.4894  0.8688
              Bcc     0.0524     7.036     2.511     2.347  0.8709 -0.4566 -0.1817
 
              Baa    -0.1098   -14.740    -5.260    -4.917 -0.0135 -0.4627  0.8864
    11 C(13)  Bbb    -0.1027   -13.779    -4.917    -4.596  0.8688 -0.4443 -0.2187
              Bcc     0.2125    28.519    10.176     9.513  0.4950  0.7672  0.4080
 
              Baa    -0.0057    -3.025    -1.079    -1.009  0.3634  0.7646  0.5324
    12 H(1)   Bbb    -0.0017    -0.927    -0.331    -0.309  0.2503 -0.6305  0.7347
              Bcc     0.0074     3.952     1.410     1.318  0.8974 -0.1337 -0.4205
 
              Baa    -0.0149    -7.970    -2.844    -2.659  0.1792 -0.5564  0.8113
    13 H(1)   Bbb    -0.0003    -0.155    -0.055    -0.052  0.4405  0.7828  0.4395
              Bcc     0.0152     8.125     2.899     2.710  0.8797 -0.2786 -0.3854
 
              Baa    -0.0099    -5.308    -1.894    -1.770  0.7452 -0.6286 -0.2228
    14 H(1)   Bbb    -0.0018    -0.960    -0.343    -0.320  0.6424  0.5870  0.4927
              Bcc     0.0117     6.268     2.236     2.091 -0.1789 -0.5102  0.8412
 
              Baa    -0.0144    -1.935    -0.690    -0.645 -0.3897  0.1087  0.9145
    15 C(13)  Bbb    -0.0086    -1.155    -0.412    -0.385  0.8243 -0.4017  0.3990
              Bcc     0.0230     3.090     1.103     1.031  0.4107  0.9093  0.0669
 
              Baa    -0.0071    -3.797    -1.355    -1.267 -0.2269 -0.2864  0.9309
    16 H(1)   Bbb    -0.0028    -1.488    -0.531    -0.496  0.8610  0.3877  0.3291
              Bcc     0.0099     5.285     1.886     1.763 -0.4552  0.8762  0.1586
 
              Baa    -0.0057    -3.062    -1.092    -1.021  0.7165 -0.0479 -0.6959
    17 H(1)   Bbb    -0.0017    -0.890    -0.318    -0.297  0.6266 -0.3944  0.6722
              Bcc     0.0074     3.952     1.410     1.318  0.3066  0.9177  0.2526
 
              Baa    -0.0061    -3.255    -1.162    -1.086 -0.5879  0.5010  0.6351
    18 H(1)   Bbb    -0.0033    -1.766    -0.630    -0.589  0.7959  0.2179  0.5649
              Bcc     0.0094     5.021     1.792     1.675  0.1446  0.8376 -0.5268
 

 ---------------------------------------------------------------------------------

 Calling FoFJK, ICntrl=  10100127 FMM=F ISym2X=0 I1Cent= 0 IOpClX= 1 NMat=1 NMatS=1 NMatT=0.
 -------------------------------------------------------------------
 Center     Atomic                   Forces (Hartrees/Bohr)
 Number     Number              X              Y              Z
 -------------------------------------------------------------------
      1        6          -0.000000458   -0.000001206   -0.000005293
      2        1           0.000003370    0.000001424   -0.000000443
      3        6           0.000000609    0.000000311   -0.000000186
      4        1           0.000000001   -0.000000003    0.000000168
      5        1           0.000000042   -0.000000324   -0.000000299
      6        1          -0.000000159   -0.000000703    0.000000161
      7        8           0.000001187    0.000001314   -0.000000047
      8        8          -0.000002714   -0.000002382    0.000000908
      9        1          -0.000001061   -0.000000568   -0.000002687
     10        6          -0.000001543    0.000001800    0.000005647
     11        6          -0.000001884    0.000001246   -0.000000813
     12        1          -0.000000420    0.000000808   -0.000000138
     13        1           0.000000969    0.000000128    0.000000292
     14        1          -0.000000140   -0.000000537    0.000000560
     15        6           0.000001451   -0.000000984    0.000001875
     16        1           0.000000753   -0.000000168    0.000000108
     17        1           0.000000163    0.000000520   -0.000000013
     18        1          -0.000000167   -0.000000676    0.000000201
 -------------------------------------------------------------------
 Cartesian Forces:  Max     0.000005647 RMS     0.000001515
 FormGI is forming the generalized inverse of G from B-inverse, IUseBI=4.

 GradGradGradGradGradGradGradGradGradGradGradGradGradGradGradGradGradGrad
 Berny optimization.
 Internal  Forces:  Max     0.000005999 RMS     0.000001316
 Search for a saddle point.
 Step number   1 out of a maximum of  108 on scan point     1 out of    37
 All quantities printed in internal units (Hartrees-Bohrs-Radians)
 Swapping is turned off.
 Second derivative matrix not updated -- analytic derivatives used.
 ITU=  0
     Eigenvalues ---   -0.08241   0.00142   0.00398   0.00556   0.01746
     Eigenvalues ---    0.01991   0.02610   0.02781   0.03061   0.03173
     Eigenvalues ---    0.03921   0.04086   0.04443   0.04494   0.07315
     Eigenvalues ---    0.08480   0.08512   0.10117   0.10639   0.11189
     Eigenvalues ---    0.12083   0.12525   0.12910   0.13919   0.14356
     Eigenvalues ---    0.15222   0.16543   0.16622   0.17921   0.18318
     Eigenvalues ---    0.19181   0.25297   0.30284   0.31608   0.33243
     Eigenvalues ---    0.33467   0.33629   0.34084   0.34292   0.34501
     Eigenvalues ---    0.34927   0.35418   0.35482   0.36147   0.36609
     Eigenvalues ---    0.40756   0.611721000.000001000.000001000.00000
     Eigenvalues --- 1000.000001000.000001000.000001000.000001000.00000
     Eigenvalues --- 1000.000001000.000001000.000001000.000001000.00000
     Eigenvalues --- 1000.000001000.000001000.000001000.000001000.00000
     Eigenvalues --- 1000.000001000.000001000.000001000.00000
 Eigenvectors required to have negative eigenvalues:
                          R10       R2        R9        R3        D6
   1                    0.75137  -0.57640  -0.16896   0.09562  -0.08046
                          D7        A14       D16       D8        D15
   1                   -0.07940   0.07324   0.06845  -0.06375   0.06270
 RFO step:  Lambda0=1.098136165D-11 Lambda= 0.00000000D+00.
 Linear search not attempted -- option 19 set.
 Iteration  1 RMS(Cart)=  0.00010675 RMS(Int)=  0.00000001
 Iteration  2 RMS(Cart)=  0.00000001 RMS(Int)=  0.00000000
 Iteration  1 RMS(Cart)=  0.00000000 RMS(Int)=  0.00000000
 Variable       Old X    -DE/DX   Delta X   Delta X   Delta X     New X
                                 (Linear)    (Quad)   (Total)
    R1        2.05789  -0.00000   0.00000  -0.00000  -0.00000   2.05789
    R2        2.44475   0.00000   0.00000   0.00002   0.00002   2.44477
    R3        2.75627  -0.00001   0.00000  -0.00001  -0.00001   2.75626
    R4        2.85324  -0.00000   0.00000  -0.00001  -0.00001   2.85324
    R5        2.06163   0.00000   0.00000   0.00000   0.00000   2.06163
    R6        2.05570  -0.00000   0.00000  -0.00000  -0.00000   2.05570
    R7        2.05650   0.00000   0.00000   0.00000   0.00000   2.05650
    R8        2.68846  -0.00000   0.00000  -0.00000  -0.00000   2.68846
    R9        2.63693  -0.00000   0.00000   0.00000   0.00000   2.63694
   R10        2.34940   0.00000   0.00000  -0.00000  -0.00000   2.34940
   R11        2.52743  -0.00000   0.00000  -0.00000  -0.00000   2.52743
   R12        2.04987   0.00000   0.00000   0.00000   0.00000   2.04987
   R13        2.04005   0.00000   0.00000   0.00000   0.00000   2.04005
   R14        2.04404   0.00000   0.00000   0.00000   0.00000   2.04404
   R15        2.05689  -0.00000   0.00000  -0.00000  -0.00000   2.05689
   R16        2.06469   0.00000   0.00000   0.00000   0.00000   2.06469
   R17        2.05814  -0.00000   0.00000  -0.00000  -0.00000   2.05814
    A1        1.78143   0.00000   0.00000   0.00001   0.00001   1.78143
    A2        1.97726  -0.00000   0.00000  -0.00003  -0.00003   1.97723
    A3        1.99641   0.00000   0.00000  -0.00002  -0.00002   1.99639
    A4        1.81276   0.00000   0.00000   0.00006   0.00006   1.81281
    A5        1.78796   0.00000   0.00000   0.00003   0.00003   1.78798
    A6        2.05980  -0.00000   0.00000  -0.00001  -0.00001   2.05979
    A7        1.92030   0.00000   0.00000   0.00000   0.00000   1.92030
    A8        1.91707  -0.00000   0.00000  -0.00000  -0.00000   1.91707
    A9        1.93083   0.00000   0.00000   0.00000   0.00000   1.93083
   A10        1.92736  -0.00000   0.00000  -0.00000  -0.00000   1.92736
   A11        1.84001  -0.00000   0.00000  -0.00000  -0.00000   1.84001
   A12        1.92717   0.00000   0.00000   0.00000   0.00000   1.92717
   A13        1.88730  -0.00000   0.00000  -0.00000  -0.00000   1.88730
   A14        1.84609  -0.00000   0.00000  -0.00002  -0.00002   1.84607
   A15        2.17684  -0.00000   0.00000  -0.00000  -0.00000   2.17683
   A16        2.02962  -0.00000   0.00000   0.00000   0.00000   2.02962
   A17        2.07622   0.00000   0.00000   0.00000   0.00000   2.07622
   A18        2.12062   0.00000   0.00000   0.00000   0.00000   2.12063
   A19        2.11565   0.00000   0.00000  -0.00000  -0.00000   2.11565
   A20        2.04691  -0.00000   0.00000  -0.00000  -0.00000   2.04690
   A21        1.94199  -0.00000   0.00000   0.00000   0.00000   1.94199
   A22        1.93394   0.00000   0.00000  -0.00000  -0.00000   1.93394
   A23        1.93362  -0.00000   0.00000  -0.00000  -0.00000   1.93362
   A24        1.88608  -0.00000   0.00000  -0.00000  -0.00000   1.88608
   A25        1.88118   0.00000   0.00000   0.00000   0.00000   1.88118
   A26        1.88490   0.00000   0.00000  -0.00000  -0.00000   1.88490
   A27        3.11470  -0.00000   0.00000  -0.00014  -0.00014   3.11455
   A28        3.05611   0.00000   0.00000   0.00005   0.00005   3.05616
    D1        1.40949   0.00000   0.00000   0.00000   0.00000   1.40949
    D2        0.19590   0.00000   0.00000   0.00010   0.00010   0.19600
    D3       -2.98049   0.00000   0.00000   0.00012   0.00012  -2.98037
    D4       -1.72254   0.00000   0.00000   0.00008   0.00008  -1.72246
    D5        1.38426   0.00000   0.00000   0.00009   0.00009   1.38436
    D6        2.59713  -0.00000   0.00000   0.00001   0.00001   2.59714
    D7       -0.57926  -0.00000   0.00000   0.00003   0.00003  -0.57923
    D8       -1.01169  -0.00000   0.00000   0.00005   0.00005  -1.01164
    D9        1.08718  -0.00000   0.00000   0.00005   0.00005   1.08723
   D10       -3.10416  -0.00000   0.00000   0.00004   0.00004  -3.10411
   D11        0.90082  -0.00000   0.00000   0.00006   0.00006   0.90088
   D12        2.99969  -0.00000   0.00000   0.00006   0.00006   2.99975
   D13       -1.19165  -0.00000   0.00000   0.00006   0.00006  -1.19159
   D14        2.87806   0.00000   0.00000   0.00015   0.00015   2.87821
   D15       -1.30625   0.00000   0.00000   0.00014   0.00014  -1.30611
   D16        0.78559   0.00000   0.00000   0.00014   0.00014   0.78574
   D17        1.14100   0.00000   0.00000   0.00004   0.00004   1.14104
   D18       -3.06682   0.00000   0.00000   0.00004   0.00004  -3.06678
   D19       -0.98498   0.00000   0.00000   0.00004   0.00004  -0.98494
   D20       -1.59919  -0.00000   0.00000  -0.00005  -0.00005  -1.59923
   D21        3.11400   0.00000   0.00000   0.00003   0.00003   3.11403
   D22       -0.02996   0.00000   0.00000   0.00002   0.00002  -0.02994
   D23        0.00806   0.00000   0.00000   0.00002   0.00002   0.00808
   D24       -3.13590   0.00000   0.00000   0.00001   0.00001  -3.13589
         Item               Value     Threshold  Converged?
 Maximum Force            0.000006     0.000450     YES
 RMS     Force            0.000001     0.000300     YES
 Maximum Displacement     0.000293     0.001800     YES
 RMS     Displacement     0.000107     0.001200     YES
 Predicted change in Energy=-1.034634D-09
 Optimization completed.
    -- Stationary point found.
                           ----------------------------
                           !   Optimized Parameters   !
                           ! (Angstroms and Degrees)  !
 --------------------------                            --------------------------
 ! Name  Definition              Value          Derivative Info.                !
 --------------------------------------------------------------------------------
 ! R1    R(1,2)                  1.089          -DE/DX =    0.0                 !
 ! R2    R(1,9)                  1.2937         -DE/DX =    0.0                 !
 ! R3    R(1,10)                 1.4586         -DE/DX =    0.0                 !
 ! R4    R(1,15)                 1.5099         -DE/DX =    0.0                 !
 ! R5    R(3,4)                  1.091          -DE/DX =    0.0                 !
 ! R6    R(3,5)                  1.0878         -DE/DX =    0.0                 !
 ! R7    R(3,6)                  1.0883         -DE/DX =    0.0                 !
 ! R8    R(3,7)                  1.4227         -DE/DX =    0.0                 !
 ! R9    R(7,8)                  1.3954         -DE/DX =    0.0                 !
 ! R10   R(8,9)                  1.2433         -DE/DX =    0.0                 !
 ! R11   R(10,11)                1.3375         -DE/DX =    0.0                 !
 ! R12   R(10,12)                1.0847         -DE/DX =    0.0                 !
 ! R13   R(11,13)                1.0795         -DE/DX =    0.0                 !
 ! R14   R(11,14)                1.0817         -DE/DX =    0.0                 !
 ! R15   R(15,16)                1.0885         -DE/DX =    0.0                 !
 ! R16   R(15,17)                1.0926         -DE/DX =    0.0                 !
 ! R17   R(15,18)                1.0891         -DE/DX =    0.0                 !
 ! A1    A(2,1,9)              102.0682         -DE/DX =    0.0                 !
 ! A2    A(2,1,10)             113.2887         -DE/DX =    0.0                 !
 ! A3    A(2,1,15)             114.386          -DE/DX =    0.0                 !
 ! A4    A(9,1,10)             103.8633         -DE/DX =    0.0                 !
 ! A5    A(9,1,15)             102.4424         -DE/DX =    0.0                 !
 ! A6    A(10,1,15)            118.018          -DE/DX =    0.0                 !
 ! A7    A(4,3,5)              110.0252         -DE/DX =    0.0                 !
 ! A8    A(4,3,6)              109.8401         -DE/DX =    0.0                 !
 ! A9    A(4,3,7)              110.6284         -DE/DX =    0.0                 !
 ! A10   A(5,3,6)              110.4297         -DE/DX =    0.0                 !
 ! A11   A(5,3,7)              105.4248         -DE/DX =    0.0                 !
 ! A12   A(6,3,7)              110.4187         -DE/DX =    0.0                 !
 ! A13   A(3,7,8)              108.1344         -DE/DX =    0.0                 !
 ! A14   A(7,8,9)              105.7733         -DE/DX =    0.0                 !
 ! A15   A(1,10,11)            124.7237         -DE/DX =    0.0                 !
 ! A16   A(1,10,12)            116.2885         -DE/DX =    0.0                 !
 ! A17   A(11,10,12)           118.9586         -DE/DX =    0.0                 !
 ! A18   A(10,11,13)           121.5028         -DE/DX =    0.0                 !
 ! A19   A(10,11,14)           121.2179         -DE/DX =    0.0                 !
 ! A20   A(13,11,14)           117.2792         -DE/DX =    0.0                 !
 ! A21   A(1,15,16)            111.2679         -DE/DX =    0.0                 !
 ! A22   A(1,15,17)            110.8066         -DE/DX =    0.0                 !
 ! A23   A(1,15,18)            110.7883         -DE/DX =    0.0                 !
 ! A24   A(16,15,17)           108.0645         -DE/DX =    0.0                 !
 ! A25   A(16,15,18)           107.7834         -DE/DX =    0.0                 !
 ! A26   A(17,15,18)           107.9966         -DE/DX =    0.0                 !
 ! A27   L(1,9,8,4,-1)         178.459          -DE/DX =    0.0                 !
 ! A28   L(1,9,8,4,-2)         175.1024         -DE/DX =    0.0                 !
 ! D1    D(2,1,8,7)             80.7576         -DE/DX =    0.0                 !
 ! D2    D(2,1,10,11)           11.2242         -DE/DX =    0.0                 !
 ! D3    D(2,1,10,12)         -170.7693         -DE/DX =    0.0                 !
 ! D4    D(9,1,10,11)          -98.6941         -DE/DX =    0.0                 !
 ! D5    D(9,1,10,12)           79.3124         -DE/DX =    0.0                 !
 ! D6    D(15,1,10,11)         148.8044         -DE/DX =    0.0                 !
 ! D7    D(15,1,10,12)         -33.1891         -DE/DX =    0.0                 !
 ! D8    D(2,1,15,16)          -57.9655         -DE/DX =    0.0                 !
 ! D9    D(2,1,15,17)           62.2911         -DE/DX =    0.0                 !
 ! D10   D(2,1,15,18)         -177.8551         -DE/DX =    0.0                 !
 ! D11   D(9,1,15,16)           51.6131         -DE/DX =    0.0                 !
 ! D12   D(9,1,15,17)          171.8697         -DE/DX =    0.0                 !
 ! D13   D(9,1,15,18)          -68.2765         -DE/DX =    0.0                 !
 ! D14   D(10,1,15,16)         164.9008         -DE/DX =    0.0                 !
 ! D15   D(10,1,15,17)         -74.8426         -DE/DX =    0.0                 !
 ! D16   D(10,1,15,18)          45.0112         -DE/DX =    0.0                 !
 ! D17   D(4,3,7,8)             65.3743         -DE/DX =    0.0                 !
 ! D18   D(5,3,7,8)           -175.7161         -DE/DX =    0.0                 !
 ! D19   D(6,3,7,8)            -56.4353         -DE/DX =    0.0                 !
 ! D20   D(3,7,8,9)            -91.6267         -DE/DX =    0.0                 !
 ! D21   D(1,10,11,13)         178.4192         -DE/DX =    0.0                 !
 ! D22   D(1,10,11,14)          -1.7166         -DE/DX =    0.0                 !
 ! D23   D(12,10,11,13)          0.4619         -DE/DX =    0.0                 !
 ! D24   D(12,10,11,14)       -179.6738         -DE/DX =    0.0                 !
 --------------------------------------------------------------------------------
 Iteration  1 RMS(Cart)=  0.11858248 RMS(Int)=  0.00463932
 Iteration  2 RMS(Cart)=  0.01006949 RMS(Int)=  0.00002774
 Iteration  3 RMS(Cart)=  0.00008506 RMS(Int)=  0.00000000
 Iteration  4 RMS(Cart)=  0.00000000 RMS(Int)=  0.00000000
 Iteration  1 RMS(Cart)=  0.00000000 RMS(Int)=  0.00000000
 GradGradGradGradGradGradGradGradGradGradGradGradGradGradGradGradGradGrad

                          Input orientation:                          
 ---------------------------------------------------------------------
 Center     Atomic      Atomic             Coordinates (Angstroms)
 Number     Number       Type             X           Y           Z
 ---------------------------------------------------------------------
      1          6           0        0.934483    0.361046    0.382445
      2          1           0        0.877847    0.076842    1.432168
      3          6           0       -2.753645   -0.317507    0.627614
      4          1           0       -2.128974   -0.091014    1.492887
      5          1           0       -3.621474    0.338253    0.612806
      6          1           0       -3.065493   -1.359623    0.659842
      7          8           0       -2.053592   -0.046053   -0.580789
      8          8           0       -0.977423   -0.930102   -0.667255
      9          1           0       -0.015690   -0.344298   -0.140400
     10          6           0        2.137811   -0.125824   -0.282631
     11          6           0        2.985419   -1.021213    0.235672
     12          1           0        2.322581    0.255604   -1.281154
     13          1           0        3.848961   -1.364438   -0.313793
     14          1           0        2.833333   -1.429500    1.225700
     15          6           0        0.487188    1.774034    0.094179
     16          1           0       -0.537353    1.938629    0.422763
     17          1           0        1.127455    2.495976    0.606634
     18          1           0        0.531714    1.983315   -0.973715
 ---------------------------------------------------------------------
                    Distance matrix (angstroms):
                    1          2          3          4          5
     1  C    0.000000
     2  H    1.088990   0.000000
     3  C    3.758035   3.740394   0.000000
     4  H    3.289712   3.012114   1.090968   0.000000
     5  H    4.561834   4.580783   1.087827   1.785041   0.000000
     6  H    4.363194   4.267300   1.088252   1.783368   1.787207
     7  O    3.165776   3.558150   1.422673   2.075533   2.007639
     8  O    2.534624   2.977169   2.281868   2.587730   3.199732
     9  H    1.293718   1.857078   2.843758   2.682861   3.746314
    10  C    1.458549   2.137550   4.979119   4.621593   5.846926
    11  C    2.477603   2.660674   5.795314   5.348165   6.755842
    12  H    2.169215   3.079177   5.453432   5.256594   6.239047
    13  H    3.457777   3.735396   6.751052   6.373492   7.717845
    14  H    2.742767   2.477019   5.727876   5.146593   6.720501
    15  C    1.509869   2.196199   3.893853   3.504153   4.383098
    16  H    2.157938   2.547144   3.169237   2.792467   3.479816
    17  H    2.155325   2.568272   4.793648   4.252328   5.216142
    18  H    2.152475   3.089129   4.318752   4.179262   4.740491
                    6          7          8          9         10
     6  H    0.000000
     7  O    2.070888   0.000000
     8  O    2.511117   1.395406   0.000000
     9  H    3.312487   2.106166   1.243251   0.000000
    10  C    5.429999   4.202751   3.240291   2.169223   0.000000
    11  C    6.075194   5.197035   4.065426   3.099403   1.337459
    12  H    5.950443   4.442116   3.559887   2.669965   1.084747
[...]
     9  H    0.058754   0.002745   0.001022  -0.003312   0.000056   0.001240
    10  C   -0.015497   0.002291  -0.000028   0.000199  -0.000001  -0.000052
    11  C   -0.017039  -0.000577  -0.000004   0.000035  -0.000000  -0.000015
    12  H   -0.000807  -0.000081   0.000000   0.000000   0.000000   0.000000
    13  H   -0.000002   0.000046  -0.000000   0.000001  -0.000000  -0.000000
    14  H   -0.000057  -0.000149   0.000001  -0.000005   0.000000   0.000001
    15  C   -0.024655   0.003382  -0.000375   0.000902  -0.000032  -0.000133
    16  H   -0.002564   0.000139  -0.000252   0.000464  -0.000026  -0.000060
    17  H   -0.009304  -0.001636   0.000075  -0.000191   0.000005   0.000013
    18  H   -0.003763   0.000091  -0.000030   0.000056  -0.000000  -0.000010
               7          8          9         10         11         12
     1  C    0.011824  -0.075722   0.058754  -0.015497  -0.017039  -0.000807
     2  H   -0.000749   0.003251   0.002745   0.002291  -0.000577  -0.000081
     3  C    0.001605  -0.002271   0.001022  -0.000028  -0.000004   0.000000
     4  H   -0.001502   0.004166  -0.003312   0.000199   0.000035   0.000000
     5  H    0.000082  -0.000214   0.000056  -0.000001  -0.000000   0.000000
     6  H   -0.000978   0.000017   0.001240  -0.000052  -0.000015   0.000000
     7  O    0.084851  -0.052325   0.009824  -0.000488  -0.000031   0.000002
     8  O   -0.052325   0.644060  -0.054331   0.005140   0.001222  -0.000025
     9  H    0.009824  -0.054331  -0.092688   0.001398  -0.000898   0.000051
    10  C   -0.000488   0.005140   0.001398  -0.226335   0.004581  -0.001977
    11  C   -0.000031   0.001222  -0.000898   0.004581   0.346002  -0.000993
    12  H    0.000002  -0.000025   0.000051  -0.001977  -0.000993   0.011465
    13  H   -0.000000   0.000018  -0.000010  -0.001327   0.003648   0.000211
    14  H    0.000001  -0.000025   0.000027   0.000382   0.003262  -0.000043
    15  C   -0.003392   0.008573  -0.002792   0.006365   0.000149  -0.000021
    16  H   -0.001280   0.000585   0.000854  -0.000133   0.000004  -0.000009
    17  H    0.000332  -0.000799   0.000435  -0.001064   0.000802   0.000023
    18  H   -0.000346   0.000935  -0.000456   0.000844  -0.000067   0.000007
              13         14         15         16         17         18
     1  C   -0.000002  -0.000057  -0.024655  -0.002564  -0.009304  -0.003763
     2  H    0.000046  -0.000149   0.003382   0.000139  -0.001636   0.000091
     3  C   -0.000000   0.000001  -0.000375  -0.000252   0.000075  -0.000030
     4  H    0.000001  -0.000005   0.000902   0.000464  -0.000191   0.000056
     5  H   -0.000000   0.000000  -0.000032  -0.000026   0.000005  -0.000000
     6  H   -0.000000   0.000001  -0.000133  -0.000060   0.000013  -0.000010
     7  O   -0.000000   0.000001  -0.003392  -0.001280   0.000332  -0.000346
     8  O    0.000018  -0.000025   0.008573   0.000585  -0.000799   0.000935
     9  H   -0.000010   0.000027  -0.002792   0.000854   0.000435  -0.000456
    10  C   -0.001327   0.000382   0.006365  -0.000133  -0.001064   0.000844
    11  C    0.003648   0.003262   0.000149   0.000004   0.000802  -0.000067
    12  H    0.000211  -0.000043  -0.000021  -0.000009   0.000023   0.000007
    13  H   -0.019786   0.002198   0.000020  -0.000000  -0.000018   0.000006
    14  H    0.002198  -0.018964  -0.000030   0.000001   0.000012  -0.000002
    15  C    0.000020  -0.000030  -0.019610   0.004782  -0.000284   0.003516
    16  H   -0.000000   0.000001   0.004782   0.002743  -0.002037   0.000491
    17  H   -0.000018   0.000012  -0.000284  -0.002037   0.046205  -0.003560
    18  H    0.000006  -0.000002   0.003516   0.000491  -0.003560   0.004178
 Mulliken charges and spin densities:
               1          2
     1  C   -0.149411   0.453753
     2  H    0.103014  -0.008279
     3  C   -0.063563  -0.006040
     4  H    0.070438   0.002305
     5  H    0.097297  -0.001201
     6  H    0.097006   0.003090
     7  O   -0.180734   0.047430
     8  O   -0.219728   0.482256
     9  H    0.209289  -0.078081
    10  C   -0.086064  -0.225702
    11  C   -0.294314   0.340082
    12  H    0.134412   0.007805
    13  H    0.130611  -0.014995
    14  H    0.122408  -0.013391
    15  C   -0.289150  -0.023633
    16  H    0.112241   0.003703
    17  H    0.103136   0.029009
    18  H    0.103111   0.001890
 Sum of Mulliken charges =  -0.00000   1.00000
 Mulliken charges and spin densities with hydrogens summed into heavy atoms:
               1          2
     1  C   -0.046397   0.445474
     3  C    0.201179  -0.001846
     7  O   -0.180734   0.047430
     8  O   -0.010439   0.404174
    10  C    0.048349  -0.217897
    11  C   -0.041295   0.311696
    15  C    0.029338   0.010969
 Electronic spatial extent (au):  <R**2>=           1201.3275
 Charge=             -0.0000 electrons
 Dipole moment (field-independent basis, Debye):
    X=              1.2332    Y=             -1.3780    Z=              1.2235  Tot=              2.2173
 Quadrupole moment (field-independent basis, Debye-Ang):
   XX=            -44.0998   YY=            -41.8665   ZZ=            -44.5361
   XY=              4.4028   XZ=             -3.6695   YZ=             -0.9953
 Traceless Quadrupole moment (field-independent basis, Debye-Ang):
   XX=             -0.5990   YY=              1.6343   ZZ=             -1.0354
   XY=              4.4028   XZ=             -3.6695   YZ=             -0.9953
 Octapole moment (field-independent basis, Debye-Ang**2):
  XXX=            -15.6725  YYY=            -25.8877  ZZZ=             -4.9291  XYY=             -2.0456
  XXY=            -21.4114  XXZ=             -3.7256  XZZ=              0.4731  YZZ=             -9.3377
  YYZ=             -2.8817  XYZ=              0.8681
 Hexadecapole moment (field-independent basis, Debye-Ang**3):
 XXXX=          -1013.3365 YYYY=           -235.0997 ZZZZ=           -339.9646 XXXY=            -87.8739
 XXXZ=             79.0387 YYYX=           -107.6040 YYYZ=            -12.0539 ZZZX=            102.1696
 ZZZY=            -12.6440 XXYY=           -199.7076 XXZZ=           -201.3622 YYZZ=            -96.6204
 XXYZ=            -11.7494 YYXZ=             33.0083 ZZXY=            -30.4613
 N-N= 3.041055536946D+02 E-N=-1.419371471569D+03  KE= 3.453240403550D+02
                          Isotropic Fermi Contact Couplings
        Atom                 a.u.       MegaHertz       Gauss      10(-4) cm-1
     1  C(13)              0.06888      77.43574      27.63100      25.82978
     2  H(1)              -0.00273     -12.19049      -4.34987      -4.06631
     3  C(13)             -0.00495      -5.56775      -1.98671      -1.85720
     4  H(1)               0.00278      12.42838       4.43476       4.14566
     5  H(1)              -0.00020      -0.88625      -0.31624      -0.29562
     6  H(1)               0.00116       5.19314       1.85304       1.73225
     7  O(17)              0.01996     -12.10155      -4.31813      -4.03664
     8  O(17)              0.04210     -25.52309      -9.10727      -8.51359
     9  H(1)              -0.01688     -75.46705     -26.92852     -25.17310
    10  C(13)             -0.00722      -8.12057      -2.89762      -2.70873
    11  C(13)              0.00480       5.39481       1.92500       1.79951
    12  H(1)               0.00021       0.93822       0.33478       0.31296
    13  H(1)              -0.00208      -9.31101      -3.32240      -3.10582
    14  H(1)              -0.00214      -9.55743      -3.41033      -3.18801
    15  C(13)             -0.00655      -7.36346      -2.62747      -2.45619
    16  H(1)               0.00377      16.85600       6.01464       5.62255
    17  H(1)               0.01429      63.87837      22.79339      21.30753
    18  H(1)               0.00119       5.33951       1.90527       1.78107
 --------------------------------------------------------
       Center         ----  Spin Dipole Couplings  ----
                      3XX-RR        3YY-RR        3ZZ-RR
 --------------------------------------------------------
     1   Atom        0.366221     -0.266204     -0.100017
     2   Atom       -0.005191      0.028039     -0.022848
     3   Atom       -0.001028      0.004753     -0.003726
     4   Atom       -0.003056      0.004541     -0.001486
     5   Atom        0.000438     -0.000368     -0.000070
     6   Atom        0.000167      0.004655     -0.004822
     7   Atom        0.369949     -0.263292     -0.106658
     8   Atom        0.937368     -0.978324      0.040956
     9   Atom        0.158191     -0.103136     -0.055055
    10   Atom       -0.006330      0.018019     -0.011688
    11   Atom        0.043927     -0.104008      0.060080
    12   Atom        0.001335      0.000472     -0.001807
    13   Atom        0.004948     -0.010242      0.005295
    14   Atom       -0.004344      0.011689     -0.007345
    15   Atom       -0.000302     -0.005386      0.005688
    16   Atom       -0.001811     -0.006487      0.008298
    17   Atom       -0.000467     -0.003025      0.003492
    18   Atom       -0.003498      0.006068     -0.002570
 --------------------------------------------------------
                        XY            XZ            YZ
 --------------------------------------------------------
     1   Atom        0.027238      0.328023      0.015158
     2   Atom       -0.006955      0.013588     -0.011327
     3   Atom        0.004695     -0.004549     -0.005892
     4   Atom        0.002112     -0.000937     -0.006435
     5   Atom        0.003750     -0.003403     -0.003722
     6   Atom        0.006741     -0.001271     -0.001165
     7   Atom       -0.019897      0.378800     -0.030004
     8   Atom       -0.058996      1.406319     -0.038439
     9   Atom        0.008062      0.107157      0.003578
    10   Atom       -0.001361     -0.060821     -0.007784
    11   Atom        0.029981      0.154687      0.029864
    12   Atom        0.003153     -0.005201     -0.002320
    13   Atom        0.008883     -0.005619     -0.006198
    14   Atom       -0.000711      0.003757      0.000884
    15   Atom        0.007330      0.011875      0.013442
    16   Atom       -0.000472     -0.003373      0.003093
    17   Atom       -0.000071      0.004521      0.003748
    18   Atom        0.000414      0.001118      0.006253
 --------------------------------------------------------


 ---------------------------------------------------------------------------------
              Anisotropic Spin Dipole Couplings in Principal Axis System
 ---------------------------------------------------------------------------------

       Atom             a.u.   MegaHertz   Gauss  10(-4) cm-1        Axes

              Baa    -0.2697   -36.195   -12.915   -12.073 -0.4094 -0.3877  0.8259
     1 C(13)  Bbb    -0.2670   -35.829   -12.785   -11.951 -0.2097  0.9210  0.3284
              Bcc     0.5367    72.024    25.700    24.025  0.8879  0.0388  0.4583
 
              Baa    -0.0310   -16.553    -5.906    -5.521 -0.4368  0.1196  0.8916
     2 H(1)   Bbb    -0.0020    -1.073    -0.383    -0.358  0.8614  0.3412  0.3762
              Bcc     0.0330    17.625     6.289     5.879 -0.2592  0.9324 -0.2520
 
              Baa    -0.0076    -1.025    -0.366    -0.342  0.4179  0.2561  0.8716
     3 C(13)  Bbb    -0.0034    -0.459    -0.164    -0.153  0.7805 -0.5923 -0.2002
              Bcc     0.0111     1.484     0.530     0.495  0.4650  0.7639 -0.4474
 
              Baa    -0.0056    -3.004    -1.072    -1.002 -0.1531  0.5508  0.8205
     4 H(1)   Bbb    -0.0034    -1.832    -0.654    -0.611  0.9707 -0.0720  0.2294
              Bcc     0.0091     4.836     1.726     1.613  0.1854  0.8315 -0.5236
 
              Baa    -0.0041    -2.162    -0.772    -0.721 -0.2919  0.8104  0.5080
     5 H(1)   Bbb    -0.0032    -1.709    -0.610    -0.570  0.7482 -0.1374  0.6491
              Bcc     0.0073     3.871     1.381     1.291  0.5959  0.5695 -0.5662
 
              Baa    -0.0052    -2.795    -0.997    -0.932  0.4917 -0.2363  0.8381
     6 H(1)   Bbb    -0.0045    -2.386    -0.851    -0.796  0.6466 -0.5456 -0.5332
              Bcc     0.0097     5.182     1.849     1.728  0.5832  0.8040 -0.1155
 
              Baa    -0.3208    23.212     8.283     7.743 -0.4549  0.2832  0.8443
     7 O(17)  Bbb    -0.2596    18.783     6.702     6.265  0.1689  0.9583 -0.2304
              Bcc     0.5804   -41.996   -14.985   -14.008  0.8744 -0.0378  0.4837
 
              Baa    -0.9885    71.529    25.523    23.860 -0.5473 -0.4049  0.7325
     8 O(17)  Bbb    -0.9783    70.791    25.260    23.613 -0.2214  0.9140  0.3399
              Bcc     1.9669  -142.320   -50.783   -47.473  0.8071 -0.0239  0.5899
 
              Baa    -0.1034   -55.170   -19.686   -18.403 -0.0055  0.9981 -0.0617
     9 H(1)   Bbb    -0.0996   -53.134   -18.960   -17.724 -0.3847  0.0548  0.9214
              Bcc     0.2030   108.305    38.646    36.127  0.9230  0.0288  0.3837
 
              Baa    -0.0704    -9.444    -3.370    -3.150  0.6875  0.0742  0.7223
    10 C(13)  Bbb     0.0179     2.407     0.859     0.803 -0.1437  0.9890  0.0352
              Bcc     0.0524     7.037     2.511     2.347  0.7118  0.1280 -0.6906
 
              Baa    -0.1099   -14.742    -5.260    -4.917 -0.2106  0.9774  0.0199
    11 C(13)  Bbb    -0.1027   -13.781    -4.917    -4.597  0.6997  0.1650 -0.6952
              Bcc     0.2126    28.523    10.178     9.514  0.6827  0.1324  0.7186
 
              Baa    -0.0057    -3.025    -1.079    -1.009  0.5972 -0.0035  0.8021
    12 H(1)   Bbb    -0.0017    -0.927    -0.331    -0.309 -0.3925  0.8708  0.2960
              Bcc     0.0074     3.952     1.410     1.318  0.6995  0.4916 -0.5187
 
              Baa    -0.0149    -7.971    -2.844    -2.659 -0.3580  0.9160  0.1812
    13 H(1)   Bbb    -0.0003    -0.154    -0.055    -0.052  0.6430  0.1011  0.7592
              Bcc     0.0152     8.126     2.899     2.710  0.6771  0.3883 -0.6252
 
              Baa    -0.0099    -5.308    -1.894    -1.771 -0.5606 -0.0522  0.8265
    14 H(1)   Bbb    -0.0018    -0.960    -0.343    -0.320  0.8274  0.0068  0.5616
              Bcc     0.0117     6.268     2.237     2.091 -0.0349  0.9986  0.0394
 
              Baa    -0.0144    -1.935    -0.691    -0.646  0.0692  0.8100 -0.5823
    15 C(13)  Bbb    -0.0086    -1.155    -0.412    -0.385  0.8555 -0.3485 -0.3830
              Bcc     0.0230     3.090     1.103     1.031  0.5132  0.4716  0.7171
 
              Baa    -0.0071    -3.797    -1.355    -1.267 -0.0439  0.9776 -0.2058
    16 H(1)   Bbb    -0.0028    -1.488    -0.531    -0.496  0.9594  0.0987  0.2643
              Bcc     0.0099     5.285     1.886     1.763 -0.2787  0.1858  0.9422
 
              Baa    -0.0057    -3.061    -1.092    -1.021  0.4533  0.7262 -0.5169
    17 H(1)   Bbb    -0.0017    -0.890    -0.318    -0.297  0.7550 -0.6210 -0.2104
              Bcc     0.0074     3.951     1.410     1.318  0.4738  0.2949  0.8298
 
              Baa    -0.0061    -3.255    -1.161    -1.086 -0.2985 -0.4282  0.8530
    18 H(1)   Bbb    -0.0033    -1.766    -0.630    -0.589  0.9519 -0.1979  0.2338
              Bcc     0.0094     5.020     1.791     1.675  0.0687  0.8818  0.4667
 

 ---------------------------------------------------------------------------------

 1\1\GINC-N180\Scan\UB2PLYPD3-FC\CC-pVTZ\C5H11O2(2)\ROOT\18-Jun-2019\0\
 \# opt=(calcfc,ts,noeigentest,maxcyc=500,modredundant) uB2PLYPD3/cc-pv
 tz scf=maxcyc=500 nosymm\\Title Card Required\\0,2\C,0.9548940609,0.30
 39950732,0.3249364771\H,1.1443895122,-0.7423731588,0.559686306\C,-2.47
 68706625,-1.1917694052,0.6538728881\H,-1.5687235535,-1.7032565405,0.97
 61404159\H,-3.2056195928,-1.182286547,1.4614632689\H,-2.8883686973,-1.
 687265624,-0.2233073254\O,-2.2079901574,0.1762718805,0.3707236653\O,-1
 .3495511117,0.2317826382,-0.7279843558\H,-0.1988564263,0.2458634236,-0
 .2574451089\C,1.8405667339,0.8332140399,-0.7060366128\C,2.6490319936,0
 .0909414473,-1.4703671408\H,1.8017911739,1.9049810478,-0.8688001898\H,
 3.265828127,0.5354787307,-2.2367672339\H,2.7123299194,-0.9813320945,-1
 .3430641046\C,0.6690269626,1.1708830998,1.527634163\H,-0.1888596533,0.
 8008968555,2.0861095747\H,1.5280874239,1.194084503,2.202338568\H,0.452
 0409475,2.1940186304,1.223838745\\Version=ES64L-G16RevB.01\HF=-346.815
 2398,-346.8151811,-346.8150952,-346.8149748,-346.814825,-346.8146632,-
 346.8145215,-346.8144264,-346.8143717,-346.8143546,-346.8143765,-346.8
 144398,-346.8145522,-346.8147083,-346.8148886,-346.8150521,-346.815161
 9,-346.8152199,-346.8152675,-346.8153057,-346.8153285,-346.815326,-346
 .8152973,-346.8152396,-346.8151595,-346.8150801,-346.815009,-346.81494
 92,-346.8149092,-346.8148984,-346.8149276,-346.8150004,-346.8151016,-3
 46.8151982,-346.8152605,-346.815272,-346.8152396\MP2=-347.2556862,-347
 .2556596,-347.2555954,-347.2555002,-347.2553728,-347.2552289,-347.2550
 874,-347.2549516,-347.2548242,-347.2547292,-347.2547042,-347.2547819,-
 347.2549785,-347.2552988,-347.2557075,-347.2560711,-347.2563149,-347.2
 564814,-347.2565788,-347.256554,-347.2563854,-347.2561095,-347.2558151
 ,-347.255577,-347.255401,-347.2552696,-347.2551648,-347.2550748,-347.2
 549988,-347.2549505,-347.2549547,-347.2550342,-347.2551865,-347.255374
 3,-347.2555439,-347.2556528,-347.2556862\PUHF=-346.8245461,-346.824458
 7,-346.8243455,-346.8242056,-346.8240454,-346.8238826,-346.8237503,-34
 6.8236787,-346.8236604,-346.8237005,-346.8237975,-346.8239517,-346.824
 1664,-346.8244281,-346.8247005,-346.8249141,-346.82501,-346.8249871,-3
 46.8249222,-346.8248446,-346.8247581,-346.8246666,-346.8245812,-346.82
 45013,-346.824422,-346.8243566,-346.8243094,-346.8242757,-346.8242671,
 -346.8242825,-346.824331,-346.8244131,-346.824512,-346.8245918,-346.82
 46285,-346.8246084,-346.8245464\PMP2-0=-347.257057,-347.2570241,-347.2
 569541,-347.2568551,-347.2567259,-347.2565824,-347.2564435,-347.256313
 3,-347.2561943,-347.2561121,-347.2561034,-347.2562005,-347.2564188,-34
 7.256761,-347.2571886,-347.2575625,-347.257804,-347.2579542,-347.25802
 79,-347.257978,-347.2577855,-347.25749,-347.2571827,-347.2569393,-347.
 2567632,-347.2566347,-347.2565351,-347.2564508,-347.2563815,-347.25633
 9,-347.2563473,-347.2564287,-347.2565804,-347.2567645,-347.2569284,-34
 7.2570303,-347.2570571\S2=0.804143,0.80381,0.803503,0.803301,0.803218,
 0.803245,0.803377,0.803658,0.804077,0.804755,0.805665,0.806789,0.80806
 2,0.809364,0.810509,0.81116,0.81107,0.810155,0.80878,0.807276,0.805799
 ,0.804565,0.803754,0.803424,0.803424,0.803598,0.803901,0.804228,0.8046
 18,0.80494,0.805176,0.805288,0.805268,0.805091,0.804823,0.804482,0.804
 15\S2-1=0.754108,0.753992,0.753893,0.753835,0.75382,0.753845,0.753907,
 0.754023,0.754184,0.754423,0.754724,0.755086,0.755488,0.755886,0.75623
 1,0.756426,0.756404,0.756121,0.755674,0.755188,0.754721,0.754338,0.754
 08,0.753963,0.753954,0.754004,0.754098,0.754202,0.754328,0.754434,0.75
 451,0.754545,0.754532,0.754464,0.754361,0.754233,0.754112\S2A=0.751519
 ,0.751509,0.7515,0.751494,0.751493,0.751495,0.751499,0.751509,0.751522
 ,0.751546,0.751579,0.751619,0.751664,0.751708,0.751747,0.751769,0.7517
 68,0.751739,0.751692,0.75164,0.751587,0.751543,0.751515,0.751505,0.751
 508,0.751516,0.751527,0.751538,0.75155,0.751559,0.751565,0.751566,0.75
 1562,0.751553,0.751543,0.751531,0.75152\RMSD=9.657e-09,8.362e-09,4.794
 e-09,6.840e-09,6.491e-09,6.434e-09,7.221e-09,3.570e-09,5.272e-09,3.976
 e-09,7.494e-09,7.243e-09,9.387e-09,6.806e-09,6.134e-09,3.674e-09,6.570
 e-09,6.264e-09,5.709e-09,8.483e-09,8.961e-09,8.928e-09,4.243e-09,3.370
 e-09,9.174e-09,4.452e-09,6.455e-09,8.053e-09,7.298e-09,7.286e-09,5.582
 e-09,7.690e-09,7.931e-09,5.446e-09,8.359e-09,6.621e-09,6.973e-09\PG=C0
 1 [X(C5H11O2)]\\@


 I WANT IT ALL - RICH, THIN, AND CHOCOLATE.
 Job cpu time:      29 days  4 hours  0 minutes 38.2 seconds.
 Elapsed time:       1 days  1 hours 27 minutes 29.3 seconds.
 File lengths (MBytes):  RWF= 108514 Int=      0 D2E=      0 Chk=     23 Scr=      1
 Normal termination of Gaussian 16 at Tue Jun 18 11:18:56 2019.
