 Entering Gaussian System, Link 0=g16
 Initial command:
 /ichec/packages/gaussian/16b01/l1.exe "/localscratch/339753/Gau-20835.inp" -scrdir="/localscratch/339753/"
 Entering Link 1 = /ichec/packages/gaussian/16b01/l1.exe PID=     20839.
  
 Copyright (c) 1988-2017, Gaussian, Inc.  All Rights Reserved.
  
 This is part of the Gaussian(R) 16 program.  It is based on
 the Gaussian(R) 09 system (copyright 2009, Gaussian, Inc.),
 the Gaussian(R) 03 system (copyright 2003, Gaussian, Inc.),
 the Gaussian(R) 98 system (copyright 1998, Gaussian, Inc.),
 the Gaussian(R) 94 system (copyright 1995, Gaussian, Inc.),
 the Gaussian 92(TM) system (copyright 1992, Gaussian, Inc.),
 the Gaussian 90(TM) system (copyright 1990, Gaussian, Inc.),
 the Gaussian 88(TM) system (copyright 1988, Gaussian, Inc.),
 the Gaussian 86(TM) system (copyright 1986, Carnegie Mellon
 University), and the Gaussian 82(TM) system (copyright 1983,
 Carnegie Mellon University). Gaussian is a federally registered
 trademark of Gaussian, Inc.
  
 This software contains proprietary and confidential information,
 including trade secrets, belonging to Gaussian, Inc.
  
 This software is provided under written license and may be
 used, copied, transmitted, or stored only in accord with that
 written license.
  
 The following legend is applicable only to US Government
 contracts under FAR:
  
                    RESTRICTED RIGHTS LEGEND
  
 Use, reproduction and disclosure by the US Government is
 subject to restrictions as set forth in subparagraphs (a)
 and (c) of the Commercial Computer Software - Restricted
 Rights clause in FAR 52.227-19.
  
 Gaussian, Inc.
 340 Quinnipiac St., Bldg. 40, Wallingford CT 06492
  
  
 ---------------------------------------------------------------
 Warning -- This program may not be used in any manner that
 competes with the business of Gaussian, Inc. or will provide
 assistance to any competitor of Gaussian, Inc.  The licensee
 of this program is prohibited from giving any competitor of
 Gaussian, Inc. access to this program.  By using this program,
 the user acknowledges that Gaussian, Inc. is engaged in the
 business of creating and licensing software in the field of
 computational chemistry and represents and warrants to the
 licensee that it is not a competitor of Gaussian, Inc. and that
 it will not use this program in any manner prohibited above.
 ---------------------------------------------------------------
  

 Cite this work as:
 Gaussian 16, Revision B.01,
 M. J. Frisch, G. W. Trucks, H. B. Schlegel, G. E. Scuseria, 
 M. A. Robb, J. R. Cheeseman, G. Scalmani, V. Barone, 
 G. A. Petersson, H. Nakatsuji, X. Li, M. Caricato, A. V. Marenich, 
 J. Bloino, B. G. Janesko, R. Gomperts, B. Mennucci, H. P. Hratchian, 
 J. V. Ortiz, A. F. Izmaylov, J. L. Sonnenberg, D. Williams-Young, 
 F. Ding, F. Lipparini, F. Egidi, J. Goings, B. Peng, A. Petrone, 
 T. Henderson, D. Ranasinghe, V. G. Zakrzewski, J. Gao, N. Rega, 
 G. Zheng, W. Liang, M. Hada, M. Ehara, K. Toyota, R. Fukuda, 
 J. Hasegawa, M. Ishida, T. Nakajima, Y. Honda, O. Kitao, H. Nakai, 
 T. Vreven, K. Throssell, J. A. Montgomery, Jr., J. E. Peralta, 
 F. Ogliaro, M. J. Bearpark, J. J. Heyd, E. N. Brothers, K. N. Kudin, 
 V. N. Staroverov, T. A. Keith, R. Kobayashi, J. Normand, 
 K. Raghavachari, A. P. Rendell, J. C. Burant, S. S. Iyengar, 
 J. Tomasi, M. Cossi, J. M. Millam, M. Klene, C. Adamo, R. Cammi, 
 J. W. Ochterski, R. L. Martin, K. Morokuma, O. Farkas, 
 J. B. Foresman, and D. J. Fox, Gaussian, Inc., Wallingford CT, 2016.
 
 ******************************************
 Gaussian 16:  ES64L-G16RevB.01 20-Dec-2017
                 2-Jun-2019 
 ******************************************
 %mem=80GB
 %nproc=40
 Will use up to   40 processors via shared memory.
 ----------------------------------------------------------------------
 # opt=(calcfc,ts,noeigentest,maxcyc=500) freq=noraman uB2PLYPD3/cc-pvt
 z
 ----------------------------------------------------------------------
 1/5=1,6=500,10=4,11=1,18=20,38=1/1,3;
 2/9=110,12=2,17=6,18=5,40=1/2;
 3/5=16,6=1,11=2,25=1,30=1,71=2,74=-60,116=2,140=1/1,2,3;
 4//1;
 5/5=2,38=5/2;
 8/6=3,8=1,10=1,19=11,30=-1/1;
 9/15=3,16=-3/6;
 11/6=1,8=1,15=11,17=12,24=-1,27=1,28=-2,29=300,32=6,42=3/1,2,10;
 10/6=2,21=1/2;
 8/6=4,8=1,10=1,19=11,30=-1/11,4;
 10/5=1,20=4/2;
 11/12=2,14=11,16=1,17=2,28=-2,42=3,76=2/2,10,12;
 6/7=2,8=2,9=2,10=2/1;
 7/10=1,12=2,25=1,44=2/1,2,3,16;
 1/5=1,6=500,10=4,11=1,18=20/3(2);
 2/9=110/2;
 99//99;
 2/9=110/2;
 3/5=16,6=1,11=2,25=1,30=1,71=1,74=-60,116=2/1,2,3;
 4/5=5,16=3,69=1/1;
 5/5=2,38=5/2;
 8/6=4,10=1/1;
 9/15=2,16=-3/6;
 10/5=1/2;
 7/12=2/1,2,3,16;
 1/5=1,6=500,11=1,18=20/3(-8);
 2/9=110/2;
 6/7=2,8=2,9=2,10=2/1;
 99/9=10/99;
 -------------------
 Title Card Required
 -------------------
 Symbolic Z-matrix:
 Charge =  0 Multiplicity = 2
 C                    -0.43072   0.65428   0.44074 
 C                    -1.75786   0.65428   0.44074 
 H                     0.13563   1.57465   0.4407 
 C                     1.90391  -1.60213   2.64937 
 H                     2.24805  -0.57067   2.73801 
 H                     1.65591  -1.99558   3.63356 
 H                     2.68246  -2.21306   2.19354 
 O                     0.69786  -1.68454   1.91541 
 O                     1.0175   -1.22604   0.5733 
 H                     0.36454  -0.27615   0.52689 
 H                    -2.29286   1.58092   0.44078 
 C                    -2.52786  -0.6794    0.44068 
 C                    -3.85228  -0.74223   0.44068 
 H                    -1.89113  -1.57425   0.44066 
 H                    -4.40142  -1.69336   0.44066 
 H                    -4.48902   0.15262   0.4407 
 
 Add virtual bond connecting atoms H10        and O9         Dist= 2.18D+00.

 GradGradGradGradGradGradGradGradGradGradGradGradGradGradGradGradGradGrad
 Berny optimization.
 Initialization pass.
                           ----------------------------
                           !    Initial Parameters    !
                           ! (Angstroms and Degrees)  !
 --------------------------                            --------------------------
 ! Name  Definition              Value          Derivative Info.                !
 --------------------------------------------------------------------------------
 ! R1    R(1,2)                  1.3271         calculate D2E/DX2 analytically  !
 ! R2    R(1,3)                  1.0807         calculate D2E/DX2 analytically  !
 ! R3    R(1,10)                 1.227          calculate D2E/DX2 analytically  !
 ! R4    R(2,11)                 1.07           calculate D2E/DX2 analytically  !
 ! R5    R(2,12)                 1.54           calculate D2E/DX2 analytically  !
 ! R6    R(4,5)                  1.091          calculate D2E/DX2 analytically  !
 ! R7    R(4,6)                  1.0885         calculate D2E/DX2 analytically  !
 ! R8    R(4,7)                  1.0896         calculate D2E/DX2 analytically  !
 ! R9    R(4,8)                  1.4142         calculate D2E/DX2 analytically  !
 ! R10   R(8,9)                  1.4538         calculate D2E/DX2 analytically  !
 ! R11   R(9,10)                 1.1536         calculate D2E/DX2 analytically  !
 ! R12   R(12,13)                1.3259         calculate D2E/DX2 analytically  !
 ! R13   R(12,14)                1.0983         calculate D2E/DX2 analytically  !
 ! R14   R(13,15)                1.0983         calculate D2E/DX2 analytically  !
 ! R15   R(13,16)                1.0983         calculate D2E/DX2 analytically  !
 ! A1    A(2,1,3)              121.6058         calculate D2E/DX2 analytically  !
 ! A2    A(2,1,10)             130.4009         calculate D2E/DX2 analytically  !
 ! A3    A(3,1,10)             107.8272         calculate D2E/DX2 analytically  !
 ! A4    A(1,2,11)             120.0            calculate D2E/DX2 analytically  !
 ! A5    A(1,2,12)             120.0            calculate D2E/DX2 analytically  !
 ! A6    A(11,2,12)            120.0            calculate D2E/DX2 analytically  !
 ! A7    A(5,4,6)              109.8854         calculate D2E/DX2 analytically  !
 ! A8    A(5,4,7)              109.7989         calculate D2E/DX2 analytically  !
 ! A9    A(5,4,8)              111.4858         calculate D2E/DX2 analytically  !
 ! A10   A(6,4,7)              109.7781         calculate D2E/DX2 analytically  !
 ! A11   A(6,4,8)              104.7067         calculate D2E/DX2 analytically  !
 ! A12   A(7,4,8)              111.0739         calculate D2E/DX2 analytically  !
 ! A13   A(4,8,9)              105.8563         calculate D2E/DX2 analytically  !
 ! A14   A(8,9,10)              99.9257         calculate D2E/DX2 analytically  !
 ! A15   A(2,12,13)            122.7159         calculate D2E/DX2 analytically  !
 ! A16   A(2,12,14)            114.5661         calculate D2E/DX2 analytically  !
 ! A17   A(13,12,14)           122.718          calculate D2E/DX2 analytically  !
 ! A18   A(12,13,15)           122.7159         calculate D2E/DX2 analytically  !
 ! A19   A(12,13,16)           122.718          calculate D2E/DX2 analytically  !
 ! A20   A(15,13,16)           114.5661         calculate D2E/DX2 analytically  !
 ! A21   L(1,10,9,14,-1)       173.9503         calculate D2E/DX2 analytically  !
 ! A22   L(1,10,9,14,-2)       178.4195         calculate D2E/DX2 analytically  !
 ! D1    D(3,1,2,11)            -0.0052         calculate D2E/DX2 analytically  !
 ! D2    D(3,1,2,12)           179.9948         calculate D2E/DX2 analytically  !
 ! D3    D(10,1,2,11)          174.7075         calculate D2E/DX2 analytically  !
 ! D4    D(10,1,2,12)           -5.2925         calculate D2E/DX2 analytically  !
 ! D5    D(2,1,9,8)            -65.7114         calculate D2E/DX2 analytically  !
 ! D6    D(3,1,9,8)            110.6189         calculate D2E/DX2 analytically  !
 ! D7    D(1,2,12,13)          179.9999         calculate D2E/DX2 analytically  !
 ! D8    D(1,2,12,14)            0.0011         calculate D2E/DX2 analytically  !
 ! D9    D(11,2,12,13)          -0.0001         calculate D2E/DX2 analytically  !
 ! D10   D(11,2,12,14)        -179.9989         calculate D2E/DX2 analytically  !
 ! D11   D(5,4,8,9)             63.9852         calculate D2E/DX2 analytically  !
 ! D12   D(6,4,8,9)           -177.2485         calculate D2E/DX2 analytically  !
 ! D13   D(7,4,8,9)            -58.8202         calculate D2E/DX2 analytically  !
 ! D14   D(4,8,9,10)          -115.5378         calculate D2E/DX2 analytically  !
 ! D15   D(2,12,13,15)        -179.9988         calculate D2E/DX2 analytically  !
 ! D16   D(2,12,13,16)           0.0016         calculate D2E/DX2 analytically  !
 ! D17   D(14,12,13,15)         -0.0002         calculate D2E/DX2 analytically  !
 ! D18   D(14,12,13,16)       -179.9998         calculate D2E/DX2 analytically  !
 --------------------------------------------------------------------------------
 Trust Radius=3.00D-01 FncErr=1.00D-07 GrdErr=1.00D-07 EigMax=2.50D+02 EigMin=1.00D-04
 Number of steps in this run=    100 maximum allowed number of steps=    100.
 Search for a saddle point of order  1.
 GradGradGradGradGradGradGradGradGradGradGradGradGradGradGradGradGradGrad

                          Input orientation:                          
 ---------------------------------------------------------------------
 Center     Atomic      Atomic             Coordinates (Angstroms)
 Number     Number       Type             X           Y           Z
 ---------------------------------------------------------------------
      1          6           0       -0.430719    0.654275    0.440743
      2          6           0       -1.757857    0.654276    0.440742
      3          1           0        0.135628    1.574650    0.440701
      4          6           0        1.903913   -1.602129    2.649370
      5          1           0        2.248051   -0.570674    2.738009
      6          1           0        1.655907   -1.995578    3.633556
      7          1           0        2.682461   -2.213062    2.193545
      8          8           0        0.697859   -1.684538    1.915406
      9          8           0        1.017501   -1.226037    0.573296
     10          1           0        0.364545   -0.276149    0.526892
     11          1           0       -2.292856    1.580924    0.440784
     12          6           0       -2.527858   -0.679402    0.440681
     13          6           0       -3.852285   -0.742229    0.440680
     14          1           0       -1.891126   -1.574251    0.440661
     15          1           0       -4.401419   -1.693356    0.440655
     16          1           0       -4.489017    0.152619    0.440696
 ---------------------------------------------------------------------
                    Distance matrix (angstroms):
                    1          2          3          4          5
     1  C    0.000000
     2  C    1.327138   0.000000
     3  H    1.080666   2.105320   0.000000
     4  C    3.926818   4.835076   4.254054   0.000000
     5  H    3.735470   4.777576   3.787132   1.090958   0.000000
     6  H    4.644328   5.373041   5.025147   1.088545   1.784094
     7  H    4.581029   5.568695   4.889333   1.089566   1.783983
     8  O    2.986363   3.698003   3.621210   1.414235   2.078573
     9  O    2.377075   3.354961   2.939240   2.288505   2.574827
    10  H    1.227011   2.318987   1.866893   2.938161   2.919483
    11  H    2.079960   1.070000   2.428492   5.711615   5.525075
    12  C    2.485294   1.540000   3.489256   5.036896   5.300834
    13  C    3.695583   2.517311   4.612090   6.225074   6.520832
    14  H    2.664417   2.232508   3.744771   4.391069   4.839190
    15  H    4.612789   3.535505   5.591480   6.681613   7.124163
    16  H    4.089186   2.776850   4.838338   6.987627   7.154641
                    6          7          8          9         10
     6  H    0.000000
     7  H    1.781782   0.000000
     8  O    1.991643   2.072521   0.000000
     9  O    3.219464   2.524186   1.453841   0.000000
    10  H    3.778282   3.449942   2.005649   1.153600   0.000000
    11  H    6.211110   6.497713   4.667133   4.342241   3.243133
    12  C    5.425003   5.707194   3.686511   3.589703   2.921650
    13  C    6.488876   6.923784   4.875097   4.895556   4.243385
    14  H    4.790985   4.939471   2.981590   2.932398   2.603950
    15  H    6.853988   7.316014   5.308258   5.440650   4.972959
    16  H    7.250462   7.752356   5.696806   5.678030   4.873226
                   11         12         13         14         15
    11  H    0.000000
    12  C    2.272510   0.000000
    13  C    2.798009   1.325916   0.000000
    14  H    3.180647   1.098263   2.130353   0.000000
    15  H    3.894475   2.130336   1.098267   2.513117   0.000000
    16  H    2.619766   2.130353   1.098263   3.119474   1.848052
                   16
    16  H    0.000000
 Stoichiometry    C5H9O2(2)
 Framework group  C1[X(C5H9O2)]
 Deg. of freedom    42
 Full point group                 C1      NOp   1
 Largest Abelian subgroup         C1      NOp   1
 Largest concise Abelian subgroup C1      NOp   1
                         Standard orientation:                         
 ---------------------------------------------------------------------
 Center     Atomic      Atomic             Coordinates (Angstroms)
 Number     Number       Type             X           Y           Z
 ---------------------------------------------------------------------
      1          6           0        0.391353    1.440849   -0.056452
      2          6           0        1.602490    0.958711   -0.305418
      3          1           0        0.102320    2.434505   -0.367813
      4          6           0       -3.016477   -0.454670   -0.518628
      5          1           0       -3.104091    0.520745   -0.999333
      6          1           0       -3.207828   -1.243447   -1.243987
      7          1           0       -3.729838   -0.527224    0.301741
      8          8           0       -1.697372   -0.693503   -0.068093
      9          8           0       -1.438810    0.308588    0.952990
     10          1           0       -0.592722    0.901592    0.439889
     11          1           0        2.320064    1.557596   -0.826306
     12          6           0        1.975114   -0.462705    0.155373
     13          6           0        3.168227   -0.997642   -0.064574
     14          1           0        1.172563   -0.997418    0.680897
     15          1           0        3.433962   -2.011346    0.264027
     16          1           0        3.970780   -0.462928   -0.590095
 ---------------------------------------------------------------------
 Rotational constants (GHZ):           4.9257490           1.0503740           0.9424596
 Standard basis: CC-pVTZ (5D, 7F)
 There are   380 symmetry adapted cartesian basis functions of A   symmetry.
 There are   336 symmetry adapted basis functions of A   symmetry.
   336 basis functions,   517 primitive gaussians,   380 cartesian basis functions
    28 alpha electrons       27 beta electrons
       nuclear repulsion energy       277.9819016533 Hartrees.
 NAtoms=   16 NActive=   16 NUniq=   16 SFac= 1.00D+00 NAtFMM=   60 NAOKFM=F Big=F
 Integral buffers will be    131072 words long.
 Raffenetti 2 integral format.
 Two-electron integral symmetry is turned on.
 Nuclear repulsion after empirical dispersion term =      277.9738413167 Hartrees.
 One-electron integrals computed using PRISM.
 NBasis=   336 RedAO= T EigKep=  3.13D-04  NBF=   336
 NBsUse=   336 1.00D-06 EigRej= -1.00D+00 NBFU=   336
 ExpMin= 1.03D-01 ExpMax= 1.53D+04 ExpMxC= 5.22D+02 IAcc=3 IRadAn=         5 AccDes= 0.00D+00
 Harris functional with IExCor=  419 and IRadAn=       5 diagonalized for initial guess.
 HarFok:  IExCor=  419 AccDes= 0.00D+00 IRadAn=         5 IDoV= 1 UseB2=F ITyADJ=14
 ICtDFT=  3500011 ScaDFX=  1.000000  1.000000  1.000000  1.000000
 FoFCou: FMM=F IPFlag=           0 FMFlag=      100000 FMFlg1=           0
         NFxFlg=           0 DoJE=T BraDBF=F KetDBF=T FulRan=T
         wScrn=  0.000000 ICntrl=       500 IOpCl=  0 I1Cent=   200000004 NGrid=           0
         NMat0=    1 NMatS0=      1 NMatT0=    0 NMatD0=    1 NMtDS0=    0 NMtDT0=    0
 Petite list used in FoFCou.
 Initial guess <Sx>= 0.0000 <Sy>= 0.0000 <Sz>= 0.5000 <S**2>= 0.7500 S= 0.5000
 Requested convergence on RMS density matrix=1.00D-08 within 128 cycles.
 Requested convergence on MAX density matrix=1.00D-06.
 Requested convergence on             energy=1.00D-06.
 No special actions if energy rises.
 Integral accuracy reduced to 1.0D-05 until final iterations.
 Initial convergence to 1.0D-05 achieved.  Increase integral accuracy.
 SCF Done:  E(UB2PLYPD3) =  -345.569693028     A.U. after   26 cycles
            NFock= 26  Conv=0.54D-08     -V/T= 2.0046
 <Sx>= 0.0000 <Sy>= 0.0000 <Sz>= 0.5000 <S**2>= 0.7866 S= 0.5181
 <L.S>=  0.00000000000    
 Annihilation of the first spin contaminant:
 S**2 before annihilation     0.7866,   after     0.7510
 DoSCS=T DFT=T ScalE2(SS,OS)=  0.270000  0.270000
 ExpMin= 1.03D-01 ExpMax= 1.53D+04 ExpMxC= 5.22D+02 IAcc=3 IRadAn=         5 AccDes= 0.00D+00
 HarFok:  IExCor=  205 AccDes= 0.00D+00 IRadAn=         5 IDoV=-2 UseB2=F ITyADJ=14
 ICtDFT= 12500011 ScaDFX=  1.000000  1.000000  1.000000  1.000000
 Range of M.O.s used for correlation:     8   336
 NBasis=   336 NAE=    28 NBE=    27 NFC=     7 NFV=     0
 NROrb=    329 NOA=    21 NOB=    20 NVA=   308 NVB=   309

 **** Warning!!: The largest alpha MO coefficient is  0.12116836D+02


 **** Warning!!: The largest beta MO coefficient is  0.12055783D+02

 DoSCS=T DFT=T ScalE2(SS,OS)=  0.270000  0.270000
 Disk-based method using ON**2 memory for 21 occupieds at a time.
 Permanent disk used for amplitudes=   106523802 words.
 Estimated scratch disk usage=  1860744336 words.
 Actual    scratch disk usage=  1799592080 words.
 JobTyp=2 Pass  1:  I=   8 to  28 NPSUse= 40 ParTrn=T ParDer=T DoDerP=T.
 (rs|ai) integrals will be sorted in core.
 Actual    scratch disk usage=  1799592080 words.
 JobTyp=3 Pass  1:  I=   8 to  27 NPSUse= 40 ParTrn=T ParDer=T DoDerP=T.
 (rs|ai) integrals will be sorted in core.
 Spin components of T(2) and E(2):
     alpha-alpha T2 =       0.7597998690D-01 E2=     -0.5267795641D-01
     alpha-beta  T2 =       0.4757661606D+00 E2=     -0.3263452934D+00
     beta-beta   T2 =       0.8343160488D-01 E2=     -0.5194288919D-01
 (S**2,0)=  0.78659D+00           (S**2,1)=  0.75414D+00
 Scaling Projection term by:   0.270000
 E(PUHF)=      -0.34557719911D+03        E(PMP2)=      -0.34600180088D+03
 E2(B2PLYPD3) =    -0.4309661390D+00 E(B2PLYPD3) =    -0.34600065916675D+03
 G2DrvN: will do    17 centers at a time, making    1 passes.
 Calling FoFCou, ICntrl=  3107 FMM=F I1Cent=   0 AccDes= 0.00D+00.
 End of G2Drv F.D. properties file   721 does not exist.
 End of G2Drv F.D. properties file   722 does not exist.
 End of G2Drv F.D. properties file   788 does not exist.
          IDoAtm=1111111111111111
          Differentiating once with respect to electric field.
                with respect to dipole field.
          Differentiating once with respect to nuclear coordinates.
 Keep R1 and R2 ints in memory in canonical form, NReq=3251642460.
          There are    51 degrees of freedom in the 1st order CPHF.  IDoFFX=6 NUNeed=    51.
     48 vectors produced by pass  0 Test12= 3.33D-14 1.96D-09 XBig12= 1.20D+02 5.21D+00.
 AX will form    48 AO Fock derivatives at one time.
     48 vectors produced by pass  1 Test12= 3.33D-14 1.96D-09 XBig12= 9.78D+00 5.90D-01.
     48 vectors produced by pass  2 Test12= 3.33D-14 1.96D-09 XBig12= 5.54D-01 1.03D-01.
     48 vectors produced by pass  3 Test12= 3.33D-14 1.96D-09 XBig12= 8.47D-03 1.38D-02.
     48 vectors produced by pass  4 Test12= 3.33D-14 1.96D-09 XBig12= 1.05D-04 1.36D-03.
     48 vectors produced by pass  5 Test12= 3.33D-14 1.96D-09 XBig12= 1.09D-06 9.97D-05.
     48 vectors produced by pass  6 Test12= 3.33D-14 1.96D-09 XBig12= 1.02D-08 8.46D-06.
     26 vectors produced by pass  7 Test12= 3.33D-14 1.96D-09 XBig12= 6.65D-11 6.40D-07.
      4 vectors produced by pass  8 Test12= 3.33D-14 1.96D-09 XBig12= 4.29D-13 7.76D-08.
      3 vectors produced by pass  9 Test12= 3.33D-14 1.96D-09 XBig12= 4.51D-15 7.48D-09.
 InvSVY:  IOpt=1 It=  1 EMax= 2.03D-15
 Solved reduced A of dimension   369 with    51 vectors.
 End of Minotr F.D. properties file   721 does not exist.
 End of Minotr F.D. properties file   722 does not exist.
 End of Minotr F.D. properties file   788 does not exist.
 MDV= 10737418240.
 DoSCS=T DFT=T ScalE2(SS,OS)=  0.270000  0.270000
 Form MO integral derivatives with frozen-active canonical formalism.
 Discarding MO integrals.
 Reordered first order wavefunction length =    428928697
 In DefCFB: NBatch=  1 ICI= 28 ICA=309 LFMax= 78
            Large arrays: LIAPS=  8665386240 LIARS=  1611002400 words.
 In DefCFB: NBatch=  1 ICI= 28 ICA=309 LFMax= 78
            Large arrays: LIAPS=  8665386240 LIARS=  1611002400 words.
 Semi-Direct transformation.
 ModeAB=           4 MOrb=            28 LenV=   10734116951
 LASXX=    503301435 LTotXX=   503301435 LenRXX=  1014543915
 LTotAB=   511242480 MaxLAS=   577256064 LenRXY=           0
 NonZer=  1517845350 LenScr=  2285697024 LnRSAI=   577256064
 LnScr1=   869279744 LExtra=           0 Total=   4746776747
 MaxDsk=          -1 SrtSym=           T ITran=            4
 JobTyp=1 Pass  1:  I=   1 to  28.
 (rs|ai) integrals will be sorted in core.
 ModeAB=           4 MOrb=            27 LenV=   10734116951
 LASXX=    486308502 LTotXX=   486308502 LenRXX=   901306008
 LTotAB=   414997506 MaxLAS=   556639776 LenRXY=           0
 NonZer=  1387614510 LenScr=  2089584640 LnRSAI=   556639776
 LnScr1=   838234112 LExtra=           0 Total=   4385764536
 MaxDsk=          -1 SrtSym=           T ITran=            4
 JobTyp=2 Pass  1:  I=   1 to  27.
 (rs|ai) integrals will be sorted in core.
 SymMOI:  orbitals are not symmetric.
 DoSCS=T DFT=T ScalE2(SS,OS)=  0.270000  0.270000
 Spin components of T(2) and E(2):
     alpha-alpha T2 =       0.7597998690D-01 E2=     -0.5267795641D-01
     alpha-beta  T2 =       0.4757661606D+00 E2=     -0.3263452934D+00
     beta-beta   T2 =       0.8343160488D-01 E2=     -0.5194288919D-01
 E2(B2PLYPD3) =    -0.4309661390D+00 E(B2PLYPD3) =    -0.34600065916675D+03
 (S**2,0)=  0.78659D+00           (S**2,1)=  0.75414D+00
 Scaling Projection term by:   0.270000
 E(PUHF)=      -0.34557719911D+03        E(PMP2)=      -0.34600180088D+03
          IDoAtm=1111111111111111
          Differentiating once with respect to electric field.
                with respect to dipole field.
          Differentiating once with respect to nuclear coordinates.
 Keep R1 and R2 ints in memory in canonical form, NReq=3251778068.
          There are     1 degrees of freedom in the 1st order CPHF.  IDoFFX=0 NUNeed=     1.
 LinEq1:  Iter=  0 NonCon=     1 RMS=9.32D-04 Max=4.87D-02 NDo=     1
 AX will form     1 AO Fock derivatives at one time.
 LinEq1:  Iter=  1 NonCon=     1 RMS=3.05D-04 Max=1.19D-02 NDo=     1
 LinEq1:  Iter=  2 NonCon=     1 RMS=2.18D-04 Max=1.14D-02 NDo=     1
 LinEq1:  Iter=  3 NonCon=     1 RMS=1.46D-04 Max=6.71D-03 NDo=     1
 LinEq1:  Iter=  4 NonCon=     1 RMS=1.05D-04 Max=3.71D-03 NDo=     1
 LinEq1:  Iter=  5 NonCon=     1 RMS=5.38D-05 Max=1.99D-03 NDo=     1
 LinEq1:  Iter=  6 NonCon=     1 RMS=3.29D-05 Max=1.25D-03 NDo=     1
 LinEq1:  Iter=  7 NonCon=     1 RMS=1.46D-05 Max=6.61D-04 NDo=     1
 LinEq1:  Iter=  8 NonCon=     1 RMS=1.08D-05 Max=5.77D-04 NDo=     1
 LinEq1:  Iter=  9 NonCon=     1 RMS=4.63D-06 Max=1.73D-04 NDo=     1
 LinEq1:  Iter= 10 NonCon=     1 RMS=1.88D-06 Max=6.64D-05 NDo=     1
 LinEq1:  Iter= 11 NonCon=     1 RMS=1.17D-06 Max=4.55D-05 NDo=     1
 LinEq1:  Iter= 12 NonCon=     1 RMS=5.46D-07 Max=2.31D-05 NDo=     1
 LinEq1:  Iter= 13 NonCon=     1 RMS=3.04D-07 Max=8.87D-06 NDo=     1
 LinEq1:  Iter= 14 NonCon=     1 RMS=1.34D-07 Max=4.34D-06 NDo=     1
 LinEq1:  Iter= 15 NonCon=     1 RMS=5.60D-08 Max=2.98D-06 NDo=     1
 LinEq1:  Iter= 16 NonCon=     1 RMS=1.96D-08 Max=9.17D-07 NDo=     1
 LinEq1:  Iter= 17 NonCon=     1 RMS=5.58D-09 Max=1.47D-07 NDo=     1
 LinEq1:  Iter= 18 NonCon=     1 RMS=2.53D-09 Max=7.84D-08 NDo=     1
 LinEq1:  Iter= 19 NonCon=     1 RMS=1.05D-09 Max=2.65D-08 NDo=     1
 LinEq1:  Iter= 20 NonCon=     1 RMS=3.54D-10 Max=7.39D-09 NDo=     1
 LinEq1:  Iter= 21 NonCon=     1 RMS=1.04D-10 Max=2.15D-09 NDo=     1
 LinEq1:  Iter= 22 NonCon=     0 RMS=3.39D-11 Max=6.68D-10 NDo=     1
 Linear equations converged to 1.000D-10 1.000D-09 after    22 iterations.
 End of Minotr F.D. properties file   721 does not exist.
 End of Minotr F.D. properties file   722 does not exist.
 End of Minotr F.D. properties file   788 does not exist.
 Symmetrizing basis deriv contribution to polar:
 IMax=3 JMax=2 DiffMx= 0.00D+00
 G2DrvN: will do    17 centers at a time, making    1 passes.
 Calling FoFCou, ICntrl=  3107 FMM=F I1Cent=   0 AccDes= 0.00D+00.
 End of G2Drv F.D. properties file   721 does not exist.
 End of G2Drv F.D. properties file   722 does not exist.
 End of G2Drv F.D. properties file   788 does not exist.
 DoSCS=T DFT=T ScalE2(SS,OS)=  0.270000  0.270000
 R2 and R3 integrals will be kept in memory, NReq=  5268037470.
 DD1Dir will call FoFMem   1 times, MxPair=      2242
 NAB=   756 NAA=   378 NBB=   351.
 Discarding MO integrals.

 **********************************************************************

            Population analysis using the SCF Density.

 **********************************************************************

 Orbital symmetries:
 Alpha Orbitals:
       Occupied  (A) (A) (A) (A) (A) (A) (A) (A) (A) (A) (A) (A)
                 (A) (A) (A) (A) (A) (A) (A) (A) (A) (A) (A) (A)
                 (A) (A) (A) (A)
       Virtual   (A) (A) (A) (A) (A) (A) (A) (A) (A) (A) (A) (A)
                 (A) (A) (A) (A) (A) (A) (A) (A) (A) (A) (A) (A)
                 (A) (A) (A) (A) (A) (A) (A) (A) (A) (A) (A) (A)
                 (A) (A) (A) (A) (A) (A) (A) (A) (A) (A) (A) (A)
                 (A) (A) (A) (A) (A) (A) (A) (A) (A) (A) (A) (A)
                 (A) (A) (A) (A) (A) (A) (A) (A) (A) (A) (A) (A)
                 (A) (A) (A) (A) (A) (A) (A) (A) (A) (A) (A) (A)
                 (A) (A) (A) (A) (A) (A) (A) (A) (A) (A) (A) (A)
                 (A) (A) (A) (A) (A) (A) (A) (A) (A) (A) (A) (A)
                 (A) (A) (A) (A) (A) (A) (A) (A) (A) (A) (A) (A)
                 (A) (A) (A) (A) (A) (A) (A) (A) (A) (A) (A) (A)
                 (A) (A) (A) (A) (A) (A) (A) (A) (A) (A) (A) (A)
                 (A) (A) (A) (A) (A) (A) (A) (A) (A) (A) (A) (A)
                 (A) (A) (A) (A) (A) (A) (A) (A) (A) (A) (A) (A)
                 (A) (A) (A) (A) (A) (A) (A) (A) (A) (A) (A) (A)
                 (A) (A) (A) (A) (A) (A) (A) (A) (A) (A) (A) (A)
                 (A) (A) (A) (A) (A) (A) (A) (A) (A) (A) (A) (A)
                 (A) (A) (A) (A) (A) (A) (A) (A) (A) (A) (A) (A)
                 (A) (A) (A) (A) (A) (A) (A) (A) (A) (A) (A) (A)
                 (A) (A) (A) (A) (A) (A) (A) (A) (A) (A) (A) (A)
                 (A) (A) (A) (A) (A) (A) (A) (A) (A) (A) (A) (A)
                 (A) (A) (A) (A) (A) (A) (A) (A) (A) (A) (A) (A)
                 (A) (A) (A) (A) (A) (A) (A) (A) (A) (A) (A) (A)
                 (A) (A) (A) (A) (A) (A) (A) (A) (A) (A) (A) (A)
                 (A) (A) (A) (A) (A) (A) (A) (A) (A) (A) (A) (A)
                 (A) (A) (A) (A) (A) (A) (A) (A)
 Beta  Orbitals:
       Occupied  (A) (A) (A) (A) (A) (A) (A) (A) (A) (A) (A) (A)
                 (A) (A) (A) (A) (A) (A) (A) (A) (A) (A) (A) (A)
                 (A) (A) (A)
       Virtual   (A) (A) (A) (A) (A) (A) (A) (A) (A) (A) (A) (A)
                 (A) (A) (A) (A) (A) (A) (A) (A) (A) (A) (A) (A)
                 (A) (A) (A) (A) (A) (A) (A) (A) (A) (A) (A) (A)
                 (A) (A) (A) (A) (A) (A) (A) (A) (A) (A) (A) (A)
                 (A) (A) (A) (A) (A) (A) (A) (A) (A) (A) (A) (A)
                 (A) (A) (A) (A) (A) (A) (A) (A) (A) (A) (A) (A)
                 (A) (A) (A) (A) (A) (A) (A) (A) (A) (A) (A) (A)
                 (A) (A) (A) (A) (A) (A) (A) (A) (A) (A) (A) (A)
                 (A) (A) (A) (A) (A) (A) (A) (A) (A) (A) (A) (A)
                 (A) (A) (A) (A) (A) (A) (A) (A) (A) (A) (A) (A)
                 (A) (A) (A) (A) (A) (A) (A) (A) (A) (A) (A) (A)
                 (A) (A) (A) (A) (A) (A) (A) (A) (A) (A) (A) (A)
                 (A) (A) (A) (A) (A) (A) (A) (A) (A) (A) (A) (A)
                 (A) (A) (A) (A) (A) (A) (A) (A) (A) (A) (A) (A)
                 (A) (A) (A) (A) (A) (A) (A) (A) (A) (A) (A) (A)
                 (A) (A) (A) (A) (A) (A) (A) (A) (A) (A) (A) (A)
                 (A) (A) (A) (A) (A) (A) (A) (A) (A) (A) (A) (A)
                 (A) (A) (A) (A) (A) (A) (A) (A) (A) (A) (A) (A)
                 (A) (A) (A) (A) (A) (A) (A) (A) (A) (A) (A) (A)
                 (A) (A) (A) (A) (A) (A) (A) (A) (A) (A) (A) (A)
                 (A) (A) (A) (A) (A) (A) (A) (A) (A) (A) (A) (A)
                 (A) (A) (A) (A) (A) (A) (A) (A) (A) (A) (A) (A)
                 (A) (A) (A) (A) (A) (A) (A) (A) (A) (A) (A) (A)
                 (A) (A) (A) (A) (A) (A) (A) (A) (A) (A) (A) (A)
                 (A) (A) (A) (A) (A) (A) (A) (A) (A) (A) (A) (A)
                 (A) (A) (A) (A) (A) (A) (A) (A) (A)
 The electronic state is 2-A.
 Alpha  occ. eigenvalues --  -19.81314 -19.80065 -10.66782 -10.63609 -10.63426
 Alpha  occ. eigenvalues --  -10.63177 -10.61519  -1.27737  -1.05053  -0.92344
 Alpha  occ. eigenvalues --   -0.85578  -0.78312  -0.70512  -0.65880  -0.60338
 Alpha  occ. eigenvalues --   -0.56670  -0.55654  -0.54656  -0.52822  -0.50261
 Alpha  occ. eigenvalues --   -0.47265  -0.44805  -0.41965  -0.40736  -0.37576
 Alpha  occ. eigenvalues --   -0.36766  -0.33672  -0.28873
 Alpha virt. eigenvalues --    0.02496   0.08543   0.09206   0.09840   0.11005
 Alpha virt. eigenvalues --    0.11997   0.12739   0.14426   0.15603   0.16957
 Alpha virt. eigenvalues --    0.17267   0.19116   0.24181   0.27348   0.29440
 Alpha virt. eigenvalues --    0.30319   0.32781   0.33825   0.34745   0.36108
 Alpha virt. eigenvalues --    0.36739   0.38994   0.39536   0.43387   0.44254
 Alpha virt. eigenvalues --    0.45897   0.47754   0.48127   0.48549   0.50035
 Alpha virt. eigenvalues --    0.50612   0.51605   0.51892   0.53222   0.54683
 Alpha virt. eigenvalues --    0.55454   0.56429   0.57586   0.58591   0.60269
 Alpha virt. eigenvalues --    0.60843   0.63950   0.64894   0.66322   0.66880
 Alpha virt. eigenvalues --    0.70100   0.70907   0.73200   0.73683   0.75162
 Alpha virt. eigenvalues --    0.78220   0.78651   0.80950   0.81765   0.83891
 Alpha virt. eigenvalues --    0.86278   0.93753   0.95547   0.95683   0.97070
 Alpha virt. eigenvalues --    0.98422   0.99640   1.00514   1.01869   1.04136
 Alpha virt. eigenvalues --    1.04466   1.04967   1.06937   1.07915   1.09168
 Alpha virt. eigenvalues --    1.11727   1.13060   1.14089   1.16863   1.18074
 Alpha virt. eigenvalues --    1.20472   1.21535   1.23072   1.27023   1.29118
 Alpha virt. eigenvalues --    1.29338   1.30880   1.32276   1.34380   1.36268
 Alpha virt. eigenvalues --    1.36848   1.38657   1.40204   1.40998   1.44971
 Alpha virt. eigenvalues --    1.47254   1.48879   1.49436   1.51626   1.52468
 Alpha virt. eigenvalues --    1.54624   1.58069   1.60306   1.62461   1.63845
 Alpha virt. eigenvalues --    1.69042   1.70950   1.79966   1.80845   1.88002
 Alpha virt. eigenvalues --    1.91337   1.94573   1.99968   2.02876   2.09166
 Alpha virt. eigenvalues --    2.12243   2.14413   2.17485   2.20688   2.20999
 Alpha virt. eigenvalues --    2.24848   2.26160   2.31165   2.34872   2.36394
 Alpha virt. eigenvalues --    2.36935   2.38508   2.40829   2.45474   2.46541
 Alpha virt. eigenvalues --    2.48346   2.50118   2.54162   2.55720   2.57681
 Alpha virt. eigenvalues --    2.58122   2.64673   2.68174   2.70200   2.75346
 Alpha virt. eigenvalues --    2.78893   2.80009   2.82871   2.85129   2.86918
 Alpha virt. eigenvalues --    2.88115   2.88689   2.89695   2.91416   2.93046
 Alpha virt. eigenvalues --    2.95552   2.96375   2.98778   2.99062   3.00518
 Alpha virt. eigenvalues --    3.01695   3.02225   3.04325   3.05805   3.08791
 Alpha virt. eigenvalues --    3.09981   3.10288   3.12009   3.14164   3.14682
 Alpha virt. eigenvalues --    3.15298   3.17240   3.19161   3.19571   3.20368
 Alpha virt. eigenvalues --    3.21310   3.22523   3.24789   3.25885   3.27427
 Alpha virt. eigenvalues --    3.30292   3.31231   3.35977   3.40336   3.41138
 Alpha virt. eigenvalues --    3.41786   3.42969   3.43963   3.45411   3.47892
 Alpha virt. eigenvalues --    3.50161   3.51175   3.52506   3.54293   3.55349
 Alpha virt. eigenvalues --    3.57334   3.61239   3.62149   3.62763   3.65545
 Alpha virt. eigenvalues --    3.65650   3.67925   3.70080   3.72422   3.78220
 Alpha virt. eigenvalues --    3.80910   3.81468   3.84251   3.86329   3.87208
 Alpha virt. eigenvalues --    3.87883   3.90072   3.91848   3.93891   3.95876
 Alpha virt. eigenvalues --    3.96793   3.97284   3.99145   4.00009   4.02200
 Alpha virt. eigenvalues --    4.04154   4.06516   4.07095   4.09674   4.10206
 Alpha virt. eigenvalues --    4.11934   4.15405   4.16738   4.16792   4.17866
 Alpha virt. eigenvalues --    4.18205   4.21477   4.25772   4.26774   4.27868
 Alpha virt. eigenvalues --    4.34449   4.35526   4.37206   4.39010   4.39933
 Alpha virt. eigenvalues --    4.43850   4.49066   4.51303   4.54853   4.60188
 Alpha virt. eigenvalues --    4.62114   4.62489   4.66429   4.68187   4.71054
 Alpha virt. eigenvalues --    4.76353   4.78260   4.80639   4.82777   4.83607
 Alpha virt. eigenvalues --    4.90877   4.91028   4.92519   4.96206   4.98138
 Alpha virt. eigenvalues --    5.00323   5.01164   5.04521   5.05855   5.07645
 Alpha virt. eigenvalues --    5.11371   5.17483   5.22491   5.23708   5.24822
 Alpha virt. eigenvalues --    5.27839   5.28507   5.30399   5.31839   5.33445
 Alpha virt. eigenvalues --    5.36030   5.38662   5.42749   5.46070   5.46227
 Alpha virt. eigenvalues --    5.48670   5.56030   5.57914   5.61366   5.83199
 Alpha virt. eigenvalues --    5.89829   5.93360   5.98635   6.00369   6.03841
 Alpha virt. eigenvalues --    6.07339   6.10101   6.12181   6.18104   6.20388
 Alpha virt. eigenvalues --    6.32836   6.34267   6.42714   6.53519   6.66095
 Alpha virt. eigenvalues --    6.71180   6.82146   6.89882   6.94874   7.03000
 Alpha virt. eigenvalues --    7.09136   7.13836   7.36443   7.42887   7.51570
 Alpha virt. eigenvalues --    7.81191   9.94886  10.39343  10.85693  11.31472
 Alpha virt. eigenvalues --   13.40042  14.05221  14.56023
  Beta  occ. eigenvalues --  -19.80008 -19.79171 -10.66780 -10.63813 -10.63027
  Beta  occ. eigenvalues --  -10.62085 -10.61643  -1.25295  -1.01162  -0.91677
  Beta  occ. eigenvalues --   -0.84495  -0.77975  -0.68368  -0.63758  -0.57538
  Beta  occ. eigenvalues --   -0.55359  -0.54842  -0.54109  -0.51704  -0.47794
  Beta  occ. eigenvalues --   -0.46098  -0.43950  -0.40978  -0.38837  -0.37505
  Beta  occ. eigenvalues --   -0.34456  -0.28251
  Beta virt. eigenvalues --   -0.06338   0.03165   0.08726   0.09825   0.09952
  Beta virt. eigenvalues --    0.11127   0.12538   0.12922   0.14498   0.15695
  Beta virt. eigenvalues --    0.17084   0.17434   0.19385   0.24372   0.28114
  Beta virt. eigenvalues --    0.29660   0.30465   0.33013   0.34118   0.34683
  Beta virt. eigenvalues --    0.36640   0.36929   0.39025   0.39707   0.43445
  Beta virt. eigenvalues --    0.44435   0.46120   0.48010   0.48388   0.48873
  Beta virt. eigenvalues --    0.50309   0.50721   0.51752   0.52036   0.53498
  Beta virt. eigenvalues --    0.55054   0.56368   0.57488   0.57857   0.59125
  Beta virt. eigenvalues --    0.60503   0.63288   0.64085   0.65147   0.66620
  Beta virt. eigenvalues --    0.67761   0.70388   0.71355   0.73831   0.73931
  Beta virt. eigenvalues --    0.75370   0.78602   0.79519   0.81189   0.82043
  Beta virt. eigenvalues --    0.84100   0.86665   0.93868   0.95749   0.96081
  Beta virt. eigenvalues --    0.97498   0.98865   0.99946   1.00906   1.02060
  Beta virt. eigenvalues --    1.04316   1.04861   1.05425   1.06957   1.08042
  Beta virt. eigenvalues --    1.09350   1.11838   1.13195   1.14355   1.17244
  Beta virt. eigenvalues --    1.18206   1.20665   1.21645   1.23229   1.27622
  Beta virt. eigenvalues --    1.29506   1.29714   1.31237   1.32574   1.34539
  Beta virt. eigenvalues --    1.36466   1.36938   1.38747   1.40290   1.41330
  Beta virt. eigenvalues --    1.45658   1.48084   1.49015   1.49553   1.51830
  Beta virt. eigenvalues --    1.52966   1.55079   1.58306   1.60561   1.62558
  Beta virt. eigenvalues --    1.64189   1.69231   1.71289   1.80224   1.81339
  Beta virt. eigenvalues --    1.88705   1.92121   1.95853   2.00541   2.04417
  Beta virt. eigenvalues --    2.10191   2.12946   2.14910   2.18792   2.21214
  Beta virt. eigenvalues --    2.21915   2.25417   2.26862   2.32261   2.35228
  Beta virt. eigenvalues --    2.36790   2.37296   2.38898   2.41247   2.45970
  Beta virt. eigenvalues --    2.46979   2.48638   2.50486   2.54317   2.56311
  Beta virt. eigenvalues --    2.58214   2.58342   2.65051   2.68998   2.70385
  Beta virt. eigenvalues --    2.75526   2.79256   2.80166   2.82916   2.85144
  Beta virt. eigenvalues --    2.87449   2.88770   2.88955   2.90012   2.91432
  Beta virt. eigenvalues --    2.93356   2.96096   2.97095   2.98766   2.99502
  Beta virt. eigenvalues --    3.01051   3.01834   3.02738   3.04785   3.06395
  Beta virt. eigenvalues --    3.09203   3.10132   3.10533   3.12182   3.14423
  Beta virt. eigenvalues --    3.15063   3.15482   3.17847   3.19493   3.19652
  Beta virt. eigenvalues --    3.20813   3.21675   3.23179   3.25379   3.26370
  Beta virt. eigenvalues --    3.28509   3.30599   3.31585   3.37155   3.40410
  Beta virt. eigenvalues --    3.41174   3.41892   3.43049   3.43979   3.45861
  Beta virt. eigenvalues --    3.48381   3.50373   3.51326   3.52684   3.54433
  Beta virt. eigenvalues --    3.55652   3.57494   3.61296   3.62256   3.63081
  Beta virt. eigenvalues --    3.65759   3.66200   3.68265   3.70214   3.72739
  Beta virt. eigenvalues --    3.78577   3.81109   3.81670   3.84355   3.86539
  Beta virt. eigenvalues --    3.87366   3.87888   3.90383   3.92037   3.93919
  Beta virt. eigenvalues --    3.96071   3.96947   3.97386   3.99140   4.00222
  Beta virt. eigenvalues --    4.02297   4.04435   4.06689   4.07290   4.09768
  Beta virt. eigenvalues --    4.10391   4.12181   4.15820   4.16905   4.16968
  Beta virt. eigenvalues --    4.17942   4.18328   4.21706   4.26336   4.27110
  Beta virt. eigenvalues --    4.28234   4.34594   4.35632   4.37707   4.39458
  Beta virt. eigenvalues --    4.40436   4.44015   4.49556   4.53175   4.55285
  Beta virt. eigenvalues --    4.60465   4.62506   4.62796   4.67058   4.68368
  Beta virt. eigenvalues --    4.71859   4.76793   4.78581   4.80928   4.82968
  Beta virt. eigenvalues --    4.83925   4.91245   4.91492   4.92904   4.96555
  Beta virt. eigenvalues --    4.98416   5.00729   5.01450   5.04622   5.05803
  Beta virt. eigenvalues --    5.07961   5.12542   5.18360   5.23048   5.24034
  Beta virt. eigenvalues --    5.25543   5.28068   5.28715   5.30630   5.32049
  Beta virt. eigenvalues --    5.33681   5.36384   5.39695   5.43508   5.46596
  Beta virt. eigenvalues --    5.46637   5.49583   5.56273   5.58230   5.61992
  Beta virt. eigenvalues --    5.83484   5.90015   5.93807   5.99430   6.01274
  Beta virt. eigenvalues --    6.05008   6.08313   6.11088   6.12624   6.18391
  Beta virt. eigenvalues --    6.21024   6.33342   6.35885   6.44180   6.55260
  Beta virt. eigenvalues --    6.67750   6.74219   6.83353   6.91907   6.96848
  Beta virt. eigenvalues --    7.04520   7.10517   7.16810   7.37611   7.45155
  Beta virt. eigenvalues --    7.54451   7.81873   9.95481  10.40987  10.86003
  Beta virt. eigenvalues --   11.31848  13.40049  14.05532  14.56203
          Condensed to atoms (all electrons):
               1          2          3          4          5          6
     1  C    5.264943   0.550997   0.403603  -0.000724   0.000524  -0.000032
     2  C    0.550997   4.928154  -0.058915  -0.000205   0.000522   0.000095
     3  H    0.403603  -0.058915   0.544069   0.000123  -0.000361  -0.000025
     4  C   -0.000724  -0.000205   0.000123   4.569921   0.398582   0.397447
     5  H    0.000524   0.000522  -0.000361   0.398582   0.656143  -0.028602
     6  H   -0.000032   0.000095  -0.000025   0.397447  -0.028602   0.589242
     7  H   -0.000186  -0.000048   0.000042   0.409560  -0.059527  -0.033791
     8  O    0.002637   0.000542   0.000574   0.301826  -0.045850  -0.027094
     9  O   -0.095473  -0.004439  -0.000145  -0.043935   0.002195   0.006346
    10  H    0.254989   0.002586  -0.015790   0.001357   0.001134  -0.000037
    11  H   -0.048958   0.417510  -0.008717  -0.000003   0.000007   0.000002
    12  C   -0.054855   0.366347   0.007646   0.000017  -0.000082   0.000002
    13  C    0.001286  -0.061767  -0.000398   0.000000  -0.000002  -0.000001
    14  H    0.003551  -0.038584  -0.000044   0.000114   0.000080  -0.000092
    15  H   -0.000387   0.006207   0.000020  -0.000000  -0.000000   0.000000
    16  H    0.000319  -0.005730  -0.000049   0.000000   0.000000  -0.000000
               7          8          9         10         11         12
     1  C   -0.000186   0.002637  -0.095473   0.254989  -0.048958  -0.054855
     2  C   -0.000048   0.000542  -0.004439   0.002586   0.417510   0.366347
     3  H    0.000042   0.000574  -0.000145  -0.015790  -0.008717   0.007646
     4  C    0.409560   0.301826  -0.043935   0.001357  -0.000003   0.000017
     5  H   -0.059527  -0.045850   0.002195   0.001134   0.000007  -0.000082
     6  H   -0.033791  -0.027094   0.006346  -0.000037   0.000002   0.000002
     7  H    0.640944  -0.039564  -0.001727   0.000883  -0.000000   0.000002
     8  O   -0.039564   7.938483   0.076625  -0.020082   0.000030  -0.001752
     9  O   -0.001727   0.076625   8.051256   0.169578  -0.000273   0.002835
    10  H    0.000883  -0.020082   0.169578   0.395011   0.002013  -0.005553
    11  H   -0.000000   0.000030  -0.000273   0.002013   0.509963  -0.033977
    12  C    0.000002  -0.001752   0.002835  -0.005553  -0.033977   4.853271
    13  C   -0.000001  -0.000257   0.000217  -0.000209   0.000777   0.607782
    14  H   -0.000008   0.001567   0.005177   0.001551   0.003356   0.411765
    15  H    0.000000   0.000000  -0.000009  -0.000010  -0.000265  -0.042165
    16  H   -0.000000  -0.000004   0.000003  -0.000003   0.004173  -0.049331
              13         14         15         16
     1  C    0.001286   0.003551  -0.000387   0.000319
     2  C   -0.061767  -0.038584   0.006207  -0.005730
     3  H   -0.000398  -0.000044   0.000020  -0.000049
     4  C    0.000000   0.000114  -0.000000   0.000000
     5  H   -0.000002   0.000080  -0.000000   0.000000
     6  H   -0.000001  -0.000092   0.000000  -0.000000
     7  H   -0.000001  -0.000008   0.000000  -0.000000
     8  O   -0.000257   0.001567   0.000000  -0.000004
     9  O    0.000217   0.005177  -0.000009   0.000003
    10  H   -0.000209   0.001551  -0.000010  -0.000003
    11  H    0.000777   0.003356  -0.000265   0.004173
    12  C    0.607782   0.411765  -0.042165  -0.049331
    13  C    4.963246  -0.040674   0.415387   0.411844
    14  H   -0.040674   0.509158  -0.007251   0.005486
    15  H    0.415387  -0.007251   0.543494  -0.037258
    16  H    0.411844   0.005486  -0.037258   0.553472
          Atomic-Atomic Spin Densities.
               1          2          3          4          5          6
     1  C    0.675246  -0.011391  -0.007737   0.000420  -0.001545   0.000190
     2  C   -0.011391  -0.165200   0.009430  -0.000008   0.000032  -0.000025
     3  H   -0.007737   0.009430   0.015420  -0.000087   0.000397  -0.000016
     4  C    0.000420  -0.000008  -0.000087  -0.000931   0.002650   0.000102
     5  H   -0.001545   0.000032   0.000397   0.002650   0.003518  -0.001396
     6  H    0.000190  -0.000025  -0.000016   0.000102  -0.001396  -0.001723
     7  H    0.000615  -0.000022  -0.000067  -0.003121  -0.001492   0.001959
     8  O    0.010039  -0.000886  -0.000802   0.003918  -0.000375   0.000279
     9  O   -0.101749   0.007201   0.006368  -0.003636   0.001081  -0.000090
    10  H    0.059108  -0.006313  -0.001452  -0.000131  -0.001524   0.000110
    11  H   -0.002952   0.002581  -0.004459   0.000005  -0.000012   0.000001
    12  C   -0.016408   0.013691   0.001534   0.000001   0.000019  -0.000003
    13  C   -0.000143   0.005812   0.000022   0.000000  -0.000000   0.000000
    14  H    0.001538   0.001870  -0.000132  -0.000024  -0.000004   0.000013
    15  H   -0.000031  -0.000178   0.000003   0.000000   0.000000  -0.000000
    16  H    0.000035   0.000345  -0.000007   0.000000  -0.000000   0.000000
               7          8          9         10         11         12
     1  C    0.000615   0.010039  -0.101749   0.059108  -0.002952  -0.016408
     2  C   -0.000022  -0.000886   0.007201  -0.006313   0.002581   0.013691
     3  H   -0.000067  -0.000802   0.006368  -0.001452  -0.004459   0.001534
     4  C   -0.003121   0.003918  -0.003636  -0.000131   0.000005   0.000001
     5  H   -0.001492  -0.000375   0.001081  -0.001524  -0.000012   0.000019
     6  H    0.001959   0.000279  -0.000090   0.000110   0.000001  -0.000003
     7  H    0.002192  -0.001260   0.001948   0.000730   0.000002  -0.000006
     8  O   -0.001260   0.017017  -0.038605   0.009997   0.000080  -0.000461
     9  O    0.001948  -0.038605   0.756165  -0.058730  -0.000479   0.001799
    10  H    0.000730   0.009997  -0.058730  -0.086161   0.000833  -0.001802
    11  H    0.000002   0.000080  -0.000479   0.000833   0.045837  -0.008758
    12  C   -0.000006  -0.000461   0.001799  -0.001802  -0.008758   0.083501
    13  C    0.000000   0.000006  -0.000014  -0.000017   0.000005   0.000374
    14  H    0.000008   0.000313  -0.001368   0.000506   0.000309  -0.001508
    15  H   -0.000000  -0.000001   0.000005  -0.000007  -0.000080   0.000194
    16  H    0.000000   0.000001  -0.000002   0.000008   0.000340  -0.000408
              13         14         15         16
     1  C   -0.000143   0.001538  -0.000031   0.000035
     2  C    0.005812   0.001870  -0.000178   0.000345
     3  H    0.000022  -0.000132   0.000003  -0.000007
     4  C    0.000000  -0.000024   0.000000   0.000000
     5  H   -0.000000  -0.000004   0.000000  -0.000000
     6  H    0.000000   0.000013  -0.000000   0.000000
     7  H    0.000000   0.000008  -0.000000   0.000000
     8  O    0.000006   0.000313  -0.000001   0.000001
     9  O   -0.000014  -0.001368   0.000005  -0.000002
    10  H   -0.000017   0.000506  -0.000007   0.000008
    11  H    0.000005   0.000309  -0.000080   0.000340
    12  C    0.000374  -0.001508   0.000194  -0.000408
    13  C   -0.081177   0.000234  -0.000536  -0.000950
    14  H    0.000234  -0.003854  -0.000066   0.000012
    15  H   -0.000536  -0.000066   0.005276  -0.000627
    16  H   -0.000950   0.000012  -0.000627   0.004531
 Mulliken charges and spin densities:
               1          2
     1  C   -0.282231   0.605236
     2  C   -0.103271  -0.143060
     3  H    0.128368   0.018415
     4  C   -0.034080  -0.000842
     5  H    0.075237   0.001349
     6  H    0.096541  -0.000597
     7  H    0.083422   0.001485
     8  O   -0.187681  -0.000739
     9  O   -0.168230   0.569893
    10  H    0.212583  -0.084846
    11  H    0.154362   0.033254
    12  C   -0.061953   0.071758
    13  C   -0.297230  -0.076383
    14  H    0.144847  -0.002153
    15  H    0.122237   0.003951
    16  H    0.117077   0.003278
 Sum of Mulliken charges =  -0.00000   1.00000
 Mulliken charges and spin densities with hydrogens summed into heavy atoms:
               1          2
     1  C   -0.153863   0.623651
     2  C    0.051091  -0.109806
     4  C    0.221120   0.001395
     8  O   -0.187681  -0.000739
     9  O    0.044354   0.485048
    12  C    0.082895   0.069605
    13  C   -0.057916  -0.069154
 APT charges:
               1
     1  C    0.324039
     2  C   -0.092605
     3  H   -0.075196
     4  C    0.508605
     5  H   -0.039019
     6  H   -0.008784
     7  H   -0.046385
     8  O   -0.410188
     9  O    0.227202
    10  H   -0.437627
    11  H    0.021710
    12  C    0.030283
    13  C   -0.092235
    14  H    0.045168
    15  H    0.018935
    16  H    0.026099
 Sum of APT charges =  -0.00000
 APT charges with hydrogens summed into heavy atoms:
               1
     1  C    0.248842
     2  C   -0.070895
     4  C    0.414416
     8  O   -0.410188
     9  O   -0.210425
    12  C    0.075451
    13  C   -0.047201
 Electronic spatial extent (au):  <R**2>=           1248.8117
 Charge=             -0.0000 electrons
 Dipole moment (field-independent basis, Debye):
    X=             -0.6393    Y=              0.5666    Z=             -1.4094  Tot=              1.6481
 Quadrupole moment (field-independent basis, Debye-Ang):
   XX=            -34.3808   YY=            -41.0960   ZZ=            -45.7311
   XY=              0.6828   XZ=              1.1257   YZ=             -1.7507
 Traceless Quadrupole moment (field-independent basis, Debye-Ang):
   XX=              6.0218   YY=             -0.6933   ZZ=             -5.3285
   XY=              0.6828   XZ=              1.1257   YZ=             -1.7507
 Octapole moment (field-independent basis, Debye-Ang**2):
  XXX=            -31.7184  YYY=              0.5279  ZZZ=              1.8085  XYY=             -3.3693
  XXY=             -7.2985  XXZ=            -12.5813  XZZ=             -9.9177  YZZ=             -1.5352
  YYZ=             -1.1629  XYZ=             -4.7930
 Hexadecapole moment (field-independent basis, Debye-Ang**3):
 XXXX=          -1172.1927 YYYY=           -257.0669 ZZZZ=           -110.9765 XXXY=             15.6718
 XXXZ=            -15.4494 YYYX=             -1.6922 YYYZ=             -7.4881 ZZZX=             -2.4194
 ZZZY=              1.6328 XXYY=           -247.3633 XXZZ=           -238.4621 YYZZ=            -63.1894
 XXYZ=             -6.4448 YYXZ=              2.5308 ZZXY=              7.6632
 N-N= 2.779738413167D+02 E-N=-1.364425209153D+03  KE= 3.439799864051D+02
  Exact polarizability: 130.468  -2.192  77.795  -6.860  -2.801  52.434
 Approx polarizability: 110.985 -10.080  86.312  -8.822   0.725  65.809
                          Isotropic Fermi Contact Couplings
        Atom                 a.u.       MegaHertz       Gauss      10(-4) cm-1
     1  C(13)              0.20266     227.83298      81.29647      75.99690
     2  C(13)              0.00741       8.33268       2.97331       2.77948
     3  H(1)               0.01390      62.13902      22.17275      20.72735
     4  C(13)             -0.00040      -0.45137      -0.16106      -0.15056
     5  H(1)               0.00199       8.91430       3.18084       2.97349
     6  H(1)               0.00030       1.36055       0.48548       0.45383
     7  H(1)              -0.00006      -0.24686      -0.08808      -0.08234
     8  O(17)              0.01520      -9.21679      -3.28878      -3.07439
     9  O(17)              0.05942     -36.02194     -12.85352     -12.01562
    10  H(1)              -0.02232     -99.78158     -35.60455     -33.28355
    11  H(1)               0.01568      70.08322      25.00744      23.37725
    12  C(13)              0.01022      11.49254       4.10083       3.83350
    13  C(13)              0.00521       5.85900       2.09064       1.95435
    14  H(1)               0.00088       3.91133       1.39566       1.30468
    15  H(1)              -0.00089      -3.95876      -1.41258      -1.32050
    16  H(1)              -0.00103      -4.60653      -1.64372      -1.53657
 --------------------------------------------------------
       Center         ----  Spin Dipole Couplings  ----
                      3XX-RR        3YY-RR        3ZZ-RR
 --------------------------------------------------------
     1   Atom        0.109029     -0.015305     -0.093725
     2   Atom        0.041405     -0.025675     -0.015730
     3   Atom       -0.002559      0.026997     -0.024439
     4   Atom        0.006042     -0.005473     -0.000568
     5   Atom        0.003390     -0.005028      0.001639
     6   Atom        0.001363     -0.001746      0.000383
     7   Atom        0.009060     -0.004355     -0.004705
     8   Atom       -0.023622      0.065850     -0.042228
     9   Atom        0.545018     -0.523592     -0.021426
    10   Atom        0.128222     -0.050725     -0.077498
    11   Atom        0.005292     -0.002404     -0.002888
    12   Atom        0.015032      0.027926     -0.042958
    13   Atom       -0.013237     -0.013840      0.027078
    14   Atom        0.002107      0.004908     -0.007015
    15   Atom       -0.001793      0.002984     -0.001191
    16   Atom        0.002012     -0.001293     -0.000719
 --------------------------------------------------------
                        XY            XZ            YZ
 --------------------------------------------------------
     1   Atom        0.320645     -0.289331     -0.242766
     2   Atom       -0.005287     -0.013547      0.005717
     3   Atom       -0.017912     -0.003799     -0.018005
     4   Atom        0.003900      0.010916      0.003781
     5   Atom       -0.001084      0.007364     -0.001666
     6   Atom        0.003238      0.004011      0.002671
     7   Atom        0.004415      0.003609      0.001546
     8   Atom        0.201763     -0.150069     -0.231756
     9   Atom        1.031963     -1.383444     -0.844853
    10   Atom        0.159159     -0.133584     -0.076384
    11   Atom        0.003732     -0.006011     -0.003605
    12   Atom       -0.025350     -0.017388     -0.028663
    13   Atom        0.006101      0.019278      0.021864
    14   Atom       -0.008798      0.001013     -0.002408
    15   Atom       -0.002063      0.001233     -0.000987
    16   Atom        0.001046     -0.001690     -0.000521
 --------------------------------------------------------


 ---------------------------------------------------------------------------------
              Anisotropic Spin Dipole Couplings in Principal Axis System
 ---------------------------------------------------------------------------------

       Atom             a.u.   MegaHertz   Gauss  10(-4) cm-1        Axes

              Baa    -0.3045   -40.863   -14.581   -13.631  0.3018  0.3941  0.8681
     1 C(13)  Bbb    -0.2794   -37.498   -13.380   -12.508 -0.6755  0.7309 -0.0970
              Bcc     0.5840    78.362    27.961    26.139  0.6727  0.5572 -0.4868
 
              Baa    -0.0283    -3.796    -1.355    -1.266 -0.0144  0.9041 -0.4271
     2 C(13)  Bbb    -0.0167    -2.247    -0.802    -0.750  0.2420  0.4176  0.8758
              Bcc     0.0450     6.044     2.157     2.016  0.9702 -0.0907 -0.2248
 
              Baa    -0.0332   -17.688    -6.311    -5.900  0.3184  0.3576  0.8779
     3 H(1)   Bbb    -0.0058    -3.105    -1.108    -1.036  0.8740  0.2478 -0.4179
              Bcc     0.0390    20.793     7.419     6.936 -0.3670  0.9004 -0.2337
 
              Baa    -0.0089    -1.195    -0.426    -0.398 -0.5064 -0.3109  0.8043
     4 C(13)  Bbb    -0.0066    -0.889    -0.317    -0.296 -0.3812  0.9173  0.1146
              Bcc     0.0155     2.083     0.743     0.695  0.7735  0.2486  0.5831
 
              Baa    -0.0056    -3.009    -1.074    -1.004 -0.3090  0.8102  0.4981
     5 H(1)   Bbb    -0.0045    -2.418    -0.863    -0.807  0.5988  0.5726 -0.5600
              Bcc     0.0102     5.427     1.937     1.810  0.7389 -0.1252  0.6621
 
              Baa    -0.0038    -2.027    -0.723    -0.676 -0.4534  0.8820 -0.1285
     6 H(1)   Bbb    -0.0031    -1.676    -0.598    -0.559 -0.5781 -0.1813  0.7956
              Bcc     0.0069     3.703     1.321     1.235  0.6784  0.4350  0.5921
 
              Baa    -0.0061    -3.254    -1.161    -1.085 -0.0519  0.7328 -0.6785
     7 H(1)   Bbb    -0.0052    -2.792    -0.996    -0.931 -0.3665  0.6180  0.6955
              Bcc     0.0113     6.046     2.157     2.017  0.9290  0.2848  0.2365
 
              Baa    -0.2270    16.428     5.862     5.480 -0.1102  0.6623  0.7411
     8 O(17)  Bbb    -0.1722    12.458     4.445     4.156  0.8525 -0.3204  0.4131
              Bcc     0.3992   -28.887   -10.307    -9.636  0.5110  0.6773 -0.5293
 
              Baa    -1.1539    83.494    29.793    27.851  0.0120  0.7944  0.6073
     9 O(17)  Bbb    -1.1493    83.162    29.674    27.740  0.7135 -0.4323  0.5514
              Bcc     2.3032  -166.656   -59.467   -55.591  0.7005  0.4267 -0.5720
 
              Baa    -0.1447   -77.227   -27.556   -25.760 -0.6056  0.6196 -0.4993
    10 H(1)   Bbb    -0.1417   -75.582   -26.970   -25.212  0.0097  0.6332  0.7739
              Bcc     0.2864   152.809    54.526    50.972  0.7957  0.4639 -0.3895
 
              Baa    -0.0068    -3.636    -1.297    -1.213  0.2797  0.4546  0.8456
    11 H(1)   Bbb    -0.0036    -1.928    -0.688    -0.643 -0.5193  0.8125 -0.2650
              Bcc     0.0104     5.564     1.985     1.856  0.8075  0.3650 -0.4633
 
              Baa    -0.0615    -8.256    -2.946    -2.754  0.3206  0.3702  0.8719
    12 C(13)  Bbb     0.0120     1.606     0.573     0.536  0.7840  0.4128 -0.4636
              Bcc     0.0496     6.650     2.373     2.218 -0.5315  0.8322 -0.1579
 
              Baa    -0.0243    -3.261    -1.164    -1.088  0.4212  0.7668 -0.4844
    13 C(13)  Bbb    -0.0194    -2.600    -0.928    -0.867  0.8434 -0.5276 -0.1017
              Bcc     0.0437     5.861     2.091     1.955  0.3335  0.3657  0.8689
 
              Baa    -0.0076    -4.060    -1.449    -1.354  0.1798  0.3062  0.9348
    14 H(1)   Bbb    -0.0051    -2.733    -0.975    -0.912  0.7472  0.5757 -0.3322
              Bcc     0.0127     6.793     2.424     2.266 -0.6399  0.7582 -0.1253
 
              Baa    -0.0030    -1.596    -0.569    -0.532  0.8568  0.2187 -0.4669
    15 H(1)   Bbb    -0.0011    -0.594    -0.212    -0.198  0.3631  0.3869  0.8476
              Bcc     0.0041     2.190     0.782     0.731 -0.3660  0.8958 -0.2521
 
              Baa    -0.0016    -0.857    -0.306    -0.286 -0.1241  0.9405  0.3163
    16 H(1)   Bbb    -0.0015    -0.812    -0.290    -0.271  0.4737 -0.2240  0.8517
              Bcc     0.0031     1.669     0.596     0.557  0.8719  0.2555 -0.4177
 

 ---------------------------------------------------------------------------------

 Calling FoFJK, ICntrl=  10100127 FMM=F ISym2X=0 I1Cent= 0 IOpClX= 1 NMat=1 NMatS=1 NMatT=0.
 ***** Axes restored to original set *****
 -------------------------------------------------------------------
 Center     Atomic                   Forces (Hartrees/Bohr)
 Number     Number              X              Y              Z
 -------------------------------------------------------------------
      1        6          -0.012469251    0.036748769    0.001834889
      2        6          -0.000331213   -0.061797348   -0.000426535
      3        1           0.004677084    0.002090982   -0.000826484
      4        6           0.003359179    0.001909387    0.004115812
      5        1          -0.000839309   -0.000250965   -0.000248276
      6        1           0.000004089    0.000102410    0.000174021
      7        1          -0.000760622    0.000118361    0.000312678
      8        8           0.007686372    0.001176340   -0.024576061
      9        8           0.009097384   -0.035581888    0.025680596
     10        1          -0.016889723    0.011088888   -0.005962880
     11        1          -0.007234565    0.006971228   -0.000663090
     12        6           0.024736417    0.030830074    0.000461975
     13        6          -0.020664209   -0.003722370    0.000001789
     14        1          -0.007602011    0.008605886    0.000153694
     15        1           0.008398881    0.008449524   -0.000042035
     16        1           0.008831496   -0.006739277    0.000009908
 -------------------------------------------------------------------
 Cartesian Forces:  Max     0.061797348 RMS     0.015143416
 FormGI is forming the generalized inverse of G from B-inverse, IUseBI=4.

 GradGradGradGradGradGradGradGradGradGradGradGradGradGradGradGradGradGrad
 Berny optimization.
 Internal  Forces:  Max     0.039260582 RMS     0.009775860
 Search for a saddle point.
 Step number   1 out of a maximum of  100
 All quantities printed in internal units (Hartrees-Bohrs-Radians)
 Swapping is turned off.
 Second derivative matrix not updated -- analytic derivatives used.
 ITU=  0
     Eigenvalues ---   -0.05653  -0.00146   0.00559   0.00575   0.01003
     Eigenvalues ---    0.01398   0.01871   0.02212   0.02439   0.02873
     Eigenvalues ---    0.03294   0.03847   0.04025   0.06334   0.08476
     Eigenvalues ---    0.08541   0.09380   0.10177   0.10538   0.10750
     Eigenvalues ---    0.11917   0.12803   0.13929   0.14549   0.16782
     Eigenvalues ---    0.17194   0.18524   0.21105   0.23871   0.27542
     Eigenvalues ---    0.31454   0.32634   0.32889   0.33029   0.33485
     Eigenvalues ---    0.34388   0.34987   0.36032   0.38389   0.39791
     Eigenvalues ---    0.62899   0.64382
 Eigenvectors required to have negative eigenvalues:
                          R11       R3        R10       D14       A3
   1                    0.69131  -0.54285  -0.26219   0.25163   0.19352
                          A1        A14       A21       A13       A2
   1                   -0.14335   0.11027   0.08530   0.08058  -0.04909
 RFO step:  Lambda0=1.078828694D-02 Lambda=-2.28215619D-02.
 Linear search not attempted -- option 19 set.
 Maximum step size (   0.300) exceeded in Quadratic search.
    -- Step size scaled by   0.530
 Iteration  1 RMS(Cart)=  0.17285917 RMS(Int)=  0.01685835
 Iteration  2 RMS(Cart)=  0.06560607 RMS(Int)=  0.00111654
 Iteration  3 RMS(Cart)=  0.00141972 RMS(Int)=  0.00010774
 Iteration  4 RMS(Cart)=  0.00000159 RMS(Int)=  0.00010774
 Iteration  5 RMS(Cart)=  0.00000000 RMS(Int)=  0.00010774
 Variable       Old X    -DE/DX   Delta X   Delta X   Delta X     New X
                                 (Linear)    (Quad)   (Total)
    R1        2.50793  -0.00614   0.00000  -0.01387  -0.01387   2.49406
    R2        2.04216   0.00423   0.00000  -0.00085  -0.00085   2.04131
    R3        2.31871   0.01730   0.00000   0.19830   0.19830   2.51701
    R4        2.02201   0.00965   0.00000   0.01789   0.01789   2.03990
    R5        2.91018  -0.03926   0.00000  -0.09134  -0.09134   2.81883
    R6        2.06161  -0.00052   0.00000   0.00039   0.00039   2.06200
    R7        2.05705   0.00012   0.00000   0.00082   0.00082   2.05787
    R8        2.05898  -0.00074   0.00000   0.00052   0.00052   2.05951
    R9        2.67252   0.00387   0.00000  -0.00258  -0.00258   2.66993
   R10        2.74736  -0.02171   0.00000   0.00843   0.00843   2.75579
   R11        2.17999   0.03750   0.00000  -0.13192  -0.13192   2.04806
   R12        2.50562   0.00353   0.00000   0.00594   0.00594   2.51155
   R13        2.07542  -0.01142   0.00000  -0.01691  -0.01691   2.05850
   R14        2.07542  -0.01152   0.00000  -0.01885  -0.01885   2.05657
   R15        2.07542  -0.01061   0.00000  -0.01619  -0.01619   2.05922
    A1        2.12242   0.01223   0.00000   0.10086   0.10083   2.22325
    A2        2.27592  -0.01855   0.00000  -0.08199  -0.08200   2.19392
    A3        1.88194   0.00640   0.00000  -0.01810  -0.01810   1.86384
    A4        2.09440  -0.00235   0.00000  -0.01873  -0.01873   2.07566
    A5        2.09440   0.01032   0.00000   0.04364   0.04364   2.13803
    A6        2.09440  -0.00797   0.00000  -0.02491  -0.02491   2.06949
    A7        1.91786   0.00011   0.00000  -0.00121  -0.00121   1.91665
    A8        1.91635   0.00068   0.00000  -0.00009  -0.00009   1.91626
    A9        1.94579  -0.00106   0.00000  -0.00012  -0.00012   1.94567
   A10        1.91599   0.00008   0.00000  -0.00118  -0.00118   1.91481
   A11        1.82748   0.00024   0.00000   0.00014   0.00014   1.82762
   A12        1.93861  -0.00006   0.00000   0.00241   0.00240   1.94101
   A13        1.84754   0.00480   0.00000  -0.00252  -0.00252   1.84502
   A14        1.74403   0.01165   0.00000   0.01756   0.01756   1.76159
   A15        2.14180   0.00192   0.00000  -0.00132  -0.00132   2.14048
   A16        1.99956   0.00029   0.00000   0.01653   0.01652   2.01608
   A17        2.14183  -0.00221   0.00000  -0.01521  -0.01521   2.12662
   A18        2.14180  -0.00194   0.00000  -0.01056  -0.01056   2.13124
   A19        2.14183  -0.00244   0.00000  -0.01006  -0.01006   2.13178
   A20        1.99956   0.00438   0.00000   0.02062   0.02062   2.02017
   A21        3.03601   0.00427   0.00000   0.01270   0.01271   3.04872
   A22        3.11401   0.00059   0.00000   0.01127   0.01148   3.12549
    D1       -0.00009  -0.00016   0.00000   0.00076   0.00095   0.00086
    D2        3.14150  -0.00013   0.00000   0.00371   0.00391  -3.13777
    D3        3.04922   0.00151   0.00000   0.01302   0.01283   3.06205
    D4       -0.09237   0.00153   0.00000   0.01597   0.01579  -0.07659
    D5       -1.14688  -0.00029   0.00000   0.27462   0.27415  -0.87273
    D6        1.93066   0.00083   0.00000   0.27996   0.28043   2.21109
    D7        3.14159   0.00005   0.00000   0.00532   0.00531  -3.13629
    D8        0.00002   0.00008   0.00000   0.00926   0.00929   0.00931
    D9       -0.00000   0.00008   0.00000   0.00828   0.00826   0.00826
   D10       -3.14157   0.00011   0.00000   0.01222   0.01224  -3.12934
   D11        1.11675  -0.00004   0.00000   0.00448   0.00449   1.12124
   D12       -3.09357  -0.00032   0.00000   0.00306   0.00306  -3.09051
   D13       -1.02661  -0.00012   0.00000   0.00297   0.00297  -1.02364
   D14       -2.01652   0.00728   0.00000  -0.00177  -0.00177  -2.01829
   D15       -3.14157  -0.00002   0.00000   0.00064   0.00062  -3.14095
   D16        0.00003   0.00001   0.00000   0.00093   0.00092   0.00094
   D17       -0.00000  -0.00005   0.00000  -0.00362  -0.00361  -0.00361
   D18       -3.14159  -0.00002   0.00000  -0.00333  -0.00331   3.13829
         Item               Value     Threshold  Converged?
 Maximum Force            0.039261     0.000450     NO 
 RMS     Force            0.009776     0.000300     NO 
 Maximum Displacement     0.661730     0.001800     NO 
 RMS     Displacement     0.236090     0.001200     NO 
 Predicted change in Energy=-5.318467D-03
 GradGradGradGradGradGradGradGradGradGradGradGradGradGradGradGradGradGrad

                          Input orientation:                          
 ---------------------------------------------------------------------
 Center     Atomic      Atomic             Coordinates (Angstroms)
 Number     Number       Type             X           Y           Z
 ---------------------------------------------------------------------
      1          6           0       -0.402729    0.783381    0.322156
      2          6           0       -1.713876    0.656924    0.404446
      3          1           0        0.163628    1.699044    0.234590
      4          6           0        1.682501   -1.653501    2.630397
      5          1           0        1.944847   -0.625441    2.885157
      6          1           0        1.305734   -2.167933    3.513166
      7          1           0        2.560101   -2.174393    2.247974
      8          8           0        0.616098   -1.701084    1.704809
      9          8           0        1.122403   -1.079374    0.486704
     10          1           0        0.481390   -0.208109    0.418898
     11          1           0       -2.326391    1.545569    0.384814
     12          6           0       -2.384973   -0.669543    0.527619
     13          6           0       -3.705311   -0.800503    0.604760
     14          1           0       -1.719348   -1.531415    0.554516
     15          1           0       -4.185913   -1.772741    0.695049
     16          1           0       -4.375437    0.058458    0.581364
 ---------------------------------------------------------------------
                    Distance matrix (angstroms):
                    1          2          3          4          5
     1  C    0.000000
     2  C    1.319799   0.000000
     3  H    1.080216   2.154039   0.000000
     4  C    3.951526   4.672076   4.391632   0.000000
     5  H    3.750316   4.602678   3.949871   1.091162   0.000000
     6  H    4.670294   5.173200   5.196824   1.088978   1.783856
     7  H    4.608206   5.448103   4.979991   1.089843   1.784318
     8  O    3.020316   3.560888   3.731909   1.412867   2.077452
     9  O    2.413082   3.326556   2.949987   2.288832   2.575858
    10  H    1.331945   2.359594   1.942210   2.902164   2.897984
    11  H    2.070104   1.079467   2.499263   5.598920   5.404487
    12  C    2.466271   1.491662   3.491624   4.683395   4.930240
    13  C    3.673636   2.475890   4.620979   5.818876   6.095502
    14  H    2.673155   2.193486   3.752842   3.987074   4.436102
    15  H    4.580970   3.478317   5.584247   6.180458   6.610529
    16  H    4.046617   2.733747   4.838893   6.620269   6.761744
                    6          7          8          9         10
     6  H    0.000000
     7  H    1.781625   0.000000
     8  O    1.990905   2.073210   0.000000
     9  O    3.221496   2.523512   1.458303   0.000000
    10  H    3.754324   3.396002   1.975016   1.083789   0.000000
    11  H    6.063746   6.417732   4.576175   4.335307   3.310616
    12  C    4.977949   5.447747   3.384712   3.531476   2.905301
    13  C    5.953088   6.621413   4.549255   4.837202   4.232485
    14  H    4.279005   4.647031   2.608882   2.878279   2.571531
    15  H    6.185155   6.934090   4.907551   5.357460   4.930318
    16  H    6.769637   7.474283   5.410503   5.615147   4.866849
                   11         12         13         14         15
    11  H    0.000000
    12  C    2.220483   0.000000
    13  C    2.730174   1.329057   0.000000
    14  H    3.140881   1.089314   2.116792   0.000000
    15  H    3.816444   2.118600   1.088291   2.482324   0.000000
    16  H    2.539433   2.120100   1.089693   3.095680   1.844488
                   16
    16  H    0.000000
 Stoichiometry    C5H9O2(2)
 Framework group  C1[X(C5H9O2)]
 Deg. of freedom    42
 Full point group                 C1      NOp   1
 Largest Abelian subgroup         C1      NOp   1
 Largest concise Abelian subgroup C1      NOp   1
                         Standard orientation:                         
 ---------------------------------------------------------------------
 Center     Atomic      Atomic             Coordinates (Angstroms)
 Number     Number       Type             X           Y           Z
 ---------------------------------------------------------------------
      1          6           0        0.446371    1.560968   -0.155809
      2          6           0        1.587674    0.920911   -0.327926
      3          1           0        0.197646    2.558754   -0.486604
      4          6           0       -2.809224   -0.641120   -0.563806
      5          1           0       -2.853851    0.179959   -1.281073
      6          1           0       -2.868948   -1.593421   -1.088620
      7          1           0       -3.634439   -0.558723    0.143294
      8          8           0       -1.564974   -0.677110    0.104581
      9          8           0       -1.493521    0.560273    0.872972
     10          1           0       -0.655152    1.051912    0.393361
     11          1           0        2.389950    1.416189   -0.853570
     12          6           0        1.812432   -0.465819    0.173591
     13          6           0        2.962514   -1.110758    0.006984
     14          1           0        0.966452   -0.922310    0.685978
     15          1           0        3.116925   -2.122860    0.376017
     16          1           0        3.810777   -0.659900   -0.507415
 ---------------------------------------------------------------------
 Rotational constants (GHZ):           4.3763294           1.1719444           1.0087327
 Standard basis: CC-pVTZ (5D, 7F)
 There are   380 symmetry adapted cartesian basis functions of A   symmetry.
 There are   336 symmetry adapted basis functions of A   symmetry.
   336 basis functions,   517 primitive gaussians,   380 cartesian basis functions
    28 alpha electrons       27 beta electrons
       nuclear repulsion energy       281.4593807195 Hartrees.
 NAtoms=   16 NActive=   16 NUniq=   16 SFac= 1.00D+00 NAtFMM=   60 NAOKFM=F Big=F
 Integral buffers will be    131072 words long.
 Raffenetti 2 integral format.
 Two-electron integral symmetry is turned on.
 Nuclear repulsion after empirical dispersion term =      281.4511554854 Hartrees.
 One-electron integrals computed using PRISM.
 NBasis=   336 RedAO= T EigKep=  2.94D-04  NBF=   336
 NBsUse=   336 1.00D-06 EigRej= -1.00D+00 NBFU=   336
 Initial guess from the checkpoint file:  "/localscratch/339753/Gau-20839.chk"
 B after Tr=    -0.000000   -0.000000    0.000000
         Rot=    0.998503    0.053907    0.008132    0.004511 Ang=   6.27 deg.
 Initial guess <Sx>= 0.0000 <Sy>= 0.0000 <Sz>= 0.5000 <S**2>= 0.7875 S= 0.5186
 ExpMin= 1.03D-01 ExpMax= 1.53D+04 ExpMxC= 5.22D+02 IAcc=3 IRadAn=         5 AccDes= 0.00D+00
 Harris functional with IExCor=  419 and IRadAn=       5 diagonalized for initial guess.
 HarFok:  IExCor=  419 AccDes= 0.00D+00 IRadAn=         5 IDoV= 1 UseB2=F ITyADJ=14
 ICtDFT=  3500011 ScaDFX=  1.000000  1.000000  1.000000  1.000000
 FoFCou: FMM=F IPFlag=           0 FMFlag=      100000 FMFlg1=           0
         NFxFlg=           0 DoJE=T BraDBF=F KetDBF=T FulRan=T
         wScrn=  0.000000 ICntrl=       500 IOpCl=  0 I1Cent=   200000004 NGrid=           0
         NMat0=    1 NMatS0=      1 NMatT0=    0 NMatD0=    1 NMtDS0=    0 NMtDT0=    0
 Petite list used in FoFCou.
 Requested convergence on RMS density matrix=1.00D-08 within 128 cycles.
 Requested convergence on MAX density matrix=1.00D-06.
 Requested convergence on             energy=1.00D-06.
 No special actions if energy rises.
 Integral accuracy reduced to 1.0D-05 until final iterations.
 Initial convergence to 1.0D-05 achieved.  Increase integral accuracy.
 SCF Done:  E(UB2PLYPD3) =  -345.576216722     A.U. after   23 cycles
            NFock= 23  Conv=0.58D-08     -V/T= 2.0044
 <Sx>= 0.0000 <Sy>= 0.0000 <Sz>= 0.5000 <S**2>= 0.7972 S= 0.5234
 <L.S>=  0.00000000000    
 Annihilation of the first spin contaminant:
 S**2 before annihilation     0.7972,   after     0.7514
 DoSCS=T DFT=T ScalE2(SS,OS)=  0.270000  0.270000
 ExpMin= 1.03D-01 ExpMax= 1.53D+04 ExpMxC= 5.22D+02 IAcc=3 IRadAn=         5 AccDes= 0.00D+00
 HarFok:  IExCor=  205 AccDes= 0.00D+00 IRadAn=         5 IDoV=-2 UseB2=F ITyADJ=14
 ICtDFT= 12500011 ScaDFX=  1.000000  1.000000  1.000000  1.000000
 Range of M.O.s used for correlation:     8   336
 NBasis=   336 NAE=    28 NBE=    27 NFC=     7 NFV=     0
 NROrb=    329 NOA=    21 NOB=    20 NVA=   308 NVB=   309

 **** Warning!!: The largest alpha MO coefficient is  0.14509914D+02


 **** Warning!!: The largest beta MO coefficient is  0.14798406D+02

 DoSCS=T DFT=T ScalE2(SS,OS)=  0.270000  0.270000
 Disk-based method using ON**2 memory for 21 occupieds at a time.
 Estimated scratch disk usage=  1920375576 words.
 Actual    scratch disk usage=  1760258328 words.
 JobTyp=2 Pass  1:  I=   8 to  28 NPSUse= 40 ParTrn=T ParDer=T DoDerP=T.
 (rs|ai) integrals will be sorted in core.
 Actual    scratch disk usage=  1760258328 words.
 JobTyp=3 Pass  1:  I=   8 to  27 NPSUse= 40 ParTrn=T ParDer=T DoDerP=T.
 (rs|ai) integrals will be sorted in core.
 Spin components of T(2) and E(2):
     alpha-alpha T2 =       0.7662839113D-01 E2=     -0.5299994241D-01
     alpha-beta  T2 =       0.4706671857D+00 E2=     -0.3254542214D+00
     beta-beta   T2 =       0.8081486236D-01 E2=     -0.5149333934D-01
 (S**2,0)=  0.79725D+00           (S**2,1)=  0.76150D+00
 Scaling Projection term by:   0.270000
 E(PUHF)=      -0.34558366317D+03        E(PMP2)=      -0.34600742727D+03
 E2(B2PLYPD3) =    -0.4299475032D+00 E(B2PLYPD3) =    -0.34600616422468D+03
          IDoAtm=1111111111111111
          Differentiating once with respect to electric field.
                with respect to dipole field.
          Differentiating once with respect to nuclear coordinates.
 Keep R1 and R2 ints in memory in canonical form, NReq=3251778068.
          There are     1 degrees of freedom in the 1st order CPHF.  IDoFFX=0 NUNeed=     1.
 LinEq1:  Iter=  0 NonCon=     1 RMS=8.93D-04 Max=4.78D-02 NDo=     1
 AX will form     1 AO Fock derivatives at one time.
 LinEq1:  Iter=  1 NonCon=     1 RMS=3.13D-04 Max=1.75D-02 NDo=     1
 LinEq1:  Iter=  2 NonCon=     1 RMS=2.21D-04 Max=1.45D-02 NDo=     1
 LinEq1:  Iter=  3 NonCon=     1 RMS=1.04D-04 Max=5.96D-03 NDo=     1
 LinEq1:  Iter=  4 NonCon=     1 RMS=7.20D-05 Max=3.93D-03 NDo=     1
 LinEq1:  Iter=  5 NonCon=     1 RMS=2.50D-05 Max=1.04D-03 NDo=     1
 LinEq1:  Iter=  6 NonCon=     1 RMS=1.85D-05 Max=7.83D-04 NDo=     1
 LinEq1:  Iter=  7 NonCon=     1 RMS=9.43D-06 Max=3.12D-04 NDo=     1
 LinEq1:  Iter=  8 NonCon=     1 RMS=6.81D-06 Max=1.81D-04 NDo=     1
 LinEq1:  Iter=  9 NonCon=     1 RMS=3.44D-06 Max=1.20D-04 NDo=     1
 LinEq1:  Iter= 10 NonCon=     1 RMS=1.29D-06 Max=3.07D-05 NDo=     1
 LinEq1:  Iter= 11 NonCon=     1 RMS=8.67D-07 Max=2.84D-05 NDo=     1
 LinEq1:  Iter= 12 NonCon=     1 RMS=3.99D-07 Max=1.05D-05 NDo=     1
 LinEq1:  Iter= 13 NonCon=     1 RMS=2.23D-07 Max=6.21D-06 NDo=     1
 LinEq1:  Iter= 14 NonCon=     1 RMS=9.84D-08 Max=2.06D-06 NDo=     1
 LinEq1:  Iter= 15 NonCon=     1 RMS=3.90D-08 Max=7.35D-07 NDo=     1
 LinEq1:  Iter= 16 NonCon=     1 RMS=1.29D-08 Max=3.45D-07 NDo=     1
 LinEq1:  Iter= 17 NonCon=     1 RMS=4.52D-09 Max=1.05D-07 NDo=     1
 LinEq1:  Iter= 18 NonCon=     1 RMS=2.13D-09 Max=4.56D-08 NDo=     1
[...]

 ----------------------------------------------------------------------

 Dipole orientation:
     6         -0.06245083          0.80369680          1.60411515
     6         -2.20667286         -0.08159251          2.50613434
     1          1.05763464          2.43308044          2.10397652
     6          3.63953434         -4.92208253          0.41532186
     1          3.42794924         -3.91079947          2.20057085
     1          3.35870393         -6.93680777          0.71492958
     1          5.50465547         -4.57076111         -0.37826273
     8          1.72314036         -4.19746770         -1.31622708
     8          2.11948081         -1.62338764         -1.93946130
     1          1.12781605         -0.58049357         -0.45065961
     1         -3.10212021          0.95678841          4.04634214
     6         -3.52439742         -2.33978536          1.62887987
     6         -5.70582045         -3.11215367          2.62240264
     1         -2.63901286         -3.39103665          0.11688815
     1         -6.64799674         -4.78782187          1.94070429
     1         -6.60781183         -2.08401894          4.14189162

 Electric dipole moment (dipole orientation):
 (Debye = 10**-18 statcoulomb cm , SI units = C m)
                  (au)            (Debye)         (10**-30 SI)
   Tot        0.981519D+00      0.249477D+01      0.832166D+01
   x          0.000000D+00      0.000000D+00      0.000000D+00
   y          0.000000D+00      0.000000D+00      0.000000D+00
   z          0.981519D+00      0.249477D+01      0.832166D+01

 Dipole polarizability, Alpha (dipole orientation).
 (esu units = cm**3 , SI units = C**2 m**2 J**-1)
 Alpha(0;0):
               (au)            (10**-24 esu)      (10**-40 SI)
   iso        0.838256D+02      0.124217D+02      0.138210D+02
   aniso      0.570528D+02      0.845436D+01      0.940674D+01
   xx         0.104685D+03      0.155128D+02      0.172603D+02
   yx         0.299886D+01      0.444385D+00      0.494444D+00
   yy         0.812699D+02      0.120430D+02      0.133996D+02
   zx        -0.246907D+02     -0.365878D+01     -0.407094D+01
   zy         0.883378D+01      0.130903D+01      0.145649D+01
   zz         0.655215D+02      0.970928D+01      0.108030D+02

 ----------------------------------------------------------------------
 1\1\GINC-N58\Freq\UB2PLYPD3-FC\CC-pVTZ\C5H9O2(2)\ROOT\02-Jun-2019\0\\#
 N Geom=AllCheck Guess=TCheck SCRF=Check GenChk UB2PLYPD3(FC)/CC-pVTZ F
 req\\Title Card Required\\0,2\C,-0.2903065879,0.8521112618,0.303585809
 9\C,-1.5745037852,0.6317081668,0.4960815608\H,0.2732686607,1.762703560
 5,0.1696473207\C,1.3187616387,-1.597265716,2.5002902507\H,0.9354124785
 ,-0.611871508,2.7712961532\H,0.9744838714,-2.3387824243,3.2182846097\H
 ,2.4067223076,-1.5788900781,2.4678707532\O,0.7878517667,-2.0154869294,
 1.2519788506\O,1.2937683489,-1.1447323629,0.2549683301\H,0.5936122265,
 -0.3018710521,0.2528243081\H,-2.238583218,1.4968009252,0.5332107412\C,
 -2.2051209179,-0.6739244805,0.6615405112\C,-3.5172398714,-0.8209084493
 ,0.8425088424\H,-1.552484145,-1.5356782604,0.6368853869\H,-3.961793883
 3,-1.7972643496,0.9612350294\H,-4.1811229902,0.0326912362,0.874209472\
 \Version=ES64L-G16RevB.01\State=2-A\HF=-345.5844485\MP2=-346.0132278\P
 UHF=-345.5918245\PMP2-0=-346.0145062\S2=0.801758\S2-1=0.763989\S2A=0.7
 51646\RMSD=4.109e-09\RMSF=1.485e-05\ZeroPoint=0.1234922\Thermal=0.1327
 481\Dipole=-0.3691732,0.6124878,0.6722717\DipoleDeriv=0.4144251,-0.720
 6954,0.2093358,-0.7114274,0.5147719,-0.2118104,-0.0486315,0.0484395,-0
 .2649457,-0.0160767,0.1639019,-0.0735034,0.3894999,-0.0995605,0.065842
 7,-0.02107,-0.0200654,-0.06991,-0.0820247,0.1645733,-0.0450223,0.04827
 15,-0.0788323,0.0601437,0.0195818,-0.0140794,0.1934349,0.4669375,-0.10
 37347,0.1486599,0.022613,0.2835347,0.0976378,0.2964808,-0.1184913,0.54
 71612,-0.0172397,0.1040603,-0.0069921,0.0314161,-0.0890492,-0.0929007,
 -0.0397533,0.046314,-0.0161941,0.0461905,-0.0471949,0.0193532,-0.03546
 36,-0.0045266,0.074033,-0.026832,0.0800572,-0.0478512,-0.1691415,0.036
 6336,-0.0750153,-0.0066804,0.0641604,-0.0324901,0.0209375,0.0122131,0.
 00905,-0.1274614,-0.2191553,0.0311853,0.3284672,-0.5404448,-0.0150273,
 -0.5801965,0.3788027,-0.4969044,-0.1553235,-0.03706,-0.0523131,-0.7034
 678,0.5277859,-0.2096361,0.3439988,-0.4453772,-0.1236455,-0.3784929,0.
 5372374,-0.1504852,0.6957262,-0.6068264,0.2649662,-0.0003835,0.0408764
 ,0.1195077,-0.0671603,0.1503944,-0.0180331,-0.0227244,0.0203891,-0.006
 4277,0.0323125,-0.0094802,0.1177652,0.0643243,-0.0186291,-0.0050678,0.
 1331493,-0.0086801,-0.0009003,-0.0464925,-0.0208573,-0.0976681,-0.0792
 806,-0.0567765,-0.0350072,-0.1760329,0.1149396,-0.0167917,-0.0096125,-
 0.0196849,-0.2666596,0.0598368,0.0369022,0.0295869,-0.0273116,0.008056
 6,0.0043315,0.0312686,0.0149146,0.1289701,0.0208383,-0.012806,0.010033
 2,-0.0640036,-0.0452629,0.0169743,0.0195948,0.0149019,0.1302959,0.0196
 487,0.0223486,0.0132854,0.0979684,-0.0604555,0.002055,0.0087973,0.0115
 163,0.1375936\Polar=115.5442446,-5.7524436,80.4186837,1.4853812,-11.83
 6196,55.513887\PG=C01 [X(C5H9O2)]\NImag=1\\0.73112874,0.25914656,0.369
 40066,-0.10906389,-0.05538172,0.08224198,-0.56258507,-0.10998580,0.079
 79678,0.85095223,-0.08089258,-0.09456177,0.01437908,0.04766891,0.56575
 214,0.07725668,0.01858761,-0.05205585,-0.10296046,-0.03358038,0.142958
 25,-0.11795449,-0.13204432,0.02148064,-0.00614996,-0.02820886,0.002678
 40,0.12772637,-0.15632475,-0.26099101,0.03617656,0.00995852,0.00471038
 ,-0.00177612,0.14907057,0.26409497,0.02181778,0.03265871,-0.02842281,0
 .00065801,0.00382362,-0.00006233,-0.02451788,-0.03601086,0.02076239,-0
 .00371048,0.00281591,-0.00020802,0.00065510,-0.00111394,-0.00018167,0.
 00103004,-0.00061141,-0.00006885,0.58073193,-0.00117373,0.00184959,0.0
 0025048,0.00094548,-0.00066740,-0.00009875,0.00015035,-0.00010189,0.00
 078549,0.00635277,0.59542062,-0.00809366,0.00716004,0.00041156,0.00225
 655,-0.00235392,-0.00036749,0.00183871,-0.00131285,0.00055201,-0.05206
 817,-0.04713759,0.47191784,0.00094968,-0.00074621,-0.00003562,-0.00042
 376,0.00046179,0.00006876,-0.00023549,0.00011559,0.00026452,-0.0905887
 0,0.08963822,0.02161093,0.08881358,0.00101899,-0.00097845,0.00001269,-
 0.00013122,0.00025039,0.00000887,-0.00013434,0.00008083,-0.00026039,0.
 08712312,-0.25925958,-0.04740116,-0.09191450,0.28120171,0.00230128,-0.
 00151076,0.00023722,-0.00084892,0.00052720,0.00011037,-0.00055477,0.00
 039583,-0.00008203,0.02223008,-0.04154421,-0.05854003,-0.01881319,0.06
 198433,0.07107629,0.00013560,-0.00021212,-0.00005843,-0.00000515,0.000
 15880,0.00001284,-0.00007710,0.00003609,0.00003098,-0.08080522,-0.0633
 9806,0.05917604,0.00430815,0.00872612,-0.00838579,0.07827846,0.0001949
 7,-0.00001645,0.00024485,-0.00016772,-0.00007286,0.00002564,-0.0000352
 1,0.00003336,-0.00012788,-0.06172893,-0.18175569,0.12315049,-0.0102598
 5,-0.01684990,0.01847857,0.06681187,0.18800810,0.00084119,-0.00087917,
 0.00009577,-0.00030042,0.00049780,0.00003333,-0.00026576,0.00015685,-0
 .00006287,0.05260703,0.11317203,-0.15687687,-0.00258843,-0.00468305,0.
 00706363,-0.05889511,-0.13082847,0.18296363,0.00091651,-0.00100095,-0.
 00015432,-0.00023829,0.00038058,0.00004182,-0.00028287,0.00019184,0.00
 002786,-0.31342329,0.00094222,0.01854072,-0.01020116,-0.00062163,0.002
 17686,-0.00666233,0.00113178,0.00089727,0.34064072,0.00043650,-0.00034
 299,-0.00006920,-0.00025325,0.00007767,0.00008263,-0.00002226,-0.00000
 401,-0.00008469,0.00217420,-0.05284518,-0.00040676,0.02985584,0.001124
 45,-0.00198507,-0.02199264,0.00093699,0.00041785,0.00401875,0.05023384
 ,0.00055733,-0.00038612,-0.00006330,-0.00017055,0.00012416,0.00004612,
 -0.00011836,0.00010338,-0.00002533,0.02677379,0.00308402,-0.04909436,0
 .00627792,0.00139298,0.00182769,0.02045964,-0.00147683,0.00104762,-0.0
 1201336,0.00476524,0.05675058,-0.01051466,0.01350102,0.00143472,0.0026
 3281,-0.00438130,-0.00024566,0.00213684,-0.00170555,-0.00071804,-0.103
 15987,-0.04109956,-0.04558121,0.00868865,-0.00262352,0.00387694,0.0038
 6974,0.00332912,0.01091705,-0.01263159,-0.01651281,-0.04087448,0.16129
 729,-0.01478536,0.01260163,0.00028086,0.00270738,-0.00391725,-0.000144
 28,0.00369499,-0.00217556,0.00023079,-0.03663486,-0.09943074,-0.035806
 89,-0.01684808,-0.00944017,-0.03383072,0.00901773,0.00635268,0.0228568
 2,-0.00566201,0.00069372,-0.00538522,0.10171133,0.23644033,0.02134325,
 -0.02280501,-0.00084106,-0.00560602,0.00771112,0.00033726,-0.00466144,
 0.00330527,-0.00033728,-0.06834023,-0.07103843,-0.15843595,-0.00865224
 ,-0.01144190,-0.02747113,-0.00875431,-0.00516190,-0.02629165,-0.012049
 24,-0.00272363,-0.01627030,0.04849285,-0.01948451,0.36246495,-0.039734
 04,0.04877425,0.00100288,0.00455683,0.00147926,-0.00038598,0.00167195,
 0.00078471,0.00011349,0.00684763,0.00776900,-0.00378467,-0.00055680,-0
 .00100037,0.00044691,0.00090908,0.00074715,-0.00300593,0.00302328,0.00
 226105,-0.00078081,-0.07578104,-0.04728982,0.06299593,0.16400546,0.086
 13580,-0.09140783,-0.00478013,-0.01316386,0.00929526,0.00125138,-0.009
 52799,0.00596640,0.00018497,0.00501119,-0.00382570,0.01350310,-0.00152
 932,0.00284654,-0.00530321,0.00088283,0.00330785,-0.00073448,-0.000637
 77,0.00020960,-0.00301929,-0.03830738,-0.09832881,0.07954798,-0.028471
 01,0.15139139,-0.02083548,0.02173772,0.00719889,0.00503328,-0.00733391
 ,-0.00131939,0.00426940,-0.00349731,-0.00207026,0.02029187,0.03792089,
 -0.05021961,0.00159672,0.00142487,0.00600967,-0.00364451,-0.00362688,-
 0.00729644,0.00251686,0.00014687,0.00596261,0.03421263,0.04825242,-0.1
 2302738,-0.08528027,-0.06748508,0.18804333,0.04595006,-0.06694168,-0.0
 0310210,-0.02037032,0.01509100,0.00256528,-0.00573136,0.00031702,0.001
 36099,0.00205005,-0.00020734,0.00620131,-0.00064878,-0.00035603,-0.002
 39452,0.00010904,-0.00005743,-0.00009629,-0.00121143,0.00003480,-0.000
 20580,0.02542348,0.00144327,-0.02223208,-0.06355948,-0.00001013,0.0395
 7151,0.01952541,-0.08159648,0.06566693,0.00635924,0.01809522,-0.010050
 00,-0.00190962,0.01551436,-0.01275812,-0.00112691,-0.00351947,0.000499
 17,-0.00975277,0.00136606,0.00122769,0.00291561,0.00000054,0.00001123,
 0.00005838,0.00129442,-0.00000677,0.00083859,-0.01568930,-0.04336421,0
 .04300337,0.01643668,0.02073641,-0.02867853,0.05046702,-0.02228582,0.0
 0458513,-0.00186518,-0.02128207,0.00049685,-0.00026439,0.00370951,-0.0
 0095613,0.00179779,0.00433649,-0.00095291,0.00475756,0.00087792,0.0003
 0534,-0.00107623,-0.00019071,0.00008596,-0.00068484,-0.00064420,-0.000
 03435,-0.00017004,-0.00020792,-0.01072475,0.02298336,-0.01031397,0.028
 39828,-0.01283965,-0.02316615,-0.02158984,-0.01262087,0.04598782,-0.02
 471333,0.02238683,0.00360375,-0.14126615,0.12850388,0.00603317,0.00204
 862,-0.00170791,-0.00054153,0.00036619,0.00006424,0.00068929,-0.000159
 89,-0.00000629,-0.00019515,-0.00003867,0.00000385,-0.00012904,-0.00010
 748,-0.00002585,-0.00004467,0.00116292,0.00125444,-0.00193219,-0.00095
 545,-0.00149062,0.00187498,-0.00237973,0.00074535,0.00027500,0.1575735
 9,-0.00012907,0.00246757,0.00055459,0.12064911,-0.21184499,-0.00574291
 ,0.00024582,0.00055326,-0.00024337,0.00021852,0.00001014,0.00021523,-0
 .00008177,-0.00000387,-0.00008975,-0.00003006,0.00000894,-0.00008836,-
 0.00003935,0.00000682,0.00002328,0.00091969,0.00060670,-0.00101107,0.0
 0017708,-0.00218797,0.00128726,-0.00225953,0.00339233,-0.00007702,-0.1
 3603862,0.23044099,0.00550838,-0.00262622,0.01007305,0.00629957,-0.006
 63507,-0.03834038,-0.00079162,0.00012387,-0.00254464,0.00001388,-0.000
 66831,-0.00055556,-0.00017575,0.00032476,-0.00002240,-0.00000932,0.000
 02221,0.00004535,-0.00000393,0.00011479,0.00002711,0.00017557,-0.00050
 890,0.00075460,0.00017904,0.00061750,0.00042206,0.00027642,-0.00017959
 ,0.00158366,-0.01056560,0.00546246,0.01979544,-0.00991036,-0.02817169,
 0.00337377,-0.12953701,-0.06508195,0.01274775,-0.00334863,-0.00068168,
 0.00145832,-0.00028257,0.00002005,-0.00055454,0.00010958,-0.00009364,0
 .00017162,0.00002493,-0.00000203,0.00006727,0.00011327,-0.00001150,0.0
 0002847,-0.00143471,-0.00020561,0.00101119,-0.00125243,0.00429833,-0.0
 0139660,0.00399620,-0.00681160,0.00036799,0.00767035,0.01958137,-0.000
 99409,0.87361198,-0.01154042,0.00343817,0.00144989,-0.05291273,-0.2391
 3171,0.01802082,0.00340809,-0.00019027,-0.00000998,-0.00015691,0.00032
 152,0.00039643,0.00021788,-0.00015794,0.00003640,0.00008055,-0.0000470
 4,0.00011813,-0.00003028,-0.00012328,-0.00016622,-0.00337204,-0.000737
 61,0.00182806,-0.00135091,0.00458064,-0.00300421,0.00554338,-0.0044075
 3,0.00019699,-0.01115870,-0.02260736,0.00346135,-0.01580841,0.61466183
 ,0.00171614,0.00444835,0.00140794,0.01221889,0.01904615,-0.06779272,0.
 00171481,0.00062958,0.00922953,0.00012683,0.00065630,0.00072741,0.0002
 0479,-0.00025888,0.00000801,0.00003191,-0.00006329,-0.00003785,-0.0000
 4437,-0.00012004,-0.00005372,-0.00127980,0.00050224,-0.00058242,0.0000
 4529,-0.00070602,-0.00039388,-0.00046896,0.00065256,-0.00127394,0.0008
 1392,-0.00071289,0.00768354,-0.09532777,-0.02985284,0.14478497,-0.0121
 6666,-0.00459990,0.00216450,-0.00517606,-0.00429546,0.00162079,-0.0000
 6061,0.00022063,0.00015297,0.00012341,0.00008639,0.00043027,-0.0000700
 8,-0.00004798,-0.00007383,-0.00002524,0.00002952,-0.00005316,-0.000051
 05,-0.00005223,-0.00006362,0.00002831,0.00046837,-0.00075415,0.0012700
 2,-0.00234495,0.00057564,-0.00247178,0.00312839,-0.00023946,0.00180980
 ,0.00141689,-0.00058230,-0.55505856,-0.04645991,0.06883148,0.84931878,
 -0.00172551,-0.00776716,0.00075814,-0.03718032,-0.00336822,0.00551514,
 -0.00195828,0.00043174,0.00025072,0.00023482,-0.00014924,-0.00015133,-
 0.00013785,0.00000977,-0.00000160,-0.00005984,0.00005268,-0.00008348,0
 .00002519,0.00005086,0.00010303,0.00195456,0.00082578,-0.00125085,0.00
 002032,-0.00200647,0.00191717,-0.00191929,0.00144773,-0.00012905,-0.00
 112327,0.00176888,-0.00005364,-0.04254828,-0.12078915,0.00990084,0.028
 11232,0.65658351,0.00196600,0.00134522,0.00191335,0.00374434,0.0010731
 5,0.00485573,0.00012013,-0.00007372,-0.00025137,-0.00000840,-0.0000371
 6,-0.00017373,0.00007737,0.00005997,0.00001429,0.00005104,-0.00005443,
 0.00004241,-0.00000030,0.00002122,0.00004332,-0.00024557,-0.00009157,0
 .00030589,-0.00011114,0.00055103,-0.00024322,0.00050752,-0.00065460,0.
 00008073,-0.00031122,-0.00033851,-0.00116377,0.06837388,0.01039080,-0.
 06080309,-0.09780013,-0.03821440,0.12562319,0.00195400,-0.00098035,-0.
 00032190,0.01000439,-0.01296461,-0.00010270,-0.00028012,0.00034694,-0.
 00001093,0.00012844,-0.00010495,-0.00090402,0.00001420,0.00007988,0.00
 006796,-0.00000895,-0.00001395,0.00003449,0.00014672,0.00010606,0.0002
 2320,-0.00138391,0.00104963,-0.00070734,-0.00051350,-0.00075941,0.0013
 1237,-0.00072262,0.00029125,-0.00000814,-0.00103989,-0.00325172,0.0006
 2974,-0.15869736,0.13597173,0.00649838,-0.01592572,0.02605511,0.001083
 61,0.16923405,0.00161219,0.00064416,-0.00028456,0.01536533,-0.01949576
 ,-0.00054158,-0.00021590,0.00032291,-0.00001400,-0.00016190,-0.0000266
 8,-0.00009064,-0.00012912,-0.00005367,-0.00007477,-0.00000848,0.000020
 13,0.00003191,0.00000087,-0.00001672,-0.00000036,0.00220732,-0.0001458
 3,-0.00048446,-0.00038074,-0.00048122,0.00091144,-0.00101214,-0.000197
 06,-0.00001922,-0.00226254,-0.00345451,0.00072943,0.13643959,-0.240059
 77,-0.00461184,-0.00534470,0.00766572,0.00064224,-0.14433559,0.2530765
 2,0.00000419,-0.00058507,-0.00090308,-0.00171597,0.00318142,0.00313232
 ,-0.00015600,0.00001667,-0.00024299,-0.00019290,-0.00008931,-0.0002521
 0,-0.00010359,-0.00006804,-0.00003411,-0.00007663,0.00007394,-0.000068
 99,0.00008736,0.00001501,0.00002589,0.00034141,0.00017328,-0.00020756,
 0.00017248,-0.00068395,-0.00001473,-0.00030174,0.00097478,0.00042957,0
 .00054786,0.00067336,0.00251161,0.00568669,-0.00354307,-0.04328648,0.0
 0334693,-0.00387460,0.00588391,-0.00878069,0.00342626,0.02910705,0.000
 26562,-0.00182096,0.00006225,-0.00479227,0.00142346,0.00227675,-0.0005
 3944,0.00001756,-0.00009528,0.00005560,-0.00003403,0.00009384,-0.00001
 771,0.00000233,-0.00000648,-0.00001908,0.00001592,-0.00003448,-0.00000
 949,0.00000508,-0.00000866,0.00012755,0.00019652,-0.00027037,0.0000211
 6,-0.00033979,0.00026191,-0.00028308,0.00038540,-0.00002915,0.00004316
 ,-0.00021977,-0.00005272,-0.00913121,-0.03090119,0.00380464,-0.1024611
 3,-0.10128550,0.01498981,0.00116359,0.00006605,-0.00115043,0.10599627,
 -0.00002822,-0.00009991,0.00000341,-0.00021062,0.00131538,0.00076331,-
 0.00002704,0.00000725,-0.00007700,0.00002494,-0.00000457,0.00007222,-0
 .00000825,-0.00000621,-0.00000574,-0.00000622,0.00000884,-0.00000932,-
 0.00001047,-0.00000244,-0.00001104,-0.00000187,0.00005606,-0.00010933,
 -0.00000935,-0.00012542,0.00006904,-0.00010154,0.00014832,-0.00000806,
 0.00015789,0.00042494,-0.00007583,0.00262819,0.00086312,-0.00007418,-0
 .10703276,-0.29788329,0.03034488,-0.00033213,0.00101229,-0.00047523,0.
 11556740,0.30934063,-0.00003375,0.00015144,-0.00011946,0.00240543,0.00
 069139,0.01293333,-0.00012575,-0.00009048,-0.00132750,0.00000948,-0.00
 002942,0.00004006,-0.00000948,0.00000705,-0.00000713,-0.00001242,0.000
 01391,-0.00000581,0.,0.00000297,-0.00001443,-0.00009596,-0.00003397,0.
 00004357,-0.00001147,0.00007731,-0.00001481,0.00002218,-0.00000600,0.0
 0005409,-0.00008420,-0.00003686,-0.00040670,0.00175736,0.00429143,0.00
 474210,0.01530347,0.02953321,-0.03929037,-0.00101532,-0.00063457,-0.00
 740143,-0.01788709,-0.03288164,0.02804615,-0.00001113,-0.00012061,0.00
 002499,0.00174268,0.00177103,-0.00142577,0.00004625,-0.00002817,0.0000
 6760,-0.00001827,0.00004895,0.00014861,0.00001853,-0.00002094,0.000001
 00,0.00000673,0.00000094,0.00000430,-0.00002151,-0.00002173,-0.0000400
 4,-0.00046180,-0.00011792,0.00011639,0.00004731,0.00025408,-0.00036030
 ,0.00032435,-0.00010784,0.00002017,-0.00001405,-0.00115859,0.00009273,
 -0.01687349,0.02846989,0.00111382,-0.15908343,0.13153581,0.00756307,-0
 .00407335,-0.00184023,0.00229103,0.00958048,-0.01060996,-0.00022248,0.
 16879072,-0.00034888,0.00009684,0.00004583,-0.00138444,0.00170872,-0.0
 0046177,0.00009003,0.00001976,0.00002080,-0.00002804,-0.00003436,-0.00
 008361,-0.00000045,0.00000841,0.00000788,-0.00000711,0.00000114,-0.000
 00345,0.00001682,0.00000744,0.00001039,0.00007027,-0.00003671,0.000115
 27,0.00005271,0.00002933,-0.00004178,-0.00003138,-0.00006030,0.0000188
 5,0.00069731,0.00041812,-0.00010881,-0.00355115,0.00438636,0.00056397,
 0.13671538,-0.23687314,-0.00496412,-0.00115789,0.00118947,0.00078455,0
 .01692152,-0.01505499,-0.00105576,-0.14805470,0.24419394,0.00012942,-0
 .00004984,0.00010788,-0.00130736,-0.00088741,-0.00817807,0.00004564,0.
 00005555,0.00054896,-0.00003181,0.00001643,-0.00001109,-0.00002806,-0.
 00002586,0.00000035,-0.00001188,0.00001492,-0.00000706,0.00001112,-0.0
 0000716,-0.00000158,0.00031431,0.00000629,-0.00012758,0.00000599,-0.00
 018147,0.00012934,-0.00011388,0.00012633,0.00001916,-0.00003439,0.0001
 2455,0.00013702,0.00322868,-0.00361397,0.00564061,0.00714059,-0.004219
 28,-0.03683727,0.00200129,0.00101469,0.01132113,-0.00195455,0.00247450
 ,0.00272835,-0.00939512,0.00515174,0.02452985\\0.00002890,-0.00002293,
 -0.00001611,0.00000266,0.00000835,0.00002206,-0.00001464,0.00000818,-0
 .00000907,-0.00000136,0.00000864,0.00000836,0.00000742,-0.00000580,0.0
 0000210,0.00000300,-0.00000186,-0.00000036,-0.00000014,0.00000353,-0.0
 0000349,-0.00000146,-0.00001280,-0.00002299,0.00003116,-0.00002537,0.0
 0003390,-0.00004436,0.00003469,0.00000245,-0.00000135,-0.00000197,-0.0
 0000817,-0.00000018,0.00000620,0.00001484,-0.00000096,-0.00000346,0.00
 000122,-0.00000971,0.00000399,-0.00002561,0.00000030,0.00000059,0.0000
 0218,0.00000071,0.00000002,-0.00000133\\\@


 THE PROGRESS OF RIVERS TO THE SEA IS NOT AS RAPID
 AS THAT OF MAN TO ERROR.
                                              -- VOLTAIRE
 Job cpu time:       2 days  5 hours 49 minutes  6.5 seconds.
 Elapsed time:       0 days  1 hours 23 minutes 20.0 seconds.
 File lengths (MBytes):  RWF=  83473 Int=      0 D2E=      0 Chk=     18 Scr=      1
 Normal termination of Gaussian 16 at Sun Jun  2 21:11:05 2019.
