 Entering Gaussian System, Link 0=g16
 Initial command:
 /ichec/packages/gaussian/16b01/l1.exe "/localscratch/353443/Gau-97525.inp" -scrdir="/localscratch/353443/"
 Entering Link 1 = /ichec/packages/gaussian/16b01/l1.exe PID=     98025.
  
 Copyright (c) 1988-2017, Gaussian, Inc.  All Rights Reserved.
  
 This is part of the Gaussian(R) 16 program.  It is based on
 the Gaussian(R) 09 system (copyright 2009, Gaussian, Inc.),
 the Gaussian(R) 03 system (copyright 2003, Gaussian, Inc.),
 the Gaussian(R) 98 system (copyright 1998, Gaussian, Inc.),
 the Gaussian(R) 94 system (copyright 1995, Gaussian, Inc.),
 the Gaussian 92(TM) system (copyright 1992, Gaussian, Inc.),
 the Gaussian 90(TM) system (copyright 1990, Gaussian, Inc.),
 the Gaussian 88(TM) system (copyright 1988, Gaussian, Inc.),
 the Gaussian 86(TM) system (copyright 1986, Carnegie Mellon
 University), and the Gaussian 82(TM) system (copyright 1983,
 Carnegie Mellon University). Gaussian is a federally registered
 trademark of Gaussian, Inc.
  
 This software contains proprietary and confidential information,
 including trade secrets, belonging to Gaussian, Inc.
  
 This software is provided under written license and may be
 used, copied, transmitted, or stored only in accord with that
 written license.
  
 The following legend is applicable only to US Government
 contracts under FAR:
  
                    RESTRICTED RIGHTS LEGEND
  
 Use, reproduction and disclosure by the US Government is
 subject to restrictions as set forth in subparagraphs (a)
 and (c) of the Commercial Computer Software - Restricted
 Rights clause in FAR 52.227-19.
  
 Gaussian, Inc.
 340 Quinnipiac St., Bldg. 40, Wallingford CT 06492
  
  
 ---------------------------------------------------------------
 Warning -- This program may not be used in any manner that
 competes with the business of Gaussian, Inc. or will provide
 assistance to any competitor of Gaussian, Inc.  The licensee
 of this program is prohibited from giving any competitor of
 Gaussian, Inc. access to this program.  By using this program,
 the user acknowledges that Gaussian, Inc. is engaged in the
 business of creating and licensing software in the field of
 computational chemistry and represents and warrants to the
 licensee that it is not a competitor of Gaussian, Inc. and that
 it will not use this program in any manner prohibited above.
 ---------------------------------------------------------------
  

 Cite this work as:
 Gaussian 16, Revision B.01,
 M. J. Frisch, G. W. Trucks, H. B. Schlegel, G. E. Scuseria, 
 M. A. Robb, J. R. Cheeseman, G. Scalmani, V. Barone, 
 G. A. Petersson, H. Nakatsuji, X. Li, M. Caricato, A. V. Marenich, 
 J. Bloino, B. G. Janesko, R. Gomperts, B. Mennucci, H. P. Hratchian, 
 J. V. Ortiz, A. F. Izmaylov, J. L. Sonnenberg, D. Williams-Young, 
 F. Ding, F. Lipparini, F. Egidi, J. Goings, B. Peng, A. Petrone, 
 T. Henderson, D. Ranasinghe, V. G. Zakrzewski, J. Gao, N. Rega, 
 G. Zheng, W. Liang, M. Hada, M. Ehara, K. Toyota, R. Fukuda, 
 J. Hasegawa, M. Ishida, T. Nakajima, Y. Honda, O. Kitao, H. Nakai, 
 T. Vreven, K. Throssell, J. A. Montgomery, Jr., J. E. Peralta, 
 F. Ogliaro, M. J. Bearpark, J. J. Heyd, E. N. Brothers, K. N. Kudin, 
 V. N. Staroverov, T. A. Keith, R. Kobayashi, J. Normand, 
 K. Raghavachari, A. P. Rendell, J. C. Burant, S. S. Iyengar, 
 J. Tomasi, M. Cossi, J. M. Millam, M. Klene, C. Adamo, R. Cammi, 
 J. W. Ochterski, R. L. Martin, K. Morokuma, O. Farkas, 
 J. B. Foresman, and D. J. Fox, Gaussian, Inc., Wallingford CT, 2016.
 
 ******************************************
 Gaussian 16:  ES64L-G16RevB.01 20-Dec-2017
                25-Jun-2019 
 ******************************************
 %mem=80GB
 %nproc=40
 Will use up to   40 processors via shared memory.
 ----------------------------------------------------------------------
 # opt=(calcfc,ts,noeigentest,maxcyc=500) freq=noraman uB2PLYPD3/cc-pvt
 z
 ----------------------------------------------------------------------
 1/5=1,6=500,10=4,11=1,18=20,38=1/1,3;
 2/9=110,12=2,17=6,18=5,40=1/2;
 3/5=16,6=1,11=2,25=1,30=1,71=2,74=-60,116=2,140=1/1,2,3;
 4//1;
 5/5=2,38=5/2;
 8/6=3,8=1,10=1,19=11,30=-1/1;
 9/15=3,16=-3/6;
 11/6=1,8=1,15=11,17=12,24=-1,27=1,28=-2,29=300,32=6,42=3/1,2,10;
 10/6=2,21=1/2;
 8/6=4,8=1,10=1,19=11,30=-1/11,4;
 10/5=1,20=4/2;
 11/12=2,14=11,16=1,17=2,28=-2,42=3,76=2/2,10,12;
 6/7=2,8=2,9=2,10=2/1;
 7/10=1,12=2,25=1,44=2/1,2,3,16;
 1/5=1,6=500,10=4,11=1,18=20/3(2);
 2/9=110/2;
 99//99;
 2/9=110/2;
 3/5=16,6=1,11=2,25=1,30=1,71=1,74=-60,116=2/1,2,3;
 4/5=5,16=3,69=1/1;
 5/5=2,38=5/2;
 8/6=4,10=1/1;
 9/15=2,16=-3/6;
 10/5=1/2;
 7/12=2/1,2,3,16;
 1/5=1,6=500,11=1,18=20/3(-8);
 2/9=110/2;
 6/7=2,8=2,9=2,10=2/1;
 99/9=10/99;
 -------------------
 Title Card Required
 -------------------
 Symbolic Z-matrix:
 Charge =  0 Multiplicity = 2
 C                     0.99266   0.64849   0.9754 
 H                     1.47761  -0.00921   1.69478 
 C                    -2.02516  -1.12379  -0.66249 
 H                    -1.47704  -0.37725  -1.23443 
 H                    -2.02673  -2.07301  -1.19378 
 H                    -3.04523  -0.78711  -0.48589 
 O                    -1.37274  -1.38848   0.57643 
 O                    -1.3677   -0.2105    1.32269 
 H                    -0.22842   0.25361   1.13167 
 C                     1.28516   0.2978   -0.40623 
 C                     1.77124  -0.8856   -0.80234 
 H                     1.03889   1.04055  -1.15856 
 H                     1.93484  -1.10755  -1.84621 
 H                     2.01734  -1.6565   -0.08546 
 C                     0.98801   2.10867   1.3585 
 H                     0.5631    2.25459   2.34981 
 H                     2.00288   2.5133    1.3688 
 H                     0.40444   2.69612   0.65026 
 
 Add virtual bond connecting atoms H9         and O8         Dist= 2.35D+00.

 GradGradGradGradGradGradGradGradGradGradGradGradGradGradGradGradGradGrad
 Berny optimization.
 Initialization pass.
                           ----------------------------
                           !    Initial Parameters    !
                           ! (Angstroms and Degrees)  !
 --------------------------                            --------------------------
 ! Name  Definition              Value          Derivative Info.                !
 --------------------------------------------------------------------------------
 ! R1    R(1,2)                  1.0887         calculate D2E/DX2 analytically  !
 ! R2    R(1,9)                  1.2928         calculate D2E/DX2 analytically  !
 ! R3    R(1,10)                 1.4552         calculate D2E/DX2 analytically  !
 ! R4    R(1,15)                 1.5096         calculate D2E/DX2 analytically  !
 ! R5    R(3,4)                  1.0885         calculate D2E/DX2 analytically  !
 ! R6    R(3,5)                  1.0878         calculate D2E/DX2 analytically  !
 ! R7    R(3,6)                  1.0886         calculate D2E/DX2 analytically  !
 ! R8    R(3,7)                  1.425          calculate D2E/DX2 analytically  !
 ! R9    R(7,8)                  1.3945         calculate D2E/DX2 analytically  !
 ! R10   R(8,9)                  1.2449         calculate D2E/DX2 analytically  !
 ! R11   R(10,11)                1.3393         calculate D2E/DX2 analytically  !
 ! R12   R(10,12)                1.0855         calculate D2E/DX2 analytically  !
 ! R13   R(11,13)                1.0797         calculate D2E/DX2 analytically  !
 ! R14   R(11,14)                1.0811         calculate D2E/DX2 analytically  !
 ! R15   R(15,16)                1.0884         calculate D2E/DX2 analytically  !
 ! R16   R(15,17)                1.0926         calculate D2E/DX2 analytically  !
 ! R17   R(15,18)                1.0896         calculate D2E/DX2 analytically  !
 ! A1    A(2,1,9)               98.9942         calculate D2E/DX2 analytically  !
 ! A2    A(2,1,10)             113.0954         calculate D2E/DX2 analytically  !
 ! A3    A(2,1,15)             114.7098         calculate D2E/DX2 analytically  !
 ! A4    A(9,1,10)             103.3572         calculate D2E/DX2 analytically  !
 ! A5    A(9,1,15)             105.18           calculate D2E/DX2 analytically  !
 ! A6    A(10,1,15)            118.3383         calculate D2E/DX2 analytically  !
 ! A7    A(4,3,5)              110.0329         calculate D2E/DX2 analytically  !
 ! A8    A(4,3,6)              110.1803         calculate D2E/DX2 analytically  !
 ! A9    A(4,3,7)              110.7114         calculate D2E/DX2 analytically  !
 ! A10   A(5,3,6)              110.3497         calculate D2E/DX2 analytically  !
 ! A11   A(5,3,7)              105.2606         calculate D2E/DX2 analytically  !
 ! A12   A(6,3,7)              110.2077         calculate D2E/DX2 analytically  !
 ! A13   A(3,7,8)              108.0604         calculate D2E/DX2 analytically  !
 ! A14   A(7,8,9)              103.6577         calculate D2E/DX2 analytically  !
 ! A15   A(1,10,11)            124.5223         calculate D2E/DX2 analytically  !
 ! A16   A(1,10,12)            116.5862         calculate D2E/DX2 analytically  !
 ! A17   A(11,10,12)           118.8149         calculate D2E/DX2 analytically  !
 ! A18   A(10,11,13)           121.5065         calculate D2E/DX2 analytically  !
 ! A19   A(10,11,14)           121.1039         calculate D2E/DX2 analytically  !
 ! A20   A(13,11,14)           117.3895         calculate D2E/DX2 analytically  !
 ! A21   A(1,15,16)            111.2249         calculate D2E/DX2 analytically  !
 ! A22   A(1,15,17)            110.9614         calculate D2E/DX2 analytically  !
 ! A23   A(1,15,18)            110.9885         calculate D2E/DX2 analytically  !
 ! A24   A(16,15,17)           107.722          calculate D2E/DX2 analytically  !
 ! A25   A(16,15,18)           108.0986         calculate D2E/DX2 analytically  !
 ! A26   A(17,15,18)           107.694          calculate D2E/DX2 analytically  !
 ! A27   L(1,9,8,4,-1)         181.6066         calculate D2E/DX2 analytically  !
 ! A28   L(1,9,8,4,-2)         175.3273         calculate D2E/DX2 analytically  !
 ! D1    D(2,1,8,7)            -79.2423         calculate D2E/DX2 analytically  !
 ! D2    D(10,1,8,7)            36.5873         calculate D2E/DX2 analytically  !
 ! D3    D(15,1,8,7)           162.3054         calculate D2E/DX2 analytically  !
 ! D4    D(2,1,10,11)           17.6092         calculate D2E/DX2 analytically  !
 ! D5    D(2,1,10,12)         -165.6227         calculate D2E/DX2 analytically  !
 ! D6    D(9,1,10,11)          -88.4087         calculate D2E/DX2 analytically  !
 ! D7    D(9,1,10,12)           88.3595         calculate D2E/DX2 analytically  !
 ! D8    D(15,1,10,11)         155.8803         calculate D2E/DX2 analytically  !
 ! D9    D(15,1,10,12)         -27.3516         calculate D2E/DX2 analytically  !
 ! D10   D(2,1,15,16)          -53.9549         calculate D2E/DX2 analytically  !
 ! D11   D(2,1,15,17)           65.9443         calculate D2E/DX2 analytically  !
 ! D12   D(2,1,15,18)         -174.3484         calculate D2E/DX2 analytically  !
 ! D13   D(9,1,15,16)           53.6928         calculate D2E/DX2 analytically  !
 ! D14   D(9,1,15,17)          173.5919         calculate D2E/DX2 analytically  !
 ! D15   D(9,1,15,18)          -66.7007         calculate D2E/DX2 analytically  !
 ! D16   D(10,1,15,16)         168.4194         calculate D2E/DX2 analytically  !
 ! D17   D(10,1,15,17)         -71.6814         calculate D2E/DX2 analytically  !
 ! D18   D(10,1,15,18)          48.0259         calculate D2E/DX2 analytically  !
 ! D19   D(4,3,7,8)             62.5728         calculate D2E/DX2 analytically  !
 ! D20   D(5,3,7,8)           -178.5608         calculate D2E/DX2 analytically  !
 ! D21   D(6,3,7,8)            -59.5795         calculate D2E/DX2 analytically  !
 ! D22   D(3,7,8,9)            -98.913          calculate D2E/DX2 analytically  !
 ! D23   D(1,10,11,13)         177.5967         calculate D2E/DX2 analytically  !
 ! D24   D(1,10,11,14)          -2.5351         calculate D2E/DX2 analytically  !
 ! D25   D(12,10,11,13)          0.8954         calculate D2E/DX2 analytically  !
 ! D26   D(12,10,11,14)       -179.2364         calculate D2E/DX2 analytically  !
 --------------------------------------------------------------------------------
 Trust Radius=3.00D-01 FncErr=1.00D-07 GrdErr=1.00D-07 EigMax=2.50D+02 EigMin=1.00D-04
 Number of steps in this run=    108 maximum allowed number of steps=    108.
 Search for a saddle point of order  1.
 GradGradGradGradGradGradGradGradGradGradGradGradGradGradGradGradGradGrad

                          Input orientation:                          
 ---------------------------------------------------------------------
 Center     Atomic      Atomic             Coordinates (Angstroms)
 Number     Number       Type             X           Y           Z
 ---------------------------------------------------------------------
      1          6           0        0.992656    0.648485    0.975404
      2          1           0        1.477605   -0.009210    1.694782
      3          6           0       -2.025163   -1.123788   -0.662486
      4          1           0       -1.477039   -0.377253   -1.234426
      5          1           0       -2.026732   -2.073007   -1.193779
      6          1           0       -3.045235   -0.787114   -0.485892
      7          8           0       -1.372740   -1.388478    0.576429
      8          8           0       -1.367696   -0.210501    1.322692
      9          1           0       -0.228418    0.253612    1.131673
     10          6           0        1.285164    0.297801   -0.406234
     11          6           0        1.771244   -0.885604   -0.802335
     12          1           0        1.038890    1.040554   -1.158555
     13          1           0        1.934844   -1.107550   -1.846210
     14          1           0        2.017341   -1.656499   -0.085463
     15          6           0        0.988006    2.108670    1.358504
     16          1           0        0.563099    2.254589    2.349806
     17          1           0        2.002883    2.513303    1.368801
     18          1           0        0.404437    2.696119    0.650261
 ---------------------------------------------------------------------
                    Distance matrix (angstroms):
                    1          2          3          4          5
     1  C    0.000000
     2  H    1.088689   0.000000
     3  C    3.864048   4.366736   0.000000
     4  H    3.469133   4.176797   1.088517   0.000000
     5  H    4.607448   4.988328   1.087792   1.783086   0.000000
     6  H    4.527791   5.080999   1.088615   1.785365   1.786609
     7  O    3.146982   3.358208   1.425001   2.076692   2.007467
     8  O    2.535691   2.876579   2.281948   2.564881   3.199357
     9  H    1.292813   1.815677   2.888690   2.748721   3.748975
    10  C    1.455151   2.132031   3.611765   2.961649   4.148447
    11  C    2.473860   2.662684   3.806441   3.316092   3.998472
    12  H    2.170170   3.071808   3.784030   2.888915   4.369616
    13  H    3.454400   3.735511   4.133173   3.542395   4.129390
    14  H    2.736489   2.484783   4.118079   3.894519   4.213831
    15  C    1.509612   2.199592   4.859256   4.356552   5.752323
    16  H    2.157098   2.527877   5.214061   4.892389   6.163790
    17  H    2.157050   2.597162   5.794800   5.219383   6.621092
    18  H    2.155116   3.092171   4.713592   4.066646   5.661769
                    6          7          8          9         10
     6  H    0.000000
     7  O    2.070605   0.000000
     8  O    2.533297   1.394476   0.000000
     9  H    3.410877   2.077072   1.244927   0.000000
    10  C    4.464946   3.297517   3.207058   2.158250   0.000000
    11  C    4.827868   3.469655   3.850253   3.006135   1.339260
    12  H    4.524701   3.837489   3.676055   2.733220   1.085504
    13  H    5.172459   4.109527   4.664055   3.924315   2.114386
    14  H    5.152266   3.464475   3.941102   3.189573   2.111461
    15  C    5.296640   4.291248   3.305929   2.229883   2.545948
    16  H    5.505744   4.490465   3.295391   2.472702   3.456321
    17  H    6.310003   5.219826   4.333825   3.184515   2.928194
    18  H    5.032295   4.455080   3.470023   2.568677   2.764741
                   11         12         13         14         15
    11  C    0.000000
    12  H    2.091248   0.000000
    13  H    1.079676   2.426923   0.000000
    14  H    1.081087   3.063166   1.846180   0.000000
    15  C    3.774700   2.734785   4.637970   4.161859   0.000000
    16  H    4.610468   3.742840   5.549073   4.831352   1.088356
    17  H    4.039809   3.079903   4.842675   4.416146   1.092616
    18  H    4.099626   2.532833   4.800251   4.699791   1.089613
                   16         17         18
    16  H    0.000000
    17  H    1.761330   0.000000
    18  H    1.763115   1.762030   0.000000
 Stoichiometry    C5H11O2(2)
 Framework group  C1[X(C5H11O2)]
 Deg. of freedom    48
 Full point group                 C1      NOp   1
 Largest Abelian subgroup         C1      NOp   1
 Largest concise Abelian subgroup C1      NOp   1
                         Standard orientation:                         
 ---------------------------------------------------------------------
 Center     Atomic      Atomic             Coordinates (Angstroms)
 Number     Number       Type             X           Y           Z
 ---------------------------------------------------------------------
      1          6           0        1.333853   -0.253013   -0.321606
      2          1           0        1.451722   -0.163169   -1.400159
      3          6           0       -2.378716    0.142045    0.674201
      4          1           0       -1.607633    0.457056    1.374964
      5          1           0       -3.039542    0.975886    0.447684
      6          1           0       -2.946416   -0.689011    1.089103
      7          8           0       -1.802831   -0.230208   -0.574963
      8          8           0       -0.964751   -1.323040   -0.356098
      9          1           0        0.169969   -0.815010   -0.291604
     10          6           0        1.107117    1.024992    0.336239
     11          6           0        0.713470    2.141585   -0.289763
     12          1           0        1.220997    1.042746    1.415608
     13          1           0        0.522747    3.055308    0.252855
     14          1           0        0.576367    2.162007   -1.361926
     15          6           0        2.267095   -1.241349    0.335035
     16          1           0        2.198382   -2.220475   -0.135187
     17          1           0        3.305001   -0.908341    0.259758
     18          1           0        2.032152   -1.356576    1.392760
 ---------------------------------------------------------------------
 Rotational constants (GHZ):           2.9797377           1.6150412           1.1899063
 Standard basis: CC-pVTZ (5D, 7F)
 There are   410 symmetry adapted cartesian basis functions of A   symmetry.
 There are   364 symmetry adapted basis functions of A   symmetry.
   364 basis functions,   551 primitive gaussians,   410 cartesian basis functions
    29 alpha electrons       28 beta electrons
       nuclear repulsion energy       309.8686275361 Hartrees.
 NAtoms=   18 NActive=   18 NUniq=   18 SFac= 1.00D+00 NAtFMM=   60 NAOKFM=F Big=F
 Integral buffers will be    131072 words long.
 Raffenetti 2 integral format.
 Two-electron integral symmetry is turned on.
 Nuclear repulsion after empirical dispersion term =      309.8588366372 Hartrees.
 One-electron integrals computed using PRISM.
 NBasis=   364 RedAO= T EigKep=  3.47D-04  NBF=   364
 NBsUse=   364 1.00D-06 EigRej= -1.00D+00 NBFU=   364
 ExpMin= 1.03D-01 ExpMax= 1.53D+04 ExpMxC= 5.22D+02 IAcc=3 IRadAn=         5 AccDes= 0.00D+00
 Harris functional with IExCor=  419 and IRadAn=       5 diagonalized for initial guess.
 HarFok:  IExCor=  419 AccDes= 0.00D+00 IRadAn=         5 IDoV= 1 UseB2=F ITyADJ=14
 ICtDFT=  3500011 ScaDFX=  1.000000  1.000000  1.000000  1.000000
 FoFCou: FMM=F IPFlag=           0 FMFlag=      100000 FMFlg1=           0
         NFxFlg=           0 DoJE=T BraDBF=F KetDBF=T FulRan=T
         wScrn=  0.000000 ICntrl=       500 IOpCl=  0 I1Cent=   200000004 NGrid=           0
         NMat0=    1 NMatS0=      1 NMatT0=    0 NMatD0=    1 NMtDS0=    0 NMtDT0=    0
 Petite list used in FoFCou.
 Initial guess <Sx>= 0.0000 <Sy>= 0.0000 <Sz>= 0.5000 <S**2>= 0.7500 S= 0.5000
 Requested convergence on RMS density matrix=1.00D-08 within 128 cycles.
 Requested convergence on MAX density matrix=1.00D-06.
 Requested convergence on             energy=1.00D-06.
 No special actions if energy rises.
 Integral accuracy reduced to 1.0D-05 until final iterations.
 Initial convergence to 1.0D-05 achieved.  Increase integral accuracy.
 SCF Done:  E(UB2PLYPD3) =  -346.815327703     A.U. after   22 cycles
            NFock= 22  Conv=0.81D-08     -V/T= 2.0043
 <Sx>= 0.0000 <Sy>= 0.0000 <Sz>= 0.5000 <S**2>= 0.8058 S= 0.5275
 <L.S>=  0.00000000000    
 Annihilation of the first spin contaminant:
 S**2 before annihilation     0.8058,   after     0.7516
 DoSCS=T DFT=T ScalE2(SS,OS)=  0.270000  0.270000
 ExpMin= 1.03D-01 ExpMax= 1.53D+04 ExpMxC= 5.22D+02 IAcc=3 IRadAn=         5 AccDes= 0.00D+00
 HarFok:  IExCor=  205 AccDes= 0.00D+00 IRadAn=         5 IDoV=-2 UseB2=F ITyADJ=14
 ICtDFT= 12500011 ScaDFX=  1.000000  1.000000  1.000000  1.000000
 Range of M.O.s used for correlation:     8   364
 NBasis=   364 NAE=    29 NBE=    28 NFC=     7 NFV=     0
 NROrb=    357 NOA=    22 NOB=    21 NVA=   335 NVB=   336

 **** Warning!!: The largest alpha MO coefficient is  0.12024026D+02


 **** Warning!!: The largest beta MO coefficient is  0.12022755D+02

 DoSCS=T DFT=T ScalE2(SS,OS)=  0.270000  0.270000
 Disk-based method using ON**2 memory for 22 occupieds at a time.
 Permanent disk used for amplitudes=   135386230 words.
 Estimated scratch disk usage=  2618771824 words.
 Actual    scratch disk usage=  2532359536 words.
 JobTyp=2 Pass  1:  I=   8 to  29 NPSUse= 40 ParTrn=T ParDer=T DoDerP=T.
 (rs|ai) integrals will be sorted in core.
 Actual    scratch disk usage=  2532359536 words.
 JobTyp=3 Pass  1:  I=   8 to  28 NPSUse= 40 ParTrn=T ParDer=T DoDerP=T.
 (rs|ai) integrals will be sorted in core.
 Spin components of T(2) and E(2):
     alpha-alpha T2 =       0.7504054816D-01 E2=     -0.5339256224D-01
     alpha-beta  T2 =       0.4629394153D+00 E2=     -0.3344565218D+00
     beta-beta   T2 =       0.8448408696D-01 E2=     -0.5320796172D-01
 (S**2,0)=  0.80580D+00           (S**2,1)=  0.75472D+00
 Scaling Projection term by:   0.270000
 E(PUHF)=      -0.34682475709D+03        E(PMP2)=      -0.34725778483D+03
 E2(B2PLYPD3) =    -0.4410570458D+00 E(B2PLYPD3) =    -0.34725638474890D+03
 G2DrvN: will do    19 centers at a time, making    1 passes.
 Calling FoFCou, ICntrl=  3107 FMM=F I1Cent=   0 AccDes= 0.00D+00.
 End of G2Drv F.D. properties file   721 does not exist.
 End of G2Drv F.D. properties file   722 does not exist.
 End of G2Drv F.D. properties file   788 does not exist.
          IDoAtm=111111111111111111
          Differentiating once with respect to electric field.
                with respect to dipole field.
          Differentiating once with respect to nuclear coordinates.
 Keep R1 and R2 ints in memory in canonical form, NReq=4459304645.
          There are    57 degrees of freedom in the 1st order CPHF.  IDoFFX=6 NUNeed=    57.
     54 vectors produced by pass  0 Test12= 3.35D-14 1.75D-09 XBig12= 9.94D+01 5.46D+00.
 AX will form    54 AO Fock derivatives at one time.
     54 vectors produced by pass  1 Test12= 3.35D-14 1.75D-09 XBig12= 1.23D+01 5.53D-01.
     54 vectors produced by pass  2 Test12= 3.35D-14 1.75D-09 XBig12= 5.59D-01 1.47D-01.
     54 vectors produced by pass  3 Test12= 3.35D-14 1.75D-09 XBig12= 8.04D-03 1.19D-02.
     54 vectors produced by pass  4 Test12= 3.35D-14 1.75D-09 XBig12= 1.05D-04 1.29D-03.
     54 vectors produced by pass  5 Test12= 3.35D-14 1.75D-09 XBig12= 1.57D-06 1.42D-04.
     54 vectors produced by pass  6 Test12= 3.35D-14 1.75D-09 XBig12= 1.40D-08 1.01D-05.
     24 vectors produced by pass  7 Test12= 3.35D-14 1.75D-09 XBig12= 9.46D-11 8.44D-07.
      3 vectors produced by pass  8 Test12= 3.35D-14 1.75D-09 XBig12= 7.17D-13 6.65D-08.
      2 vectors produced by pass  9 Test12= 3.35D-14 1.75D-09 XBig12= 6.15D-15 7.11D-09.
 InvSVY:  IOpt=1 It=  1 EMax= 2.04D-15
 Solved reduced A of dimension   407 with    57 vectors.
 End of Minotr F.D. properties file   721 does not exist.
 End of Minotr F.D. properties file   722 does not exist.
 End of Minotr F.D. properties file   788 does not exist.
 MDV= 10737418240.
 DoSCS=T DFT=T ScalE2(SS,OS)=  0.270000  0.270000
 Form MO integral derivatives with frozen-active canonical formalism.
 Discarding MO integrals.
 Reordered first order wavefunction length =    545006183
 In DefCFB: NBatch=  1 ICI= 29 ICA=336 LFMax= 68
            Large arrays: LIAPS= 11415666080 LIARS=  1957569600 words.
 In DefCFB: NBatch=  1 ICI= 29 ICA=336 LFMax= 68
            Large arrays: LIAPS= 11415666080 LIARS=  1957569600 words.
 Semi-Direct transformation.
 ModeAB=           4 MOrb=            29 LenV=   10733543837
 LASXX=    664627481 LTotXX=   664627481 LenRXX=  1338891981
 LTotAB=   674264500 MaxLAS=   813382024 LenRXY=           0
 NonZer=  2003519462 LenScr=  3017065472 LnRSAI=   813382024
 LnScr1=  1224858624 LExtra=           0 Total=   6394198101
 MaxDsk=          -1 SrtSym=           T ITran=            4
 JobTyp=1 Pass  1:  I=   1 to  29.
 (rs|ai) integrals will be sorted in core.
 ModeAB=           4 MOrb=            28 LenV=   10733543837
 LASXX=    642894399 LTotXX=   642894399 LenRXX=  1195226319
 LTotAB=   552331920 MaxLAS=   785334368 LenRXY=           0
 NonZer=  1838120718 LenScr=  2767993856 LnRSAI=   785334368
 LnScr1=  1182621696 LExtra=           0 Total=   5931176239
 MaxDsk=          -1 SrtSym=           T ITran=            4
 JobTyp=2 Pass  1:  I=   1 to  28.
 (rs|ai) integrals will be sorted in core.
 SymMOI:  orbitals are not symmetric.
 DoSCS=T DFT=T ScalE2(SS,OS)=  0.270000  0.270000
 Spin components of T(2) and E(2):
     alpha-alpha T2 =       0.7504054816D-01 E2=     -0.5339256224D-01
     alpha-beta  T2 =       0.4629394153D+00 E2=     -0.3344565218D+00
     beta-beta   T2 =       0.8448408696D-01 E2=     -0.5320796172D-01
 E2(B2PLYPD3) =    -0.4410570458D+00 E(B2PLYPD3) =    -0.34725638474890D+03
 (S**2,0)=  0.80580D+00           (S**2,1)=  0.75472D+00
 Scaling Projection term by:   0.270000
 E(PUHF)=      -0.34682475709D+03        E(PMP2)=      -0.34725778483D+03
          IDoAtm=111111111111111111
          Differentiating once with respect to electric field.
                with respect to dipole field.
          Differentiating once with respect to nuclear coordinates.
 Keep R1 and R2 ints in memory in canonical form, NReq=4459439664.
          There are     1 degrees of freedom in the 1st order CPHF.  IDoFFX=0 NUNeed=     1.
 LinEq1:  Iter=  0 NonCon=     1 RMS=9.17D-04 Max=5.47D-02 NDo=     1
 AX will form     1 AO Fock derivatives at one time.
 LinEq1:  Iter=  1 NonCon=     1 RMS=3.30D-04 Max=1.47D-02 NDo=     1
 LinEq1:  Iter=  2 NonCon=     1 RMS=2.29D-04 Max=1.03D-02 NDo=     1
 LinEq1:  Iter=  3 NonCon=     1 RMS=1.25D-04 Max=6.09D-03 NDo=     1
 LinEq1:  Iter=  4 NonCon=     1 RMS=8.43D-05 Max=4.75D-03 NDo=     1
 LinEq1:  Iter=  5 NonCon=     1 RMS=5.32D-05 Max=2.73D-03 NDo=     1
 LinEq1:  Iter=  6 NonCon=     1 RMS=2.86D-05 Max=1.07D-03 NDo=     1
 LinEq1:  Iter=  7 NonCon=     1 RMS=8.49D-06 Max=2.56D-04 NDo=     1
 LinEq1:  Iter=  8 NonCon=     1 RMS=6.36D-06 Max=4.06D-04 NDo=     1
 LinEq1:  Iter=  9 NonCon=     1 RMS=2.58D-06 Max=5.48D-05 NDo=     1
 LinEq1:  Iter= 10 NonCon=     1 RMS=9.38D-07 Max=1.94D-05 NDo=     1
 LinEq1:  Iter= 11 NonCon=     1 RMS=3.98D-07 Max=8.48D-06 NDo=     1
 LinEq1:  Iter= 12 NonCon=     1 RMS=1.69D-07 Max=3.11D-06 NDo=     1
 LinEq1:  Iter= 13 NonCon=     1 RMS=6.76D-08 Max=2.16D-06 NDo=     1
 LinEq1:  Iter= 14 NonCon=     1 RMS=2.75D-08 Max=7.56D-07 NDo=     1
 LinEq1:  Iter= 15 NonCon=     1 RMS=1.26D-08 Max=3.74D-07 NDo=     1
 LinEq1:  Iter= 16 NonCon=     1 RMS=4.91D-09 Max=1.03D-07 NDo=     1
 LinEq1:  Iter= 17 NonCon=     1 RMS=1.87D-09 Max=4.52D-08 NDo=     1
 LinEq1:  Iter= 18 NonCon=     1 RMS=6.42D-10 Max=2.28D-08 NDo=     1
 LinEq1:  Iter= 19 NonCon=     1 RMS=2.23D-10 Max=1.01D-08 NDo=     1
 LinEq1:  Iter= 20 NonCon=     1 RMS=9.50D-11 Max=6.08D-09 NDo=     1
 LinEq1:  Iter= 21 NonCon=     1 RMS=4.87D-11 Max=2.90D-09 NDo=     1
 LinEq1:  Iter= 22 NonCon=     0 RMS=1.94D-11 Max=7.70D-10 NDo=     1
 Linear equations converged to 1.000D-10 1.000D-09 after    22 iterations.
 End of Minotr F.D. properties file   721 does not exist.
 End of Minotr F.D. properties file   722 does not exist.
 End of Minotr F.D. properties file   788 does not exist.
 Symmetrizing basis deriv contribution to polar:
 IMax=3 JMax=2 DiffMx= 0.00D+00
 G2DrvN: will do    19 centers at a time, making    1 passes.
 Calling FoFCou, ICntrl=  3107 FMM=F I1Cent=   0 AccDes= 0.00D+00.
 End of G2Drv F.D. properties file   721 does not exist.
 End of G2Drv F.D. properties file   722 does not exist.
 End of G2Drv F.D. properties file   788 does not exist.
 DoSCS=T DFT=T ScalE2(SS,OS)=  0.270000  0.270000
 R2 and R3 integrals will be kept in memory, NReq=  7133702340.
 DD1Dir will call FoFMem   1 times, MxPair=      2408
 NAB=   812 NAA=   406 NBB=   378.
 Discarding MO integrals.

 **********************************************************************

            Population analysis using the SCF Density.

 **********************************************************************

 Orbital symmetries:
 Alpha Orbitals:
       Occupied  (A) (A) (A) (A) (A) (A) (A) (A) (A) (A) (A) (A)
                 (A) (A) (A) (A) (A) (A) (A) (A) (A) (A) (A) (A)
                 (A) (A) (A) (A) (A)
       Virtual   (A) (A) (A) (A) (A) (A) (A) (A) (A) (A) (A) (A)
                 (A) (A) (A) (A) (A) (A) (A) (A) (A) (A) (A) (A)
                 (A) (A) (A) (A) (A) (A) (A) (A) (A) (A) (A) (A)
                 (A) (A) (A) (A) (A) (A) (A) (A) (A) (A) (A) (A)
                 (A) (A) (A) (A) (A) (A) (A) (A) (A) (A) (A) (A)
                 (A) (A) (A) (A) (A) (A) (A) (A) (A) (A) (A) (A)
                 (A) (A) (A) (A) (A) (A) (A) (A) (A) (A) (A) (A)
                 (A) (A) (A) (A) (A) (A) (A) (A) (A) (A) (A) (A)
                 (A) (A) (A) (A) (A) (A) (A) (A) (A) (A) (A) (A)
                 (A) (A) (A) (A) (A) (A) (A) (A) (A) (A) (A) (A)
                 (A) (A) (A) (A) (A) (A) (A) (A) (A) (A) (A) (A)
                 (A) (A) (A) (A) (A) (A) (A) (A) (A) (A) (A) (A)
                 (A) (A) (A) (A) (A) (A) (A) (A) (A) (A) (A) (A)
                 (A) (A) (A) (A) (A) (A) (A) (A) (A) (A) (A) (A)
                 (A) (A) (A) (A) (A) (A) (A) (A) (A) (A) (A) (A)
                 (A) (A) (A) (A) (A) (A) (A) (A) (A) (A) (A) (A)
                 (A) (A) (A) (A) (A) (A) (A) (A) (A) (A) (A) (A)
                 (A) (A) (A) (A) (A) (A) (A) (A) (A) (A) (A) (A)
                 (A) (A) (A) (A) (A) (A) (A) (A) (A) (A) (A) (A)
                 (A) (A) (A) (A) (A) (A) (A) (A) (A) (A) (A) (A)
                 (A) (A) (A) (A) (A) (A) (A) (A) (A) (A) (A) (A)
                 (A) (A) (A) (A) (A) (A) (A) (A) (A) (A) (A) (A)
                 (A) (A) (A) (A) (A) (A) (A) (A) (A) (A) (A) (A)
                 (A) (A) (A) (A) (A) (A) (A) (A) (A) (A) (A) (A)
                 (A) (A) (A) (A) (A) (A) (A) (A) (A) (A) (A) (A)
                 (A) (A) (A) (A) (A) (A) (A) (A) (A) (A) (A) (A)
                 (A) (A) (A) (A) (A) (A) (A) (A) (A) (A) (A) (A)
                 (A) (A) (A) (A) (A) (A) (A) (A) (A) (A) (A)
 Beta  Orbitals:
       Occupied  (A) (A) (A) (A) (A) (A) (A) (A) (A) (A) (A) (A)
                 (A) (A) (A) (A) (A) (A) (A) (A) (A) (A) (A) (A)
                 (A) (A) (A) (A)
       Virtual   (A) (A) (A) (A) (A) (A) (A) (A) (A) (A) (A) (A)
                 (A) (A) (A) (A) (A) (A) (A) (A) (A) (A) (A) (A)
                 (A) (A) (A) (A) (A) (A) (A) (A) (A) (A) (A) (A)
                 (A) (A) (A) (A) (A) (A) (A) (A) (A) (A) (A) (A)
                 (A) (A) (A) (A) (A) (A) (A) (A) (A) (A) (A) (A)
                 (A) (A) (A) (A) (A) (A) (A) (A) (A) (A) (A) (A)
                 (A) (A) (A) (A) (A) (A) (A) (A) (A) (A) (A) (A)
                 (A) (A) (A) (A) (A) (A) (A) (A) (A) (A) (A) (A)
                 (A) (A) (A) (A) (A) (A) (A) (A) (A) (A) (A) (A)
                 (A) (A) (A) (A) (A) (A) (A) (A) (A) (A) (A) (A)
                 (A) (A) (A) (A) (A) (A) (A) (A) (A) (A) (A) (A)
                 (A) (A) (A) (A) (A) (A) (A) (A) (A) (A) (A) (A)
                 (A) (A) (A) (A) (A) (A) (A) (A) (A) (A) (A) (A)
                 (A) (A) (A) (A) (A) (A) (A) (A) (A) (A) (A) (A)
                 (A) (A) (A) (A) (A) (A) (A) (A) (A) (A) (A) (A)
                 (A) (A) (A) (A) (A) (A) (A) (A) (A) (A) (A) (A)
                 (A) (A) (A) (A) (A) (A) (A) (A) (A) (A) (A) (A)
                 (A) (A) (A) (A) (A) (A) (A) (A) (A) (A) (A) (A)
                 (A) (A) (A) (A) (A) (A) (A) (A) (A) (A) (A) (A)
                 (A) (A) (A) (A) (A) (A) (A) (A) (A) (A) (A) (A)
                 (A) (A) (A) (A) (A) (A) (A) (A) (A) (A) (A) (A)
                 (A) (A) (A) (A) (A) (A) (A) (A) (A) (A) (A) (A)
                 (A) (A) (A) (A) (A) (A) (A) (A) (A) (A) (A) (A)
                 (A) (A) (A) (A) (A) (A) (A) (A) (A) (A) (A) (A)
                 (A) (A) (A) (A) (A) (A) (A) (A) (A) (A) (A) (A)
                 (A) (A) (A) (A) (A) (A) (A) (A) (A) (A) (A) (A)
                 (A) (A) (A) (A) (A) (A) (A) (A) (A) (A) (A) (A)
                 (A) (A) (A) (A) (A) (A) (A) (A) (A) (A) (A) (A)
 The electronic state is 2-A.
 Alpha  occ. eigenvalues --  -19.78678 -19.78238 -10.65669 -10.63579 -10.62713
 Alpha  occ. eigenvalues --  -10.62164 -10.61441  -1.27591  -1.01084  -0.93712
 Alpha  occ. eigenvalues --   -0.85612  -0.77293  -0.73986  -0.65686  -0.60204
 Alpha  occ. eigenvalues --   -0.55633  -0.54438  -0.54163  -0.53034  -0.51016
 Alpha  occ. eigenvalues --   -0.47676  -0.45546  -0.44109  -0.43926  -0.41772
 Alpha  occ. eigenvalues --   -0.38590  -0.36190  -0.34231  -0.27528
 Alpha virt. eigenvalues --    0.05890   0.07860   0.09518   0.10336   0.11587
 Alpha virt. eigenvalues --    0.13893   0.15134   0.15453   0.15732   0.16380
 Alpha virt. eigenvalues --    0.17597   0.19139   0.19693   0.23053   0.25482
 Alpha virt. eigenvalues --    0.28331   0.29067   0.30480   0.32534   0.32878
 Alpha virt. eigenvalues --    0.33805   0.35157   0.36593   0.38223   0.39565
 Alpha virt. eigenvalues --    0.44862   0.45039   0.46706   0.48577   0.49624
 Alpha virt. eigenvalues --    0.50222   0.51229   0.51886   0.52123   0.52985
 Alpha virt. eigenvalues --    0.53238   0.53758   0.54689   0.55024   0.56584
 Alpha virt. eigenvalues --    0.57454   0.58908   0.59973   0.60186   0.63232
 Alpha virt. eigenvalues --    0.65417   0.66861   0.69112   0.70167   0.72270
 Alpha virt. eigenvalues --    0.73310   0.74931   0.76214   0.79383   0.81311
 Alpha virt. eigenvalues --    0.83424   0.85393   0.88655   0.89131   0.89793
 Alpha virt. eigenvalues --    0.92890   0.94172   0.95770   0.97533   0.99302
 Alpha virt. eigenvalues --    1.00586   1.02451   1.04520   1.04718   1.06794
 Alpha virt. eigenvalues --    1.07931   1.10251   1.11653   1.11933   1.13303
 Alpha virt. eigenvalues --    1.14498   1.16061   1.17264   1.18366   1.19164
 Alpha virt. eigenvalues --    1.20982   1.22394   1.24090   1.26294   1.27350
 Alpha virt. eigenvalues --    1.28840   1.29695   1.32910   1.33646   1.34765
 Alpha virt. eigenvalues --    1.36213   1.38580   1.39757   1.40031   1.41306
 Alpha virt. eigenvalues --    1.42368   1.43946   1.44586   1.47605   1.50758
 Alpha virt. eigenvalues --    1.51598   1.53419   1.53729   1.57014   1.57601
 Alpha virt. eigenvalues --    1.59394   1.61752   1.64423   1.66649   1.68792
 Alpha virt. eigenvalues --    1.72834   1.76683   1.79901   1.81096   1.87405
 Alpha virt. eigenvalues --    1.92127   2.01227   2.02605   2.05277   2.13018
 Alpha virt. eigenvalues --    2.18203   2.20976   2.23115   2.28098   2.33720
 Alpha virt. eigenvalues --    2.34617   2.38316   2.38864   2.42837   2.44879
 Alpha virt. eigenvalues --    2.46943   2.48491   2.49509   2.50754   2.51697
 Alpha virt. eigenvalues --    2.53256   2.58676   2.62032   2.64507   2.67465
 Alpha virt. eigenvalues --    2.67812   2.70026   2.73183   2.78090   2.78762
 Alpha virt. eigenvalues --    2.82690   2.82954   2.84860   2.88282   2.89763
 Alpha virt. eigenvalues --    2.90656   2.91218   2.91826   2.92909   2.93945
 Alpha virt. eigenvalues --    2.95329   2.98072   3.00143   3.00642   3.01013
 Alpha virt. eigenvalues --    3.02857   3.04667   3.05761   3.06737   3.08105
 Alpha virt. eigenvalues --    3.08246   3.12210   3.12704   3.14008   3.15065
 Alpha virt. eigenvalues --    3.16990   3.17762   3.18984   3.20268   3.20932
 Alpha virt. eigenvalues --    3.22044   3.22478   3.24248   3.27391   3.29161
 Alpha virt. eigenvalues --    3.31439   3.34816   3.35120   3.35988   3.40360
 Alpha virt. eigenvalues --    3.41087   3.42189   3.44033   3.44488   3.47294
 Alpha virt. eigenvalues --    3.48348   3.49677   3.51625   3.52182   3.54671
 Alpha virt. eigenvalues --    3.56409   3.56961   3.59679   3.60589   3.61364
 Alpha virt. eigenvalues --    3.63369   3.64436   3.67534   3.69620   3.70818
 Alpha virt. eigenvalues --    3.73139   3.78310   3.78991   3.80420   3.81836
 Alpha virt. eigenvalues --    3.83542   3.85673   3.86978   3.89319   3.91047
 Alpha virt. eigenvalues --    3.92466   3.92834   3.93852   3.96053   3.98405
 Alpha virt. eigenvalues --    3.98874   3.99515   4.00303   4.02055   4.05818
 Alpha virt. eigenvalues --    4.07333   4.08803   4.10923   4.11742   4.12751
 Alpha virt. eigenvalues --    4.14449   4.15401   4.17411   4.18189   4.19074
 Alpha virt. eigenvalues --    4.20475   4.21055   4.23456   4.24474   4.25437
 Alpha virt. eigenvalues --    4.29067   4.31274   4.34481   4.35410   4.36555
 Alpha virt. eigenvalues --    4.39614   4.40378   4.41641   4.44762   4.46453
 Alpha virt. eigenvalues --    4.47210   4.50596   4.52660   4.58404   4.60390
 Alpha virt. eigenvalues --    4.61779   4.63742   4.66141   4.70388   4.72688
 Alpha virt. eigenvalues --    4.76626   4.80266   4.81989   4.83948   4.84265
 Alpha virt. eigenvalues --    4.87355   4.93083   4.94537   4.97671   4.99986
 Alpha virt. eigenvalues --    5.00491   5.01281   5.03178   5.07129   5.08358
 Alpha virt. eigenvalues --    5.10286   5.12308   5.16527   5.18419   5.22745
 Alpha virt. eigenvalues --    5.24255   5.25561   5.30528   5.32131   5.33472
 Alpha virt. eigenvalues --    5.34572   5.36407   5.37244   5.39181   5.39377
 Alpha virt. eigenvalues --    5.41246   5.43244   5.47853   5.50349   5.52020
 Alpha virt. eigenvalues --    5.58379   5.60060   5.63671   5.64617   5.67792
 Alpha virt. eigenvalues --    5.77377   5.82213   5.93359   5.94419   5.95790
 Alpha virt. eigenvalues --    6.00115   6.04415   6.06196   6.09149   6.12361
 Alpha virt. eigenvalues --    6.16081   6.22126   6.26532   6.36529   6.39934
 Alpha virt. eigenvalues --    6.47031   6.65273   6.72739   6.74730   6.81939
 Alpha virt. eigenvalues --    6.96221   7.03386   7.06871   7.14006   7.44312
 Alpha virt. eigenvalues --    7.51426   7.58277   7.68062   9.82161  10.61050
 Alpha virt. eigenvalues --   11.48105  12.61457  13.46540  13.80257  14.50115
  Beta  occ. eigenvalues --  -19.78401 -19.76420 -10.65684 -10.63110 -10.62617
  Beta  occ. eigenvalues --  -10.61595 -10.61489  -1.25396  -0.97812  -0.92690
  Beta  occ. eigenvalues --   -0.84658  -0.76801  -0.72526  -0.64959  -0.57075
  Beta  occ. eigenvalues --   -0.54178  -0.53899  -0.53696  -0.52711  -0.49426
  Beta  occ. eigenvalues --   -0.45541  -0.44893  -0.43557  -0.42741  -0.41467
  Beta  occ. eigenvalues --   -0.35723  -0.34578  -0.29829
  Beta virt. eigenvalues --   -0.05016   0.07129   0.07893   0.09583   0.10500
  Beta virt. eigenvalues --    0.11687   0.14437   0.15283   0.15545   0.15873
  Beta virt. eigenvalues --    0.16556   0.17744   0.19360   0.20209   0.23304
  Beta virt. eigenvalues --    0.25734   0.28794   0.29498   0.30695   0.32813
  Beta virt. eigenvalues --    0.33470   0.33998   0.35366   0.36872   0.39144
  Beta virt. eigenvalues --    0.40789   0.44843   0.45249   0.47367   0.48654
  Beta virt. eigenvalues --    0.49987   0.50503   0.51553   0.52085   0.52383
  Beta virt. eigenvalues --    0.53303   0.53628   0.54076   0.55237   0.55437
  Beta virt. eigenvalues --    0.57089   0.58515   0.59411   0.60445   0.60641
  Beta virt. eigenvalues --    0.63786   0.65787   0.67214   0.69321   0.70470
  Beta virt. eigenvalues --    0.72641   0.74018   0.75107   0.76427   0.79628
  Beta virt. eigenvalues --    0.81547   0.83564   0.86101   0.88837   0.89335
  Beta virt. eigenvalues --    0.90164   0.93001   0.94552   0.96076   0.97851
  Beta virt. eigenvalues --    0.99442   1.00835   1.02701   1.04704   1.04845
  Beta virt. eigenvalues --    1.07082   1.08032   1.10400   1.12017   1.12353
  Beta virt. eigenvalues --    1.13492   1.14709   1.16409   1.17634   1.18450
  Beta virt. eigenvalues --    1.19346   1.21225   1.23076   1.24284   1.26436
  Beta virt. eigenvalues --    1.27435   1.29105   1.30237   1.33361   1.34061
  Beta virt. eigenvalues --    1.34969   1.36364   1.38711   1.39821   1.40116
  Beta virt. eigenvalues --    1.41553   1.42546   1.44096   1.44756   1.48220
  Beta virt. eigenvalues --    1.50942   1.51882   1.53684   1.54440   1.57244
  Beta virt. eigenvalues --    1.57858   1.59835   1.61957   1.64712   1.67149
  Beta virt. eigenvalues --    1.69158   1.73251   1.77227   1.80199   1.81867
  Beta virt. eigenvalues --    1.89108   1.93092   2.01669   2.03283   2.06259
  Beta virt. eigenvalues --    2.13367   2.19171   2.22487   2.23536   2.28983
  Beta virt. eigenvalues --    2.34671   2.34891   2.38666   2.39140   2.43363
  Beta virt. eigenvalues --    2.45612   2.47443   2.48550   2.49766   2.50983
  Beta virt. eigenvalues --    2.51995   2.53533   2.59018   2.62738   2.65262
  Beta virt. eigenvalues --    2.67973   2.68551   2.70477   2.73362   2.78285
  Beta virt. eigenvalues --    2.79110   2.83089   2.83399   2.85018   2.88602
  Beta virt. eigenvalues --    2.90139   2.91047   2.91416   2.91954   2.93148
  Beta virt. eigenvalues --    2.94049   2.95729   2.98383   3.00456   3.01232
  Beta virt. eigenvalues --    3.01498   3.03236   3.04852   3.06130   3.06993
  Beta virt. eigenvalues --    3.08413   3.08502   3.12564   3.12883   3.14061
  Beta virt. eigenvalues --    3.15210   3.17296   3.18050   3.19127   3.20371
  Beta virt. eigenvalues --    3.21105   3.22164   3.22753   3.24671   3.27970
  Beta virt. eigenvalues --    3.29649   3.32189   3.34996   3.35414   3.36162
  Beta virt. eigenvalues --    3.40714   3.41417   3.42634   3.44121   3.44680
  Beta virt. eigenvalues --    3.47659   3.48761   3.49762   3.51962   3.52414
  Beta virt. eigenvalues --    3.54816   3.56942   3.57175   3.59884   3.60726
  Beta virt. eigenvalues --    3.61742   3.63665   3.64651   3.67924   3.70060
  Beta virt. eigenvalues --    3.71026   3.73409   3.78539   3.79162   3.80652
  Beta virt. eigenvalues --    3.82038   3.83820   3.85850   3.87255   3.89463
  Beta virt. eigenvalues --    3.91076   3.92797   3.93119   3.93974   3.96358
  Beta virt. eigenvalues --    3.98637   3.99123   3.99794   4.00517   4.02227
  Beta virt. eigenvalues --    4.06081   4.07363   4.08867   4.11071   4.11964
  Beta virt. eigenvalues --    4.12816   4.14589   4.15545   4.17515   4.18107
  Beta virt. eigenvalues --    4.19116   4.20551   4.21204   4.23642   4.24687
  Beta virt. eigenvalues --    4.25638   4.29209   4.31290   4.34587   4.35597
  Beta virt. eigenvalues --    4.36542   4.39771   4.40785   4.41948   4.44948
  Beta virt. eigenvalues --    4.46750   4.47459   4.50943   4.52825   4.58745
  Beta virt. eigenvalues --    4.61158   4.62179   4.64283   4.66616   4.70880
  Beta virt. eigenvalues --    4.73262   4.77231   4.80912   4.82138   4.84156
  Beta virt. eigenvalues --    4.84554   4.87817   4.93343   4.94731   4.97927
  Beta virt. eigenvalues --    5.00184   5.00650   5.01500   5.03432   5.07345
  Beta virt. eigenvalues --    5.08517   5.10687   5.12674   5.17472   5.18890
  Beta virt. eigenvalues --    5.23155   5.24546   5.26136   5.31107   5.32405
  Beta virt. eigenvalues --    5.33900   5.34871   5.36608   5.37461   5.39713
  Beta virt. eigenvalues --    5.39857   5.41509   5.43433   5.48184   5.50502
  Beta virt. eigenvalues --    5.52206   5.58647   5.60378   5.63865   5.65360
  Beta virt. eigenvalues --    5.68487   5.77910   5.82546   5.94045   5.94869
  Beta virt. eigenvalues --    5.96808   6.00847   6.04665   6.06471   6.09691
  Beta virt. eigenvalues --    6.13075   6.17166   6.23015   6.27247   6.38107
  Beta virt. eigenvalues --    6.40349   6.47176   6.66276   6.76015   6.77535
  Beta virt. eigenvalues --    6.83274   6.98567   7.05815   7.07792   7.16150
  Beta virt. eigenvalues --    7.44502   7.53617   7.59873   7.69154   9.83421
  Beta virt. eigenvalues --   10.62073  11.48042  12.62200  13.46536  13.80306
  Beta virt. eigenvalues --   14.50417
          Condensed to atoms (all electrons):
               1          2          3          4          5          6
     1  C    5.048784   0.413891  -0.002903  -0.000099   0.000299  -0.000206
     2  H    0.413891   0.555749  -0.000051   0.000024   0.000036   0.000007
     3  C   -0.002903  -0.000051   4.612985   0.389373   0.394031   0.415639
     4  H   -0.000099   0.000024   0.389373   0.674984  -0.033769  -0.055708
     5  H    0.000299   0.000036   0.394031  -0.033769   0.593162  -0.029239
     6  H   -0.000206   0.000007   0.415639  -0.055708  -0.029239   0.608139
     7  O    0.003787   0.000659   0.298946  -0.049158  -0.025543  -0.037964
     8  O   -0.072486  -0.000507  -0.045020   0.000320   0.006872   0.002990
     9  H    0.257851  -0.010776   0.001845   0.002784  -0.000500   0.000428
    10  C    0.361214  -0.046588  -0.001654   0.001119   0.000180   0.000164
    11  C   -0.064219  -0.001520  -0.003998  -0.002394   0.000387   0.000476
    12  H   -0.041511   0.005519  -0.000135   0.000551  -0.000005  -0.000025
    13  H    0.006523  -0.000032  -0.000049   0.000041   0.000057   0.000005
    14  H   -0.004427   0.003581   0.000011   0.000054  -0.000007   0.000013
    15  C    0.337105  -0.030030   0.000097  -0.000034  -0.000005   0.000026
    16  H   -0.038131  -0.004617   0.000036  -0.000028  -0.000004   0.000001
    17  H   -0.036162  -0.003475  -0.000010   0.000028   0.000000  -0.000002
    18  H   -0.037302   0.006160   0.000009   0.000042   0.000010   0.000012
               7          8          9         10         11         12
     1  C    0.003787  -0.072486   0.257851   0.361214  -0.064219  -0.041511
     2  H    0.000659  -0.000507  -0.010776  -0.046588  -0.001520   0.005519
     3  C    0.298946  -0.045020   0.001845  -0.001654  -0.003998  -0.000135
     4  H   -0.049158   0.000320   0.002784   0.001119  -0.002394   0.000551
     5  H   -0.025543   0.006872  -0.000500   0.000180   0.000387  -0.000005
     6  H   -0.037964   0.002990   0.000428   0.000164   0.000476  -0.000025
     7  O    7.936972   0.072541  -0.023972  -0.003872   0.007186  -0.000339
     8  O    0.072541   8.105345   0.157761  -0.004024   0.000008  -0.000243
     9  H   -0.023972   0.157761   0.442419  -0.010948  -0.005382  -0.000172
    10  C   -0.003872  -0.004024  -0.010948   4.965845   0.587025   0.409849
    11  C    0.007186   0.000008  -0.005382   0.587025   4.973215  -0.045158
    12  H   -0.000339  -0.000243  -0.000172   0.409849  -0.045158   0.532779
    13  H    0.000074   0.000015  -0.000039  -0.049592   0.422354  -0.007618
    14  H    0.000767  -0.000124  -0.000263  -0.044144   0.409380   0.006176
    15  C    0.000307   0.001749  -0.015183  -0.051807   0.004551  -0.002524
    16  H   -0.000022   0.001426  -0.002984   0.007657  -0.000334  -0.000083
    17  H   -0.000023  -0.000164   0.004120  -0.002775   0.000606   0.000248
    18  H   -0.000054   0.001360  -0.003413  -0.005149   0.000291   0.003892
              13         14         15         16         17         18
     1  C    0.006523  -0.004427   0.337105  -0.038131  -0.036162  -0.037302
     2  H   -0.000032   0.003581  -0.030030  -0.004617  -0.003475   0.006160
     3  C   -0.000049   0.000011   0.000097   0.000036  -0.000010   0.000009
     4  H    0.000041   0.000054  -0.000034  -0.000028   0.000028   0.000042
     5  H    0.000057  -0.000007  -0.000005  -0.000004   0.000000   0.000010
     6  H    0.000005   0.000013   0.000026   0.000001  -0.000002   0.000012
     7  O    0.000074   0.000767   0.000307  -0.000022  -0.000023  -0.000054
     8  O    0.000015  -0.000124   0.001749   0.001426  -0.000164   0.001360
     9  H   -0.000039  -0.000263  -0.015183  -0.002984   0.004120  -0.003413
    10  C   -0.049592  -0.044144  -0.051807   0.007657  -0.002775  -0.005149
    11  C    0.422354   0.409380   0.004551  -0.000334   0.000606   0.000291
    12  H   -0.007618   0.006176  -0.002524  -0.000083   0.000248   0.003892
    13  H    0.531699  -0.033895  -0.000347   0.000017  -0.000014  -0.000007
    14  H   -0.033895   0.535326   0.000101  -0.000013   0.000020   0.000015
    15  C   -0.000347   0.000101   4.830067   0.415236   0.400564   0.409825
    16  H    0.000017  -0.000013   0.415236   0.567565  -0.031714  -0.028112
    17  H   -0.000014   0.000020   0.400564  -0.031714   0.596032  -0.032477
    18  H   -0.000007   0.000015   0.409825  -0.028112  -0.032477   0.586826
          Atomic-Atomic Spin Densities.
               1          2          3          4          5          6
     1  C    0.520390  -0.000148   0.001600  -0.004327   0.000048   0.000732
     2  H   -0.000148  -0.019085  -0.000082   0.000179  -0.000008  -0.000031
     3  C    0.001600  -0.000082  -0.008002  -0.000380   0.001340  -0.000089
     4  H   -0.004327   0.000179  -0.000380   0.008456  -0.001079  -0.001849
     5  H    0.000048  -0.000008   0.001340  -0.001079  -0.002178   0.000762
     6  H    0.000732  -0.000031  -0.000089  -0.001849   0.000762   0.001311
     7  O    0.011393  -0.000879   0.002675  -0.002323   0.000282  -0.000574
     8  O   -0.072878   0.003591  -0.003494   0.003916  -0.000211   0.000602
     9  H    0.068384   0.001844   0.001582  -0.003518   0.000107   0.001246
    10  C   -0.020462   0.005178  -0.000714   0.002484  -0.000103  -0.000370
    11  C   -0.016466  -0.001661  -0.001994   0.003444  -0.000076  -0.000254
    12  H   -0.000545  -0.000119   0.000027  -0.000221   0.000005   0.000014
    13  H   -0.000142   0.000025  -0.000052   0.000143  -0.000009  -0.000006
    14  H    0.000166  -0.000187   0.000015  -0.000037   0.000005   0.000003
    15  C   -0.022603   0.002383  -0.000080   0.000316  -0.000002  -0.000046
    16  H   -0.003374   0.000648  -0.000008   0.000029   0.000000  -0.000006
    17  H   -0.008547  -0.001356   0.000012  -0.000051   0.000000   0.000004
    18  H   -0.004305   0.000109  -0.000029   0.000128  -0.000002  -0.000019
               7          8          9         10         11         12
     1  C    0.011393  -0.072878   0.068384  -0.020462  -0.016466  -0.000545
     2  H   -0.000879   0.003591   0.001844   0.005178  -0.001661  -0.000119
     3  C    0.002675  -0.003494   0.001582  -0.000714  -0.001994   0.000027
     4  H   -0.002323   0.003916  -0.003518   0.002484   0.003444  -0.000221
     5  H    0.000282  -0.000211   0.000107  -0.000103  -0.000076   0.000005
     6  H   -0.000574   0.000602   0.001246  -0.000370  -0.000254   0.000014
     7  O    0.090956  -0.053475   0.011437  -0.003140  -0.004687   0.000093
     8  O   -0.053475   0.640960  -0.059251   0.009562   0.002499  -0.000119
     9  H    0.011437  -0.059251  -0.094445  -0.002173   0.000313   0.000150
    10  C   -0.003140   0.009562  -0.002173  -0.226660   0.005036  -0.002396
    11  C   -0.004687   0.002499   0.000313   0.005036   0.356979  -0.001105
    12  H    0.000093  -0.000119   0.000150  -0.002396  -0.001105   0.011836
    13  H   -0.000066   0.000028  -0.000018  -0.000794   0.003850   0.000182
    14  H    0.000116  -0.000118   0.000133  -0.000084   0.003733  -0.000041
    15  C   -0.000412   0.005493  -0.002891   0.006326  -0.000291  -0.000024
    16  H   -0.000034   0.000675  -0.000624   0.000038  -0.000034  -0.000022
    17  H    0.000034  -0.000495   0.000439  -0.001137   0.000817   0.000128
    18  H   -0.000052   0.000703  -0.000507   0.001085  -0.000100  -0.000082
              13         14         15         16         17         18
     1  C   -0.000142   0.000166  -0.022603  -0.003374  -0.008547  -0.004305
     2  H    0.000025  -0.000187   0.002383   0.000648  -0.001356   0.000109
     3  C   -0.000052   0.000015  -0.000080  -0.000008   0.000012  -0.000029
     4  H    0.000143  -0.000037   0.000316   0.000029  -0.000051   0.000128
     5  H   -0.000009   0.000005  -0.000002   0.000000   0.000000  -0.000002
     6  H   -0.000006   0.000003  -0.000046  -0.000006   0.000004  -0.000019
     7  O   -0.000066   0.000116  -0.000412  -0.000034   0.000034  -0.000052
     8  O    0.000028  -0.000118   0.005493   0.000675  -0.000495   0.000703
     9  H   -0.000018   0.000133  -0.002891  -0.000624   0.000439  -0.000507
    10  C   -0.000794  -0.000084   0.006326   0.000038  -0.001137   0.001085
    11  C    0.003850   0.003733  -0.000291  -0.000034   0.000817  -0.000100
    12  H    0.000182  -0.000041  -0.000024  -0.000022   0.000128  -0.000082
    13  H   -0.021465   0.002312   0.000018   0.000000  -0.000007   0.000003
    14  H    0.002312  -0.019052  -0.000057  -0.000003   0.000022  -0.000004
    15  C    0.000018  -0.000057  -0.020794   0.004040   0.003423   0.003236
    16  H    0.000000  -0.000003   0.004040   0.003803  -0.002871   0.000880
    17  H   -0.000007   0.000022   0.003423  -0.002871   0.039974  -0.003515
    18  H    0.000003  -0.000004   0.003236   0.000880  -0.003515   0.005249
 Mulliken charges and spin densities:
               1          2
     1  C   -0.132007   0.448917
     2  H    0.111970  -0.009596
     3  C   -0.059153  -0.007672
     4  H    0.071869   0.005311
     5  H    0.094036  -0.001119
     6  H    0.095245   0.001430
     7  O   -0.180292   0.051344
     8  O   -0.227819   0.477989
     9  H    0.206424  -0.077793
    10  C   -0.112501  -0.228325
    11  C   -0.282474   0.350002
    12  H    0.138797   0.007762
    13  H    0.130806  -0.015997
    14  H    0.127429  -0.013077
    15  C   -0.299699  -0.021966
    16  H    0.114104   0.003137
    17  H    0.105197   0.026874
    18  H    0.098070   0.002780
 Sum of Mulliken charges =  -0.00000   1.00000
 Mulliken charges and spin densities with hydrogens summed into heavy atoms:
               1          2
     1  C   -0.020038   0.439321
     3  C    0.201996  -0.002050
     7  O   -0.180292   0.051344
     8  O   -0.021395   0.400196
    10  C    0.026297  -0.220563
    11  C   -0.024240   0.320928
    15  C    0.017672   0.010824
 APT charges:
               1
     1  C    0.578762
     2  H   -0.073123
     3  C    0.433146
     4  H   -0.029413
     5  H   -0.008511
     6  H   -0.037003
     7  O   -0.397819
     8  O    0.173210
     9  H   -0.455629
    10  C   -0.137573
    11  C   -0.065379
    12  H    0.014629
    13  H    0.048672
    14  H    0.022336
    15  C   -0.023273
    16  H   -0.003526
    17  H   -0.033043
    18  H   -0.006462
 Sum of APT charges =  -0.00000
 APT charges with hydrogens summed into heavy atoms:
               1
     1  C    0.505639
     3  C    0.358219
     7  O   -0.397819
     8  O   -0.282419
    10  C   -0.122944
    11  C    0.005629
    15  C   -0.066305
 Electronic spatial extent (au):  <R**2>=           1051.4133
 Charge=             -0.0000 electrons
 Dipole moment (field-independent basis, Debye):
    X=              0.9774    Y=              1.4202    Z=              1.5033  Tot=              2.2874
 Quadrupole moment (field-independent basis, Debye-Ang):
   XX=            -42.6332   YY=            -44.9821   ZZ=            -43.6602
   XY=             -3.6797   XZ=             -3.2832   YZ=             -0.4923
 Traceless Quadrupole moment (field-independent basis, Debye-Ang):
   XX=              1.1253   YY=             -1.2236   ZZ=              0.0983
   XY=             -3.6797   XZ=             -3.2832   YZ=             -0.4923
 Octapole moment (field-independent basis, Debye-Ang**2):
  XXX=            -23.7841  YYY=              0.5214  ZZZ=             -2.9075  XYY=             -4.0045
  XXY=             -3.8609  XXZ=              5.6942  XZZ=             -1.3814  YZZ=              0.1357
  YYZ=             -0.3491  XYZ=              1.8137
 Hexadecapole moment (field-independent basis, Debye-Ang**3):
 XXXX=           -790.4854 YYYY=           -427.1283 ZZZZ=           -130.2468 XXXY=            -10.5617
 XXXZ=            -11.0634 YYYX=             -5.7878 YYYZ=              5.3317 ZZZX=              2.4310
 ZZZY=              0.1652 XXYY=           -216.8517 XXZZ=           -161.2471 YYZZ=            -94.7339
 XXYZ=              0.1601 YYXZ=              0.0303 ZZXY=              2.3165
 N-N= 3.098588366372D+02 E-N=-1.430938547156D+03  KE= 3.453272224015D+02
  Exact polarizability: 110.521   5.669  92.709  -0.681  -2.439  62.329
 Approx polarizability:  95.717   1.774 100.107   3.348  -2.839  74.129
                          Isotropic Fermi Contact Couplings
        Atom                 a.u.       MegaHertz       Gauss      10(-4) cm-1
     1  C(13)              0.06377      71.68822      25.58014      23.91262
     2  H(1)              -0.00270     -12.07518      -4.30872      -4.02784
     3  C(13)             -0.00492      -5.52964      -1.97311      -1.84449
     4  H(1)               0.00203       9.08754       3.24266       3.03128
     5  H(1)              -0.00017      -0.76085      -0.27149      -0.25379
     6  H(1)               0.00067       2.99925       1.07021       1.00044
     7  O(17)              0.02228     -13.50668      -4.81952      -4.50534
     8  O(17)              0.04221     -25.58641      -9.12987      -8.53471
     9  H(1)              -0.01685     -75.33318     -26.88075     -25.12844
    10  C(13)             -0.00816      -9.16862      -3.27159      -3.05832
    11  C(13)              0.00365       4.10178       1.46362       1.36821
    12  H(1)               0.00019       0.86868       0.30997       0.28976
    13  H(1)              -0.00253     -11.30671      -4.03451      -3.77151
    14  H(1)              -0.00237     -10.59778      -3.78155      -3.53504
    15  C(13)             -0.00808      -9.08642      -3.24226      -3.03090
    16  H(1)               0.00238      10.63989       3.79658       3.54909
    17  H(1)               0.01307      58.42245      20.84658      19.48763
    18  H(1)               0.00182       8.13232       2.90181       2.71265
 --------------------------------------------------------
       Center         ----  Spin Dipole Couplings  ----
                      3XX-RR        3YY-RR        3ZZ-RR
 --------------------------------------------------------
     1   Atom        0.359531     -0.103524     -0.256007
     2   Atom       -0.005268     -0.024745      0.030013
     3   Atom        0.000321     -0.001867      0.001546
     4   Atom       -0.003209     -0.000199      0.003408
     5   Atom        0.002189      0.000402     -0.002592
     6   Atom        0.003205     -0.004437      0.001232
     7   Atom        0.345207     -0.074862     -0.270346
     8   Atom        0.878088      0.079321     -0.957409
     9   Atom        0.153825     -0.052584     -0.101241
    10   Atom       -0.060187      0.043356      0.016831
    11   Atom        0.207521     -0.093123     -0.114398
    12   Atom       -0.004673      0.003720      0.000953
    13   Atom       -0.000640      0.010058     -0.009418
    14   Atom       -0.002459     -0.008998      0.011458
    15   Atom        0.017615     -0.008223     -0.009392
    16   Atom        0.001254      0.004831     -0.006085
    17   Atom        0.006510     -0.002404     -0.004106
    18   Atom       -0.000544     -0.003011      0.003555
 --------------------------------------------------------
                        XY            XZ            YZ
 --------------------------------------------------------
     1   Atom        0.314287     -0.058638     -0.031532
     2   Atom        0.012044     -0.005380     -0.004017
     3   Atom       -0.005875     -0.007032      0.004878
     4   Atom       -0.001531     -0.004047      0.005562
     5   Atom       -0.004018     -0.003257      0.002896
     6   Atom       -0.001839     -0.007111      0.001151
     7   Atom        0.410475      0.110061      0.094998
     8   Atom        1.399709      0.135097      0.100350
     9   Atom        0.106396      0.005829      0.001212
    10   Atom       -0.017851      0.015957      0.010647
    11   Atom        0.078484     -0.036325     -0.006615
    12   Atom        0.000312      0.001926      0.003226
    13   Atom        0.000696     -0.003346      0.012723
    14   Atom        0.003664      0.002676     -0.002837
    15   Atom       -0.006221      0.008717     -0.003557
    16   Atom       -0.006547      0.000301     -0.000800
    17   Atom       -0.001067      0.002056     -0.002029
    18   Atom       -0.001928      0.005677     -0.004733
 --------------------------------------------------------


 ---------------------------------------------------------------------------------
              Anisotropic Spin Dipole Couplings in Principal Axis System
 ---------------------------------------------------------------------------------

       Atom             a.u.   MegaHertz   Gauss  10(-4) cm-1        Axes

              Baa    -0.2637   -35.392   -12.629   -11.805 -0.3006  0.7142  0.6321
     1 C(13)  Bbb    -0.2603   -34.930   -12.464   -11.651  0.3449 -0.5365  0.7702
              Bcc     0.5240    70.322    25.092    23.457  0.8892  0.4496 -0.0850
 
              Baa    -0.0305   -16.286    -5.811    -5.432 -0.4265  0.9042  0.0221
     2 H(1)   Bbb    -0.0009    -0.490    -0.175    -0.163  0.8866  0.4131  0.2079
              Bcc     0.0314    16.776     5.986     5.596 -0.1788 -0.1083  0.9779
 
              Baa    -0.0070    -0.935    -0.334    -0.312  0.7504  0.6008  0.2757
     3 C(13)  Bbb    -0.0051    -0.690    -0.246    -0.230  0.2463 -0.6411  0.7268
              Bcc     0.0121     1.624     0.580     0.542 -0.6134  0.4775  0.6291
 
              Baa    -0.0055    -2.960    -1.056    -0.987  0.7316 -0.3795  0.5663
     4 H(1)   Bbb    -0.0034    -1.790    -0.639    -0.597  0.5976  0.7568 -0.2649
              Bcc     0.0089     4.750     1.695     1.584 -0.3281  0.5322  0.7805
 
              Baa    -0.0045    -2.415    -0.862    -0.806  0.2370 -0.3412  0.9096
     5 H(1)   Bbb    -0.0028    -1.492    -0.532    -0.498  0.6645  0.7400  0.1044
              Bcc     0.0073     3.907     1.394     1.303  0.7087 -0.5797 -0.4021
 
              Baa    -0.0052    -2.781    -0.992    -0.928  0.5919  0.5914  0.5476
     6 H(1)   Bbb    -0.0045    -2.407    -0.859    -0.803 -0.3005  0.7923 -0.5310
              Bcc     0.0097     5.187     1.851     1.730  0.7479 -0.1497 -0.6467
 
              Baa    -0.3381    24.465     8.730     8.161 -0.4025  0.7928 -0.4576
     7 O(17)  Bbb    -0.2813    20.355     7.263     6.790 -0.3636  0.3204  0.8748
              Bcc     0.6194   -44.820   -15.993   -14.950  0.8401  0.5185  0.1593
 
              Baa    -0.9770    70.697    25.227    23.582 -0.6033  0.7873  0.1273
     8 O(17)  Bbb    -0.9670    69.972    24.968    23.340  0.0310 -0.1364  0.9902
              Bcc     1.9440  -140.669   -50.194   -46.922  0.7969  0.6013  0.0579
 
              Baa    -0.1017   -54.253   -19.359   -18.097 -0.1235  0.2439  0.9619
     9 H(1)   Bbb    -0.0973   -51.904   -18.521   -17.313 -0.3700  0.8881 -0.2726
              Bcc     0.1990   106.156    37.879    35.410  0.9208  0.3896  0.0195
 
              Baa    -0.0669    -8.972    -3.201    -2.993  0.9626  0.1758 -0.2059
    10 C(13)  Bbb     0.0184     2.466     0.880     0.822  0.2433 -0.2280  0.9428
              Bcc     0.0485     6.506     2.322     2.170 -0.1188  0.9577  0.2622
 
              Baa    -0.1191   -15.978    -5.701    -5.330  0.1727 -0.2816  0.9439
    11 C(13)  Bbb    -0.1116   -14.981    -5.346    -4.997 -0.1931  0.9300  0.3128
              Bcc     0.2307    30.959    11.047    10.327  0.9659  0.2363 -0.1062
 
              Baa    -0.0053    -2.842    -1.014    -0.948  0.9392  0.0861 -0.3323
    12 H(1)   Bbb    -0.0007    -0.367    -0.131    -0.122  0.3194 -0.5742  0.7538
              Bcc     0.0060     3.209     1.145     1.070  0.1259  0.8142  0.5668
 
              Baa    -0.0164    -8.749    -3.122    -2.918  0.2057 -0.4285  0.8798
    13 H(1)   Bbb     0.0000     0.006     0.002     0.002  0.9773  0.1371 -0.1617
              Bcc     0.0164     8.743     3.120     2.916 -0.0513  0.8931  0.4470
 
              Baa    -0.0112    -5.998    -2.140    -2.001 -0.4215  0.8924  0.1612
    14 H(1)   Bbb    -0.0009    -0.500    -0.178    -0.167  0.8938  0.4389 -0.0925
              Bcc     0.0122     6.498     2.319     2.167  0.1533 -0.1051  0.9826
 
              Baa    -0.0128    -1.722    -0.614    -0.574 -0.1550  0.4639  0.8722
    15 C(13)  Bbb    -0.0090    -1.204    -0.430    -0.402  0.3304  0.8564 -0.3967
              Bcc     0.0218     2.926     1.044     0.976  0.9310 -0.2267  0.2860
 
              Baa    -0.0062    -3.282    -1.171    -1.095  0.0497  0.1020  0.9935
    16 H(1)   Bbb    -0.0037    -1.984    -0.708    -0.662  0.7945  0.5988 -0.1012
              Bcc     0.0099     5.267     1.879     1.757 -0.6053  0.7944 -0.0513
 
              Baa    -0.0056    -2.971    -1.060    -0.991 -0.0998  0.5132  0.8524
    17 H(1)   Bbb    -0.0015    -0.824    -0.294    -0.275  0.2346  0.8447 -0.4811
              Bcc     0.0071     3.795     1.354     1.266  0.9669 -0.1520  0.2047
 
              Baa    -0.0059    -3.122    -1.114    -1.041 -0.3596  0.7282  0.5835
    18 H(1)   Bbb    -0.0037    -1.965    -0.701    -0.655  0.7823  0.5761 -0.2369
              Bcc     0.0095     5.087     1.815     1.697  0.5086 -0.3713  0.7768
 

 ---------------------------------------------------------------------------------

 Calling FoFJK, ICntrl=  10100127 FMM=F ISym2X=0 I1Cent= 0 IOpClX= 1 NMat=1 NMatS=1 NMatT=0.
 ***** Axes restored to original set *****
 -------------------------------------------------------------------
 Center     Atomic                   Forces (Hartrees/Bohr)
 Number     Number              X              Y              Z
 -------------------------------------------------------------------
      1        6           0.000072363   -0.000447816   -0.000552799
      2        1          -0.000093532    0.000442888    0.000470881
      3        6          -0.000001691   -0.000001173   -0.000002963
      4        1          -0.000001801    0.000000391   -0.000002017
      5        1           0.000002591    0.000000761   -0.000001264
      6        1          -0.000000530   -0.000001194   -0.000000377
      7        8          -0.000163372    0.000265912   -0.000410041
      8        8           0.000169804   -0.000277177    0.000486144
      9        1           0.000023732    0.000019963    0.000001736
     10        6           0.000001155   -0.000012016   -0.000001456
     11        6          -0.000002909    0.000002876    0.000005886
     12        1          -0.000000220    0.000001263    0.000001552
     13        1           0.000000062    0.000001158    0.000000043
     14        1           0.000000669    0.000002339   -0.000001362
     15        6          -0.000002822   -0.000000885    0.000002572
     16        1          -0.000001643   -0.000000843    0.000002474
     17        1          -0.000000848    0.000002788    0.000001305
     18        1          -0.000001009    0.000000766   -0.000000313
 -------------------------------------------------------------------
 Cartesian Forces:  Max     0.000552799 RMS     0.000169245
 FormGI is forming the generalized inverse of G from B-inverse, IUseBI=4.

 GradGradGradGradGradGradGradGradGradGradGradGradGradGradGradGradGradGrad
 Berny optimization.
 Internal  Forces:  Max     0.000653730 RMS     0.000110818
 Search for a saddle point.
 Step number   1 out of a maximum of  108
 All quantities printed in internal units (Hartrees-Bohrs-Radians)
 Swapping is turned off.
 Second derivative matrix not updated -- analytic derivatives used.
 ITU=  0
     Eigenvalues ---   -0.08314   0.00107   0.00174   0.00451   0.00553
     Eigenvalues ---    0.01809   0.01991   0.02403   0.02567   0.02903
     Eigenvalues ---    0.03018   0.03896   0.04482   0.04506   0.05379
     Eigenvalues ---    0.06942   0.08456   0.08496   0.09288   0.10603
     Eigenvalues ---    0.11077   0.11457   0.12157   0.12989   0.13359
     Eigenvalues ---    0.14864   0.16015   0.16094   0.16631   0.17619
     Eigenvalues ---    0.18128   0.19726   0.25622   0.30246   0.31768
     Eigenvalues ---    0.33210   0.33481   0.33910   0.33982   0.34361
     Eigenvalues ---    0.34516   0.34884   0.35214   0.35512   0.36301
     Eigenvalues ---    0.36582   0.40901   0.60645
 Eigenvectors required to have negative eigenvalues:
                          R10       R2        R9        R3        A14
   1                   -0.75132   0.57007   0.17284  -0.10131  -0.07658
                          D9        D10       D8        D18       A27
   1                    0.06992   0.06927   0.06898  -0.06439   0.06200
 RFO step:  Lambda0=2.648688088D-09 Lambda=-3.66521358D-04.
 Linear search not attempted -- option 19 set.
 Iteration  1 RMS(Cart)=  0.12439534 RMS(Int)=  0.01802170
 Iteration  2 RMS(Cart)=  0.06224488 RMS(Int)=  0.00120579
 Iteration  3 RMS(Cart)=  0.00207972 RMS(Int)=  0.00005949
 Iteration  4 RMS(Cart)=  0.00000355 RMS(Int)=  0.00005948
 Iteration  5 RMS(Cart)=  0.00000000 RMS(Int)=  0.00005948
 Variable       Old X    -DE/DX   Delta X   Delta X   Delta X     New X
                                 (Linear)    (Quad)   (Total)
    R1        2.05732   0.00000   0.00000  -0.00029  -0.00029   2.05703
    R2        2.44306  -0.00002   0.00000   0.00586   0.00586   2.44892
    R3        2.74984  -0.00000   0.00000  -0.00280  -0.00280   2.74703
    R4        2.85275   0.00000   0.00000   0.00056   0.00056   2.85331
    R5        2.05700  -0.00000   0.00000   0.00122   0.00122   2.05822
    R6        2.05563  -0.00000   0.00000  -0.00012  -0.00012   2.05551
    R7        2.05718   0.00000   0.00000  -0.00013  -0.00013   2.05705
    R8        2.69286   0.00000   0.00000  -0.00180  -0.00180   2.69106
    R9        2.63518   0.00000   0.00000  -0.00145  -0.00145   2.63373
   R10        2.35257   0.00001   0.00000   0.00048   0.00048   2.35305
   R11        2.53083  -0.00001   0.00000   0.00082   0.00082   2.53165
   R12        2.05131   0.00000   0.00000   0.00025   0.00025   2.05155
   R13        2.04029  -0.00000   0.00000  -0.00018  -0.00018   2.04011
   R14        2.04296  -0.00000   0.00000  -0.00023  -0.00023   2.04272
   R15        2.05669   0.00000   0.00000   0.00005   0.00005   2.05674
   R16        2.06474   0.00000   0.00000   0.00001   0.00001   2.06476
   R17        2.05907   0.00000   0.00000   0.00000   0.00000   2.05907
    A1        1.72777   0.00002   0.00000   0.00100   0.00102   1.72880
    A2        1.97389   0.00028   0.00000   0.00705   0.00689   1.98078
    A3        2.00206  -0.00029   0.00000  -0.00374  -0.00371   1.99835
    A4        1.80392   0.00004   0.00000  -0.01153  -0.01155   1.79237
    A5        1.83574  -0.00004   0.00000   0.00647   0.00646   1.84220
    A6        2.06539   0.00000   0.00000  -0.00028  -0.00014   2.06525
    A7        1.92044  -0.00000   0.00000  -0.00043  -0.00043   1.92000
    A8        1.92301  -0.00000   0.00000  -0.00259  -0.00259   1.92042
    A9        1.93228   0.00000   0.00000   0.00010   0.00010   1.93237
   A10        1.92597   0.00000   0.00000   0.00156   0.00156   1.92752
   A11        1.83714  -0.00000   0.00000   0.00147   0.00147   1.83861
   A12        1.92349  -0.00000   0.00000   0.00011   0.00011   1.92359
   A13        1.88601   0.00002   0.00000   0.00074   0.00074   1.88675
   A14        1.80917   0.00001   0.00000  -0.00133  -0.00133   1.80783
   A15        2.17332   0.00000   0.00000   0.00260   0.00260   2.17592
   A16        2.03481  -0.00000   0.00000  -0.00094  -0.00095   2.03386
   A17        2.07371   0.00000   0.00000  -0.00202  -0.00203   2.07168
   A18        2.12069  -0.00000   0.00000  -0.00033  -0.00034   2.12035
   A19        2.11366   0.00000   0.00000   0.00056   0.00056   2.11422
   A20        2.04883   0.00000   0.00000  -0.00022  -0.00022   2.04861
   A21        1.94124  -0.00000   0.00000   0.00070   0.00070   1.94194
   A22        1.93664   0.00001   0.00000   0.00114   0.00113   1.93778
   A23        1.93712  -0.00000   0.00000  -0.00006  -0.00006   1.93705
   A24        1.88010  -0.00000   0.00000  -0.00091  -0.00091   1.87920
   A25        1.88668   0.00000   0.00000  -0.00113  -0.00113   1.88555
   A26        1.87962  -0.00000   0.00000   0.00017   0.00017   1.87978
   A27        3.16963   0.00007   0.00000  -0.01391  -0.01389   3.15575
   A28        3.06004   0.00004   0.00000   0.01196   0.01192   3.07195
    D1       -1.38304  -0.00065   0.00000  -0.27673  -0.27696  -1.66000
    D2        0.63857  -0.00034   0.00000  -0.27195  -0.27160   0.36696
    D3        2.83276  -0.00033   0.00000  -0.28129  -0.28141   2.55136
    D4        0.30734   0.00009   0.00000   0.04918   0.04912   0.35646
    D5       -2.89066   0.00009   0.00000   0.04152   0.04147  -2.84919
    D6       -1.54302  -0.00006   0.00000   0.05132   0.05138  -1.49164
    D7        1.54216  -0.00006   0.00000   0.04367   0.04373   1.58589
    D8        2.72062  -0.00003   0.00000   0.05160   0.05159   2.77222
    D9       -0.47737  -0.00003   0.00000   0.04395   0.04394  -0.43344
   D10       -0.94169   0.00007   0.00000   0.00281   0.00279  -0.93890
   D11        1.15094   0.00007   0.00000   0.00289   0.00287   1.15382
   D12       -3.04295   0.00008   0.00000   0.00381   0.00379  -3.03916
   D13        0.93712  -0.00005   0.00000   0.00607   0.00606   0.94317
   D14        3.02975  -0.00005   0.00000   0.00615   0.00614   3.03589
   D15       -1.16415  -0.00005   0.00000   0.00707   0.00706  -1.15709
   D16        2.93947  -0.00003   0.00000  -0.00398  -0.00395   2.93552
   D17       -1.25108  -0.00003   0.00000  -0.00390  -0.00387  -1.25495
   D18        0.83821  -0.00003   0.00000  -0.00298  -0.00295   0.83526
   D19        1.09210  -0.00000   0.00000   0.01003   0.01003   1.10213
   D20       -3.11647  -0.00000   0.00000   0.01042   0.01042  -3.10605
   D21       -1.03986  -0.00000   0.00000   0.01316   0.01316  -1.02669
   D22       -1.72636  -0.00001   0.00000   0.03771   0.03771  -1.68865
   D23        3.09965   0.00000   0.00000  -0.00434  -0.00434   3.09531
   D24       -0.04425  -0.00000   0.00000  -0.00180  -0.00180  -0.04604
   D25        0.01563   0.00000   0.00000   0.00343   0.00343   0.01906
   D26       -3.12827  -0.00000   0.00000   0.00597   0.00597  -3.12229
         Item               Value     Threshold  Converged?
 Maximum Force            0.000654     0.000450     NO 
 RMS     Force            0.000111     0.000300     YES
 Maximum Displacement     0.533011     0.001800     NO 
 RMS     Displacement     0.175561     0.001200     NO 
 Predicted change in Energy=-2.282838D-04
 GradGradGradGradGradGradGradGradGradGradGradGradGradGradGradGradGradGrad

                          Input orientation:                          
 ---------------------------------------------------------------------
 Center     Atomic      Atomic             Coordinates (Angstroms)
 Number     Number       Type             X           Y           Z
 ---------------------------------------------------------------------
      1          6           0        1.022671    0.624824    0.984696
      2          1           0        1.587394    0.062737    1.726352
      3          6           0       -2.039701   -0.963658   -0.667371
      4          1           0       -1.548018   -0.105643   -1.123803
      5          1           0       -2.075199   -1.790950   -1.372692
      6          1           0       -3.044650   -0.691906   -0.349312
      7          8           0       -1.286239   -1.445356    0.440862
      8          8           0       -1.244115   -0.440336    1.405530
      9          1           0       -0.151734    0.119686    1.196825
     10          6           0        1.301516    0.221444   -0.383763
     11          6           0        1.834813   -0.955448   -0.737740
     12          1           0        0.997000    0.911695   -1.164422
     13          1           0        1.981524   -1.219073   -1.774308
     14          1           0        2.135252   -1.679442    0.006606
     15          6           0        0.889480    2.098716    1.284243
     16          1           0        0.481836    2.263934    2.279784
     17          1           0        1.860281    2.597788    1.236355
     18          1           0        0.231035    2.585117    0.565129
 ---------------------------------------------------------------------
                    Distance matrix (angstroms):
                    1          2          3          4          5
     1  C    0.000000
     2  H    1.088535   0.000000
     3  C    3.825013   4.465335   0.000000
     4  H    3.404085   4.240583   1.089161   0.000000
     5  H    4.581489   5.143425   1.087727   1.783290   0.000000
     6  H    4.478443   5.131637   1.088547   1.784222   1.787467
     7  O    3.148407   3.490644   1.424049   2.076424   2.007703
     8  O    2.539682   2.893691   2.281171   2.569417   3.198965
     9  H    1.295912   1.818847   2.865882   2.717664   3.735327
    10  C    1.453668   2.135299   3.556491   2.962176   4.053383
    11  C    2.474595   2.677624   3.875162   3.509239   4.048386
    12  H    2.168331   3.070158   3.603549   2.741121   4.097081
    13  H    3.454195   3.748733   4.178612   3.757732   4.116472
    14  H    2.739368   2.508558   4.289152   4.161868   4.432020
    15  C    1.509909   2.197215   4.665515   4.074221   5.565800
    16  H    2.157878   2.524641   5.045911   4.617316   6.026698
    17  H    2.158127   2.596353   5.614083   4.949282   6.446406
    18  H    2.155336   3.090397   4.389659   3.641114   5.312610
                    6          7          8          9         10
     6  H    0.000000
     7  O    2.069799   0.000000
     8  O    2.526793   1.393709   0.000000
     9  H    3.379080   2.075558   1.245182   0.000000
    10  C    4.441233   3.186644   3.181156   2.149546   0.000000
    11  C    4.901988   3.371955   3.786653   2.974025   1.339694
    12  H    4.423898   3.653191   3.668138   2.742691   1.085636
    13  H    5.250804   3.954296   4.595927   3.894958   2.114501
    14  H    5.285196   3.456874   3.861670   3.143849   2.112077
    15  C    5.092489   4.243287   3.318692   2.237929   2.544832
    16  H    5.299550   4.501839   3.325102   2.484353   3.455159
    17  H    6.115126   5.184633   4.346964   3.192297   2.929849
    18  H    4.722837   4.308396   3.469252   2.573694   2.762839
                   11         12         13         14         15
    11  C    0.000000
    12  H    2.090505   0.000000
    13  H    1.079581   2.425164   0.000000
    14  H    1.080963   3.062828   1.845868   0.000000
    15  C    3.782855   2.723332   4.642739   4.178371   0.000000
    16  H    4.615238   3.735839   5.551222   4.842658   1.088380
[...]
 665,-0.0176884,0.0944152,0.07079,0.022118,0.051301,-0.0346604,0.004757
 9,-0.2960944,-0.0277596,-0.0613566,-0.7449401,-0.621197,0.0698922,-1.0
 553276,-0.3788156,-0.2534432,0.3272713,0.3300151,0.0083541,1.2131858,0
 .40961,-0.0144241,0.6540001,0.3531562,-0.2930939,-1.1231111,-0.5859512
 ,0.0174851,-0.6582295,-0.235208,-0.0147621,0.1664691,0.0279925,0.08188
 06,-0.4312935,-0.2548727,0.052738,0.261222,-0.0025141,-0.2062574,0.224
 1533,0.0751617,-0.0070453,-0.1204431,-0.0200735,0.0042486,-0.3031944,-
 0.1031914,0.0351867,0.072066,-0.0557524,0.0837781,0.0776335,0.069209,-
 0.026218,0.0501659,-0.0063455,0.0761832,0.00307,0.0676844,-0.0336439,0
 .1479121,0.0474622,-0.0037769,0.0601148,0.0620292,-0.0140152,0.0383034
 ,-0.0444192,-0.0692639,0.0766288,0.0282027,-0.0047797,0.0392261,0.0210
 82,0.0231755,-0.041721,0.0732114,-0.0278377,-0.1265808,-0.2043144,-0.0
 616056,-0.0287728,-0.0077688,-0.024049,0.0301858,-0.001124,0.0797716,0
 .0527285,0.0443824,0.0823478,-0.0026775,0.0244656,-0.0115458,0.0542995
 ,-0.0577346,-0.0901453,-0.0675518,-0.0793326,0.007894,-0.1352987,-0.09
 33416,-0.0462991,0.0077601,-0.0024867,0.066357,0.007815,0.0779947,-0.0
 667183,0.0249209,0.0059199,0.0188358,-0.0838506,0.071501,-0.036481\Pol
 ar=106.2229474,10.7839757,83.3868212,-5.6551327,12.0108641,74.9055763\
 PG=C01 [X(C5H11O2)]\NImag=1\\0.24639760,-0.12502632,0.48707615,0.10009
 247,-0.00047946,0.53909850,-0.10564892,0.08447138,-0.11200467,0.116754
 70,0.07797051,-0.11575610,0.08387464,-0.08474802,0.12502798,-0.0982532
 7,0.08701993,-0.17329415,0.10696837,-0.09636154,0.18886131,-0.00639186
 ,-0.00119050,0.00097621,0.00050875,0.00026343,-0.00002041,0.54604788,0
 .00300700,0.00187351,-0.00121544,-0.00044691,-0.00044171,0.00036697,0.
 01699653,0.60337554,-0.01115887,-0.00411399,0.00384759,0.00146358,0.00
 082688,-0.00051974,-0.06603461,0.05384999,0.49340155,0.00105064,-0.000
 21191,-0.00097774,-0.00009218,-0.00003222,0.00005371,-0.11697566,-0.10
 560580,0.05395728,0.12043737,-0.00226544,-0.00058562,0.00076284,0.0001
 9170,0.00010103,-0.00010124,-0.10051257,-0.20752387,0.07738697,0.10702
 421,0.22486840,0.00199749,0.00049377,-0.00049573,-0.00012283,-0.000088
 91,0.00005987,0.05216557,0.07240004,-0.08663029,-0.05125130,-0.0937055
 3,0.09932994,0.00051090,0.00016649,-0.00028944,-0.00007025,-0.00004705
 ,0.00003290,-0.05151272,-0.00246079,-0.00200526,-0.00002326,-0.0119517
 6,-0.01014407,0.05007018,0.00033286,0.00004582,-0.00018413,-0.00004526
 ,-0.00000012,0.00000329,-0.00800096,-0.21367349,-0.13576223,0.00076781
 ,-0.01609954,-0.01606164,0.00724882,0.22228425,0.00075560,0.00030017,-
 0.00033171,-0.00008604,-0.00011278,0.00006552,-0.00597361,-0.12539703,
 -0.15548371,0.00061238,0.00972833,0.01085055,0.01242512,0.14408964,0.1
 7773289,0.00173772,0.00062302,-0.00061447,-0.00022228,-0.00012516,0.00
 003711,-0.26750735,0.05711348,0.08099860,-0.01259110,0.00422882,0.0066
 8538,0.00438085,-0.00149970,-0.00019282,0.29394075,-0.00130930,-0.0005
 2246,0.00065196,0.00018342,0.00010597,-0.00009478,0.05785006,-0.068466
 95,-0.02182704,-0.02374358,0.00744000,0.00841059,0.02215963,-0.0045369
 7,-0.00708975,-0.07097336,0.06957561,0.00079196,0.00009478,-0.00019522
 ,-0.00007529,-0.00000838,0.00004706,0.08780581,-0.02651985,-0.07875774
 ,0.01068214,-0.00437846,-0.00211485,0.01858370,-0.00313803,-0.00454826
 ,-0.08054342,0.01910487,0.08400539,-0.00129602,-0.00153062,0.00543059,
 0.00053624,0.00033616,-0.00022155,-0.10978595,0.05557331,-0.05041448,0
 .00951869,0.00061524,0.00145991,-0.00180008,0.00062378,-0.00243413,-0.
 02058373,0.01713761,-0.03752313,0.16054110,0.03000668,0.00892157,-0.00
 878992,-0.00373818,-0.00156933,0.00047884,0.04088908,-0.11681680,0.040
 49813,0.02006356,-0.01050495,0.02595367,-0.01550878,0.00855252,-0.0230
 5231,0.01008858,-0.00412596,0.01113100,-0.05715441,0.28651913,0.037433
 33,0.01308612,-0.01347910,-0.00463578,-0.00230498,0.00092747,-0.059760
 36,0.06648535,-0.12177177,-0.01686255,0.01375207,-0.02760172,-0.014215
 26,0.00701889,-0.02263102,-0.01050565,0.00207352,-0.00399158,0.1175637
 8,0.03211875,0.30727174,-0.11221498,-0.04464453,0.03696941,0.00770237,
 0.00333031,-0.00113911,-0.00208257,-0.02060436,-0.02536449,0.00119614,
 0.00003087,0.00325014,-0.00130162,0.00104935,-0.00435354,0.00390655,-0
 .00322278,0.00143774,-0.04181113,0.03010870,0.01747216,0.07331569,-0.0
 9467546,-0.03199436,0.03374821,0.00815134,0.00440062,-0.00211499,-0.01
 143758,0.00350382,-0.02041604,0.00228960,0.00035527,0.00446213,0.00050
 429,0.00366257,0.00156322,0.00195628,-0.00036537,0.00464950,-0.0003776
 7,-0.13190104,-0.09907221,-0.01776914,0.11057424,-0.01130845,-0.001942
 97,0.00863049,0.00326791,0.00087759,0.00000470,-0.00540374,-0.03791811
 ,-0.05154488,0.00245285,-0.00307547,0.00584028,-0.00477231,0.00354358,
 -0.00546323,0.00348867,-0.00085715,0.00554480,-0.01454109,-0.07936038,
 -0.13224939,-0.01887456,0.10847917,0.20386218,0.07593684,0.03513681,-0
 .05291252,-0.02589833,-0.01025174,0.00334591,0.00608908,-0.00321249,0.
 01567084,-0.00076314,0.00265079,-0.00319281,-0.00008539,-0.00046157,-0
 .00023176,-0.00244513,0.00174754,-0.00129070,0.00388465,-0.04529347,-0
 .05468098,0.05487384,0.08990666,0.03614632,-0.07196632,0.05824347,-0.0
 0281333,-0.02882436,-0.00036878,-0.00177461,0.00173064,0.00434475,-0.0
 0120626,0.00820027,-0.00077237,0.00163265,-0.00145381,-0.00019502,-0.0
 0028271,-0.00000037,-0.00132974,0.00075604,-0.00083173,-0.01296745,-0.
 03758857,-0.03253046,0.05039895,0.03761731,0.00901037,-0.06662426,0.02
 120606,-0.01287293,-0.00505871,-0.02070130,-0.00916122,-0.00158270,-0.
 00002848,-0.00263314,-0.00285898,-0.00142920,0.00044067,0.00031572,0.0
 0024354,0.00008594,0.00039689,-0.00052841,0.00045194,-0.00000464,0.000
 04698,-0.01421422,-0.00397553,0.00489144,0.00801660,-0.01230351,-0.028
 56782,0.01412742,0.02544677,0.05696766,-0.04784473,0.02671789,0.012770
 95,0.00253791,-0.00552441,-0.01718238,0.00048898,0.00018877,0.00097716
 ,-0.00169679,-0.00032593,-0.00056147,-0.00004262,-0.00000121,-0.000427
 49,-0.00050556,0.00006052,0.00029380,0.00311304,-0.00436475,-0.0073019
 9,0.00948628,0.01385853,0.00777450,-0.03361676,-0.01106065,0.01904936,
 0.26431926,-0.00440462,-0.10203568,-0.00759235,-0.00049217,0.00732812,
 0.01648494,-0.00114725,0.00006684,-0.00122919,0.00125446,0.00006595,0.
 00025415,0.00009557,-0.00000491,0.00035239,0.00043200,-0.00024037,-0.0
 0015092,-0.00415748,0.00410971,0.00711185,-0.01045461,-0.01296078,-0.0
 0561665,0.02365493,0.01343647,0.00237563,-0.25537242,0.69318921,-0.011
 42607,-0.04490103,-0.22159751,0.01215407,-0.00198230,-0.02153174,-0.00
 015069,-0.00097747,0.00120813,0.00092895,0.00018722,0.00000268,0.00014
 303,0.00014706,0.00011482,0.00023333,0.00011604,-0.00039921,-0.0061825
 7,0.00191717,0.00506292,-0.01619064,-0.01555545,-0.00422122,0.04143857
 ,0.01898522,-0.00978245,-0.01075801,-0.00481952,0.58180199,-0.00776260
 ,0.00908930,0.01662669,0.00058539,-0.00010764,0.00041061,-0.00051662,0
 .00019325,-0.00075767,0.00030912,-0.00021925,0.00020308,0.00013736,0.0
 0009625,0.00010866,0.00018073,-0.00015545,0.00016598,-0.00161910,0.000
 98966,0.00246673,-0.00279618,-0.00428386,-0.00253829,0.00894018,0.0048
 2532,-0.00041504,-0.12976031,0.16923249,0.03211529,0.23149171,0.027323
 87,-0.00701521,-0.03414719,-0.00308216,-0.00088509,0.00137885,0.000818
 18,0.00031707,0.00003426,-0.00082199,-0.00031837,-0.00008176,0.0000462
 9,0.00000843,-0.00023153,-0.00028261,0.00004155,0.00040680,0.00279523,
 -0.00166305,-0.00305392,0.00585032,0.00784311,0.00399241,-0.01763812,-
 0.01022652,-0.00048061,0.16646012,-0.41024441,-0.06353096,-0.26805493,
 0.68038289,0.01972716,-0.03444732,-0.01663820,0.00002525,-0.00148899,0
 .00136783,-0.00059519,0.00108947,-0.00110972,-0.00015145,-0.00043536,0
 .00023010,0.00006514,-0.00006457,0.00011193,-0.00007242,-0.00024936,0.
 00015171,0.00091196,0.00217722,0.00206030,0.00027678,-0.00129478,-0.00
 119878,-0.00142542,-0.00252938,-0.00134764,0.04323182,-0.08799867,-0.1
 3231481,-0.03385581,0.03611176,0.66856449,0.00640415,-0.00264134,0.004
 68168,0.00218111,0.00154858,0.00073819,0.00001486,-0.00038282,0.000327
 93,-0.00024865,-0.00001656,-0.00002746,-0.00002029,0.00002451,-0.00003
 154,0.00004367,0.00007636,-0.00006080,0.00011124,-0.00014016,-0.000556
 09,0.00027354,0.00058835,0.00044833,-0.00069755,-0.00039597,-0.0011840
 9,-0.06882533,0.05416213,-0.05377168,0.00158794,0.01001566,-0.01093575
 ,0.05761547,-0.00085439,0.00565524,-0.00701745,0.00102356,0.00053991,-
 0.00217804,0.00019822,-0.00055488,0.00056294,-0.00022728,0.00028706,-0
 .00008991,-0.00002122,0.00003130,-0.00004788,0.00005008,0.00016931,-0.
 00012353,-0.00006909,-0.00033537,-0.00065165,0.00001948,0.00053253,0.0
 0034440,-0.00008881,-0.00008977,-0.00010533,0.05355088,-0.15915387,0.1
 2087649,0.01007206,-0.01623200,0.02277907,-0.06513182,0.16943718,-0.01
 194741,0.01820646,-0.01964685,0.00238810,-0.00143898,-0.00452477,-0.00
 027624,0.00055532,-0.00077074,0.00004573,-0.00022278,0.00028165,-0.000
 00483,-0.00008216,0.00008990,0.00000739,-0.00016338,0.00009122,0.00010
 648,0.00073297,0.00109124,-0.00054771,-0.00132141,-0.00061575,0.001405
 40,0.00094942,-0.00030506,-0.05410741,0.12401246,-0.19840219,0.0032523
 6,-0.00758168,0.00825638,0.05882718,-0.13206645,0.21057588,0.00745694,
 0.00617369,-0.00135919,0.00000808,-0.00044552,0.00058192,-0.00008667,0
 .00011418,-0.00014697,0.00002953,0.00005514,0.00009310,-0.00008955,-0.
 00008944,0.00003695,0.00004587,-0.00002760,-0.00004934,-0.00005327,0.0
 0031857,0.00058602,-0.00036672,-0.00087087,-0.00057249,0.00159716,0.00
 041111,-0.00098674,0.00269952,0.00384682,0.01438014,-0.04248576,0.0180
 7035,0.03622648,-0.00568367,-0.00333561,-0.00022007,0.03361135,0.00480
 233,-0.00217310,0.00045450,-0.00019150,-0.00019204,0.00001697,-0.00012
 036,0.00016860,-0.00022597,0.00001762,-0.00005831,0.00002552,-0.000006
 10,-0.00000745,0.00002710,0.00002064,-0.00004291,-0.00000068,0.0000488
 6,0.00048233,0.00067625,-0.00024911,-0.00074859,-0.00055705,0.00093539
 ,0.00023308,-0.00044501,0.00503528,-0.00273179,-0.02919795,0.01810209,
 -0.06835347,-0.06040792,-0.00321781,-0.00022742,0.00009851,-0.02280591
 ,0.06619787,-0.00042244,-0.00155072,0.00179131,0.00007103,0.00013965,0
 .00048137,-0.00007622,-0.00000556,-0.00022006,0.00002771,-0.00006119,0
 .00000706,0.00005976,0.00004483,0.00002637,0.00002250,-0.00001844,0.00
 005055,0.00005836,0.00019998,0.00029753,-0.00024869,-0.00037338,-0.000
 10538,0.00058085,0.00040717,-0.00006010,-0.00041017,0.00155213,-0.0044
 0255,0.03874479,-0.06504620,-0.32596003,-0.00003659,-0.00040832,0.0011
 6229,-0.04233204,0.07170305,0.34085498,-0.00407446,-0.00304294,-0.0002
 4811,-0.00004205,0.00050415,-0.00008112,0.00009715,-0.00007885,0.00022
 360,-0.00001895,0.00007792,-0.00005905,-0.00004441,0.00000001,-0.00005
 855,-0.00000805,0.00001617,-0.00000720,0.00032266,-0.00083678,-0.00130
 959,0.00065788,0.00141280,0.00114197,-0.00211882,-0.00064688,0.0006138
 0,0.00130982,0.00934953,-0.01058678,-0.06166500,0.06066911,-0.05405154
 ,0.00824847,0.00604116,0.00109939,0.00413703,-0.00239679,0.00346216,0.
 05294243,-0.00269051,0.00041320,0.00199843,-0.00022012,0.00018792,-0.0
 0126939,0.00004243,-0.00016390,0.00034055,-0.00003077,0.00005836,-0.00
 006940,-0.00000392,0.00001992,-0.00004007,-0.00002817,0.00005234,-0.00
 005432,-0.00010778,-0.00016603,-0.00048073,0.00019690,0.00044403,0.000
 20378,-0.00058736,-0.00041034,0.00028856,0.00939714,-0.01588499,0.0217
 5026,0.06059372,-0.17571720,0.12776964,0.00600146,-0.00159652,-0.00185
 396,-0.00180701,0.00741608,-0.00669113,-0.07057914,0.18520319,0.001092
 88,-0.00091698,0.00107772,-0.00050551,0.00034560,0.00034219,0.00000015
 ,0.00006592,-0.00005548,-0.00001350,-0.00005122,-0.00001113,0.00000029
 ,0.00002104,-0.00002203,-0.00000310,-0.00001813,0.00002111,0.00016974,
 -0.00018021,-0.00015354,0.00023314,0.00030080,0.00014276,-0.00045505,-
 0.00027138,0.00008470,0.00260738,-0.00615218,0.00872468,-0.05647103,0.
 13154153,-0.19722328,0.00128623,-0.00177656,0.00063842,-0.00794849,0.0
 1862607,-0.01364428,0.06005837,-0.14144341,0.20015529,-0.05511462,0.01
 674765,-0.00807772,-0.00018849,0.01784144,0.00435050,0.00185028,-0.000
 83652,0.00304650,-0.00009018,0.00053935,-0.00063347,-0.00013552,-0.000
 02945,-0.00023160,-0.00044868,0.00030029,-0.00027523,-0.00161938,-0.00
 678503,-0.00725015,0.01029741,0.01216713,0.00399200,-0.01771601,-0.024
 97952,-0.00079010,-0.00252297,0.01220860,0.00760586,0.00268609,-0.0003
 3212,0.00073379,-0.00065439,-0.00124795,-0.00075763,-0.00067708,0.0000
 9607,0.00052410,0.00008382,-0.00011279,0.00000033,0.54658050,0.0238368
 1,-0.19957735,-0.02227870,-0.00166521,-0.01319988,-0.00411452,0.000396
 81,0.00002841,0.00045252,-0.00004490,0.00011886,-0.00011091,-0.0000072
 5,-0.00004623,0.00002089,-0.00005823,0.00004865,-0.00005793,-0.0004851
 9,-0.00181707,-0.00147643,0.00610871,0.00556231,0.00047865,-0.01007167
 ,-0.01719834,-0.00050868,0.00123577,-0.01111721,-0.00822896,-0.0011578
 1,0.00241444,0.00159266,-0.00013948,0.00123500,0.00156817,0.00006309,0
 .00039790,0.00032915,-0.00021133,-0.00003917,-0.00013169,-0.00331669,0
 .47464539,-0.00356927,-0.01908211,-0.08823786,-0.00013248,0.02127033,0
 .00649303,-0.00018051,-0.00010497,-0.00010925,0.00009700,-0.00007876,-
 0.00002127,0.00003368,0.00007228,-0.00000950,0.00002242,-0.00003780,0.
 00006122,0.00005536,0.00055362,0.00042524,-0.00025678,-0.00048423,-0.0
 0042485,0.00064255,0.00173296,0.00036875,0.00217221,-0.03631792,-0.006
 37917,-0.00020280,0.00030084,-0.00509741,0.00071508,-0.00046121,0.0015
 8032,0.00178179,-0.00074398,-0.00023542,-0.00018583,-0.00040015,0.0000
 8959,0.00242162,-0.01516950,0.57767988,-0.00141212,-0.00073483,0.00054
 731,-0.00015981,-0.00001975,0.00014266,-0.00009254,0.00010587,-0.00019
 525,-0.00000472,-0.00001406,0.00004279,0.00000554,-0.00000902,0.000031
 44,0.00001580,-0.00003004,0.00001268,0.00018625,0.00034714,0.00032045,
 0.00002924,-0.00003240,-0.00007334,0.00034676,-0.00013459,-0.00047852,
 0.00069047,0.00097848,-0.00003289,0.00043856,-0.00067225,0.00003071,-0
 .00010739,-0.00004113,0.00020168,-0.00015553,-0.00005212,-0.00000613,0
 .00006563,-0.00000101,-0.00000982,-0.08587929,0.01553129,0.09325217,0.
 08882555,0.01053381,-0.00499836,-0.03291975,0.00008502,0.00104763,0.00
 080895,0.00000517,0.00007221,0.00000842,0.00001907,-0.00004323,-0.0000
 0225,0.00002245,0.00000165,0.00001857,-0.00001782,-0.00001237,0.000010
 66,0.00012062,-0.00002290,-0.00003659,-0.00089407,-0.00006351,0.000504
 90,0.00130793,0.00099373,-0.00081722,0.00101239,-0.00678111,0.00073692
 ,-0.00002168,-0.00000210,-0.00187155,-0.00011413,0.00009135,-0.0000510
 7,0.00053911,-0.00032200,-0.00016821,-0.00013648,-0.00006713,0.0000660
 6,0.01456904,-0.05192039,-0.03157860,-0.01560216,0.05887542,0.00069310
 ,-0.00080578,-0.00449058,-0.00000540,-0.00047284,0.00044159,0.00007125
 ,0.00006728,-0.00003269,0.00000411,-0.00002253,0.00001171,-0.00000153,
 -0.00000735,0.00000774,-0.00003547,-0.00001911,0.00000845,-0.00002820,
 -0.00005629,-0.00015407,-0.00071225,-0.00016958,0.00032700,0.00054801,
 0.00020756,-0.00016728,0.00063284,-0.00106282,0.00115023,0.00001881,-0
 .00028858,-0.00024635,0.00004651,0.00009176,0.00051693,0.00004719,-0.0
 0008058,-0.00001853,0.00004222,-0.00004374,-0.00000953,0.09223299,-0.0
 3339447,-0.27258952,-0.10219055,0.03871798,0.29457955,0.00433108,-0.00
 005204,-0.00068062,0.00026603,-0.00068161,-0.00007069,-0.00007322,0.00
 020837,-0.00032462,-0.00005292,-0.00005383,0.00008105,0.00000679,-0.00
 001906,0.00002629,0.00004479,-0.00002229,0.00002339,0.00032777,0.00062
 979,0.00075362,-0.00095036,-0.00097372,-0.00031655,0.00265920,0.000974
 17,-0.00026648,0.00014562,0.00069370,0.00076150,0.00016508,-0.00078416
 ,-0.00050080,-0.00016782,-0.00014509,-0.00011121,0.00004146,-0.0000394
 0,-0.00003203,0.00001014,0.00002566,-0.00000573,-0.25120349,-0.1003497
 9,0.01077122,-0.01108765,-0.00475725,-0.00003573,0.27307682,-0.0253281
 2,-0.01912741,-0.00193172,0.00048347,0.00100775,0.00028048,0.00064102,
 -0.00028946,0.00107166,-0.00000118,0.00018512,-0.00020014,-0.00005154,
 -0.00001268,-0.00008794,-0.00017176,0.00009817,-0.00010510,-0.00040281
 ,-0.00200462,-0.00232379,0.00131322,0.00314842,0.00175380,-0.00210324,
 -0.00488428,-0.00098126,-0.00046500,0.00160134,0.00274493,0.00107166,-
 0.00047387,-0.00051555,-0.00029574,-0.00010288,-0.00026957,-0.00019527
 ,-0.00009835,0.00004397,-0.00002933,0.00000677,-0.00001156,-0.10550846
 ,-0.09516394,0.00641914,0.00426955,0.00170333,0.00038280,0.11387501,0.
 10801508,-0.00619079,-0.00385452,-0.00022577,0.00019238,0.00024466,0.0
 0013452,0.00012339,0.00004752,0.00006042,-0.00001469,0.00000829,-0.000
 00873,-0.00000735,-0.00001950,0.00000557,-0.00001759,0.00000635,-0.000
 01923,-0.00020871,-0.00034598,-0.00020586,-0.00022144,0.00005973,0.000
 20346,0.00038841,-0.00051734,0.00034505,0.00018512,-0.00033237,0.00019
 658,0.00015581,0.00052769,0.00008266,-0.00017440,-0.00000235,-0.000186
 98,-0.00003521,-0.00001701,-0.00000830,-0.00007270,-0.00000686,0.00000
 769,0.01027998,0.00582898,-0.04705966,0.02758818,0.01392613,-0.0007610
 5,-0.01192611,-0.00484436,0.04641857,-0.00206556,-0.00005119,-0.000930
 82,0.00124174,0.00018852,0.00030664,-0.00007182,0.00012778,-0.00026326
 ,0.00001606,-0.00005463,0.00001395,0.00001409,0.00001229,0.00002466,0.
 00001517,-0.00004721,0.00002793,0.00002702,0.00037982,0.00048231,-0.00
 021538,-0.00041426,-0.00031173,0.00097976,0.00027747,0.00021675,0.0000
 2418,0.00011984,-0.00066140,0.00008343,-0.00038079,0.00035929,-0.00007
 535,0.00020696,0.00063882,-0.00002870,0.00002083,0.00001306,0.00009671
 ,-0.00008873,-0.00003629,-0.14524800,0.07033505,-0.10743744,0.00829525
 ,-0.00667100,0.00867208,-0.01753932,0.01289851,-0.02004427,0.15445072,
 0.02049683,-0.01738653,0.02388989,0.00040844,-0.00592807,-0.00233536,-
 0.00003647,-0.00026870,0.00034189,0.00005568,0.00002119,-0.00013561,0.
 00000988,0.00005763,-0.00004065,-0.00002634,0.00002573,-0.00002867,0.0
 0000168,-0.00006957,-0.00039204,-0.00056819,0.00038942,0.00013912,0.00
 099269,0.00059938,0.00029861,-0.00040291,0.00135748,0.00173234,-0.0002
 6517,0.00012380,-0.00021637,0.00005879,0.00031387,-0.00107188,-0.00001
 483,0.00005956,-0.00009678,-0.00011233,0.00024346,-0.00001367,0.068678
 95,-0.09437139,0.07411006,-0.00388897,0.00144780,-0.00304370,-0.008528
 45,0.00639150,-0.01070906,-0.07685926,0.10699345,0.00456552,-0.0020476
 5,0.00488838,0.00019855,-0.00173696,0.00067243,-0.00003766,0.00006955,
 -0.00008241,-0.00003129,-0.00000890,0.00002635,0.00001050,-0.00001787,
 0.00001259,0.00003761,0.00001627,-0.00000241,0.00001191,-0.00000071,0.
 00021019,0.00025321,-0.00015716,-0.00016435,-0.00010503,0.00028844,-0.
 00003039,0.00105378,-0.00087096,0.00076884,-0.00002814,0.00014829,0.00
 031083,-0.00029273,0.00027403,0.00016812,-0.00008306,0.00004817,-0.000
 01679,0.00001895,0.00000195,-0.00016489,-0.10717176,0.07520079,-0.1665
 3412,-0.01918357,0.01264666,-0.01857360,0.00185349,-0.00142577,0.00102
 106,0.11892970,-0.08242815,0.17749018\\0.00000003,0.00000010,-0.000001
 61,0.00000113,0.00000009,-0.00000017,-0.00000095,-0.00000075,-0.000000
 45,-0.00000053,0.00000037,0.00000020,0.00000015,0.00000009,-0.00000020
 ,0.00000015,-0.00000013,-0.00000004,-0.00000210,0.00000196,0.00000211,
 -0.00000149,-0.00000166,-0.00000140,0.00000193,-0.00000176,-0.00000027
 ,0.00000210,0.00000282,0.00000412,-0.00000104,-0.00000163,-0.00000067,
 0.00000129,0.00000021,0.00000012,-0.00000027,-0.00000055,0.00000037,0.
 ,-0.00000011,0.00000033,-0.00000051,0.00000051,-0.00000188,0.00000011,
 0.00000028,-0.00000018,-0.00000004,0.00000015,-0.00000007,0.00000005,0
 .00000001,-0.00000033\\\@


 Life may have no meaning.  Or even worse, it may have a
 meaning of which I disapprove.
                                 -- Ashleigh Brilliant
 Job cpu time:       3 days  3 hours 40 minutes  4.3 seconds.
 Elapsed time:       0 days  1 hours 57 minutes 21.3 seconds.
 File lengths (MBytes):  RWF= 108510 Int=      0 D2E=      0 Chk=     21 Scr=      1
 Normal termination of Gaussian 16 at Tue Jun 25 05:48:13 2019.
