 Entering Gaussian System, Link 0=g16
 Initial command:
 /ichec/packages/gaussian/16b01/l1.exe "/localscratch/352096/Gau-46690.inp" -scrdir="/localscratch/352096/"
 Entering Link 1 = /ichec/packages/gaussian/16b01/l1.exe PID=     48235.
  
 Copyright (c) 1988-2017, Gaussian, Inc.  All Rights Reserved.
  
 This is part of the Gaussian(R) 16 program.  It is based on
 the Gaussian(R) 09 system (copyright 2009, Gaussian, Inc.),
 the Gaussian(R) 03 system (copyright 2003, Gaussian, Inc.),
 the Gaussian(R) 98 system (copyright 1998, Gaussian, Inc.),
 the Gaussian(R) 94 system (copyright 1995, Gaussian, Inc.),
 the Gaussian 92(TM) system (copyright 1992, Gaussian, Inc.),
 the Gaussian 90(TM) system (copyright 1990, Gaussian, Inc.),
 the Gaussian 88(TM) system (copyright 1988, Gaussian, Inc.),
 the Gaussian 86(TM) system (copyright 1986, Carnegie Mellon
 University), and the Gaussian 82(TM) system (copyright 1983,
 Carnegie Mellon University). Gaussian is a federally registered
 trademark of Gaussian, Inc.
  
 This software contains proprietary and confidential information,
 including trade secrets, belonging to Gaussian, Inc.
  
 This software is provided under written license and may be
 used, copied, transmitted, or stored only in accord with that
 written license.
  
 The following legend is applicable only to US Government
 contracts under FAR:
  
                    RESTRICTED RIGHTS LEGEND
  
 Use, reproduction and disclosure by the US Government is
 subject to restrictions as set forth in subparagraphs (a)
 and (c) of the Commercial Computer Software - Restricted
 Rights clause in FAR 52.227-19.
  
 Gaussian, Inc.
 340 Quinnipiac St., Bldg. 40, Wallingford CT 06492
  
  
 ---------------------------------------------------------------
 Warning -- This program may not be used in any manner that
 competes with the business of Gaussian, Inc. or will provide
 assistance to any competitor of Gaussian, Inc.  The licensee
 of this program is prohibited from giving any competitor of
 Gaussian, Inc. access to this program.  By using this program,
 the user acknowledges that Gaussian, Inc. is engaged in the
 business of creating and licensing software in the field of
 computational chemistry and represents and warrants to the
 licensee that it is not a competitor of Gaussian, Inc. and that
 it will not use this program in any manner prohibited above.
 ---------------------------------------------------------------
  

 Cite this work as:
 Gaussian 16, Revision B.01,
 M. J. Frisch, G. W. Trucks, H. B. Schlegel, G. E. Scuseria, 
 M. A. Robb, J. R. Cheeseman, G. Scalmani, V. Barone, 
 G. A. Petersson, H. Nakatsuji, X. Li, M. Caricato, A. V. Marenich, 
 J. Bloino, B. G. Janesko, R. Gomperts, B. Mennucci, H. P. Hratchian, 
 J. V. Ortiz, A. F. Izmaylov, J. L. Sonnenberg, D. Williams-Young, 
 F. Ding, F. Lipparini, F. Egidi, J. Goings, B. Peng, A. Petrone, 
 T. Henderson, D. Ranasinghe, V. G. Zakrzewski, J. Gao, N. Rega, 
 G. Zheng, W. Liang, M. Hada, M. Ehara, K. Toyota, R. Fukuda, 
 J. Hasegawa, M. Ishida, T. Nakajima, Y. Honda, O. Kitao, H. Nakai, 
 T. Vreven, K. Throssell, J. A. Montgomery, Jr., J. E. Peralta, 
 F. Ogliaro, M. J. Bearpark, J. J. Heyd, E. N. Brothers, K. N. Kudin, 
 V. N. Staroverov, T. A. Keith, R. Kobayashi, J. Normand, 
 K. Raghavachari, A. P. Rendell, J. C. Burant, S. S. Iyengar, 
 J. Tomasi, M. Cossi, J. M. Millam, M. Klene, C. Adamo, R. Cammi, 
 J. W. Ochterski, R. L. Martin, K. Morokuma, O. Farkas, 
 J. B. Foresman, and D. J. Fox, Gaussian, Inc., Wallingford CT, 2016.
 
 ******************************************
 Gaussian 16:  ES64L-G16RevB.01 20-Dec-2017
                20-Jun-2019 
 ******************************************
 %mem=80GB
 %nproc=40
 Will use up to   40 processors via shared memory.
 ----------------------------------------------------------------------
 # opt=(calcfc,ts,noeigentest,maxcyc=500,modredundant) uB2PLYPD3/cc-pvt
 z scf=maxcyc=500 nosymm
 ----------------------------------------------------------------------
 1/5=1,6=500,10=4,11=1,18=120,38=1/1,3;
 2/9=110,12=2,15=1,17=6,18=5,40=1/2;
 3/5=16,6=1,11=2,25=1,30=1,71=2,74=-60,116=2,140=1/1,2,3;
 4//1;
 5/5=2,7=500,38=5/2;
 8/6=3,8=1,10=1,19=11,30=-1/1;
 9/15=3,16=-3/6;
 11/6=1,8=1,15=11,17=12,24=-1,27=1,28=-2,29=300,31=1,32=6,42=3/1,2,10;
 10/6=2,21=1,31=1/2;
 8/6=4,8=1,10=1,19=11,30=-1/11,4;
 10/5=1,20=4,31=1/2;
 11/12=2,14=11,16=1,17=2,28=-2,31=1,42=3,76=2/2,10,12;
 6/7=2,8=2,9=2,10=2/1;
 7/10=1,12=2,25=1,30=1,44=2/1,2,3,16;
 1/5=1,6=500,10=4,11=1,18=20/3(2);
 2/9=110,15=1/2;
 99//99;
 2/9=110,15=1/2;
 3/5=16,6=1,11=2,25=1,30=1,71=1,74=-60,116=2/1,2,3;
 4/5=5,16=3,69=1/1;
 5/5=2,7=500,38=5/2;
 8/6=4,10=1/1;
 9/15=2,16=-3/6;
 10/5=1,31=1/2;
 7/12=2,30=1/1,2,3,16;
 1/5=1,6=500,11=1,18=20/3(-8);
 2/9=110,15=1/2;
 6/7=2,8=2,9=2,10=2/1;
 99/9=10/99;
 -------------------
 Title Card Required
 -------------------
 Symbolic Z-matrix:
 Charge =  0 Multiplicity = 2
 C                    -0.94011   0.37441  -0.46404 
 H                    -0.59896   0.32951  -1.49668 
 C                     2.74516  -0.36723  -0.63311 
 H                     2.12531  -0.32292  -1.52929 
 H                     3.59478   0.3044   -0.73316 
 H                     3.08463  -1.38775  -0.46825 
 O                     2.02428   0.10471   0.50041 
 O                     0.96282  -0.76942   0.73643 
 H                     0.01573  -0.28897   0.14528 
 C                    -2.12268  -0.38073  -0.23263 
 C                    -3.1103   -1.03873   0.0013 
 H                    -3.9798   -1.61205   0.1985 
 C                    -0.84881   1.74772   0.16541 
 H                     0.17162   2.12136   0.10699 
 H                    -1.5047    2.4515   -0.35052 
 H                    -1.14494   1.70988   1.21086 
 
 Add virtual bond connecting atoms H9         and O8         Dist= 2.30D+00.
 Add virtual bond connecting atoms H9         and C1         Dist= 2.48D+00.
 The following ModRedundant input section has been read:
 D    *          1       8    *    R                                           
 D       2       1       8       7 S  36 10.000                                
 

 GradGradGradGradGradGradGradGradGradGradGradGradGradGradGradGradGradGrad
 Berny optimization.
 Initialization pass.
                           ----------------------------
                           !    Initial Parameters    !
                           ! (Angstroms and Degrees)  !
 --------------------------                            --------------------------
 ! Name  Definition              Value          Derivative Info.                !
 --------------------------------------------------------------------------------
 ! R1    R(1,2)                  1.0885         calculate D2E/DX2 analytically  !
 ! R2    R(1,9)                  1.3134         calculate D2E/DX2 analytically  !
 ! R3    R(1,10)                 1.4221         calculate D2E/DX2 analytically  !
 ! R4    R(1,13)                 1.5134         calculate D2E/DX2 analytically  !
 ! R5    R(3,4)                  1.0906         calculate D2E/DX2 analytically  !
 ! R6    R(3,5)                  1.0876         calculate D2E/DX2 analytically  !
 ! R7    R(3,6)                  1.0881         calculate D2E/DX2 analytically  !
 ! R8    R(3,7)                  1.4238         calculate D2E/DX2 analytically  !
 ! R9    R(7,8)                  1.3952         calculate D2E/DX2 analytically  !
 ! R10   R(8,9)                  1.2154         calculate D2E/DX2 analytically  !
 ! R11   R(10,11)                1.2096         calculate D2E/DX2 analytically  !
 ! R12   R(11,12)                1.06           calculate D2E/DX2 analytically  !
 ! R13   R(13,14)                1.0883         calculate D2E/DX2 analytically  !
 ! R14   R(13,15)                1.0916         calculate D2E/DX2 analytically  !
 ! R15   R(13,16)                1.0872         calculate D2E/DX2 analytically  !
 ! A1    A(2,1,9)              101.0229         calculate D2E/DX2 analytically  !
 ! A2    A(2,1,10)             113.1487         calculate D2E/DX2 analytically  !
 ! A3    A(2,1,13)             114.4            calculate D2E/DX2 analytically  !
 ! A4    A(9,1,10)             105.1586         calculate D2E/DX2 analytically  !
 ! A5    A(9,1,13)             102.7955         calculate D2E/DX2 analytically  !
 ! A6    A(10,1,13)            117.6671         calculate D2E/DX2 analytically  !
 ! A7    A(4,3,5)              110.079          calculate D2E/DX2 analytically  !
 ! A8    A(4,3,6)              109.8739         calculate D2E/DX2 analytically  !
 ! A9    A(4,3,7)              110.6694         calculate D2E/DX2 analytically  !
 ! A10   A(5,3,6)              110.4501         calculate D2E/DX2 analytically  !
 ! A11   A(5,3,7)              105.3111         calculate D2E/DX2 analytically  !
 ! A12   A(6,3,7)              110.3789         calculate D2E/DX2 analytically  !
 ! A13   A(3,7,8)              108.1921         calculate D2E/DX2 analytically  !
 ! A14   A(7,8,9)              105.2419         calculate D2E/DX2 analytically  !
 ! A15   A(1,13,14)            110.2298         calculate D2E/DX2 analytically  !
 ! A16   A(1,13,15)            110.6219         calculate D2E/DX2 analytically  !
 ! A17   A(1,13,16)            110.6043         calculate D2E/DX2 analytically  !
 ! A18   A(14,13,15)           108.4612         calculate D2E/DX2 analytically  !
 ! A19   A(14,13,16)           108.5994         calculate D2E/DX2 analytically  !
 ! A20   A(15,13,16)           108.2549         calculate D2E/DX2 analytically  !
 ! A21   L(1,9,8,4,-1)         178.4999         calculate D2E/DX2 analytically  !
 ! A22   L(1,10,11,16,-1)      179.1491         calculate D2E/DX2 analytically  !
 ! A23   L(10,11,12,6,-1)      180.3218         calculate D2E/DX2 analytically  !
 ! A24   L(1,9,8,4,-2)         172.7553         calculate D2E/DX2 analytically  !
 ! A25   L(1,10,11,16,-2)      182.426          calculate D2E/DX2 analytically  !
 ! A26   L(10,11,12,6,-2)      180.6502         calculate D2E/DX2 analytically  !
 ! D1    D(2,1,8,7)             64.4102         Scan                            !
 ! D2    D(2,1,13,14)          -56.3499         calculate D2E/DX2 analytically  !
 ! D3    D(2,1,13,15)           63.6013         calculate D2E/DX2 analytically  !
 ! D4    D(2,1,13,16)         -176.4621         calculate D2E/DX2 analytically  !
 ! D5    D(9,1,13,14)           52.2116         calculate D2E/DX2 analytically  !
 ! D6    D(9,1,13,15)          172.1627         calculate D2E/DX2 analytically  !
 ! D7    D(9,1,13,16)          -67.9007         calculate D2E/DX2 analytically  !
 ! D8    D(10,1,13,14)         167.1624         calculate D2E/DX2 analytically  !
 ! D9    D(10,1,13,15)         -72.8864         calculate D2E/DX2 analytically  !
 ! D10   D(10,1,13,16)          47.0502         calculate D2E/DX2 analytically  !
 ! D11   D(4,3,7,8)             64.8221         calculate D2E/DX2 analytically  !
 ! D12   D(5,3,7,8)           -176.2491         calculate D2E/DX2 analytically  !
 ! D13   D(6,3,7,8)            -57.0309         calculate D2E/DX2 analytically  !
 ! D14   D(3,7,8,9)            -93.5195         calculate D2E/DX2 analytically  !
 --------------------------------------------------------------------------------
 Trust Radius=3.00D-01 FncErr=1.00D-07 GrdErr=1.00D-07 EigMax=2.50D+02 EigMin=1.00D-04
 Number of optimizations in scan=  37
 Number of steps in this run=    100 maximum allowed number of steps=    100.
 Search for a saddle point of order  1.
 GradGradGradGradGradGradGradGradGradGradGradGradGradGradGradGradGradGrad

                          Input orientation:                          
 ---------------------------------------------------------------------
 Center     Atomic      Atomic             Coordinates (Angstroms)
 Number     Number       Type             X           Y           Z
 ---------------------------------------------------------------------
      1          6           0       -0.940110    0.374412   -0.464040
      2          1           0       -0.598956    0.329506   -1.496679
      3          6           0        2.745158   -0.367225   -0.633107
      4          1           0        2.125307   -0.322916   -1.529288
      5          1           0        3.594776    0.304395   -0.733157
      6          1           0        3.084633   -1.387746   -0.468248
      7          8           0        2.024277    0.104714    0.500406
      8          8           0        0.962824   -0.769417    0.736431
      9          1           0        0.015726   -0.288969    0.145283
     10          6           0       -2.122683   -0.380732   -0.232629
     11          6           0       -3.110297   -1.038728    0.001296
     12          1           0       -3.979799   -1.612054    0.198496
     13          6           0       -0.848814    1.747718    0.165407
     14          1           0        0.171620    2.121358    0.106992
     15          1           0       -1.504699    2.451499   -0.350519
     16          1           0       -1.144936    1.709883    1.210860
 ---------------------------------------------------------------------
                    Distance matrix (angstroms):
                    1          2          3          4          5
     1  C    0.000000
     2  H    1.088460   0.000000
     3  C    3.762952   3.523392   0.000000
     4  H    3.319307   2.801487   1.090559   0.000000
     5  H    4.543404   4.262744   1.087628   1.785128   0.000000
     6  H    4.393606   4.192309   1.088065   1.783248   1.787110
     7  O    3.128975   3.304577   1.423814   2.076712   2.006992
     8  O    2.524011   2.938294   2.283442   2.585384   3.199989
     9  H    1.313382   1.859135   2.839333   2.693636   3.732738
    10  C    1.422066   2.103332   4.884306   4.441856   5.780075
    11  C    2.631200   3.228440   5.927878   5.501511   6.877602
    12  H    3.691167   4.251279   6.889573   6.474522   7.868605
    13  C    1.513442   2.199155   4.245850   4.000614   4.757740
    14  H    2.147985   2.525130   3.655665   3.531116   3.965501
    15  H    2.155444   2.576220   5.107479   4.718455   5.546270
    16  H    2.151912   3.087767   4.779898   4.726010   5.312200
                    6          7          8          9         10
     6  H    0.000000
     7  O    2.071251   0.000000
     8  O    2.517073   1.395169   0.000000
     9  H    3.316914   2.077348   1.215434   0.000000
    10  C    5.309024   4.239136   3.257377   2.173484   0.000000
    11  C    6.222495   5.283978   4.147682   3.217902   1.209571
    12  H    7.099370   6.251989   5.042711   4.209229   2.269560
    13  C    5.069976   3.326611   3.153422   2.212674   2.512265
    14  H    4.596777   2.766580   3.062479   2.415667   3.411689
    15  H    5.984616   4.322632   4.200527   3.172960   2.901264
    16  H    5.504904   3.622875   3.288566   2.545192   2.722190
                   11         12         13         14         15
    11  C    0.000000
    12  H    1.060011   0.000000
    13  C    3.592425   4.592628   0.000000
    14  H    4.557224   5.583997   1.088258   0.000000
    15  H    3.857901   4.789572   1.091638   1.768716   0.000000
    16  H    3.588949   4.482923   1.087240   1.766679   1.765596
                   16
    16  H    0.000000
 Symmetry turned off by external request.
 Stoichiometry    C5H9O2(2)
 Framework group  C1[X(C5H9O2)]
 Deg. of freedom    42
 Full point group                 C1      NOp   1
 Rotational constants (GHZ):           4.5737394           1.1609717           1.0310062
 Standard basis: CC-pVTZ (5D, 7F)
   336 basis functions,   517 primitive gaussians,   380 cartesian basis functions
    28 alpha electrons       27 beta electrons
       nuclear repulsion energy       283.4197897868 Hartrees.
 NAtoms=   16 NActive=   16 NUniq=   16 SFac= 1.00D+00 NAtFMM=   60 NAOKFM=F Big=F
 Integral buffers will be    131072 words long.
 Raffenetti 2 integral format.
 Two-electron integral symmetry is turned off.
 Nuclear repulsion after empirical dispersion term =      283.4116151189 Hartrees.
 One-electron integrals computed using PRISM.
 NBasis=   336 RedAO= T EigKep=  4.22D-05  NBF=   336
 NBsUse=   336 1.00D-06 EigRej= -1.00D+00 NBFU=   336
 ExpMin= 1.03D-01 ExpMax= 1.53D+04 ExpMxC= 5.22D+02 IAcc=3 IRadAn=         5 AccDes= 0.00D+00
 Harris functional with IExCor=  419 and IRadAn=       5 diagonalized for initial guess.
 HarFok:  IExCor=  419 AccDes= 0.00D+00 IRadAn=         5 IDoV= 1 UseB2=F ITyADJ=14
 ICtDFT=  3500011 ScaDFX=  1.000000  1.000000  1.000000  1.000000
 FoFCou: FMM=F IPFlag=           0 FMFlag=      100000 FMFlg1=           0
         NFxFlg=           0 DoJE=T BraDBF=F KetDBF=T FulRan=T
         wScrn=  0.000000 ICntrl=       500 IOpCl=  0 I1Cent=   200000004 NGrid=           0
         NMat0=    1 NMatS0=      1 NMatT0=    0 NMatD0=    1 NMtDS0=    0 NMtDT0=    0
 Symmetry not used in FoFCou.
 Initial guess <Sx>= 0.0000 <Sy>= 0.0000 <Sz>= 0.5000 <S**2>= 0.7500 S= 0.5000
 Requested convergence on RMS density matrix=1.00D-08 within 500 cycles.
 Requested convergence on MAX density matrix=1.00D-06.
 Requested convergence on             energy=1.00D-06.
 No special actions if energy rises.
 Integral accuracy reduced to 1.0D-05 until final iterations.
 Initial convergence to 1.0D-05 achieved.  Increase integral accuracy.
 SCF Done:  E(UB2PLYPD3) =  -345.576074705     A.U. after   21 cycles
            NFock= 21  Conv=0.43D-08     -V/T= 2.0044
 <Sx>= 0.0000 <Sy>= 0.0000 <Sz>= 0.5000 <S**2>= 0.7877 S= 0.5187
 <L.S>=  0.00000000000    
 Annihilation of the first spin contaminant:
 S**2 before annihilation     0.7877,   after     0.7509
 DoSCS=T DFT=T ScalE2(SS,OS)=  0.270000  0.270000
 ExpMin= 1.03D-01 ExpMax= 1.53D+04 ExpMxC= 5.22D+02 IAcc=3 IRadAn=         5 AccDes= 0.00D+00
 HarFok:  IExCor=  205 AccDes= 0.00D+00 IRadAn=         5 IDoV=-2 UseB2=F ITyADJ=14
 ICtDFT= 12500011 ScaDFX=  1.000000  1.000000  1.000000  1.000000
 Range of M.O.s used for correlation:     8   336
 NBasis=   336 NAE=    28 NBE=    27 NFC=     7 NFV=     0
 NROrb=    329 NOA=    21 NOB=    20 NVA=   308 NVB=   309

 **** Warning!!: The largest alpha MO coefficient is  0.31078454D+02


 **** Warning!!: The largest beta MO coefficient is  0.32269567D+02

 DoSCS=T DFT=T ScalE2(SS,OS)=  0.270000  0.270000
 Disk-based method using ON**2 memory for 21 occupieds at a time.
 Permanent disk used for amplitudes=   106523802 words.
 Estimated scratch disk usage=  1940587640 words.
 Actual    scratch disk usage=  1876460664 words.
 JobTyp=2 Pass  1:  I=   8 to  28 NPSUse= 40 ParTrn=T ParDer=T DoDerP=T.
 (rs|ai) integrals will be sorted in core.
 Actual    scratch disk usage=  1876460664 words.
 JobTyp=3 Pass  1:  I=   8 to  27 NPSUse= 40 ParTrn=T ParDer=T DoDerP=T.
 (rs|ai) integrals will be sorted in core.
 Spin components of T(2) and E(2):
     alpha-alpha T2 =       0.7882791971D-01 E2=     -0.5357977773D-01
     alpha-beta  T2 =       0.4701597089D+00 E2=     -0.3270581083D+00
     beta-beta   T2 =       0.8819099432D-01 E2=     -0.5331927426D-01
 (S**2,0)=  0.78766D+00           (S**2,1)=  0.74674D+00
 Scaling Projection term by:   0.270000
 E(PUHF)=      -0.34558432637D+03        E(PMP2)=      -0.34601106717D+03
 E2(B2PLYPD3) =    -0.4339571603D+00 E(B2PLYPD3) =    -0.34601003186545D+03
 G2DrvN: will do    17 centers at a time, making    1 passes.
 Calling FoFCou, ICntrl=  3107 FMM=F I1Cent=   0 AccDes= 0.00D+00.
 End of G2Drv F.D. properties file   721 does not exist.
 End of G2Drv F.D. properties file   722 does not exist.
 End of G2Drv F.D. properties file   788 does not exist.
          IDoAtm=1111111111111111
          Differentiating once with respect to electric field.
                with respect to dipole field.
          Differentiating once with respect to nuclear coordinates.
 Keep R1 and R2 ints in memory in canonical form, NReq=3251641620.
          There are    51 degrees of freedom in the 1st order CPHF.  IDoFFX=6 NUNeed=    51.
     48 vectors produced by pass  0 Test12= 3.33D-14 1.96D-09 XBig12= 1.50D+02 8.89D+00.
 AX will form    48 AO Fock derivatives at one time.
     48 vectors produced by pass  1 Test12= 3.33D-14 1.96D-09 XBig12= 1.61D+01 7.12D-01.
     48 vectors produced by pass  2 Test12= 3.33D-14 1.96D-09 XBig12= 1.16D+00 2.33D-01.
     48 vectors produced by pass  3 Test12= 3.33D-14 1.96D-09 XBig12= 1.64D-02 2.08D-02.
     48 vectors produced by pass  4 Test12= 3.33D-14 1.96D-09 XBig12= 1.91D-04 1.39D-03.
     48 vectors produced by pass  5 Test12= 3.33D-14 1.96D-09 XBig12= 2.68D-06 1.69D-04.
     48 vectors produced by pass  6 Test12= 3.33D-14 1.96D-09 XBig12= 2.20D-08 1.18D-05.
     24 vectors produced by pass  7 Test12= 3.33D-14 1.96D-09 XBig12= 1.71D-10 1.20D-06.
      5 vectors produced by pass  8 Test12= 3.33D-14 1.96D-09 XBig12= 1.19D-12 7.89D-08.
      2 vectors produced by pass  9 Test12= 3.33D-14 1.96D-09 XBig12= 9.94D-15 8.27D-09.
 InvSVY:  IOpt=1 It=  1 EMax= 3.46D-15
 Solved reduced A of dimension   367 with    51 vectors.
 End of Minotr F.D. properties file   721 does not exist.
 End of Minotr F.D. properties file   722 does not exist.
 End of Minotr F.D. properties file   788 does not exist.
 MDV= 10737418240.
 DoSCS=T DFT=T ScalE2(SS,OS)=  0.270000  0.270000
 Form MO integral derivatives with frozen-active canonical formalism.
 Discarding MO integrals.
 Reordered first order wavefunction length =    428928697
 In DefCFB: NBatch=  1 ICI= 28 ICA=309 LFMax= 78
            Large arrays: LIAPS=  8665386240 LIARS=  1611002400 words.
 In DefCFB: NBatch=  1 ICI= 28 ICA=309 LFMax= 78
            Large arrays: LIAPS=  8665386240 LIARS=  1611002400 words.
 Semi-Direct transformation.
 ModeAB=           4 MOrb=            28 LenV=   10734101039
 LASXX=    503301435 LTotXX=   503301435 LenRXX=  1014543915
 LTotAB=   511242480 MaxLAS=   603796032 LenRXY=           0
 NonZer=  1517845350 LenScr=  2285697024 LnRSAI=   603796032
 LnScr1=   909246464 LExtra=           0 Total=   4813283435
 MaxDsk=          -1 SrtSym=           T ITran=            4
 JobTyp=1 Pass  1:  I=   1 to  28.
 (rs|ai) integrals will be sorted in core.
 ModeAB=           4 MOrb=            27 LenV=   10734101039
 LASXX=    486308502 LTotXX=   486308502 LenRXX=   901306008
 LTotAB=   414997506 MaxLAS=   582231888 LenRXY=           0
 NonZer=  1387614510 LenScr=  2089584640 LnRSAI=   582231888
 LnScr1=   876773376 LExtra=           0 Total=   4449895912
 MaxDsk=          -1 SrtSym=           T ITran=            4
 JobTyp=2 Pass  1:  I=   1 to  27.
 (rs|ai) integrals will be sorted in core.
 DoSCS=T DFT=T ScalE2(SS,OS)=  0.270000  0.270000
 Spin components of T(2) and E(2):
     alpha-alpha T2 =       0.7882791971D-01 E2=     -0.5357977773D-01
     alpha-beta  T2 =       0.4701597089D+00 E2=     -0.3270581083D+00
     beta-beta   T2 =       0.8819099432D-01 E2=     -0.5331927426D-01
 E2(B2PLYPD3) =    -0.4339571603D+00 E(B2PLYPD3) =    -0.34601003186545D+03
 (S**2,0)=  0.78766D+00           (S**2,1)=  0.74674D+00
 Scaling Projection term by:   0.270000
 E(PUHF)=      -0.34558432637D+03        E(PMP2)=      -0.34601106717D+03
          IDoAtm=1111111111111111
          Differentiating once with respect to electric field.
                with respect to dipole field.
          Differentiating once with respect to nuclear coordinates.
 Keep R1 and R2 ints in memory in canonical form, NReq=3251777228.
          There are     1 degrees of freedom in the 1st order CPHF.  IDoFFX=0 NUNeed=     1.
 LinEq1:  Iter=  0 NonCon=     1 RMS=9.63D-04 Max=5.46D-02 NDo=     1
 AX will form     1 AO Fock derivatives at one time.
 LinEq1:  Iter=  1 NonCon=     1 RMS=3.48D-04 Max=8.81D-03 NDo=     1
 LinEq1:  Iter=  2 NonCon=     1 RMS=2.38D-04 Max=6.65D-03 NDo=     1
 LinEq1:  Iter=  3 NonCon=     1 RMS=1.64D-04 Max=6.69D-03 NDo=     1
 LinEq1:  Iter=  4 NonCon=     1 RMS=9.12D-05 Max=3.21D-03 NDo=     1
 LinEq1:  Iter=  5 NonCon=     1 RMS=6.38D-05 Max=2.81D-03 NDo=     1
 LinEq1:  Iter=  6 NonCon=     1 RMS=2.88D-05 Max=6.29D-04 NDo=     1
 LinEq1:  Iter=  7 NonCon=     1 RMS=1.06D-05 Max=2.56D-04 NDo=     1
 LinEq1:  Iter=  8 NonCon=     1 RMS=8.66D-06 Max=2.80D-04 NDo=     1
 LinEq1:  Iter=  9 NonCon=     1 RMS=4.39D-06 Max=9.00D-05 NDo=     1
 LinEq1:  Iter= 10 NonCon=     1 RMS=2.11D-06 Max=3.87D-05 NDo=     1
 LinEq1:  Iter= 11 NonCon=     1 RMS=9.24D-07 Max=2.20D-05 NDo=     1
 LinEq1:  Iter= 12 NonCon=     1 RMS=3.50D-07 Max=5.61D-06 NDo=     1
 LinEq1:  Iter= 13 NonCon=     1 RMS=1.33D-07 Max=2.52D-06 NDo=     1
 LinEq1:  Iter= 14 NonCon=     1 RMS=5.93D-08 Max=1.79D-06 NDo=     1
 LinEq1:  Iter= 15 NonCon=     1 RMS=2.88D-08 Max=1.02D-06 NDo=     1
 LinEq1:  Iter= 16 NonCon=     1 RMS=1.03D-08 Max=5.02D-07 NDo=     1
 LinEq1:  Iter= 17 NonCon=     1 RMS=3.55D-09 Max=1.99D-07 NDo=     1
 LinEq1:  Iter= 18 NonCon=     1 RMS=1.23D-09 Max=6.09D-08 NDo=     1
 LinEq1:  Iter= 19 NonCon=     1 RMS=4.85D-10 Max=1.78D-08 NDo=     1
 LinEq1:  Iter= 20 NonCon=     1 RMS=1.75D-10 Max=4.97D-09 NDo=     1
 LinEq1:  Iter= 21 NonCon=     1 RMS=7.65D-11 Max=1.62D-09 NDo=     1
 LinEq1:  Iter= 22 NonCon=     1 RMS=3.37D-11 Max=1.40D-09 NDo=     1
 LinEq1:  Iter= 23 NonCon=     0 RMS=1.10D-11 Max=3.16D-10 NDo=     1
 Linear equations converged to 1.000D-10 1.000D-09 after    23 iterations.
 End of Minotr F.D. properties file   721 does not exist.
 End of Minotr F.D. properties file   722 does not exist.
 End of Minotr F.D. properties file   788 does not exist.
 Symmetrizing basis deriv contribution to polar:
 IMax=3 JMax=2 DiffMx= 0.00D+00
 G2DrvN: will do    17 centers at a time, making    1 passes.
 Calling FoFCou, ICntrl=  3107 FMM=F I1Cent=   0 AccDes= 0.00D+00.
 End of G2Drv F.D. properties file   721 does not exist.
 End of G2Drv F.D. properties file   722 does not exist.
 End of G2Drv F.D. properties file   788 does not exist.
 DoSCS=T DFT=T ScalE2(SS,OS)=  0.270000  0.270000
 R2 and R3 integrals will be kept in memory, NReq=  5268037470.
 DD1Dir will call FoFMem   1 times, MxPair=      2242
 NAB=   756 NAA=   378 NBB=   351.
 Discarding MO integrals.

 **********************************************************************

            Population analysis using the SCF Density.

 **********************************************************************

 Alpha  occ. eigenvalues --  -19.79655 -19.79398 -10.66608 -10.66165 -10.62931
 Alpha  occ. eigenvalues --  -10.62427 -10.61819  -1.28684  -1.02354  -0.93511
 Alpha  occ. eigenvalues --   -0.85580  -0.78392  -0.75351  -0.63419  -0.61000
 Alpha  occ. eigenvalues --   -0.56988  -0.55755  -0.55334  -0.52421  -0.48819
 Alpha  occ. eigenvalues --   -0.47843  -0.44882  -0.44715  -0.40448  -0.37155
 Alpha  occ. eigenvalues --   -0.35301  -0.33322  -0.28976
 Alpha virt. eigenvalues --    0.06684   0.09246   0.10104   0.10293   0.11382
 Alpha virt. eigenvalues --    0.12297   0.12831   0.14874   0.15814   0.16956
 Alpha virt. eigenvalues --    0.17672   0.20915   0.22262   0.23928   0.27304
 Alpha virt. eigenvalues --    0.28978   0.31033   0.31566   0.32493   0.33406
 Alpha virt. eigenvalues --    0.34484   0.35570   0.38140   0.42014   0.43849
 Alpha virt. eigenvalues --    0.44929   0.46784   0.48325   0.49338   0.49597
 Alpha virt. eigenvalues --    0.50941   0.51846   0.52075   0.53143   0.53827
 Alpha virt. eigenvalues --    0.53979   0.54779   0.56340   0.57823   0.60287
 Alpha virt. eigenvalues --    0.62335   0.64434   0.65558   0.67408   0.69028
 Alpha virt. eigenvalues --    0.70098   0.70388   0.73785   0.74650   0.78605
 Alpha virt. eigenvalues --    0.79682   0.83146   0.84018   0.86376   0.89595
 Alpha virt. eigenvalues --    0.90618   0.92241   0.94172   0.95262   0.96198
 Alpha virt. eigenvalues --    0.98382   1.00131   1.01203   1.02711   1.03399
 Alpha virt. eigenvalues --    1.04671   1.06424   1.08609   1.09310   1.10914
 Alpha virt. eigenvalues --    1.13576   1.14757   1.16321   1.16852   1.19099
 Alpha virt. eigenvalues --    1.21500   1.22610   1.23947   1.25962   1.26729
 Alpha virt. eigenvalues --    1.28554   1.32096   1.33391   1.35915   1.37787
 Alpha virt. eigenvalues --    1.38022   1.38608   1.39466   1.41363   1.42372
 Alpha virt. eigenvalues --    1.43416   1.48081   1.48324   1.50576   1.52225
 Alpha virt. eigenvalues --    1.55373   1.56845   1.61982   1.64105   1.64462
 Alpha virt. eigenvalues --    1.65707   1.69645   1.74698   1.78684   1.80755
 Alpha virt. eigenvalues --    1.85600   1.91975   2.00336   2.03685   2.09648
 Alpha virt. eigenvalues --    2.13601   2.17336   2.20710   2.21751   2.25122
 Alpha virt. eigenvalues --    2.27778   2.34889   2.37808   2.39519   2.41930
 Alpha virt. eigenvalues --    2.46548   2.47535   2.49253   2.50636   2.53174
 Alpha virt. eigenvalues --    2.54760   2.57198   2.57737   2.61103   2.62138
 Alpha virt. eigenvalues --    2.63553   2.64801   2.68447   2.70768   2.73969
 Alpha virt. eigenvalues --    2.76277   2.77495   2.82118   2.83806   2.85898
 Alpha virt. eigenvalues --    2.88194   2.89498   2.90307   2.91352   2.91947
 Alpha virt. eigenvalues --    2.93543   2.95461   2.95923   3.00233   3.00953
 Alpha virt. eigenvalues --    3.01851   3.03190   3.04378   3.04457   3.05119
 Alpha virt. eigenvalues --    3.07069   3.08242   3.09731   3.11586   3.12339
 Alpha virt. eigenvalues --    3.12636   3.14823   3.14994   3.15860   3.17929
 Alpha virt. eigenvalues --    3.19805   3.21271   3.22563   3.23874   3.25082
 Alpha virt. eigenvalues --    3.27982   3.29212   3.32855   3.34369   3.36085
 Alpha virt. eigenvalues --    3.40745   3.41449   3.42593   3.42935   3.46806
 Alpha virt. eigenvalues --    3.49284   3.50423   3.51002   3.52636   3.55625
 Alpha virt. eigenvalues --    3.57704   3.59108   3.60928   3.61636   3.63046
 Alpha virt. eigenvalues --    3.65716   3.67531   3.69614   3.72236   3.74908
 Alpha virt. eigenvalues --    3.80206   3.83692   3.85682   3.86008   3.88132
 Alpha virt. eigenvalues --    3.88916   3.91354   3.94282   3.94564   3.95641
 Alpha virt. eigenvalues --    3.97985   3.99012   4.00833   4.02329   4.04900
 Alpha virt. eigenvalues --    4.07174   4.08630   4.09451   4.11734   4.12841
 Alpha virt. eigenvalues --    4.16884   4.17262   4.18540   4.18959   4.23290
 Alpha virt. eigenvalues --    4.24817   4.25878   4.27467   4.28760   4.30585
 Alpha virt. eigenvalues --    4.33525   4.35411   4.37796   4.39193   4.42969
 Alpha virt. eigenvalues --    4.44622   4.45956   4.47540   4.51692   4.58363
 Alpha virt. eigenvalues --    4.60960   4.62077   4.66143   4.70684   4.73872
 Alpha virt. eigenvalues --    4.79319   4.81076   4.83166   4.87783   4.93714
 Alpha virt. eigenvalues --    4.97995   4.99769   5.01490   5.01997   5.03799
 Alpha virt. eigenvalues --    5.05814   5.09494   5.14610   5.23184   5.24514
 Alpha virt. eigenvalues --    5.25390   5.29469   5.31553   5.32796   5.34502
 Alpha virt. eigenvalues --    5.34783   5.36608   5.38034   5.39976   5.41314
 Alpha virt. eigenvalues --    5.46130   5.47995   5.49872   5.52055   5.59084
 Alpha virt. eigenvalues --    5.64004   5.66305   5.75511   5.80187   5.85362
 Alpha virt. eigenvalues --    5.92445   5.94817   5.97347   5.98599   6.02336
 Alpha virt. eigenvalues --    6.05010   6.06815   6.07882   6.16332   6.21318
 Alpha virt. eigenvalues --    6.26296   6.34601   6.38657   6.39962   6.65721
 Alpha virt. eigenvalues --    6.73094   6.73334   6.81628   6.94732   7.03919
 Alpha virt. eigenvalues --    7.06084   7.15287   7.43049   7.46953   7.58486
 Alpha virt. eigenvalues --    7.70575   8.56172   9.82165  10.61575  13.01471
 Alpha virt. eigenvalues --   13.40934  13.79476  16.81994
  Beta  occ. eigenvalues --  -19.79408 -19.77622 -10.66622 -10.65126 -10.63268
  Beta  occ. eigenvalues --  -10.61943 -10.61871  -1.26541  -0.99160  -0.92134
  Beta  occ. eigenvalues --   -0.84712  -0.77893  -0.74027  -0.61845  -0.58464
  Beta  occ. eigenvalues --   -0.56247  -0.54983  -0.54530  -0.50717  -0.48086
  Beta  occ. eigenvalues --   -0.45122  -0.44591  -0.43632  -0.37535  -0.35777
  Beta  occ. eigenvalues --   -0.33084  -0.31087
  Beta virt. eigenvalues --   -0.06547   0.06813   0.09496   0.10416   0.10777
  Beta virt. eigenvalues --    0.11578   0.12873   0.13536   0.14985   0.16014
  Beta virt. eigenvalues --    0.17058   0.17800   0.21521   0.22646   0.24335
  Beta virt. eigenvalues --    0.27646   0.29271   0.31224   0.31952   0.32713
  Beta virt. eigenvalues --    0.34248   0.34739   0.35959   0.39039   0.42917
  Beta virt. eigenvalues --    0.44220   0.45152   0.47146   0.48860   0.49810
  Beta virt. eigenvalues --    0.50357   0.50968   0.52022   0.52297   0.53413
  Beta virt. eigenvalues --    0.54140   0.54568   0.55463   0.56441   0.58718
  Beta virt. eigenvalues --    0.60435   0.62646   0.64800   0.65894   0.67826
  Beta virt. eigenvalues --    0.69343   0.70668   0.70904   0.74341   0.75218
  Beta virt. eigenvalues --    0.78880   0.80240   0.83396   0.84492   0.86825
  Beta virt. eigenvalues --    0.89935   0.90770   0.92585   0.94421   0.95553
  Beta virt. eigenvalues --    0.96334   0.98748   1.00366   1.01451   1.02854
  Beta virt. eigenvalues --    1.03550   1.04809   1.06700   1.08727   1.09547
  Beta virt. eigenvalues --    1.11222   1.13719   1.15158   1.16544   1.17012
  Beta virt. eigenvalues --    1.19624   1.21598   1.23382   1.24183   1.26197
  Beta virt. eigenvalues --    1.27014   1.28837   1.32435   1.33589   1.36256
  Beta virt. eigenvalues --    1.38063   1.38101   1.38678   1.39727   1.41709
  Beta virt. eigenvalues --    1.42611   1.43674   1.48449   1.48897   1.50972
  Beta virt. eigenvalues --    1.52791   1.55779   1.57025   1.62471   1.64511
  Beta virt. eigenvalues --    1.64765   1.66113   1.70454   1.75198   1.78997
  Beta virt. eigenvalues --    1.81720   1.87611   1.92845   2.00951   2.04679
  Beta virt. eigenvalues --    2.10136   2.14140   2.17912   2.21762   2.22705
  Beta virt. eigenvalues --    2.25569   2.28408   2.35147   2.37926   2.39897
  Beta virt. eigenvalues --    2.42349   2.47739   2.47922   2.49375   2.50693
  Beta virt. eigenvalues --    2.53961   2.54941   2.57780   2.58028   2.61696
  Beta virt. eigenvalues --    2.62449   2.63804   2.65174   2.68883   2.71004
  Beta virt. eigenvalues --    2.74272   2.76896   2.78128   2.82546   2.84016
  Beta virt. eigenvalues --    2.86086   2.88586   2.89970   2.90438   2.91659
  Beta virt. eigenvalues --    2.92186   2.93818   2.96036   2.96514   3.00505
  Beta virt. eigenvalues --    3.01110   3.02109   3.03572   3.04879   3.04953
  Beta virt. eigenvalues --    3.05871   3.07546   3.08645   3.09804   3.11738
  Beta virt. eigenvalues --    3.12567   3.12741   3.15071   3.15107   3.16050
  Beta virt. eigenvalues --    3.18112   3.19987   3.21303   3.22803   3.24048
  Beta virt. eigenvalues --    3.25505   3.28068   3.29664   3.33533   3.34785
  Beta virt. eigenvalues --    3.36568   3.40981   3.41538   3.42734   3.43416
  Beta virt. eigenvalues --    3.47794   3.49637   3.50672   3.51175   3.52778
  Beta virt. eigenvalues --    3.55849   3.57862   3.59415   3.61024   3.61970
  Beta virt. eigenvalues --    3.63215   3.66221   3.68211   3.70279   3.72454
  Beta virt. eigenvalues --    3.75032   3.80644   3.84057   3.86226   3.86381
  Beta virt. eigenvalues --    3.88366   3.89001   3.91489   3.94382   3.94782
  Beta virt. eigenvalues --    3.95679   3.98148   3.99475   4.01137   4.02572
  Beta virt. eigenvalues --    4.04953   4.07394   4.08614   4.09540   4.11931
  Beta virt. eigenvalues --    4.12824   4.16978   4.17386   4.18596   4.19262
  Beta virt. eigenvalues --    4.23371   4.25070   4.26164   4.27581   4.29003
  Beta virt. eigenvalues --    4.30697   4.33773   4.35467   4.38132   4.39461
  Beta virt. eigenvalues --    4.43224   4.45465   4.46218   4.47766   4.52213
  Beta virt. eigenvalues --    4.58681   4.61476   4.62796   4.67024   4.71153
  Beta virt. eigenvalues --    4.74412   4.79943   4.81414   4.83394   4.88481
  Beta virt. eigenvalues --    4.93872   4.98221   4.99982   5.01716   5.02246
  Beta virt. eigenvalues --    5.04158   5.06098   5.09873   5.15103   5.24149
  Beta virt. eigenvalues --    5.25169   5.25916   5.29825   5.31702   5.33063
  Beta virt. eigenvalues --    5.34925   5.35031   5.37090   5.38406   5.40323
  Beta virt. eigenvalues --    5.41921   5.46446   5.48177   5.50015   5.52292
  Beta virt. eigenvalues --    5.59521   5.64446   5.67123   5.76130   5.80451
  Beta virt. eigenvalues --    5.86585   5.92503   5.95495   5.97850   5.99548
  Beta virt. eigenvalues --    6.02441   6.05487   6.07479   6.08391   6.16535
  Beta virt. eigenvalues --    6.23172   6.27036   6.34745   6.39105   6.41601
  Beta virt. eigenvalues --    6.66671   6.75512   6.76814   6.82952   6.96860
  Beta virt. eigenvalues --    7.06070   7.06970   7.17581   7.43237   7.49326
  Beta virt. eigenvalues --    7.60185   7.71400   8.56359   9.83303  10.62610
  Beta virt. eigenvalues --   13.02197  13.40936  13.79566  16.82166
          Condensed to atoms (all electrons):
               1          2          3          4          5          6
     1  C    5.082783   0.400756  -0.003528   0.000452   0.000338  -0.000226
     2  H    0.400756   0.567157   0.000551  -0.001476  -0.000103   0.000043
     3  C   -0.003528   0.000551   4.604657   0.392905   0.396854   0.411501
     4  H    0.000452  -0.001476   0.392905   0.676917  -0.033739  -0.057073
     5  H    0.000338  -0.000103   0.396854  -0.033739   0.586302  -0.028409
     6  H   -0.000226   0.000043   0.411501  -0.057073  -0.028409   0.611216
     7  O    0.005056   0.000688   0.298878  -0.049148  -0.025394  -0.037270
     8  O   -0.072110  -0.001839  -0.045951  -0.001396   0.006499   0.003990
     9  H    0.250497  -0.013425   0.002139   0.004741  -0.000463   0.000054
    10  C    0.396706  -0.037276  -0.000111  -0.001323  -0.000043   0.000164
    11  C   -0.118354  -0.000683  -0.000030  -0.000113  -0.000002   0.000008
    12  H    0.000610  -0.000034  -0.000000  -0.000001  -0.000000   0.000000
    13  C    0.342691  -0.037850   0.000257   0.000418  -0.000009  -0.000082
    14  H   -0.038959  -0.003066  -0.000896  -0.000856  -0.000025   0.000315
    15  H   -0.035261  -0.004251  -0.000031   0.000020  -0.000008  -0.000001
    16  H   -0.034442   0.006494   0.000043  -0.000007  -0.000009  -0.000008
               7          8          9         10         11         12
     1  C    0.005056  -0.072110   0.250497   0.396706  -0.118354   0.000610
     2  H    0.000688  -0.001839  -0.013425  -0.037276  -0.000683  -0.000034
     3  C    0.298878  -0.045951   0.002139  -0.000111  -0.000030  -0.000000
     4  H   -0.049148  -0.001396   0.004741  -0.001323  -0.000113  -0.000001
     5  H   -0.025394   0.006499  -0.000463  -0.000043  -0.000002  -0.000000
     6  H   -0.037270   0.003990   0.000054   0.000164   0.000008   0.000000
     7  O    7.932809   0.072066  -0.027068   0.003138   0.000143   0.000001
     8  O    0.072066   8.072196   0.177505  -0.002123  -0.000027  -0.000004
     9  H   -0.027068   0.177505   0.424573  -0.010999  -0.003183  -0.000043
    10  C    0.003138  -0.002123  -0.010999   4.968705   0.793548  -0.055025
    11  C    0.000143  -0.000027  -0.003183   0.793548   5.119578   0.412020
    12  H    0.000001  -0.000004  -0.000043  -0.055025   0.412020   0.472788
    13  C   -0.007477   0.002757  -0.008432  -0.064455  -0.005834  -0.000126
    14  H    0.012638  -0.003085  -0.003601   0.009283   0.000065   0.000004
    15  H   -0.000003   0.000064   0.003049  -0.000948   0.002249   0.000021
    16  H   -0.000487   0.002178  -0.003409   0.000514   0.002895   0.000019
              13         14         15         16
     1  C    0.342691  -0.038959  -0.035261  -0.034442
     2  H   -0.037850  -0.003066  -0.004251   0.006494
     3  C    0.000257  -0.000896  -0.000031   0.000043
     4  H    0.000418  -0.000856   0.000020  -0.000007
     5  H   -0.000009  -0.000025  -0.000008  -0.000009
     6  H   -0.000082   0.000315  -0.000001  -0.000008
     7  O   -0.007477   0.012638  -0.000003  -0.000487
     8  O    0.002757  -0.003085   0.000064   0.002178
     9  H   -0.008432  -0.003601   0.003049  -0.003409
    10  C   -0.064455   0.009283  -0.000948   0.000514
    11  C   -0.005834   0.000065   0.002249   0.002895
    12  H   -0.000126   0.000004   0.000021   0.000019
    13  C    4.844784   0.405822   0.397501   0.403787
    14  H    0.405822   0.566151  -0.032750  -0.023572
    15  H    0.397501  -0.032750   0.591636  -0.028807
    16  H    0.403787  -0.023572  -0.028807   0.561352
          Atomic-Atomic Spin Densities.
               1          2          3          4          5          6
     1  C    0.558818   0.005421   0.001228  -0.004099   0.000087   0.001018
     2  H    0.005421  -0.025344  -0.000432   0.001515  -0.000006  -0.000192
     3  C    0.001228  -0.000432  -0.008643   0.003419   0.000706  -0.002107
     4  H   -0.004099   0.001515   0.003419   0.003817  -0.000987  -0.001623
     5  H    0.000087  -0.000006   0.000706  -0.000987  -0.001981   0.001127
     6  H    0.001018  -0.000192  -0.002107  -0.001623   0.001127   0.004988
     7  O    0.012044  -0.001215   0.001498  -0.001239   0.000081  -0.001124
     8  O   -0.074401   0.003887  -0.002327   0.003640  -0.000192   0.000247
     9  H    0.046830   0.003890   0.001169  -0.002913   0.000035   0.001115
    10  C   -0.006655  -0.000383  -0.000003   0.000156   0.000003  -0.000030
    11  C   -0.011383  -0.000827   0.000005   0.000005   0.000000  -0.000003
    12  H   -0.000102   0.000011   0.000000  -0.000000   0.000000   0.000000
    13  C   -0.025438   0.004066  -0.000241   0.000469  -0.000020  -0.000086
    14  H   -0.002150   0.000004  -0.000123   0.000192  -0.000015  -0.000033
    15  H   -0.010787  -0.001786   0.000044  -0.000093   0.000004   0.000008
    16  H   -0.003284   0.000110  -0.000022   0.000036  -0.000001  -0.000008
               7          8          9         10         11         12
     1  C    0.012044  -0.074401   0.046830  -0.006655  -0.011383  -0.000102
     2  H   -0.001215   0.003887   0.003890  -0.000383  -0.000827   0.000011
     3  C    0.001498  -0.002327   0.001169  -0.000003   0.000005   0.000000
     4  H   -0.001239   0.003640  -0.002913   0.000156   0.000005  -0.000000
     5  H    0.000081  -0.000192   0.000035   0.000003   0.000000   0.000000
     6  H   -0.001124   0.000247   0.001115  -0.000030  -0.000003   0.000000
     7  O    0.082902  -0.050597   0.008789  -0.000285  -0.000016  -0.000000
     8  O   -0.050597   0.620796  -0.043347   0.002096   0.000449  -0.000001
     9  H    0.008789  -0.043347  -0.104232   0.004024  -0.000541  -0.000008
    10  C   -0.000285   0.002096   0.004024  -0.203794   0.005039  -0.001826
    11  C   -0.000016   0.000449  -0.000541   0.005039   0.295617   0.003184
    12  H   -0.000000  -0.000001  -0.000008  -0.001826   0.003184  -0.010905
    13  C   -0.002595   0.007795  -0.002513   0.004621   0.000726   0.000009
    14  H   -0.001003   0.000433   0.001079  -0.000315   0.000010   0.000000
    15  H    0.000263  -0.000707   0.000143   0.000949   0.000994  -0.000004
    16  H   -0.000268   0.001013  -0.000171  -0.000039  -0.000220   0.000002
              13         14         15         16
     1  C   -0.025438  -0.002150  -0.010787  -0.003284
     2  H    0.004066   0.000004  -0.001786   0.000110
     3  C   -0.000241  -0.000123   0.000044  -0.000022
     4  H    0.000469   0.000192  -0.000093   0.000036
     5  H   -0.000020  -0.000015   0.000004  -0.000001
     6  H   -0.000086  -0.000033   0.000008  -0.000008
     7  O   -0.002595  -0.001003   0.000263  -0.000268
     8  O    0.007795   0.000433  -0.000707   0.001013
     9  H   -0.002513   0.001079   0.000143  -0.000171
    10  C    0.004621  -0.000315   0.000949  -0.000039
    11  C    0.000726   0.000010   0.000994  -0.000220
    12  H    0.000009   0.000000  -0.000004   0.000002
    13  C   -0.020694   0.004067   0.001984   0.003634
    14  H    0.004067   0.001941  -0.001205   0.000227
    15  H    0.001984  -0.001205   0.041673  -0.003637
    16  H    0.003634   0.000227  -0.003637   0.005089
 Mulliken charges and spin densities:
               1          2
     1  C   -0.177011   0.487146
     2  H    0.124313  -0.011281
     3  C   -0.057237  -0.005826
     4  H    0.069677   0.002296
     5  H    0.098210  -0.001160
     6  H    0.095778   0.003296
     7  O   -0.178571   0.047235
     8  O   -0.210719   0.468786
     9  H    0.208065  -0.086649
    10  C    0.000245  -0.196441
    11  C   -0.202280   0.293039
    12  H    0.169772  -0.009638
    13  C   -0.273752  -0.024217
    14  H    0.112534   0.003109
    15  H    0.107519   0.027845
    16  H    0.113459   0.002462
 Sum of Mulliken charges =  -0.00000   1.00000
 Mulliken charges and spin densities with hydrogens summed into heavy atoms:
               1          2
     1  C   -0.052698   0.475865
     3  C    0.206428  -0.001394
     7  O   -0.178571   0.047235
     8  O   -0.002654   0.382136
    10  C    0.000245  -0.196441
    11  C   -0.032508   0.283401
    13  C    0.059759   0.009198
 APT charges:
               1
     1  C    0.670186
     2  H   -0.072606
     3  C    0.479594
     4  H   -0.038725
     5  H   -0.011018
     6  H   -0.029625
     7  O   -0.611730
     8  O    0.396040
     9  H   -0.474270
    10  C   -0.252945
    11  C   -0.264069
    12  H    0.228585
    13  C   -0.049142
    14  H    0.017649
    15  H    0.000604
    16  H    0.011474
 Sum of APT charges =  -0.00000
 APT charges with hydrogens summed into heavy atoms:
               1
     1  C    0.597579
     3  C    0.400226
     7  O   -0.611730
     8  O   -0.078230
    10  C   -0.252945
    11  C   -0.035485
    13  C   -0.019415
 Electronic spatial extent (au):  <R**2>=           1144.5897
 Charge=             -0.0000 electrons
 Dipole moment (field-independent basis, Debye):
    X=             -0.0001    Y=              0.6103    Z=             -2.0433  Tot=              2.1325
 Quadrupole moment (field-independent basis, Debye-Ang):
   XX=            -36.1730   YY=            -42.4845   ZZ=            -44.4381
   XY=              1.5315   XZ=             -4.8822   YZ=             -0.0143
 Traceless Quadrupole moment (field-independent basis, Debye-Ang):
   XX=              4.8588   YY=             -1.4527   ZZ=             -3.4062
   XY=              1.5315   XZ=             -4.8822   YZ=             -0.0143
 Octapole moment (field-independent basis, Debye-Ang**2):
  XXX=             14.5115  YYY=             -0.4540  ZZZ=              2.3328  XYY=              0.1972
  XXY=            -18.8379  XXZ=             -1.6741  XZZ=              7.5151  YZZ=              1.4707
  YYZ=              1.9392  XYZ=              2.5638
 Hexadecapole moment (field-independent basis, Debye-Ang**3):
 XXXX=           -954.3959 YYYY=           -285.5107 ZZZZ=           -120.4909 XXXY=             69.3685
 XXXZ=            -36.5852 YYYX=              1.0902 YYYZ=             -4.7031 ZZZX=              1.1665
 ZZZY=             -0.9548 XXYY=           -200.5468 XXZZ=           -221.3668 YYZZ=            -70.2043
 XXYZ=             -9.9832 YYXZ=             -2.2539 ZZXY=             -5.3143
 N-N= 2.834116151189D+02 E-N=-1.375311512395D+03  KE= 3.440621081553D+02
  Exact polarizability: 145.881   5.990  68.794   1.760  -3.042  54.958
 Approx polarizability: 122.984  13.653  77.110   1.861  -6.057  66.719
                          Isotropic Fermi Contact Couplings
        Atom                 a.u.       MegaHertz       Gauss      10(-4) cm-1
     1  C(13)              0.08193      92.10766      32.86631      30.72381
     2  H(1)              -0.00277     -12.36702      -4.41286      -4.12519
     3  C(13)             -0.00478      -5.37294      -1.91720      -1.79222
     4  H(1)               0.00284      12.69280       4.52911       4.23386
     5  H(1)              -0.00021      -0.95524      -0.34085      -0.31863
     6  H(1)               0.00126       5.62221       2.00615       1.87537
     7  O(17)              0.01972     -11.95412      -4.26553      -3.98747
     8  O(17)              0.03148     -19.08582      -6.81030      -6.36634
     9  H(1)              -0.02078     -92.87763     -33.14105     -30.98064
    10  C(13)             -0.01092     -12.27057      -4.37844      -4.09302
    11  C(13)              0.00044       0.49226       0.17565       0.16420
    12  H(1)              -0.00229     -10.24947      -3.65727      -3.41886
    13  C(13)             -0.00653      -7.34175      -2.61972      -2.44894
    14  H(1)               0.00319      14.25864       5.08784       4.75617
    15  H(1)               0.01414      63.19032      22.54788      21.07802
    16  H(1)               0.00148       6.61606       2.36077       2.20688
 --------------------------------------------------------
       Center         ----  Spin Dipole Couplings  ----
                      3XX-RR        3YY-RR        3ZZ-RR
 --------------------------------------------------------
     1   Atom        0.118203     -0.040950     -0.077253
     2   Atom       -0.007464     -0.024677      0.032140
     3   Atom        0.004640     -0.006812      0.002171
     4   Atom        0.000019     -0.005478      0.005459
     5   Atom        0.004295     -0.003475     -0.000820
     6   Atom        0.004621     -0.003011     -0.001609
     7   Atom        0.117586     -0.135774      0.018187
     8   Atom        0.108329     -0.113454      0.005124
     9   Atom        0.087898     -0.048820     -0.039078
    10   Atom        0.025146     -0.012015     -0.013131
    11   Atom       -0.016943      0.028577     -0.011634
    12   Atom        0.009349     -0.000662     -0.008687
    13   Atom       -0.002233      0.014995     -0.012762
    14   Atom       -0.002053      0.008554     -0.006501
    15   Atom       -0.002746      0.005795     -0.003049
    16   Atom       -0.002832      0.001555      0.001277
 --------------------------------------------------------
                        XY            XZ            YZ
 --------------------------------------------------------
     1   Atom       -0.311010      0.284404     -0.220189
     2   Atom       -0.014151     -0.010932     -0.004034
     3   Atom        0.000431     -0.007316      0.001527
     4   Atom       -0.000415     -0.005647     -0.000247
     5   Atom        0.001315     -0.004505     -0.001236
     6   Atom       -0.003748     -0.005600      0.002631
     7   Atom       -0.279693      0.327637     -0.212526
     8   Atom       -0.952748      1.018265     -0.899739
     9   Atom       -0.101751      0.113719     -0.062391
    10   Atom        0.033405     -0.017794      0.017318
    11   Atom       -0.091401      0.082133     -0.112070
    12   Atom        0.007095      0.000302     -0.007253
    13   Atom       -0.015266      0.002568      0.001088
    14   Atom        0.004254      0.001724      0.000921
    15   Atom       -0.004247      0.002217     -0.000782
    16   Atom       -0.003865     -0.002265      0.006782
 --------------------------------------------------------


 ---------------------------------------------------------------------------------
              Anisotropic Spin Dipole Couplings in Principal Axis System
 ---------------------------------------------------------------------------------

       Atom             a.u.   MegaHertz   Gauss  10(-4) cm-1        Axes

              Baa    -0.2825   -37.904   -13.525   -12.643  0.6629  0.7379 -0.1269
     1 C(13)  Bbb    -0.2796   -37.514   -13.386   -12.513 -0.2940  0.4124  0.8622
              Bcc     0.5620    75.418    26.911    25.157  0.6886 -0.5342  0.4904
 
              Baa    -0.0339   -18.065    -6.446    -6.026  0.5114  0.8484  0.1366
     2 H(1)   Bbb    -0.0011    -0.589    -0.210    -0.196  0.8229 -0.5293  0.2064
              Bcc     0.0350    18.653     6.656     6.222 -0.2474 -0.0068  0.9689
 
              Baa    -0.0074    -0.999    -0.356    -0.333 -0.2252  0.9211 -0.3176
     3 C(13)  Bbb    -0.0034    -0.457    -0.163    -0.152  0.6087  0.3876  0.6923
              Bcc     0.0108     1.456     0.520     0.486  0.7608 -0.0375 -0.6479
 
              Baa    -0.0056    -2.983    -1.064    -0.995  0.1936  0.9736  0.1207
     4 H(1)   Bbb    -0.0034    -1.822    -0.650    -0.608  0.8243 -0.2281  0.5182
              Bcc     0.0090     4.806     1.715     1.603 -0.5320  0.0008  0.8467
 
              Baa    -0.0040    -2.153    -0.768    -0.718  0.1684  0.8178  0.5503
     5 H(1)   Bbb    -0.0032    -1.692    -0.604    -0.565  0.4999 -0.5520  0.6674
              Bcc     0.0072     3.845     1.372     1.283  0.8496  0.1627 -0.5018
 
              Baa    -0.0052    -2.748    -0.981    -0.917  0.2470 -0.5491  0.7984
     6 H(1)   Bbb    -0.0044    -2.358    -0.841    -0.787  0.5382  0.7629  0.3583
              Bcc     0.0096     5.106     1.822     1.703  0.8058 -0.3412 -0.4839
 
              Baa    -0.3162    22.876     8.163     7.631  0.5354  0.8445  0.0122
     7 O(17)  Bbb    -0.2567    18.578     6.629     6.197 -0.4916  0.2999  0.8176
              Bcc     0.5729   -41.454   -14.792   -13.828  0.6868 -0.4437  0.5757
 
              Baa    -0.9647    69.807    24.909    23.285  0.7919  0.3867 -0.4727
     8 O(17)  Bbb    -0.9558    69.164    24.679    23.071  0.0323  0.7464  0.6647
              Bcc     1.9206  -138.971   -49.588   -46.356  0.6098 -0.5416  0.5786
 
              Baa    -0.1072   -57.178   -20.403   -19.073 -0.2342  0.4896  0.8399
     9 H(1)   Bbb    -0.1026   -54.725   -19.527   -18.254  0.5783  0.7646 -0.2844
              Bcc     0.2097   111.903    39.930    37.327  0.7815 -0.4191  0.4623
 
              Baa    -0.0482    -6.471    -2.309    -2.158 -0.4511  0.6881 -0.5684
    10 C(13)  Bbb     0.0026     0.348     0.124     0.116 -0.1792  0.5540  0.8130
              Bcc     0.0456     6.123     2.185     2.042  0.8743  0.4686 -0.1267
 
              Baa    -0.1062   -14.251    -5.085    -4.754 -0.1829  0.5523  0.8133
    11 C(13)  Bbb    -0.0877   -11.766    -4.199    -3.925  0.8445  0.5119 -0.1577
              Bcc     0.1939    26.017     9.284     8.679 -0.5034  0.6580 -0.5600
 
              Baa    -0.0137    -7.297    -2.604    -2.434 -0.1809  0.5522  0.8138
    12 H(1)   Bbb     0.0002     0.092     0.033     0.031 -0.4949  0.6640 -0.5605
              Bcc     0.0135     7.205     2.571     2.403  0.8499  0.5042 -0.1532
 
              Baa    -0.0148    -1.991    -0.710    -0.664 -0.5216 -0.2961  0.8002
    13 C(13)  Bbb    -0.0091    -1.218    -0.435    -0.406  0.6878  0.4091  0.5997
              Bcc     0.0239     3.209     1.145     1.070 -0.5049  0.8631 -0.0098
 
              Baa    -0.0071    -3.794    -1.354    -1.266 -0.3528  0.0408  0.9348
    14 H(1)   Bbb    -0.0031    -1.635    -0.583    -0.545  0.8724 -0.3468  0.3444
              Bcc     0.0102     5.429     1.937     1.811  0.3382  0.9371  0.0867
 
              Baa    -0.0057    -3.056    -1.090    -1.019  0.7806  0.2488 -0.5734
    15 H(1)   Bbb    -0.0021    -1.095    -0.391    -0.365  0.4832  0.3418  0.8060
              Bcc     0.0078     4.151     1.481     1.385 -0.3965  0.9062 -0.1466
 
              Baa    -0.0060    -3.205    -1.144    -1.069  0.5014  0.7055 -0.5009
    16 H(1)   Bbb    -0.0037    -1.978    -0.706    -0.660  0.8002 -0.1579  0.5786
              Bcc     0.0097     5.183     1.849     1.729 -0.3291  0.6909  0.6437
 

 ---------------------------------------------------------------------------------

 Calling FoFJK, ICntrl=  10100127 FMM=F ISym2X=0 I1Cent= 0 IOpClX= 1 NMat=1 NMatS=1 NMatT=0.
 -------------------------------------------------------------------
 Center     Atomic                   Forces (Hartrees/Bohr)
 Number     Number              X              Y              Z
 -------------------------------------------------------------------
      1        6           0.000003591   -0.000002100   -0.000001564
      2        1           0.000002045   -0.000001477    0.000001011
      3        6          -0.000000885   -0.000000208    0.000000614
      4        1          -0.000001185    0.000000038   -0.000000643
      5        1          -0.000000657   -0.000000015   -0.000000140
      6        1           0.000000548    0.000000469    0.000000309
      7        8          -0.000009790   -0.000005634    0.000000504
      8        8           0.000001694    0.000009245   -0.000003816
      9        1          -0.000000094    0.000002425    0.000003452
     10        6          -0.000000339    0.000000509   -0.000001432
     11        6           0.000001340    0.000000561   -0.000000386
     12        1           0.000000055    0.000000007    0.000000481
     13        6           0.000000459   -0.000004910    0.000002551
     14        1           0.000003898    0.000001025   -0.000002590
     15        1          -0.000001114   -0.000000513    0.000001222
     16        1           0.000000435    0.000000576    0.000000427
 -------------------------------------------------------------------
 Cartesian Forces:  Max     0.000009790 RMS     0.000002670
 FormGI is forming the generalized inverse of G from B-inverse, IUseBI=4.

 GradGradGradGradGradGradGradGradGradGradGradGradGradGradGradGradGradGrad
 Berny optimization.
 Internal  Forces:  Max     0.000015384 RMS     0.000004267
 Search for a saddle point.
 Step number   1 out of a maximum of  100 on scan point     1 out of    37
 All quantities printed in internal units (Hartrees-Bohrs-Radians)
 Swapping is turned off.
 Second derivative matrix not updated -- analytic derivatives used.
 ITU=  0
     Eigenvalues ---   -0.08494   0.00165   0.00538   0.01594   0.01759
     Eigenvalues ---    0.03139   0.03379   0.03552   0.03739   0.03847
     Eigenvalues ---    0.04485   0.04529   0.06702   0.08228   0.08474
     Eigenvalues ---    0.08487   0.09729   0.11891   0.12189   0.12938
     Eigenvalues ---    0.13889   0.14809   0.15880   0.16641   0.17737
     Eigenvalues ---    0.18144   0.18360   0.25589   0.30512   0.31684
     Eigenvalues ---    0.33499   0.33680   0.34059   0.34376   0.34556
     Eigenvalues ---    0.35021   0.35470   0.37885   0.40825   0.41637
     Eigenvalues ---    1.041471000.000001000.000001000.000001000.00000
     Eigenvalues --- 1000.000001000.000001000.000001000.000001000.00000
     Eigenvalues --- 1000.000001000.000001000.000001000.000001000.00000
 Eigenvectors required to have negative eigenvalues:
                          R10       R2        R9        A14       D2
   1                    0.72767  -0.60498  -0.17183   0.08861  -0.08357
                          D10       D3        D9        R3        D4
   1                    0.08222  -0.07795   0.07638   0.07492  -0.07211
 RFO step:  Lambda0=6.919949336D-11 Lambda=-1.13255452D-08.
 Linear search not attempted -- option 19 set.
 Iteration  1 RMS(Cart)=  0.00035635 RMS(Int)=  0.00000004
 Iteration  2 RMS(Cart)=  0.00000005 RMS(Int)=  0.00000000
 Iteration  1 RMS(Cart)=  0.00000000 RMS(Int)=  0.00000000
 Variable       Old X    -DE/DX   Delta X   Delta X   Delta X     New X
                                 (Linear)    (Quad)   (Total)
    R1        2.05689  -0.00000   0.00000  -0.00000  -0.00000   2.05689
    R2        2.48193  -0.00001   0.00000  -0.00007  -0.00007   2.48186
    R3        2.68732  -0.00000   0.00000  -0.00000  -0.00000   2.68731
    R4        2.85999  -0.00000   0.00000  -0.00001  -0.00001   2.85998
    R5        2.06086   0.00000   0.00000   0.00000   0.00000   2.06086
    R6        2.05532  -0.00000   0.00000  -0.00000  -0.00000   2.05532
    R7        2.05614  -0.00000   0.00000   0.00000   0.00000   2.05614
    R8        2.69062  -0.00000   0.00000  -0.00000  -0.00000   2.69062
    R9        2.63649  -0.00001   0.00000  -0.00003  -0.00003   2.63645
   R10        2.29684  -0.00001   0.00000  -0.00002  -0.00002   2.29682
   R11        2.28576  -0.00000   0.00000  -0.00000  -0.00000   2.28576
   R12        2.00313   0.00000   0.00000   0.00000   0.00000   2.00313
   R13        2.05651   0.00000   0.00000   0.00001   0.00001   2.05651
   R14        2.06290  -0.00000   0.00000  -0.00000  -0.00000   2.06290
   R15        2.05459   0.00000   0.00000   0.00000   0.00000   2.05459
    A1        1.76318   0.00000   0.00000   0.00002   0.00002   1.76320
    A2        1.97482  -0.00000   0.00000   0.00000   0.00000   1.97482
    A3        1.99666   0.00000   0.00000   0.00003   0.00003   1.99668
    A4        1.83536   0.00000   0.00000   0.00002   0.00002   1.83539
    A5        1.79412  -0.00001   0.00000  -0.00009  -0.00009   1.79403
    A6        2.05368   0.00000   0.00000   0.00001   0.00001   2.05369
    A7        1.92124   0.00000   0.00000  -0.00000  -0.00000   1.92124
    A8        1.91766   0.00000   0.00000   0.00000   0.00000   1.91766
    A9        1.93154  -0.00000   0.00000  -0.00001  -0.00001   1.93154
   A10        1.92772  -0.00000   0.00000   0.00000   0.00000   1.92772
   A11        1.83803  -0.00000   0.00000   0.00000   0.00000   1.83803
   A12        1.92648   0.00000   0.00000   0.00001   0.00001   1.92648
   A13        1.88831  -0.00000   0.00000   0.00000   0.00000   1.88831
   A14        1.83682  -0.00002   0.00000  -0.00007  -0.00007   1.83675
   A15        1.92387  -0.00000   0.00000  -0.00001  -0.00001   1.92386
   A16        1.93072   0.00000   0.00000   0.00001   0.00001   1.93073
   A17        1.93041   0.00000   0.00000  -0.00000  -0.00000   1.93041
   A18        1.89300   0.00000   0.00000   0.00001   0.00001   1.89302
   A19        1.89542   0.00000   0.00000   0.00000   0.00000   1.89542
   A20        1.88940  -0.00000   0.00000  -0.00001  -0.00001   1.88939
   A21        3.11541  -0.00001   0.00000  -0.00017  -0.00017   3.11524
   A22        3.12674   0.00000   0.00000  -0.00000  -0.00000   3.12674
   A23        3.14721  -0.00000   0.00000  -0.00000  -0.00000   3.14721
   A24        3.01515  -0.00001   0.00000  -0.00014  -0.00014   3.01501
   A25        3.18393   0.00000   0.00000   0.00001   0.00001   3.18395
   A26        3.15294  -0.00000   0.00000  -0.00001  -0.00001   3.15293
    D1        1.12417   0.00000   0.00000   0.00000   0.00000   1.12417
    D2       -0.98349   0.00000   0.00000   0.00050   0.00050  -0.98299
    D3        1.11005   0.00000   0.00000   0.00052   0.00052   1.11057
    D4       -3.07984   0.00000   0.00000   0.00050   0.00050  -3.07934
    D5        0.91126   0.00000   0.00000   0.00048   0.00048   0.91174
    D6        3.00481   0.00000   0.00000   0.00049   0.00049   3.00530
    D7       -1.18509   0.00000   0.00000   0.00048   0.00048  -1.18461
    D8        2.91753  -0.00000   0.00000   0.00045   0.00045   2.91798
    D9       -1.27211  -0.00000   0.00000   0.00047   0.00047  -1.27164
   D10        0.82118  -0.00000   0.00000   0.00045   0.00045   0.82163
   D11        1.13136  -0.00000   0.00000  -0.00015  -0.00015   1.13121
   D12       -3.07613  -0.00000   0.00000  -0.00015  -0.00015  -3.07628
   D13       -0.99538  -0.00000   0.00000  -0.00015  -0.00015  -0.99553
   D14       -1.63222   0.00000   0.00000   0.00013   0.00013  -1.63210
         Item               Value     Threshold  Converged?
 Maximum Force            0.000015     0.000450     YES
 RMS     Force            0.000004     0.000300     YES
 Maximum Displacement     0.001140     0.001800     YES
 RMS     Displacement     0.000356     0.001200     YES
 Predicted change in Energy=-5.628173D-09
 Optimization completed.
    -- Stationary point found.
                           ----------------------------
                           !   Optimized Parameters   !
                           ! (Angstroms and Degrees)  !
 --------------------------                            --------------------------
 ! Name  Definition              Value          Derivative Info.                !
 --------------------------------------------------------------------------------
 ! R1    R(1,2)                  1.0885         -DE/DX =    0.0                 !
 ! R2    R(1,9)                  1.3134         -DE/DX =    0.0                 !
 ! R3    R(1,10)                 1.4221         -DE/DX =    0.0                 !
 ! R4    R(1,13)                 1.5134         -DE/DX =    0.0                 !
 ! R5    R(3,4)                  1.0906         -DE/DX =    0.0                 !
 ! R6    R(3,5)                  1.0876         -DE/DX =    0.0                 !
 ! R7    R(3,6)                  1.0881         -DE/DX =    0.0                 !
 ! R8    R(3,7)                  1.4238         -DE/DX =    0.0                 !
 ! R9    R(7,8)                  1.3952         -DE/DX =    0.0                 !
 ! R10   R(8,9)                  1.2154         -DE/DX =    0.0                 !
 ! R11   R(10,11)                1.2096         -DE/DX =    0.0                 !
 ! R12   R(11,12)                1.06           -DE/DX =    0.0                 !
 ! R13   R(13,14)                1.0883         -DE/DX =    0.0                 !
 ! R14   R(13,15)                1.0916         -DE/DX =    0.0                 !
 ! R15   R(13,16)                1.0872         -DE/DX =    0.0                 !
 ! A1    A(2,1,9)              101.0229         -DE/DX =    0.0                 !
 ! A2    A(2,1,10)             113.1487         -DE/DX =    0.0                 !
 ! A3    A(2,1,13)             114.4            -DE/DX =    0.0                 !
 ! A4    A(9,1,10)             105.1586         -DE/DX =    0.0                 !
 ! A5    A(9,1,13)             102.7955         -DE/DX =    0.0                 !
 ! A6    A(10,1,13)            117.6671         -DE/DX =    0.0                 !
 ! A7    A(4,3,5)              110.079          -DE/DX =    0.0                 !
 ! A8    A(4,3,6)              109.8739         -DE/DX =    0.0                 !
 ! A9    A(4,3,7)              110.6694         -DE/DX =    0.0                 !
 ! A10   A(5,3,6)              110.4501         -DE/DX =    0.0                 !
 ! A11   A(5,3,7)              105.3111         -DE/DX =    0.0                 !
 ! A12   A(6,3,7)              110.3789         -DE/DX =    0.0                 !
 ! A13   A(3,7,8)              108.1921         -DE/DX =    0.0                 !
 ! A14   A(7,8,9)              105.2419         -DE/DX =    0.0                 !
 ! A15   A(1,13,14)            110.2298         -DE/DX =    0.0                 !
 ! A16   A(1,13,15)            110.6219         -DE/DX =    0.0                 !
 ! A17   A(1,13,16)            110.6043         -DE/DX =    0.0                 !
 ! A18   A(14,13,15)           108.4612         -DE/DX =    0.0                 !
 ! A19   A(14,13,16)           108.5994         -DE/DX =    0.0                 !
 ! A20   A(15,13,16)           108.2549         -DE/DX =    0.0                 !
 ! A21   L(1,9,8,4,-1)         178.4999         -DE/DX =    0.0                 !
 ! A22   L(1,10,11,16,-1)      179.1491         -DE/DX =    0.0                 !
 ! A23   L(10,11,12,6,-1)      180.3218         -DE/DX =    0.0                 !
 ! A24   L(1,9,8,4,-2)         172.7553         -DE/DX =    0.0                 !
 ! A25   L(1,10,11,16,-2)      182.426          -DE/DX =    0.0                 !
 ! A26   L(10,11,12,6,-2)      180.6502         -DE/DX =    0.0                 !
 ! D1    D(2,1,8,7)             64.4102         -DE/DX =    0.0                 !
 ! D2    D(2,1,13,14)          -56.3499         -DE/DX =    0.0                 !
 ! D3    D(2,1,13,15)           63.6013         -DE/DX =    0.0                 !
 ! D4    D(2,1,13,16)         -176.4621         -DE/DX =    0.0                 !
 ! D5    D(9,1,13,14)           52.2116         -DE/DX =    0.0                 !
 ! D6    D(9,1,13,15)          172.1627         -DE/DX =    0.0                 !
 ! D7    D(9,1,13,16)          -67.9007         -DE/DX =    0.0                 !
 ! D8    D(10,1,13,14)         167.1624         -DE/DX =    0.0                 !
 ! D9    D(10,1,13,15)         -72.8864         -DE/DX =    0.0                 !
 ! D10   D(10,1,13,16)          47.0502         -DE/DX =    0.0                 !
 ! D11   D(4,3,7,8)             64.8221         -DE/DX =    0.0                 !
 ! D12   D(5,3,7,8)           -176.2491         -DE/DX =    0.0                 !
 ! D13   D(6,3,7,8)            -57.0309         -DE/DX =    0.0                 !
 ! D14   D(3,7,8,9)            -93.5195         -DE/DX =    0.0                 !
 --------------------------------------------------------------------------------
 Iteration  1 RMS(Cart)=  0.12727049 RMS(Int)=  0.00488332
 Iteration  2 RMS(Cart)=  0.01028437 RMS(Int)=  0.00002561
 Iteration  3 RMS(Cart)=  0.00007786 RMS(Int)=  0.00000000
 Iteration  4 RMS(Cart)=  0.00000000 RMS(Int)=  0.00000000
 Iteration  1 RMS(Cart)=  0.00000000 RMS(Int)=  0.00000000
 GradGradGradGradGradGradGradGradGradGradGradGradGradGradGradGradGradGrad

                          Input orientation:                          
 ---------------------------------------------------------------------
 Center     Atomic      Atomic             Coordinates (Angstroms)
 Number     Number       Type             X           Y           Z
 ---------------------------------------------------------------------
      1          6           0       -0.963462    0.323255   -0.500160
      2          1           0       -0.672225    0.257927   -1.546896
      3          6           0        2.750154   -0.275851   -0.583541
      4          1           0        2.167851   -0.143135   -1.496028
      5          1           0        3.577746    0.429552   -0.562803
      6          1           0        3.119941   -1.297534   -0.526043
      7          8           0        1.964579    0.032391    0.563239
      8          8           0        0.927105   -0.896967    0.643145
      9          1           0       -0.010931   -0.378661    0.069818
     10          6           0       -2.166345   -0.377474   -0.209783
     11          6           0       -3.170258   -0.989803    0.073541
     12          1           0       -4.053995   -1.523341    0.314313
     13          6           0       -0.782960    1.694357    0.114653
     14          1           0        0.249116    2.022217    0.006775
     15          1           0       -1.430444    2.423817   -0.375576
     16          1           0       -1.031843    1.674950    1.172848
 ---------------------------------------------------------------------
                    Distance matrix (angstroms):
                    1          2          3          4          5
     1  C    0.000000
     2  H    1.088459   0.000000
     3  C    3.762555   3.595226   0.000000
     4  H    3.318794   2.868705   1.090560   0.000000
     5  H    4.542884   4.365793   1.087627   1.785128   0.000000
     6  H    4.393382   4.223994   1.088065   1.783251   1.787110
     7  O    3.128712   3.384711   1.423814   2.076706   2.006992
     8  O    2.523952   2.947527   2.283430   2.585300   3.199979
     9  H    1.313346   1.859118   2.839196   2.693406   3.732562
    10  C    1.422065   2.103331   4.931732   4.527096   5.811239
    11  C    2.631198   3.228438   5.999396   5.628125   6.924959
    12  H    3.691162   4.251280   6.975586   6.625229   7.926322
    13  C    1.513439   2.199168   4.105130   3.831182   4.590690
    14  H    2.147976   2.524972   3.447431   3.260170   3.733735
    15  H    2.155448   2.576426   4.980849   4.559867   5.393896
    16  H    2.151909   3.087764   4.603697   4.546028   5.080533
                    6          7          8          9         10
     6  H    0.000000
     7  O    2.071255   0.000000
     8  O    2.517139   1.395150   0.000000
     9  H    3.316887   2.077274   1.215424   0.000000
    10  C    5.375068   4.222569   3.250660   2.173474   0.000000
    11  C    6.326199   5.258443   4.137807   3.217896   1.209570
    12  H    7.226516   6.221373   5.031086   4.209089   2.269561
    13  C    4.959289   3.242272   3.149379   2.212565   2.512269
    14  H    4.421118   2.685493   3.063703   2.415743   3.411725
    15  H    5.880230   4.257520   4.198028   3.172898   2.901081
    16  H    5.381376   3.471047   3.276098   2.544849   2.722353
                   11         12         13         14         15
    11  C    0.000000
    12  H    1.060011   0.000000
    13  C    3.592435   4.592723   0.000000
    14  H    4.557284   5.584113   1.088261   0.000000
    15  H    3.857650   4.789470   1.091637   1.768727   0.000000
    16  H    3.589178   4.483251   1.087242   1.766685   1.765588
                   16
    16  H    0.000000
 Symmetry turned off by external request.
 Stoichiometry    C5H9O2(2)
 Framework group  C1[X(C5H9O2)]
 Deg. of freedom    42
 Full point group                 C1      NOp   1
 Rotational constants (GHZ):           4.7643458           1.1618034           1.0316639
 Standard basis: CC-pVTZ (5D, 7F)
   336 basis functions,   517 primitive gaussians,   380 cartesian basis functions
    28 alpha electrons       27 beta electrons
       nuclear repulsion energy       284.0022272955 Hartrees.
 NAtoms=   16 NActive=   16 NUniq=   16 SFac= 1.00D+00 NAtFMM=   60 NAOKFM=F Big=F
 Integral buffers will be    131072 words long.
 Raffenetti 2 integral format.
 Two-electron integral symmetry is turned off.
 Nuclear repulsion after empirical dispersion term =      283.9939958701 Hartrees.
 One-electron integrals computed using PRISM.
 NBasis=   336 RedAO= T EigKep=  4.19D-05  NBF=   336
 NBsUse=   336 1.00D-06 EigRej= -1.00D+00 NBFU=   336
 Initial guess from the checkpoint file:  "/localscratch/352096/Gau-48235.chk"
 B after Tr=    -0.032591   -0.041365    0.002603
         Rot=    0.999981   -0.004863    0.000397    0.003656 Ang=  -0.70 deg.
 Initial guess <Sx>= 0.0000 <Sy>= 0.0000 <Sz>= 0.5000 <S**2>= 0.7877 S= 0.5187
 ExpMin= 1.03D-01 ExpMax= 1.53D+04 ExpMxC= 5.22D+02 IAcc=3 IRadAn=         5 AccDes= 0.00D+00
 Harris functional with IExCor=  419 and IRadAn=       5 diagonalized for initial guess.
 HarFok:  IExCor=  419 AccDes= 0.00D+00 IRadAn=         5 IDoV= 1 UseB2=F ITyADJ=14
 ICtDFT=  3500011 ScaDFX=  1.000000  1.000000  1.000000  1.000000
 FoFCou: FMM=F IPFlag=           0 FMFlag=      100000 FMFlg1=           0
         NFxFlg=           0 DoJE=T BraDBF=F KetDBF=T FulRan=T
         wScrn=  0.000000 ICntrl=       500 IOpCl=  0 I1Cent=   200000004 NGrid=           0
         NMat0=    1 NMatS0=      1 NMatT0=    0 NMatD0=    1 NMtDS0=    0 NMtDT0=    0
 Symmetry not used in FoFCou.
 Requested convergence on RMS density matrix=1.00D-08 within 500 cycles.
 Requested convergence on MAX density matrix=1.00D-06.
 Requested convergence on             energy=1.00D-06.
 No special actions if energy rises.
 Integral accuracy reduced to 1.0D-05 until final iterations.
 Initial convergence to 1.0D-05 achieved.  Increase integral accuracy.
 SCF Done:  E(UB2PLYPD3) =  -345.575903546     A.U. after   17 cycles
            NFock= 17  Conv=0.34D-08     -V/T= 2.0044
 <Sx>= 0.0000 <Sy>= 0.0000 <Sz>= 0.5000 <S**2>= 0.7875 S= 0.5186
 <L.S>=  0.00000000000    
 Annihilation of the first spin contaminant:
 S**2 before annihilation     0.7875,   after     0.7509
 DoSCS=T DFT=T ScalE2(SS,OS)=  0.270000  0.270000
 ExpMin= 1.03D-01 ExpMax= 1.53D+04 ExpMxC= 5.22D+02 IAcc=3 IRadAn=         5 AccDes= 0.00D+00
 HarFok:  IExCor=  205 AccDes= 0.00D+00 IRadAn=         5 IDoV=-2 UseB2=F ITyADJ=14
 ICtDFT= 12500011 ScaDFX=  1.000000  1.000000  1.000000  1.000000
 Range of M.O.s used for correlation:     8   336
 NBasis=   336 NAE=    28 NBE=    27 NFC=     7 NFV=     0
 NROrb=    329 NOA=    21 NOB=    20 NVA=   308 NVB=   309

 **** Warning!!: The largest alpha MO coefficient is  0.26527797D+02


 **** Warning!!: The largest beta MO coefficient is  0.25939244D+02

 DoSCS=T DFT=T ScalE2(SS,OS)=  0.270000  0.270000
 Disk-based method using ON**2 memory for 21 occupieds at a time.
 Estimated scratch disk usage=  1965882408 words.
 Actual    scratch disk usage=  1801886248 words.
 JobTyp=2 Pass  1:  I=   8 to  28 NPSUse= 40 ParTrn=T ParDer=T DoDerP=T.
 (rs|ai) integrals will be sorted in core.
 Actual    scratch disk usage=  1801886248 words.
 JobTyp=3 Pass  1:  I=   8 to  27 NPSUse= 40 ParTrn=T ParDer=T DoDerP=T.
 (rs|ai) integrals will be sorted in core.
 Spin components of T(2) and E(2):
     alpha-alpha T2 =       0.7884889143D-01 E2=     -0.5359280371D-01
     alpha-beta  T2 =       0.4702924373D+00 E2=     -0.3271213361D+00
     beta-beta   T2 =       0.8829172161D-01 E2=     -0.5336165459D-01
 (S**2,0)=  0.78750D+00           (S**2,1)=  0.74671D+00
 Scaling Projection term by:   0.270000
 E(PUHF)=      -0.34558413343D+03        E(PMP2)=      -0.34601101080D+03
 E2(B2PLYPD3) =    -0.4340757944D+00 E(B2PLYPD3) =    -0.34600997934058D+03
          IDoAtm=1111111111111111
          Differentiating once with respect to electric field.
                with respect to dipole field.
          Differentiating once with respect to nuclear coordinates.
 Keep R1 and R2 ints in memory in canonical form, NReq=3251777228.
          There are     1 degrees of freedom in the 1st order CPHF.  IDoFFX=0 NUNeed=     1.
 LinEq1:  Iter=  0 NonCon=     1 RMS=9.64D-04 Max=5.47D-02 NDo=     1
 AX will form     1 AO Fock derivatives at one time.
 LinEq1:  Iter=  1 NonCon=     1 RMS=3.49D-04 Max=8.74D-03 NDo=     1
 LinEq1:  Iter=  2 NonCon=     1 RMS=2.39D-04 Max=6.70D-03 NDo=     1
 LinEq1:  Iter=  3 NonCon=     1 RMS=1.64D-04 Max=6.79D-03 NDo=     1
 LinEq1:  Iter=  4 NonCon=     1 RMS=9.13D-05 Max=3.23D-03 NDo=     1
 LinEq1:  Iter=  5 NonCon=     1 RMS=6.39D-05 Max=2.80D-03 NDo=     1
 LinEq1:  Iter=  6 NonCon=     1 RMS=2.90D-05 Max=6.19D-04 NDo=     1
 LinEq1:  Iter=  7 NonCon=     1 RMS=1.07D-05 Max=2.68D-04 NDo=     1
 LinEq1:  Iter=  8 NonCon=     1 RMS=8.72D-06 Max=2.84D-04 NDo=     1
 LinEq1:  Iter=  9 NonCon=     1 RMS=4.41D-06 Max=8.97D-05 NDo=     1
 LinEq1:  Iter= 10 NonCon=     1 RMS=2.11D-06 Max=4.32D-05 NDo=     1
 LinEq1:  Iter= 11 NonCon=     1 RMS=9.30D-07 Max=2.18D-05 NDo=     1
 LinEq1:  Iter= 12 NonCon=     1 RMS=3.53D-07 Max=6.14D-06 NDo=     1
 LinEq1:  Iter= 13 NonCon=     1 RMS=1.34D-07 Max=2.92D-06 NDo=     1
 LinEq1:  Iter= 14 NonCon=     1 RMS=5.98D-08 Max=1.93D-06 NDo=     1
 LinEq1:  Iter= 15 NonCon=     1 RMS=2.91D-08 Max=1.11D-06 NDo=     1
 LinEq1:  Iter= 16 NonCon=     1 RMS=1.04D-08 Max=5.28D-07 NDo=     1
 LinEq1:  Iter= 17 NonCon=     1 RMS=3.61D-09 Max=1.95D-07 NDo=     1
 LinEq1:  Iter= 18 NonCon=     1 RMS=1.24D-09 Max=5.79D-08 NDo=     1
 LinEq1:  Iter= 19 NonCon=     1 RMS=4.97D-10 Max=1.68D-08 NDo=     1
 LinEq1:  Iter= 20 NonCon=     1 RMS=1.84D-10 Max=4.84D-09 NDo=     1
 LinEq1:  Iter= 21 NonCon=     1 RMS=8.03D-11 Max=1.59D-09 NDo=     1
 LinEq1:  Iter= 22 NonCon=     1 RMS=3.42D-11 Max=1.39D-09 NDo=     1
 LinEq1:  Iter= 23 NonCon=     0 RMS=1.10D-11 Max=3.19D-10 NDo=     1
 Linear equations converged to 1.000D-10 1.000D-09 after    23 iterations.
 End of Minotr F.D. properties file   721 does not exist.
 End of Minotr F.D. properties file   722 does not exist.
 End of Minotr F.D. properties file   788 does not exist.
 Calling FoFJK, ICntrl=  10002127 FMM=F ISym2X=0 I1Cent= 0 IOpClX= 1 NMat=1 NMatS=1 NMatT=0.
 -------------------------------------------------------------------
 Center     Atomic                   Forces (Hartrees/Bohr)
 Number     Number              X              Y              Z
 -------------------------------------------------------------------
      1        6           0.000291608    0.000207779   -0.000477599
      2        1          -0.000215258    0.000037684   -0.000079225
      3        6           0.000042163   -0.000029829    0.000042033
      4        1          -0.000045915    0.000033808   -0.000043545
      5        1           0.000015901   -0.000006766   -0.000008915
      6        1          -0.000007947    0.000009650   -0.000006851
      7        8           0.000241339   -0.000292497   -0.000012421
      8        8           0.000242569    0.000063463    0.000009018
[...]
    15  H   -0.000003   0.000064   0.003048  -0.000951   0.002249   0.000021
    16  H   -0.000488   0.002181  -0.003411   0.000515   0.002900   0.000019
              13         14         15         16
     1  C    0.342707  -0.038953  -0.035259  -0.034448
     2  H   -0.037847  -0.003068  -0.004247   0.006493
     3  C    0.000256  -0.000895  -0.000031   0.000043
     4  H    0.000417  -0.000855   0.000020  -0.000007
     5  H   -0.000009  -0.000025  -0.000008  -0.000009
     6  H   -0.000081   0.000314  -0.000001  -0.000008
     7  O   -0.007461   0.012622  -0.000003  -0.000488
     8  O    0.002749  -0.003081   0.000064   0.002181
     9  H   -0.008422  -0.003597   0.003048  -0.003411
    10  C   -0.064463   0.009283  -0.000951   0.000515
    11  C   -0.005843   0.000066   0.002249   0.002900
    12  H   -0.000127   0.000004   0.000021   0.000019
    13  C    4.844761   0.405829   0.397499   0.403786
    14  H    0.405829   0.566152  -0.032749  -0.023574
    15  H    0.397499  -0.032749   0.591628  -0.028808
    16  H    0.403786  -0.023574  -0.028808   0.561346
          Atomic-Atomic Spin Densities.
               1          2          3          4          5          6
     1  C    0.558961   0.005416   0.001231  -0.004102   0.000087   0.001018
     2  H    0.005416  -0.025346  -0.000432   0.001516  -0.000006  -0.000192
     3  C    0.001231  -0.000432  -0.008645   0.003418   0.000706  -0.002107
     4  H   -0.004102   0.001516   0.003418   0.003821  -0.000986  -0.001624
     5  H    0.000087  -0.000006   0.000706  -0.000986  -0.001982   0.001126
     6  H    0.001018  -0.000192  -0.002107  -0.001624   0.001126   0.004993
     7  O    0.012044  -0.001215   0.001501  -0.001240   0.000081  -0.001126
     8  O   -0.074420   0.003887  -0.002329   0.003642  -0.000192   0.000247
     9  H    0.046836   0.003890   0.001171  -0.002914   0.000035   0.001115
    10  C   -0.006692  -0.000380  -0.000003   0.000156   0.000003  -0.000030
    11  C   -0.011380  -0.000824   0.000005   0.000005   0.000000  -0.000003
    12  H   -0.000101   0.000011   0.000000  -0.000000   0.000000   0.000000
    13  C   -0.025438   0.004066  -0.000241   0.000469  -0.000020  -0.000086
    14  H   -0.002147   0.000004  -0.000122   0.000191  -0.000015  -0.000033
    15  H   -0.010784  -0.001786   0.000044  -0.000093   0.000004   0.000008
    16  H   -0.003291   0.000110  -0.000022   0.000036  -0.000001  -0.000008
               7          8          9         10         11         12
     1  C    0.012044  -0.074420   0.046836  -0.006692  -0.011380  -0.000101
     2  H   -0.001215   0.003887   0.003890  -0.000380  -0.000824   0.000011
     3  C    0.001501  -0.002329   0.001171  -0.000003   0.000005   0.000000
     4  H   -0.001240   0.003642  -0.002914   0.000156   0.000005  -0.000000
     5  H    0.000081  -0.000192   0.000035   0.000003   0.000000   0.000000
     6  H   -0.001126   0.000247   0.001115  -0.000030  -0.000003   0.000000
     7  O    0.082885  -0.050589   0.008788  -0.000287  -0.000016  -0.000000
     8  O   -0.050589   0.620694  -0.043341   0.002108   0.000453  -0.000001
     9  H    0.008788  -0.043341  -0.104229   0.004017  -0.000544  -0.000008
    10  C   -0.000287   0.002108   0.004017  -0.203818   0.005062  -0.001827
    11  C   -0.000016   0.000453  -0.000544   0.005062   0.295620   0.003184
    12  H   -0.000000  -0.000001  -0.000008  -0.001827   0.003184  -0.010904
    13  C   -0.002593   0.007790  -0.002512   0.004629   0.000729   0.000009
    14  H   -0.001001   0.000432   0.001078  -0.000314   0.000010   0.000000
    15  H    0.000263  -0.000707   0.000144   0.000945   0.000991  -0.000004
    16  H   -0.000268   0.001014  -0.000172  -0.000037  -0.000218   0.000002
              13         14         15         16
     1  C   -0.025438  -0.002147  -0.010784  -0.003291
     2  H    0.004066   0.000004  -0.001786   0.000110
     3  C   -0.000241  -0.000122   0.000044  -0.000022
     4  H    0.000469   0.000191  -0.000093   0.000036
     5  H   -0.000020  -0.000015   0.000004  -0.000001
     6  H   -0.000086  -0.000033   0.000008  -0.000008
     7  O   -0.002593  -0.001001   0.000263  -0.000268
     8  O    0.007790   0.000432  -0.000707   0.001014
     9  H   -0.002512   0.001078   0.000144  -0.000172
    10  C    0.004629  -0.000314   0.000945  -0.000037
    11  C    0.000729   0.000010   0.000991  -0.000218
    12  H    0.000009   0.000000  -0.000004   0.000002
    13  C   -0.020710   0.004061   0.001985   0.003638
    14  H    0.004061   0.001936  -0.001204   0.000227
    15  H    0.001985  -0.001204   0.041686  -0.003642
    16  H    0.003638   0.000227  -0.003642   0.005100
 Mulliken charges and spin densities:
               1          2
     1  C   -0.177017   0.487236
     2  H    0.124315  -0.011281
     3  C   -0.057249  -0.005825
     4  H    0.069678   0.002295
     5  H    0.098211  -0.001161
     6  H    0.095776   0.003298
     7  O   -0.178576   0.047227
     8  O   -0.210739   0.468689
     9  H    0.208072  -0.086647
    10  C    0.000228  -0.196468
    11  C   -0.202247   0.293073
    12  H    0.169777  -0.009637
    13  C   -0.273752  -0.024223
    14  H    0.112528   0.003103
    15  H    0.107527   0.027851
    16  H    0.113467   0.002469
 Sum of Mulliken charges =  -0.00000   1.00000
 Mulliken charges and spin densities with hydrogens summed into heavy atoms:
               1          2
     1  C   -0.052702   0.475956
     3  C    0.206416  -0.001393
     7  O   -0.178576   0.047227
     8  O   -0.002667   0.382042
    10  C    0.000228  -0.196468
    11  C   -0.032470   0.283435
    13  C    0.059771   0.009201
 Electronic spatial extent (au):  <R**2>=           1165.6894
 Charge=             -0.0000 electrons
 Dipole moment (field-independent basis, Debye):
    X=             -0.8372    Y=             -1.6769    Z=             -1.0173  Tot=              2.1326
 Quadrupole moment (field-independent basis, Debye-Ang):
   XX=            -41.2755   YY=            -42.1616   ZZ=            -40.9241
   XY=             -5.8429   XZ=             -3.5629   YZ=              1.5293
 Traceless Quadrupole moment (field-independent basis, Debye-Ang):
   XX=              0.1782   YY=             -0.7079   ZZ=              0.5296
   XY=             -5.8429   XZ=             -3.5629   YZ=              1.5293
 Octapole moment (field-independent basis, Debye-Ang**2):
  XXX=              7.6415  YYY=            -43.5475  ZZZ=             -0.3250  XYY=              4.0305
  XXY=            -20.3975  XXZ=              6.9774  XZZ=            -11.2051  YZZ=             -8.9928
  YYZ=             -3.7256  XYZ=             -4.2718
 Hexadecapole moment (field-independent basis, Debye-Ang**3):
 XXXX=           -918.7678 YYYY=           -257.1921 ZZZZ=           -310.2809 XXXY=             98.3792
 XXXZ=             57.3533 YYYX=            146.6248 YYYZ=            -21.1359 ZZZX=             67.3109
 ZZZY=             -1.9562 XXYY=           -195.8476 XXZZ=           -159.6335 YYZZ=            -95.4765
 XXYZ=             21.9650 YYXZ=             31.3627 ZZXY=             22.9423
 N-N= 2.834105277472D+02 E-N=-1.375309344528D+03  KE= 3.440621071678D+02
                          Isotropic Fermi Contact Couplings
        Atom                 a.u.       MegaHertz       Gauss      10(-4) cm-1
     1  C(13)              0.08195      92.12795      32.87354      30.73057
     2  H(1)              -0.00277     -12.36792      -4.41318      -4.12549
     3  C(13)             -0.00478      -5.37267      -1.91710      -1.79213
     4  H(1)               0.00284      12.68977       4.52802       4.23285
     5  H(1)              -0.00021      -0.95979      -0.34248      -0.32015
     6  H(1)               0.00126       5.62777       2.00813       1.87722
     7  O(17)              0.01972     -11.95169      -4.26466      -3.98666
     8  O(17)              0.03148     -19.08127      -6.80867      -6.36483
     9  H(1)              -0.02078     -92.89826     -33.14841     -30.98752
    10  C(13)             -0.01091     -12.26591      -4.37678      -4.09147
    11  C(13)              0.00044       0.50010       0.17845       0.16682
    12  H(1)              -0.00229     -10.24933      -3.65722      -3.41881
    13  C(13)             -0.00653      -7.34566      -2.62111      -2.45025
    14  H(1)               0.00319      14.23896       5.08081       4.74960
    15  H(1)               0.01414      63.19893      22.55095      21.08089
    16  H(1)               0.00148       6.63320       2.36689       2.21260
 --------------------------------------------------------
       Center         ----  Spin Dipole Couplings  ----
                      3XX-RR        3YY-RR        3ZZ-RR
 --------------------------------------------------------
     1   Atom        0.400826     -0.273841     -0.126985
     2   Atom       -0.005113      0.030017     -0.024904
     3   Atom       -0.001147      0.006338     -0.005191
     4   Atom       -0.002994      0.007049     -0.004054
     5   Atom        0.000185      0.000975     -0.001160
     6   Atom        0.000776      0.003927     -0.004703
     7   Atom        0.427083     -0.228152     -0.198931
     8   Atom        1.169075     -0.860588     -0.308487
     9   Atom        0.182140     -0.105704     -0.076436
    10   Atom       -0.005248      0.003423      0.001825
    11   Atom        0.081742     -0.096867      0.015125
    12   Atom        0.005591     -0.011641      0.006050
    13   Atom        0.003300     -0.007587      0.004287
    14   Atom       -0.002637     -0.006007      0.008644
    15   Atom        0.000367     -0.003143      0.002776
    16   Atom       -0.003280      0.006447     -0.003167
 --------------------------------------------------------
                        XY            XZ            YZ
 --------------------------------------------------------
     1   Atom        0.062920      0.325962      0.029699
     2   Atom        0.001484      0.012223      0.016123
     3   Atom       -0.005478     -0.003741      0.003754
     4   Atom       -0.002176     -0.000632      0.004398
     5   Atom       -0.004058     -0.002744      0.003738
     6   Atom       -0.007041     -0.000228     -0.000286
     7   Atom        0.139768      0.294233      0.061803
     8   Atom        0.458573      1.179847      0.249109
     9   Atom        0.018863      0.086628      0.006714
    10   Atom       -0.013708     -0.044683      0.001219
    11   Atom        0.035645      0.133183      0.033601
    12   Atom       -0.002499     -0.006082      0.006309
    13   Atom       -0.007364      0.014327     -0.011582
    14   Atom        0.000586     -0.002270     -0.004169
    15   Atom       -0.000240      0.005360     -0.003335
    16   Atom       -0.002116      0.001415     -0.005872
 --------------------------------------------------------


 ---------------------------------------------------------------------------------
              Anisotropic Spin Dipole Couplings in Principal Axis System
 ---------------------------------------------------------------------------------

       Atom             a.u.   MegaHertz   Gauss  10(-4) cm-1        Axes

              Baa    -0.2825   -37.910   -13.527   -12.645 -0.4358  0.0981  0.8947
     1 C(13)  Bbb    -0.2796   -37.520   -13.388   -12.515 -0.0321  0.9917 -0.1244
              Bcc     0.5621    75.430    26.915    25.161  0.8995  0.0829  0.4290
 
              Baa    -0.0339   -18.067    -6.447    -6.027 -0.3722 -0.2190  0.9020
     2 H(1)   Bbb    -0.0011    -0.589    -0.210    -0.196  0.9202 -0.2137  0.3278
              Bcc     0.0350    18.656     6.657     6.223  0.1210  0.9520  0.2811
 
              Baa    -0.0074    -0.999    -0.356    -0.333  0.4788 -0.0485  0.8766
     3 C(13)  Bbb    -0.0034    -0.457    -0.163    -0.152  0.7399  0.5598 -0.3731
              Bcc     0.0108     1.456     0.519     0.486 -0.4726  0.8272  0.3039
 
              Baa    -0.0056    -2.984    -1.065    -0.995 -0.0531 -0.3363  0.9402
     4 H(1)   Bbb    -0.0034    -1.822    -0.650    -0.608  0.9812  0.1571  0.1117
              Bcc     0.0090     4.806     1.715     1.603 -0.1853  0.9285  0.3217
 
              Baa    -0.0040    -2.153    -0.768    -0.718 -0.2104 -0.6883  0.6942
     5 H(1)   Bbb    -0.0032    -1.692    -0.604    -0.564  0.7929  0.2953  0.5331
              Bcc     0.0072     3.845     1.372     1.283 -0.5719  0.6626  0.4836
 
              Baa    -0.0051    -2.747    -0.980    -0.916  0.6070  0.4905  0.6253
     6 H(1)   Bbb    -0.0044    -2.357    -0.841    -0.786 -0.4908 -0.3874  0.7804
              Bcc     0.0096     5.105     1.821     1.703 -0.6250  0.7806 -0.0056
 
              Baa    -0.3161    22.873     8.162     7.630 -0.3504 -0.0977  0.9315
     7 O(17)  Bbb    -0.2567    18.573     6.627     6.195 -0.2099  0.9774  0.0235
              Bcc     0.5728   -41.446   -14.789   -13.825  0.9128  0.1873  0.3630
 
              Baa    -0.9646    69.796    24.905    23.282 -0.4910  0.5532  0.6729
     8 O(17)  Bbb    -0.9557    69.154    24.676    23.067  0.1391  0.8124 -0.5663
              Bcc     1.9203  -138.950   -49.581   -46.349  0.8600  0.1844  0.4759
 
              Baa    -0.1072   -57.181   -20.404   -19.074  0.0013  0.9762 -0.2170
     9 H(1)   Bbb    -0.1026   -54.730   -19.529   -18.256 -0.2973  0.2076  0.9319
              Bcc     0.2097   111.911    39.933    37.330  0.9548  0.0633  0.2905
 
              Baa    -0.0482    -6.471    -2.309    -2.159  0.7360  0.1799  0.6527
    10 C(13)  Bbb     0.0026     0.348     0.124     0.116  0.0312  0.9540 -0.2982
              Bcc     0.0456     6.123     2.185     2.042 -0.6763  0.2398  0.6965
 
              Baa    -0.1062   -14.252    -5.086    -4.754  0.0283  0.9549 -0.2955
    11 C(13)  Bbb    -0.0877   -11.768    -4.199    -3.925 -0.6304  0.2464  0.7361
              Bcc     0.1939    26.020     9.284     8.679  0.7757  0.1655  0.6090
 
              Baa    -0.0137    -7.297    -2.604    -2.434  0.0304  0.9547 -0.2960
    12 H(1)   Bbb     0.0002     0.092     0.033     0.031  0.7692  0.1667  0.6169
              Bcc     0.0135     7.205     2.571     2.403 -0.6383  0.2464  0.7293
 
              Baa    -0.0148    -1.991    -0.710    -0.664 -0.1414  0.7963  0.5882
    13 C(13)  Bbb    -0.0091    -1.218    -0.435    -0.406  0.7755  0.4584 -0.4342
              Bcc     0.0239     3.208     1.145     1.070  0.6153 -0.3948  0.6823
 
              Baa    -0.0071    -3.794    -1.354    -1.265  0.0035  0.9666  0.2563
    14 H(1)   Bbb    -0.0031    -1.636    -0.584    -0.546  0.9837 -0.0495  0.1731
              Bcc     0.0102     5.429     1.937     1.811 -0.1800 -0.2515  0.9510
 
              Baa    -0.0057    -3.056    -1.091    -1.019 -0.4676  0.6821  0.5622
    15 H(1)   Bbb    -0.0021    -1.095    -0.391    -0.365  0.6735  0.6869 -0.2732
              Bcc     0.0078     4.151     1.481     1.385  0.5725 -0.2509  0.7805
 
              Baa    -0.0060    -3.206    -1.144    -1.069 -0.1591  0.3988  0.9032
    16 H(1)   Bbb    -0.0037    -1.978    -0.706    -0.660  0.9687  0.2394  0.0649
              Bcc     0.0097     5.184     1.850     1.729 -0.1903  0.8853 -0.4244
 

 ---------------------------------------------------------------------------------

 1\1\GINC-N178\Scan\UB2PLYPD3-FC\CC-pVTZ\C5H9O2(2)\ROOT\21-Jun-2019\0\\
 # opt=(calcfc,ts,noeigentest,maxcyc=500,modredundant) uB2PLYPD3/cc-pvt
 z scf=maxcyc=500 nosymm\\Title Card Required\\0,2\C,-0.9952108757,0.27
 13415091,-0.1639198268\H,-1.044075155,-0.7817919112,-0.4346274947\C,2.
 4538792542,-1.2026160456,-0.4648245579\H,1.5564632634,-1.8178234886,-0
 .5387683466\H,3.0819009209,-1.3515581493,-1.3402319433\H,3.0003313928,
 -1.4530673215,0.4421251911\O,2.1170626093,0.180757035,-0.4747151517\O,
 1.3777715759,0.4573138115,0.675683798\H,0.2143663761,0.3444716701,0.34
 27183406\C,-1.8675887874,0.6147539018,0.9053259476\C,-2.5770718769,0.9
 304402947,1.8327046888\H,-3.2056044849,1.2024978477,2.6417518069\C,-0.
 9226398262,1.217366788,-1.3430392999\H,-0.0717084312,0.9678911611,-1.9
 739032084\H,-1.8306425623,1.151344371,-1.9453960855\H,-0.813206393,2.2
 443765263,-1.0033798582\\Version=ES64L-G16RevB.01\HF=-345.5760747,-345
 .5759658,-345.5758328,-345.5757016,-345.5755689,-345.575433,-345.57529
 33,-345.5751641,-345.5750709,-345.5750094,-345.5749808,-345.574991,-34
 5.5750531,-345.5751887,-345.5754083,-345.5757118,-345.5760641,-345.576
 3726,-345.5765335,-345.5765682,-345.5765268,-345.576455,-345.5763871,-
 345.576343,-345.5763325,-345.5763519,-345.5763768,-345.5763823,-345.57
 63547,-345.5763012,-345.5762425,-345.5761931,-345.5761661,-345.5761619
 ,-345.5761622,-345.5761402,-345.576076\MP2=-346.0100319,-346.0099984,-
 346.0099112,-346.0098065,-346.0097108,-346.0096203,-346.0095298,-346.0
 09444,-346.0093537,-346.0092465,-346.0091407,-346.0090902,-346.0091553
 ,-346.0093785,-346.0097875,-346.0103666,-346.0109722,-346.0113431,-346
 .0114005,-346.0112315,-346.0109426,-346.0106301,-346.0103742,-346.0102
 119,-346.0101397,-346.0101336,-346.0101526,-346.0101535,-346.0101087,-
 346.0100241,-346.0099326,-346.0098647,-346.0098399,-346.0098672,-346.0
 099336,-346.0100031,-346.0100317\PUHF=-345.5843264,-345.5842012,-345.5
 840541,-345.5839108,-345.5837677,-345.5836262,-345.5834846,-345.583358
 3,-345.5832769,-345.5832377,-345.5832415,-345.5832893,-345.5833903,-34
 5.5835638,-345.5838215,-345.584158,-345.5845273,-345.5848325,-345.5849
 68,-345.5849575,-345.5848619,-345.5847394,-345.5846331,-345.5845634,-3
 45.5845375,-345.5845505,-345.5845755,-345.5845923,-345.5845833,-345.58
 45512,-345.5845096,-345.5844714,-345.5844501,-345.5844464,-345.584442,
 -345.5844077,-345.5843276\PMP2-0=-346.0110672,-346.0110308,-346.010941
 ,-346.0108342,-346.0107369,-346.0106459,-346.0105556,-346.0104709,-346
 .0103835,-346.0102813,-346.0101823,-346.0101396,-346.0102126,-346.0104
 432,-346.0108596,-346.0114449,-346.0120536,-346.0124233,-346.012475,-3
 46.0122964,-346.011996,-346.011673,-346.0114092,-346.0112417,-346.0111
 661,-346.0111583,-346.0111767,-346.0111792,-346.0111377,-346.0110572,-
 346.0109691,-346.0109036,-346.0108803,-346.010908,-346.0109738,-346.01
 10413,-346.011067\S2=0.787664,0.787557,0.78746,0.787375,0.78731,0.7872
 96,0.787316,0.787374,0.787499,0.787707,0.788014,0.78839,0.788793,0.789
 193,0.789605,0.789976,0.790166,0.790115,0.789808,0.789277,0.788648,0.7
 88074,0.787654,0.787383,0.787219,0.787138,0.787112,0.787192,0.787348,0
 .787541,0.7877,0.787805,0.78786,0.787869,0.787843,0.787765,0.787665\S2
 -1=0.746737,0.746714,0.746695,0.746684,0.74668,0.746688,0.746701,0.746
 722,0.746758,0.746811,0.746877,0.746947,0.747012,0.747067,0.747119,0.7
 47159,0.747175,0.747152,0.747091,0.746999,0.746898,0.74681,0.746747,0.
 746704,0.746674,0.746651,0.746634,0.746632,0.746649,0.746677,0.746706,
 0.746732,0.746752,0.746763,0.746766,0.746756,0.746737\S2A=0.750946,0.7
 50943,0.75094,0.750937,0.750935,0.750935,0.750936,0.750939,0.750945,0.
 750954,0.750968,0.750986,0.751005,0.751025,0.751046,0.751066,0.751077,
 0.751075,0.751061,0.751035,0.751005,0.750977,0.750956,0.750943,0.75093
 4,0.75093,0.750928,0.750931,0.750936,0.750944,0.75095,0.750954,0.75095
 6,0.750955,0.750953,0.75095,0.750946\RMSD=4.267e-09,8.376e-09,8.527e-0
 9,7.293e-09,9.414e-09,6.638e-09,7.785e-09,3.828e-09,6.625e-09,5.852e-0
 9,7.075e-09,7.947e-09,5.544e-09,6.828e-09,8.411e-09,8.247e-09,9.413e-0
 9,5.750e-09,8.767e-09,5.888e-09,9.331e-09,5.162e-09,8.364e-09,8.868e-0
 9,6.078e-09,3.442e-09,6.292e-09,6.093e-09,9.359e-09,5.685e-09,6.062e-0
 9,4.367e-09,8.180e-09,7.596e-09,6.956e-09,5.122e-09,6.279e-09\PG=C01 [
 X(C5H9O2)]\\@


 I SUPPOSE A BABY LLAMA HAS A MMAMA AND A PPOPA.
     -- RICHARD AMOUR
 Job cpu time:      22 days 17 hours 39 minutes 19.0 seconds.
 Elapsed time:       0 days 19 hours 49 minutes 28.2 seconds.
 File lengths (MBytes):  RWF=  83476 Int=      0 D2E=      0 Chk=     20 Scr=      1
 Normal termination of Gaussian 16 at Fri Jun 21 05:50:50 2019.
