 Entering Gaussian System, Link 0=g16
 Initial command:
 /ichec/packages/gaussian/16b01/l1.exe "/localscratch/341085/Gau-49518.inp" -scrdir="/localscratch/341085/"
 Entering Link 1 = /ichec/packages/gaussian/16b01/l1.exe PID=     49519.
  
 Copyright (c) 1988-2017, Gaussian, Inc.  All Rights Reserved.
  
 This is part of the Gaussian(R) 16 program.  It is based on
 the Gaussian(R) 09 system (copyright 2009, Gaussian, Inc.),
 the Gaussian(R) 03 system (copyright 2003, Gaussian, Inc.),
 the Gaussian(R) 98 system (copyright 1998, Gaussian, Inc.),
 the Gaussian(R) 94 system (copyright 1995, Gaussian, Inc.),
 the Gaussian 92(TM) system (copyright 1992, Gaussian, Inc.),
 the Gaussian 90(TM) system (copyright 1990, Gaussian, Inc.),
 the Gaussian 88(TM) system (copyright 1988, Gaussian, Inc.),
 the Gaussian 86(TM) system (copyright 1986, Carnegie Mellon
 University), and the Gaussian 82(TM) system (copyright 1983,
 Carnegie Mellon University). Gaussian is a federally registered
 trademark of Gaussian, Inc.
  
 This software contains proprietary and confidential information,
 including trade secrets, belonging to Gaussian, Inc.
  
 This software is provided under written license and may be
 used, copied, transmitted, or stored only in accord with that
 written license.
  
 The following legend is applicable only to US Government
 contracts under FAR:
  
                    RESTRICTED RIGHTS LEGEND
  
 Use, reproduction and disclosure by the US Government is
 subject to restrictions as set forth in subparagraphs (a)
 and (c) of the Commercial Computer Software - Restricted
 Rights clause in FAR 52.227-19.
  
 Gaussian, Inc.
 340 Quinnipiac St., Bldg. 40, Wallingford CT 06492
  
  
 ---------------------------------------------------------------
 Warning -- This program may not be used in any manner that
 competes with the business of Gaussian, Inc. or will provide
 assistance to any competitor of Gaussian, Inc.  The licensee
 of this program is prohibited from giving any competitor of
 Gaussian, Inc. access to this program.  By using this program,
 the user acknowledges that Gaussian, Inc. is engaged in the
 business of creating and licensing software in the field of
 computational chemistry and represents and warrants to the
 licensee that it is not a competitor of Gaussian, Inc. and that
 it will not use this program in any manner prohibited above.
 ---------------------------------------------------------------
  

 Cite this work as:
 Gaussian 16, Revision B.01,
 M. J. Frisch, G. W. Trucks, H. B. Schlegel, G. E. Scuseria, 
 M. A. Robb, J. R. Cheeseman, G. Scalmani, V. Barone, 
 G. A. Petersson, H. Nakatsuji, X. Li, M. Caricato, A. V. Marenich, 
 J. Bloino, B. G. Janesko, R. Gomperts, B. Mennucci, H. P. Hratchian, 
 J. V. Ortiz, A. F. Izmaylov, J. L. Sonnenberg, D. Williams-Young, 
 F. Ding, F. Lipparini, F. Egidi, J. Goings, B. Peng, A. Petrone, 
 T. Henderson, D. Ranasinghe, V. G. Zakrzewski, J. Gao, N. Rega, 
 G. Zheng, W. Liang, M. Hada, M. Ehara, K. Toyota, R. Fukuda, 
 J. Hasegawa, M. Ishida, T. Nakajima, Y. Honda, O. Kitao, H. Nakai, 
 T. Vreven, K. Throssell, J. A. Montgomery, Jr., J. E. Peralta, 
 F. Ogliaro, M. J. Bearpark, J. J. Heyd, E. N. Brothers, K. N. Kudin, 
 V. N. Staroverov, T. A. Keith, R. Kobayashi, J. Normand, 
 K. Raghavachari, A. P. Rendell, J. C. Burant, S. S. Iyengar, 
 J. Tomasi, M. Cossi, J. M. Millam, M. Klene, C. Adamo, R. Cammi, 
 J. W. Ochterski, R. L. Martin, K. Morokuma, O. Farkas, 
 J. B. Foresman, and D. J. Fox, Gaussian, Inc., Wallingford CT, 2016.
 
 ******************************************
 Gaussian 16:  ES64L-G16RevB.01 20-Dec-2017
                 6-Jun-2019 
 ******************************************
 %mem=80GB
 %nproc=40
 Will use up to   40 processors via shared memory.
 ----------------------------------------------------------------------
 # opt=(calcfc,ts,noeigentest,maxcyc=500) freq=noraman uB2PLYPD3/cc-pvt
 z
 ----------------------------------------------------------------------
 1/5=1,6=500,10=4,11=1,18=20,38=1/1,3;
 2/9=110,12=2,17=6,18=5,40=1/2;
 3/5=16,6=1,11=2,25=1,30=1,71=2,74=-60,116=2,140=1/1,2,3;
 4//1;
 5/5=2,38=5/2;
 8/6=3,8=1,10=1,19=11,30=-1/1;
 9/15=3,16=-3/6;
 11/6=1,8=1,15=11,17=12,24=-1,27=1,28=-2,29=300,32=6,42=3/1,2,10;
 10/6=2,21=1/2;
 8/6=4,8=1,10=1,19=11,30=-1/11,4;
 10/5=1,20=4/2;
 11/12=2,14=11,16=1,17=2,28=-2,42=3,76=2/2,10,12;
 6/7=2,8=2,9=2,10=2/1;
 7/10=1,12=2,25=1,44=2/1,2,3,16;
 1/5=1,6=500,10=4,11=1,18=20/3(2);
 2/9=110/2;
 99//99;
 2/9=110/2;
 3/5=16,6=1,11=2,25=1,30=1,71=1,74=-60,116=2/1,2,3;
 4/5=5,16=3,69=1/1;
 5/5=2,38=5/2;
 8/6=4,10=1/1;
 9/15=2,16=-3/6;
 10/5=1/2;
 7/12=2/1,2,3,16;
 1/5=1,6=500,11=1,18=20/3(-8);
 2/9=110/2;
 6/7=2,8=2,9=2,10=2/1;
 99/9=10/99;
 -------------------
 Title Card Required
 -------------------
 Symbolic Z-matrix:
 Charge =  0 Multiplicity = 2
 C                    -0.78471   0.61491  -0.02106 
 C                    -0.31518   1.74713   0.44089 
 C                     2.66762   0.0248   -0.66852 
 H                     1.97717   0.60589  -1.28469 
 H                     3.53963   0.62569  -0.41658 
 H                     2.97038  -0.87861  -1.19733 
 O                     2.06217  -0.30757   0.56531 
 O                     0.98758  -1.14119   0.30411 
 H                     0.12763  -0.41735   0.14908 
 H                    -0.9078    2.65944   0.40334 
 H                     0.67365   1.80817   0.88235 
 C                    -2.05826   0.17631  -0.6394 
 H                    -2.70881   1.05205  -0.73974 
 H                    -1.85972  -0.19143  -1.64844 
 C                    -2.75049  -0.91436   0.17832 
 H                    -2.10426  -1.78601   0.2784 
 H                    -2.98363  -0.55305   1.17877 
 H                    -3.67611  -1.22739  -0.3019 
 
 Add virtual bond connecting atoms H9         and C1         Dist= 2.62D+00.

 GradGradGradGradGradGradGradGradGradGradGradGradGradGradGradGradGradGrad
 Berny optimization.
 Initialization pass.
                           ----------------------------
                           !    Initial Parameters    !
                           ! (Angstroms and Degrees)  !
 --------------------------                            --------------------------
 ! Name  Definition              Value          Derivative Info.                !
 --------------------------------------------------------------------------------
 ! R1    R(1,2)                  1.3099         calculate D2E/DX2 analytically  !
 ! R2    R(1,9)                  1.3881         calculate D2E/DX2 analytically  !
 ! R3    R(1,12)                 1.4821         calculate D2E/DX2 analytically  !
 ! R4    R(2,10)                 1.0885         calculate D2E/DX2 analytically  !
 ! R5    R(2,11)                 1.0846         calculate D2E/DX2 analytically  !
 ! R6    R(3,4)                  1.0927         calculate D2E/DX2 analytically  !
 ! R7    R(3,5)                  1.0885         calculate D2E/DX2 analytically  !
 ! R8    R(3,6)                  1.0897         calculate D2E/DX2 analytically  !
 ! R9    R(3,7)                  1.414          calculate D2E/DX2 analytically  !
 ! R10   R(7,8)                  1.3849         calculate D2E/DX2 analytically  !
 ! R11   R(8,9)                  1.1347         calculate D2E/DX2 analytically  !
 ! R12   R(12,13)                1.0955         calculate D2E/DX2 analytically  !
 ! R13   R(12,14)                1.0922         calculate D2E/DX2 analytically  !
 ! R14   R(12,15)                1.5289         calculate D2E/DX2 analytically  !
 ! R15   R(15,16)                1.0897         calculate D2E/DX2 analytically  !
 ! R16   R(15,17)                1.0889         calculate D2E/DX2 analytically  !
 ! R17   R(15,18)                1.0887         calculate D2E/DX2 analytically  !
 ! A1    A(2,1,9)              111.3438         calculate D2E/DX2 analytically  !
 ! A2    A(2,1,12)             135.3114         calculate D2E/DX2 analytically  !
 ! A3    A(9,1,12)             113.318          calculate D2E/DX2 analytically  !
 ! A4    A(1,2,10)             121.1391         calculate D2E/DX2 analytically  !
 ! A5    A(1,2,11)             121.2643         calculate D2E/DX2 analytically  !
 ! A6    A(10,2,11)            117.5943         calculate D2E/DX2 analytically  !
 ! A7    A(4,3,5)              110.0678         calculate D2E/DX2 analytically  !
 ! A8    A(4,3,6)              110.0462         calculate D2E/DX2 analytically  !
 ! A9    A(4,3,7)              110.2722         calculate D2E/DX2 analytically  !
 ! A10   A(5,3,6)              110.3275         calculate D2E/DX2 analytically  !
 ! A11   A(5,3,7)              105.7125         calculate D2E/DX2 analytically  !
 ! A12   A(6,3,7)              110.3368         calculate D2E/DX2 analytically  !
 ! A13   A(3,7,8)              108.0089         calculate D2E/DX2 analytically  !
 ! A14   A(7,8,9)              103.2879         calculate D2E/DX2 analytically  !
 ! A15   A(1,12,13)            108.1743         calculate D2E/DX2 analytically  !
 ! A16   A(1,12,14)            109.2016         calculate D2E/DX2 analytically  !
 ! A17   A(1,12,15)            112.1497         calculate D2E/DX2 analytically  !
 ! A18   A(13,12,14)           107.0068         calculate D2E/DX2 analytically  !
 ! A19   A(13,12,15)           110.5106         calculate D2E/DX2 analytically  !
 ! A20   A(14,12,15)           109.649          calculate D2E/DX2 analytically  !
 ! A21   A(12,15,16)           110.5639         calculate D2E/DX2 analytically  !
 ! A22   A(12,15,17)           110.5871         calculate D2E/DX2 analytically  !
 ! A23   A(12,15,18)           110.7399         calculate D2E/DX2 analytically  !
 ! A24   A(16,15,17)           107.939          calculate D2E/DX2 analytically  !
 ! A25   A(16,15,18)           108.3437         calculate D2E/DX2 analytically  !
 ! A26   A(17,15,18)           108.5788         calculate D2E/DX2 analytically  !
 ! A27   L(1,9,8,4,-1)         173.7637         calculate D2E/DX2 analytically  !
 ! A28   L(1,9,8,4,-2)         174.2797         calculate D2E/DX2 analytically  !
 ! D1    D(9,1,2,10)          -178.9776         calculate D2E/DX2 analytically  !
 ! D2    D(9,1,2,11)             0.4692         calculate D2E/DX2 analytically  !
 ! D3    D(12,1,2,10)           -1.055          calculate D2E/DX2 analytically  !
 ! D4    D(12,1,2,11)          178.3918         calculate D2E/DX2 analytically  !
 ! D5    D(2,1,8,7)            -14.5997         calculate D2E/DX2 analytically  !
 ! D6    D(12,1,8,7)           166.0006         calculate D2E/DX2 analytically  !
 ! D7    D(2,1,12,13)            2.4727         calculate D2E/DX2 analytically  !
 ! D8    D(2,1,12,14)          118.5964         calculate D2E/DX2 analytically  !
 ! D9    D(2,1,12,15)         -119.6541         calculate D2E/DX2 analytically  !
 ! D10   D(9,1,12,13)         -179.6343         calculate D2E/DX2 analytically  !
 ! D11   D(9,1,12,14)          -63.5107         calculate D2E/DX2 analytically  !
 ! D12   D(9,1,12,15)           58.2388         calculate D2E/DX2 analytically  !
 ! D13   D(4,3,7,8)             64.5284         calculate D2E/DX2 analytically  !
 ! D14   D(5,3,7,8)           -176.5313         calculate D2E/DX2 analytically  !
 ! D15   D(6,3,7,8)            -57.2479         calculate D2E/DX2 analytically  !
 ! D16   D(3,7,8,9)            -89.0273         calculate D2E/DX2 analytically  !
 ! D17   D(1,12,15,16)         -59.2317         calculate D2E/DX2 analytically  !
 ! D18   D(1,12,15,17)          60.2616         calculate D2E/DX2 analytically  !
 ! D19   D(1,12,15,18)        -179.33           calculate D2E/DX2 analytically  !
 ! D20   D(13,12,15,16)        179.9821         calculate D2E/DX2 analytically  !
 ! D21   D(13,12,15,17)        -60.5246         calculate D2E/DX2 analytically  !
 ! D22   D(13,12,15,18)         59.8838         calculate D2E/DX2 analytically  !
 ! D23   D(14,12,15,16)         62.2615         calculate D2E/DX2 analytically  !
 ! D24   D(14,12,15,17)       -178.2451         calculate D2E/DX2 analytically  !
 ! D25   D(14,12,15,18)        -57.8367         calculate D2E/DX2 analytically  !
 --------------------------------------------------------------------------------
 Trust Radius=3.00D-01 FncErr=1.00D-07 GrdErr=1.00D-07 EigMax=2.50D+02 EigMin=1.00D-04
 Number of steps in this run=    108 maximum allowed number of steps=    108.
 Search for a saddle point of order  1.
 GradGradGradGradGradGradGradGradGradGradGradGradGradGradGradGradGradGrad

                          Input orientation:                          
 ---------------------------------------------------------------------
 Center     Atomic      Atomic             Coordinates (Angstroms)
 Number     Number       Type             X           Y           Z
 ---------------------------------------------------------------------
      1          6           0       -0.784708    0.614906   -0.021055
      2          6           0       -0.315175    1.747126    0.440885
      3          6           0        2.667620    0.024802   -0.668520
      4          1           0        1.977168    0.605888   -1.284693
      5          1           0        3.539628    0.625687   -0.416582
      6          1           0        2.970379   -0.878611   -1.197330
      7          8           0        2.062165   -0.307569    0.565309
      8          8           0        0.987579   -1.141192    0.304110
      9          1           0        0.127630   -0.417354    0.149084
     10          1           0       -0.907803    2.659443    0.403336
     11          1           0        0.673645    1.808169    0.882347
     12          6           0       -2.058257    0.176309   -0.639401
     13          1           0       -2.708807    1.052054   -0.739736
     14          1           0       -1.859721   -0.191429   -1.648442
     15          6           0       -2.750491   -0.914362    0.178324
     16          1           0       -2.104262   -1.786011    0.278399
     17          1           0       -2.983632   -0.553053    1.178773
     18          1           0       -3.676113   -1.227386   -0.301901
 ---------------------------------------------------------------------
                    Distance matrix (angstroms):
                    1          2          3          4          5
     1  C    0.000000
     2  C    1.309875   0.000000
     3  C    3.561741   3.618597   0.000000
     4  H    3.037239   3.087860   1.092728   0.000000
     5  H    4.342400   4.105165   1.088547   1.787537   0.000000
     6  H    4.208907   4.513658   1.089706   1.788250   1.787883
     7  O    3.049503   3.144678   1.413994   2.064978   2.004488
     8  O    2.516071   3.171475   2.264528   2.560443   3.186568
     9  H    1.388117   2.228497   2.704723   2.554120   3.612429
    10  H    2.091744   1.088550   4.568792   3.922957   4.958636
    11  H    2.089690   1.084611   3.092171   2.800128   3.361449
    12  C    1.482109   2.583180   4.728395   4.109209   5.620312
    13  H    2.099942   2.757982   5.474147   4.738608   6.271296
    14  H    2.110502   3.241744   4.637221   3.935701   5.598047
    15  C    2.498543   3.617073   5.563731   5.177097   6.503173
    16  H    2.755957   3.963621   5.191007   4.982219   6.176794
    17  H    2.763871   3.599440   5.973530   5.658741   6.818175
    18  H    3.439933   4.549215   6.476522   6.023816   7.450768
                    6          7          8          9         10
     6  H    0.000000
     7  O    2.063453   0.000000
     8  O    2.500953   1.384878   0.000000
     9  H    3.179121   1.981848   1.134675   0.000000
    10  H    5.488192   4.201203   4.248193   3.256293   0.000000
    11  H    4.101077   2.550460   3.021861   2.405984   1.858789
    12  C    5.168300   4.320109   3.450093   2.398384   2.928617
    13  H    6.015814   5.129707   4.423032   3.315801   2.670941
    14  H    4.899550   4.505038   3.580730   2.689183   3.639150
    15  C    5.884051   4.866170   3.747058   2.920865   4.027184
    16  H    5.362195   4.430262   3.158470   2.621314   4.605343
    17  H    6.418886   5.088877   4.108705   3.280034   3.902627
    18  H    6.715601   5.875879   4.703690   3.915099   4.823727
                   11         12         13         14         15
    11  H    0.000000
    12  C    3.527318   0.000000
    13  H    3.826728   1.095542   0.000000
    14  H    4.101369   1.092159   1.758677   0.000000
    15  C    4.430861   1.528864   2.170568   2.157122   0.000000
    16  H    4.582538   2.166835   3.075173   2.513008   1.089678
    17  H    4.363360   2.166574   2.516461   3.063836   1.088943
    18  H    5.434835   2.168346   2.514603   2.487099   1.088750
                   16         17         18
    16  H    0.000000
    17  H    1.761860   0.000000
    18  H    1.766218   1.768234   0.000000
 Stoichiometry    C5H11O2(2)
 Framework group  C1[X(C5H11O2)]
 Deg. of freedom    48
 Full point group                 C1      NOp   1
 Largest Abelian subgroup         C1      NOp   1
 Largest concise Abelian subgroup C1      NOp   1
                         Standard orientation:                         
 ---------------------------------------------------------------------
 Center     Atomic      Atomic             Coordinates (Angstroms)
 Number     Number       Type             X           Y           Z
 ---------------------------------------------------------------------
      1          6           0        0.784708    0.614906    0.021055
      2          6           0        0.315175    1.747126   -0.440885
      3          6           0       -2.667620    0.024802    0.668520
      4          1           0       -1.977168    0.605888    1.284693
      5          1           0       -3.539628    0.625687    0.416582
      6          1           0       -2.970379   -0.878611    1.197330
      7          8           0       -2.062165   -0.307569   -0.565309
      8          8           0       -0.987579   -1.141192   -0.304110
      9          1           0       -0.127630   -0.417354   -0.149084
     10          1           0        0.907803    2.659443   -0.403336
     11          1           0       -0.673645    1.808169   -0.882347
     12          6           0        2.058257    0.176309    0.639401
     13          1           0        2.708807    1.052054    0.739736
     14          1           0        1.859721   -0.191429    1.648442
     15          6           0        2.750491   -0.914362   -0.178324
     16          1           0        2.104262   -1.786011   -0.278399
     17          1           0        2.983632   -0.553053   -1.178773
     18          1           0        3.676113   -1.227386    0.301901
 ---------------------------------------------------------------------
 Rotational constants (GHZ):           4.1897745           1.2253361           1.0617075
 Standard basis: CC-pVTZ (5D, 7F)
 There are   410 symmetry adapted cartesian basis functions of A   symmetry.
 There are   364 symmetry adapted basis functions of A   symmetry.
   364 basis functions,   551 primitive gaussians,   410 cartesian basis functions
    29 alpha electrons       28 beta electrons
       nuclear repulsion energy       306.2061841915 Hartrees.
 NAtoms=   18 NActive=   18 NUniq=   18 SFac= 1.00D+00 NAtFMM=   60 NAOKFM=F Big=F
 Integral buffers will be    131072 words long.
 Raffenetti 2 integral format.
 Two-electron integral symmetry is turned on.
 Nuclear repulsion after empirical dispersion term =      306.1965829633 Hartrees.
 One-electron integrals computed using PRISM.
 NBasis=   364 RedAO= T EigKep=  3.49D-04  NBF=   364
 NBsUse=   364 1.00D-06 EigRej= -1.00D+00 NBFU=   364
 ExpMin= 1.03D-01 ExpMax= 1.53D+04 ExpMxC= 5.22D+02 IAcc=3 IRadAn=         5 AccDes= 0.00D+00
 Harris functional with IExCor=  419 and IRadAn=       5 diagonalized for initial guess.
 HarFok:  IExCor=  419 AccDes= 0.00D+00 IRadAn=         5 IDoV= 1 UseB2=F ITyADJ=14
 ICtDFT=  3500011 ScaDFX=  1.000000  1.000000  1.000000  1.000000
 FoFCou: FMM=F IPFlag=           0 FMFlag=      100000 FMFlg1=           0
         NFxFlg=           0 DoJE=T BraDBF=F KetDBF=T FulRan=T
         wScrn=  0.000000 ICntrl=       500 IOpCl=  0 I1Cent=   200000004 NGrid=           0
         NMat0=    1 NMatS0=      1 NMatT0=    0 NMatD0=    1 NMtDS0=    0 NMtDT0=    0
 Petite list used in FoFCou.
 Initial guess <Sx>= 0.0000 <Sy>= 0.0000 <Sz>= 0.5000 <S**2>= 0.7500 S= 0.5000
 Requested convergence on RMS density matrix=1.00D-08 within 128 cycles.
 Requested convergence on MAX density matrix=1.00D-06.
 Requested convergence on             energy=1.00D-06.
 No special actions if energy rises.
 Integral accuracy reduced to 1.0D-05 until final iterations.
 Initial convergence to 1.0D-05 achieved.  Increase integral accuracy.
 SCF Done:  E(UB2PLYPD3) =  -346.802457343     A.U. after   21 cycles
            NFock= 21  Conv=0.51D-08     -V/T= 2.0042
 <Sx>= 0.0000 <Sy>= 0.0000 <Sz>= 0.5000 <S**2>= 0.7765 S= 0.5131
 <L.S>=  0.00000000000    
 Annihilation of the first spin contaminant:
 S**2 before annihilation     0.7765,   after     0.7505
 DoSCS=T DFT=T ScalE2(SS,OS)=  0.270000  0.270000
 ExpMin= 1.03D-01 ExpMax= 1.53D+04 ExpMxC= 5.22D+02 IAcc=3 IRadAn=         5 AccDes= 0.00D+00
 HarFok:  IExCor=  205 AccDes= 0.00D+00 IRadAn=         5 IDoV=-2 UseB2=F ITyADJ=14
 ICtDFT= 12500011 ScaDFX=  1.000000  1.000000  1.000000  1.000000
 Range of M.O.s used for correlation:     8   364
 NBasis=   364 NAE=    29 NBE=    28 NFC=     7 NFV=     0
 NROrb=    357 NOA=    22 NOB=    21 NVA=   335 NVB=   336

 **** Warning!!: The largest alpha MO coefficient is  0.11960002D+02


 **** Warning!!: The largest beta MO coefficient is  0.11959428D+02

 DoSCS=T DFT=T ScalE2(SS,OS)=  0.270000  0.270000
 Disk-based method using ON**2 memory for 22 occupieds at a time.
 Permanent disk used for amplitudes=   135386230 words.
 Estimated scratch disk usage=  2540777080 words.
 Actual    scratch disk usage=  2457025144 words.
 JobTyp=2 Pass  1:  I=   8 to  29 NPSUse= 40 ParTrn=T ParDer=T DoDerP=T.
 (rs|ai) integrals will be sorted in core.
 Actual    scratch disk usage=  2457025144 words.
 JobTyp=3 Pass  1:  I=   8 to  28 NPSUse= 40 ParTrn=T ParDer=T DoDerP=T.
 (rs|ai) integrals will be sorted in core.
 Spin components of T(2) and E(2):
     alpha-alpha T2 =       0.7477026670D-01 E2=     -0.5329117841D-01
     alpha-beta  T2 =       0.4600097668D+00 E2=     -0.3338499495D+00
     beta-beta   T2 =       0.8145615275D-01 E2=     -0.5260565197D-01
 (S**2,0)=  0.77646D+00           (S**2,1)=  0.74776D+00
 Scaling Projection term by:   0.270000
 E(PUHF)=      -0.34680893703D+03        E(PMP2)=      -0.34724301513D+03
 E2(B2PLYPD3) =    -0.4397467798D+00 E(B2PLYPD3) =    -0.34724220412293D+03
 G2DrvN: will do    19 centers at a time, making    1 passes.
 Calling FoFCou, ICntrl=  3107 FMM=F I1Cent=   0 AccDes= 0.00D+00.
 End of G2Drv F.D. properties file   721 does not exist.
 End of G2Drv F.D. properties file   722 does not exist.
 End of G2Drv F.D. properties file   788 does not exist.
          IDoAtm=111111111111111111
          Differentiating once with respect to electric field.
                with respect to dipole field.
          Differentiating once with respect to nuclear coordinates.
 Keep R1 and R2 ints in memory in canonical form, NReq=4459304666.
          There are    57 degrees of freedom in the 1st order CPHF.  IDoFFX=6 NUNeed=    57.
     54 vectors produced by pass  0 Test12= 3.35D-14 1.75D-09 XBig12= 8.51D+01 4.87D+00.
 AX will form    54 AO Fock derivatives at one time.
     54 vectors produced by pass  1 Test12= 3.35D-14 1.75D-09 XBig12= 8.77D+00 5.52D-01.
     54 vectors produced by pass  2 Test12= 3.35D-14 1.75D-09 XBig12= 3.99D-01 7.55D-02.
     54 vectors produced by pass  3 Test12= 3.35D-14 1.75D-09 XBig12= 8.20D-03 8.26D-03.
     54 vectors produced by pass  4 Test12= 3.35D-14 1.75D-09 XBig12= 1.20D-04 9.54D-04.
     54 vectors produced by pass  5 Test12= 3.35D-14 1.75D-09 XBig12= 1.36D-06 1.13D-04.
     52 vectors produced by pass  6 Test12= 3.35D-14 1.75D-09 XBig12= 1.01D-08 9.64D-06.
     23 vectors produced by pass  7 Test12= 3.35D-14 1.75D-09 XBig12= 6.43D-11 7.54D-07.
      4 vectors produced by pass  8 Test12= 3.35D-14 1.75D-09 XBig12= 4.68D-13 6.42D-08.
      2 vectors produced by pass  9 Test12= 3.35D-14 1.75D-09 XBig12= 3.60D-15 5.47D-09.
 InvSVY:  IOpt=1 It=  1 EMax= 5.33D-15
 Solved reduced A of dimension   405 with    57 vectors.
 End of Minotr F.D. properties file   721 does not exist.
 End of Minotr F.D. properties file   722 does not exist.
 End of Minotr F.D. properties file   788 does not exist.
 MDV= 10737418240.
 DoSCS=T DFT=T ScalE2(SS,OS)=  0.270000  0.270000
 Form MO integral derivatives with frozen-active canonical formalism.
 Discarding MO integrals.
 Reordered first order wavefunction length =    545006183
 In DefCFB: NBatch=  1 ICI= 29 ICA=336 LFMax= 68
            Large arrays: LIAPS= 11415666080 LIARS=  1957569600 words.
 In DefCFB: NBatch=  1 ICI= 29 ICA=336 LFMax= 68
            Large arrays: LIAPS= 11415666080 LIARS=  1957569600 words.
 Semi-Direct transformation.
 ModeAB=           4 MOrb=            29 LenV=   10733559155
 LASXX=    664627481 LTotXX=   664627481 LenRXX=  1338891981
 LTotAB=   674264500 MaxLAS=   782790736 LenRXY=           0
 NonZer=  2003519462 LenScr=  3017065472 LnRSAI=   782790736
 LnScr1=  1178790912 LExtra=           0 Total=   6317539101
 MaxDsk=          -1 SrtSym=           T ITran=            4
 JobTyp=1 Pass  1:  I=   1 to  29.
 (rs|ai) integrals will be sorted in core.
 ModeAB=           4 MOrb=            28 LenV=   10733559155
 LASXX=    642894399 LTotXX=   642894399 LenRXX=  1195226319
 LTotAB=   552331920 MaxLAS=   755797952 LenRXY=           0
 NonZer=  1838120718 LenScr=  2767993856 LnRSAI=   755797952
 LnScr1=  1138143232 LExtra=           0 Total=   5857161359
 MaxDsk=          -1 SrtSym=           T ITran=            4
 JobTyp=2 Pass  1:  I=   1 to  28.
 (rs|ai) integrals will be sorted in core.
 SymMOI:  orbitals are not symmetric.
 DoSCS=T DFT=T ScalE2(SS,OS)=  0.270000  0.270000
 Spin components of T(2) and E(2):
     alpha-alpha T2 =       0.7477026670D-01 E2=     -0.5329117841D-01
     alpha-beta  T2 =       0.4600097668D+00 E2=     -0.3338499495D+00
     beta-beta   T2 =       0.8145615275D-01 E2=     -0.5260565197D-01
 E2(B2PLYPD3) =    -0.4397467798D+00 E(B2PLYPD3) =    -0.34724220412293D+03
 (S**2,0)=  0.77646D+00           (S**2,1)=  0.74776D+00
 Scaling Projection term by:   0.270000
 E(PUHF)=      -0.34680893703D+03        E(PMP2)=      -0.34724301513D+03
          IDoAtm=111111111111111111
          Differentiating once with respect to electric field.
                with respect to dipole field.
          Differentiating once with respect to nuclear coordinates.
 Keep R1 and R2 ints in memory in canonical form, NReq=4459439664.
          There are     1 degrees of freedom in the 1st order CPHF.  IDoFFX=0 NUNeed=     1.
 LinEq1:  Iter=  0 NonCon=     1 RMS=8.55D-04 Max=6.76D-02 NDo=     1
 AX will form     1 AO Fock derivatives at one time.
 LinEq1:  Iter=  1 NonCon=     1 RMS=3.12D-04 Max=1.43D-02 NDo=     1
 LinEq1:  Iter=  2 NonCon=     1 RMS=2.04D-04 Max=1.14D-02 NDo=     1
 LinEq1:  Iter=  3 NonCon=     1 RMS=1.16D-04 Max=8.83D-03 NDo=     1
 LinEq1:  Iter=  4 NonCon=     1 RMS=7.13D-05 Max=4.66D-03 NDo=     1
 LinEq1:  Iter=  5 NonCon=     1 RMS=2.85D-05 Max=7.34D-04 NDo=     1
 LinEq1:  Iter=  6 NonCon=     1 RMS=2.15D-05 Max=1.02D-03 NDo=     1
 LinEq1:  Iter=  7 NonCon=     1 RMS=8.59D-06 Max=2.33D-04 NDo=     1
 LinEq1:  Iter=  8 NonCon=     1 RMS=5.74D-06 Max=1.74D-04 NDo=     1
 LinEq1:  Iter=  9 NonCon=     1 RMS=2.47D-06 Max=5.80D-05 NDo=     1
 LinEq1:  Iter= 10 NonCon=     1 RMS=9.91D-07 Max=1.67D-05 NDo=     1
 LinEq1:  Iter= 11 NonCon=     1 RMS=4.40D-07 Max=8.03D-06 NDo=     1
 LinEq1:  Iter= 12 NonCon=     1 RMS=1.72D-07 Max=3.20D-06 NDo=     1
 LinEq1:  Iter= 13 NonCon=     1 RMS=7.53D-08 Max=1.77D-06 NDo=     1
 LinEq1:  Iter= 14 NonCon=     1 RMS=2.57D-08 Max=6.81D-07 NDo=     1
 LinEq1:  Iter= 15 NonCon=     1 RMS=1.10D-08 Max=2.68D-07 NDo=     1
 LinEq1:  Iter= 16 NonCon=     1 RMS=4.53D-09 Max=1.13D-07 NDo=     1
 LinEq1:  Iter= 17 NonCon=     1 RMS=1.50D-09 Max=4.13D-08 NDo=     1
 LinEq1:  Iter= 18 NonCon=     1 RMS=4.88D-10 Max=2.29D-08 NDo=     1
 LinEq1:  Iter= 19 NonCon=     1 RMS=1.78D-10 Max=9.75D-09 NDo=     1
 LinEq1:  Iter= 20 NonCon=     1 RMS=6.14D-11 Max=3.56D-09 NDo=     1
 LinEq1:  Iter= 21 NonCon=     1 RMS=2.85D-11 Max=1.32D-09 NDo=     1
 LinEq1:  Iter= 22 NonCon=     0 RMS=1.23D-11 Max=4.08D-10 NDo=     1
 Linear equations converged to 1.000D-10 1.000D-09 after    22 iterations.
 End of Minotr F.D. properties file   721 does not exist.
 End of Minotr F.D. properties file   722 does not exist.
 End of Minotr F.D. properties file   788 does not exist.
 Symmetrizing basis deriv contribution to polar:
 IMax=3 JMax=2 DiffMx= 0.00D+00
 G2DrvN: will do    19 centers at a time, making    1 passes.
 Calling FoFCou, ICntrl=  3107 FMM=F I1Cent=   0 AccDes= 0.00D+00.
 End of G2Drv F.D. properties file   721 does not exist.
 End of G2Drv F.D. properties file   722 does not exist.
 End of G2Drv F.D. properties file   788 does not exist.
 DoSCS=T DFT=T ScalE2(SS,OS)=  0.270000  0.270000
 R2 and R3 integrals will be kept in memory, NReq=  7133702340.
 DD1Dir will call FoFMem   1 times, MxPair=      2408
 NAB=   812 NAA=   406 NBB=   378.
 Discarding MO integrals.

 **********************************************************************

            Population analysis using the SCF Density.

 **********************************************************************

 Orbital symmetries:
 Alpha Orbitals:
       Occupied  (A) (A) (A) (A) (A) (A) (A) (A) (A) (A) (A) (A)
                 (A) (A) (A) (A) (A) (A) (A) (A) (A) (A) (A) (A)
                 (A) (A) (A) (A) (A)
       Virtual   (A) (A) (A) (A) (A) (A) (A) (A) (A) (A) (A) (A)
                 (A) (A) (A) (A) (A) (A) (A) (A) (A) (A) (A) (A)
                 (A) (A) (A) (A) (A) (A) (A) (A) (A) (A) (A) (A)
                 (A) (A) (A) (A) (A) (A) (A) (A) (A) (A) (A) (A)
                 (A) (A) (A) (A) (A) (A) (A) (A) (A) (A) (A) (A)
                 (A) (A) (A) (A) (A) (A) (A) (A) (A) (A) (A) (A)
                 (A) (A) (A) (A) (A) (A) (A) (A) (A) (A) (A) (A)
                 (A) (A) (A) (A) (A) (A) (A) (A) (A) (A) (A) (A)
                 (A) (A) (A) (A) (A) (A) (A) (A) (A) (A) (A) (A)
                 (A) (A) (A) (A) (A) (A) (A) (A) (A) (A) (A) (A)
                 (A) (A) (A) (A) (A) (A) (A) (A) (A) (A) (A) (A)
                 (A) (A) (A) (A) (A) (A) (A) (A) (A) (A) (A) (A)
                 (A) (A) (A) (A) (A) (A) (A) (A) (A) (A) (A) (A)
                 (A) (A) (A) (A) (A) (A) (A) (A) (A) (A) (A) (A)
                 (A) (A) (A) (A) (A) (A) (A) (A) (A) (A) (A) (A)
                 (A) (A) (A) (A) (A) (A) (A) (A) (A) (A) (A) (A)
                 (A) (A) (A) (A) (A) (A) (A) (A) (A) (A) (A) (A)
                 (A) (A) (A) (A) (A) (A) (A) (A) (A) (A) (A) (A)
                 (A) (A) (A) (A) (A) (A) (A) (A) (A) (A) (A) (A)
                 (A) (A) (A) (A) (A) (A) (A) (A) (A) (A) (A) (A)
                 (A) (A) (A) (A) (A) (A) (A) (A) (A) (A) (A) (A)
                 (A) (A) (A) (A) (A) (A) (A) (A) (A) (A) (A) (A)
                 (A) (A) (A) (A) (A) (A) (A) (A) (A) (A) (A) (A)
                 (A) (A) (A) (A) (A) (A) (A) (A) (A) (A) (A) (A)
                 (A) (A) (A) (A) (A) (A) (A) (A) (A) (A) (A) (A)
                 (A) (A) (A) (A) (A) (A) (A) (A) (A) (A) (A) (A)
                 (A) (A) (A) (A) (A) (A) (A) (A) (A) (A) (A) (A)
                 (A) (A) (A) (A) (A) (A) (A) (A) (A) (A) (A)
 Beta  Orbitals:
       Occupied  (A) (A) (A) (A) (A) (A) (A) (A) (A) (A) (A) (A)
                 (A) (A) (A) (A) (A) (A) (A) (A) (A) (A) (A) (A)
                 (A) (A) (A) (A)
       Virtual   (A) (A) (A) (A) (A) (A) (A) (A) (A) (A) (A) (A)
                 (A) (A) (A) (A) (A) (A) (A) (A) (A) (A) (A) (A)
                 (A) (A) (A) (A) (A) (A) (A) (A) (A) (A) (A) (A)
                 (A) (A) (A) (A) (A) (A) (A) (A) (A) (A) (A) (A)
                 (A) (A) (A) (A) (A) (A) (A) (A) (A) (A) (A) (A)
                 (A) (A) (A) (A) (A) (A) (A) (A) (A) (A) (A) (A)
                 (A) (A) (A) (A) (A) (A) (A) (A) (A) (A) (A) (A)
                 (A) (A) (A) (A) (A) (A) (A) (A) (A) (A) (A) (A)
                 (A) (A) (A) (A) (A) (A) (A) (A) (A) (A) (A) (A)
                 (A) (A) (A) (A) (A) (A) (A) (A) (A) (A) (A) (A)
                 (A) (A) (A) (A) (A) (A) (A) (A) (A) (A) (A) (A)
                 (A) (A) (A) (A) (A) (A) (A) (A) (A) (A) (A) (A)
                 (A) (A) (A) (A) (A) (A) (A) (A) (A) (A) (A) (A)
                 (A) (A) (A) (A) (A) (A) (A) (A) (A) (A) (A) (A)
                 (A) (A) (A) (A) (A) (A) (A) (A) (A) (A) (A) (A)
                 (A) (A) (A) (A) (A) (A) (A) (A) (A) (A) (A) (A)
                 (A) (A) (A) (A) (A) (A) (A) (A) (A) (A) (A) (A)
                 (A) (A) (A) (A) (A) (A) (A) (A) (A) (A) (A) (A)
                 (A) (A) (A) (A) (A) (A) (A) (A) (A) (A) (A) (A)
                 (A) (A) (A) (A) (A) (A) (A) (A) (A) (A) (A) (A)
                 (A) (A) (A) (A) (A) (A) (A) (A) (A) (A) (A) (A)
                 (A) (A) (A) (A) (A) (A) (A) (A) (A) (A) (A) (A)
                 (A) (A) (A) (A) (A) (A) (A) (A) (A) (A) (A) (A)
                 (A) (A) (A) (A) (A) (A) (A) (A) (A) (A) (A) (A)
                 (A) (A) (A) (A) (A) (A) (A) (A) (A) (A) (A) (A)
                 (A) (A) (A) (A) (A) (A) (A) (A) (A) (A) (A) (A)
                 (A) (A) (A) (A) (A) (A) (A) (A) (A) (A) (A) (A)
                 (A) (A) (A) (A) (A) (A) (A) (A) (A) (A) (A) (A)
 The electronic state is 2-A.
 Alpha  occ. eigenvalues --  -19.78705 -19.78382 -10.65818 -10.64758 -10.63459
 Alpha  occ. eigenvalues --  -10.61635 -10.61134  -1.28893  -1.02164  -0.93873
 Alpha  occ. eigenvalues --   -0.85712  -0.77709  -0.74161  -0.65708  -0.60249
 Alpha  occ. eigenvalues --   -0.56265  -0.55025  -0.54301  -0.53043  -0.50686
 Alpha  occ. eigenvalues --   -0.48976  -0.45410  -0.44174  -0.44117  -0.42247
 Alpha  occ. eigenvalues --   -0.37083  -0.36530  -0.32199  -0.29586
 Alpha virt. eigenvalues --    0.05825   0.08201   0.09639   0.10821   0.12286
 Alpha virt. eigenvalues --    0.13790   0.14215   0.14825   0.16006   0.16430
 Alpha virt. eigenvalues --    0.17594   0.18500   0.20466   0.22999   0.24815
 Alpha virt. eigenvalues --    0.28586   0.29119   0.30062   0.31294   0.31708
 Alpha virt. eigenvalues --    0.34954   0.35790   0.36873   0.38964   0.41874
 Alpha virt. eigenvalues --    0.43996   0.45664   0.46732   0.48135   0.48923
 Alpha virt. eigenvalues --    0.50043   0.50468   0.51154   0.51687   0.52130
 Alpha virt. eigenvalues --    0.52943   0.53737   0.53849   0.54879   0.56449
 Alpha virt. eigenvalues --    0.57139   0.58509   0.59273   0.62048   0.62997
 Alpha virt. eigenvalues --    0.65632   0.68083   0.68806   0.69153   0.70830
 Alpha virt. eigenvalues --    0.72942   0.75240   0.76246   0.79711   0.80799
 Alpha virt. eigenvalues --    0.82901   0.84386   0.86581   0.88240   0.89377
 Alpha virt. eigenvalues --    0.92557   0.94370   0.96121   0.97709   0.98800
 Alpha virt. eigenvalues --    1.00717   1.01932   1.03287   1.05249   1.06065
 Alpha virt. eigenvalues --    1.08367   1.08530   1.10487   1.12520   1.14434
 Alpha virt. eigenvalues --    1.14986   1.16394   1.17824   1.18506   1.20083
 Alpha virt. eigenvalues --    1.20593   1.21209   1.22150   1.24293   1.25162
 Alpha virt. eigenvalues --    1.27637   1.29882   1.31555   1.33378   1.34486
 Alpha virt. eigenvalues --    1.34885   1.37341   1.38905   1.39211   1.39869
 Alpha virt. eigenvalues --    1.41976   1.42774   1.44855   1.46375   1.47927
 Alpha virt. eigenvalues --    1.49035   1.50385   1.53964   1.54762   1.57753
 Alpha virt. eigenvalues --    1.59119   1.63182   1.64613   1.66563   1.68367
 Alpha virt. eigenvalues --    1.70050   1.73498   1.78866   1.82949   1.90148
 Alpha virt. eigenvalues --    1.94864   2.02766   2.05656   2.07293   2.13507
 Alpha virt. eigenvalues --    2.20477   2.22117   2.23289   2.25556   2.31038
 Alpha virt. eigenvalues --    2.36377   2.38181   2.39499   2.41138   2.41541
 Alpha virt. eigenvalues --    2.45398   2.47660   2.49150   2.53001   2.54281
 Alpha virt. eigenvalues --    2.56856   2.57165   2.59331   2.62700   2.67008
 Alpha virt. eigenvalues --    2.68041   2.69079   2.70808   2.76715   2.76838
 Alpha virt. eigenvalues --    2.81327   2.83318   2.85330   2.86049   2.87065
 Alpha virt. eigenvalues --    2.89430   2.91079   2.92328   2.92954   2.93659
 Alpha virt. eigenvalues --    2.94979   2.96251   2.98692   3.00399   3.02831
 Alpha virt. eigenvalues --    3.03683   3.04793   3.05730   3.07124   3.09163
 Alpha virt. eigenvalues --    3.10891   3.11997   3.12295   3.14322   3.15215
 Alpha virt. eigenvalues --    3.16186   3.17295   3.19620   3.19875   3.21020
 Alpha virt. eigenvalues --    3.21829   3.22362   3.23779   3.27482   3.29272
 Alpha virt. eigenvalues --    3.30332   3.31569   3.34059   3.35026   3.39618
 Alpha virt. eigenvalues --    3.40678   3.42074   3.43387   3.43801   3.44231
 Alpha virt. eigenvalues --    3.46994   3.50200   3.50868   3.54027   3.55007
 Alpha virt. eigenvalues --    3.56693   3.57556   3.58668   3.60172   3.61076
 Alpha virt. eigenvalues --    3.61729   3.66109   3.66924   3.67968   3.70428
 Alpha virt. eigenvalues --    3.71851   3.73318   3.77933   3.79066   3.80399
 Alpha virt. eigenvalues --    3.81263   3.84637   3.87192   3.88244   3.90840
 Alpha virt. eigenvalues --    3.91399   3.92637   3.93230   3.93815   3.96155
 Alpha virt. eigenvalues --    3.96275   3.98632   4.00637   4.03291   4.04452
 Alpha virt. eigenvalues --    4.04917   4.06933   4.08591   4.10211   4.11618
 Alpha virt. eigenvalues --    4.12401   4.13736   4.15302   4.16022   4.18369
 Alpha virt. eigenvalues --    4.19380   4.20368   4.22167   4.24136   4.25579
 Alpha virt. eigenvalues --    4.26454   4.29631   4.30423   4.31380   4.33847
 Alpha virt. eigenvalues --    4.36077   4.39902   4.40307   4.41249   4.43053
 Alpha virt. eigenvalues --    4.47615   4.49920   4.51641   4.53242   4.57682
 Alpha virt. eigenvalues --    4.59961   4.61954   4.66241   4.69529   4.72586
 Alpha virt. eigenvalues --    4.79364   4.80792   4.82260   4.87146   4.91490
 Alpha virt. eigenvalues --    4.94909   4.95348   4.96677   4.99276   4.99515
 Alpha virt. eigenvalues --    4.99671   5.02214   5.02654   5.03533   5.07101
 Alpha virt. eigenvalues --    5.09144   5.11616   5.13129   5.17040   5.19447
 Alpha virt. eigenvalues --    5.22909   5.26123   5.31157   5.32162   5.33032
 Alpha virt. eigenvalues --    5.35050   5.37800   5.38869   5.40672   5.42153
 Alpha virt. eigenvalues --    5.43103   5.46768   5.48496   5.49185   5.49962
 Alpha virt. eigenvalues --    5.52001   5.54535   5.62562   5.64347   5.69951
 Alpha virt. eigenvalues --    5.71294   5.80900   5.92338   5.94662   5.98542
 Alpha virt. eigenvalues --    6.04428   6.04651   6.06457   6.08802   6.09765
 Alpha virt. eigenvalues --    6.13309   6.27309   6.31470   6.33809   6.42682
 Alpha virt. eigenvalues --    6.53436   6.69082   6.77047   6.80173   6.86831
 Alpha virt. eigenvalues --    6.98891   7.06982   7.07812   7.22141   7.43542
 Alpha virt. eigenvalues --    7.47001   7.64097   7.79427   9.88175  10.10208
 Alpha virt. eigenvalues --   11.04944  13.20776  13.48411  13.72638  14.61360
  Beta  occ. eigenvalues --  -19.78519 -19.76870 -10.65827 -10.63433 -10.63317
  Beta  occ. eigenvalues --  -10.61832 -10.61116  -1.27060  -0.99462  -0.92225
  Beta  occ. eigenvalues --   -0.85106  -0.77250  -0.73861  -0.62021  -0.58146
  Beta  occ. eigenvalues --   -0.55220  -0.54693  -0.53191  -0.52257  -0.49770
  Beta  occ. eigenvalues --   -0.45927  -0.44961  -0.43654  -0.43029  -0.41933
  Beta  occ. eigenvalues --   -0.35511  -0.33438  -0.31780
  Beta virt. eigenvalues --   -0.04756   0.06492   0.08568   0.09816   0.11032
  Beta virt. eigenvalues --    0.12324   0.14276   0.14377   0.14896   0.16140
  Beta virt. eigenvalues --    0.16514   0.17771   0.18672   0.21051   0.23288
  Beta virt. eigenvalues --    0.25294   0.28872   0.29171   0.30417   0.31405
  Beta virt. eigenvalues --    0.31712   0.35405   0.35987   0.37740   0.39878
  Beta virt. eigenvalues --    0.42144   0.44274   0.45691   0.47654   0.48542
  Beta virt. eigenvalues --    0.49038   0.50547   0.50757   0.51244   0.51913
  Beta virt. eigenvalues --    0.52267   0.53125   0.53866   0.54013   0.55167
  Beta virt. eigenvalues --    0.56645   0.58226   0.59575   0.59824   0.63102
  Beta virt. eigenvalues --    0.63685   0.66230   0.68863   0.69114   0.69515
  Beta virt. eigenvalues --    0.71291   0.73288   0.75535   0.76614   0.80015
  Beta virt. eigenvalues --    0.81050   0.83581   0.84917   0.86873   0.88643
  Beta virt. eigenvalues --    0.89683   0.92757   0.94783   0.96380   0.97948
  Beta virt. eigenvalues --    0.98935   1.00990   1.02179   1.03465   1.05317
  Beta virt. eigenvalues --    1.06401   1.08556   1.08695   1.10813   1.12647
  Beta virt. eigenvalues --    1.14543   1.15137   1.16546   1.18171   1.18804
  Beta virt. eigenvalues --    1.20189   1.20738   1.21551   1.22245   1.24364
  Beta virt. eigenvalues --    1.25599   1.28185   1.30354   1.31963   1.33696
  Beta virt. eigenvalues --    1.34696   1.35139   1.37510   1.39060   1.39285
  Beta virt. eigenvalues --    1.39916   1.42149   1.43000   1.45496   1.46593
  Beta virt. eigenvalues --    1.48286   1.49358   1.50880   1.54549   1.55127
  Beta virt. eigenvalues --    1.58167   1.59480   1.63318   1.65062   1.66805
  Beta virt. eigenvalues --    1.68690   1.70386   1.74481   1.79590   1.83995
  Beta virt. eigenvalues --    1.90775   1.95624   2.03318   2.06780   2.08707
  Beta virt. eigenvalues --    2.13968   2.21819   2.22702   2.24016   2.25726
  Beta virt. eigenvalues --    2.31710   2.36501   2.38703   2.39873   2.41660
  Beta virt. eigenvalues --    2.41871   2.45892   2.48612   2.49480   2.53298
  Beta virt. eigenvalues --    2.54710   2.57484   2.57511   2.59615   2.63044
  Beta virt. eigenvalues --    2.67292   2.68281   2.69420   2.71180   2.76877
  Beta virt. eigenvalues --    2.77300   2.81679   2.83475   2.85501   2.86584
  Beta virt. eigenvalues --    2.87789   2.89725   2.91644   2.92382   2.93259
  Beta virt. eigenvalues --    2.93725   2.95488   2.96328   2.98916   3.00843
  Beta virt. eigenvalues --    3.03034   3.04236   3.05196   3.06167   3.07592
  Beta virt. eigenvalues --    3.09210   3.11160   3.12451   3.12583   3.14733
  Beta virt. eigenvalues --    3.15832   3.16462   3.17448   3.19879   3.20121
  Beta virt. eigenvalues --    3.21393   3.22285   3.22645   3.24017   3.27815
  Beta virt. eigenvalues --    3.29780   3.31045   3.32012   3.35035   3.35532
  Beta virt. eigenvalues --    3.40018   3.41776   3.42545   3.43596   3.44251
  Beta virt. eigenvalues --    3.44446   3.47331   3.50577   3.51057   3.54078
  Beta virt. eigenvalues --    3.55231   3.56871   3.57599   3.58858   3.60568
  Beta virt. eigenvalues --    3.61360   3.61961   3.66371   3.67206   3.68208
  Beta virt. eigenvalues --    3.70820   3.72181   3.73709   3.78316   3.79398
  Beta virt. eigenvalues --    3.80710   3.81552   3.84865   3.87306   3.88481
  Beta virt. eigenvalues --    3.90876   3.91677   3.92814   3.93499   3.93957
  Beta virt. eigenvalues --    3.96396   3.96570   3.98735   4.01032   4.03728
  Beta virt. eigenvalues --    4.04799   4.05096   4.07307   4.09050   4.10470
  Beta virt. eigenvalues --    4.11851   4.12625   4.14072   4.15636   4.16285
  Beta virt. eigenvalues --    4.18583   4.19540   4.20682   4.22407   4.24242
  Beta virt. eigenvalues --    4.25984   4.26809   4.30083   4.30787   4.31947
  Beta virt. eigenvalues --    4.34261   4.36141   4.40212   4.40942   4.41776
  Beta virt. eigenvalues --    4.43265   4.47875   4.50152   4.52175   4.53869
  Beta virt. eigenvalues --    4.58126   4.60527   4.62387   4.66553   4.69890
  Beta virt. eigenvalues --    4.73553   4.79820   4.81181   4.82556   4.87560
  Beta virt. eigenvalues --    4.91763   4.95022   4.95773   4.96861   4.99435
  Beta virt. eigenvalues --    4.99639   4.99924   5.02313   5.02832   5.03842
  Beta virt. eigenvalues --    5.07258   5.09373   5.12005   5.13529   5.17314
  Beta virt. eigenvalues --    5.19925   5.23241   5.27051   5.31377   5.32495
  Beta virt. eigenvalues --    5.33449   5.35436   5.38021   5.39526   5.40804
  Beta virt. eigenvalues --    5.42551   5.43732   5.47123   5.48737   5.49424
  Beta virt. eigenvalues --    5.50158   5.52173   5.54774   5.62876   5.64488
  Beta virt. eigenvalues --    5.70698   5.72354   5.81282   5.92758   5.95016
  Beta virt. eigenvalues --    5.98768   6.04517   6.04796   6.07144   6.09391
  Beta virt. eigenvalues --    6.10202   6.14167   6.28044   6.33466   6.34634
  Beta virt. eigenvalues --    6.43131   6.54957   6.69905   6.80005   6.81692
  Beta virt. eigenvalues --    6.87756   7.00586   7.07520   7.09469   7.24355
  Beta virt. eigenvalues --    7.44401   7.48393   7.65620   7.80220   9.89370
  Beta virt. eigenvalues --   10.10717  11.05986  13.20878  13.48412  13.72672
  Beta virt. eigenvalues --   14.61578
          Condensed to atoms (all electrons):
               1          2          3          4          5          6
     1  C    5.226672   0.604128  -0.004245   0.005319   0.000063  -0.000571
     2  C    0.604128   4.979068  -0.003841  -0.000157   0.000278   0.000279
     3  C   -0.004245  -0.003841   4.623248   0.397081   0.395201   0.412958
     4  H    0.005319  -0.000157   0.397081   0.669204  -0.036564  -0.055476
     5  H    0.000063   0.000278   0.395201  -0.036564   0.590157  -0.025673
     6  H   -0.000571   0.000279   0.412958  -0.055476  -0.025673   0.601921
     7  O   -0.000625  -0.000647   0.298551  -0.052200  -0.026324  -0.037084
     8  O   -0.083563   0.000884  -0.043917  -0.004219   0.007019   0.005208
     9  H    0.209147  -0.015262   0.003464   0.004930  -0.000700   0.000196
    10  H   -0.050922   0.392911  -0.000067  -0.000127  -0.000003   0.000010
    11  H   -0.055129   0.411554  -0.002581  -0.003016  -0.000325   0.000753
    12  C    0.337092  -0.043186   0.000251  -0.000030  -0.000025   0.000031
    13  H   -0.040647  -0.002978  -0.000010   0.000073   0.000001  -0.000002
    14  H   -0.043786   0.000864   0.000122  -0.000199   0.000009  -0.000004
    15  C   -0.056096  -0.002151  -0.000042   0.000042  -0.000003  -0.000014
    16  H   -0.003068   0.000176   0.000039  -0.000005  -0.000003   0.000011
    17  H   -0.001072   0.002332   0.000000  -0.000002   0.000000  -0.000001
    18  H    0.008464  -0.000255   0.000000  -0.000001  -0.000000  -0.000000
               7          8          9         10         11         12
     1  C   -0.000625  -0.083563   0.209147  -0.050922  -0.055129   0.337092
     2  C   -0.000647   0.000884  -0.015262   0.392911   0.411554  -0.043186
     3  C    0.298551  -0.043917   0.003464  -0.000067  -0.002581   0.000251
     4  H   -0.052200  -0.004219   0.004930  -0.000127  -0.003016  -0.000030
     5  H   -0.026324   0.007019  -0.000700  -0.000003  -0.000325  -0.000025
     6  H   -0.037084   0.005208   0.000196   0.000010   0.000753   0.000031
     7  O    7.950200   0.064700  -0.032447   0.000303   0.015391  -0.000071
     8  O    0.064700   8.051114   0.219532  -0.000381  -0.001044   0.003263
     9  H   -0.032447   0.219532   0.405634   0.002387  -0.003469  -0.010581
    10  H    0.000303  -0.000381   0.002387   0.561389  -0.033418  -0.006375
    11  H    0.015391  -0.001044  -0.003469  -0.033418   0.509640   0.005408
    12  C   -0.000071   0.003263  -0.010581  -0.006375   0.005408   4.803496
    13  H   -0.000024  -0.000237   0.002059   0.005233  -0.000396   0.402852
    14  H   -0.000013   0.000876  -0.000451  -0.000081  -0.000146   0.421079
    15  C    0.000023   0.000423  -0.002525   0.000040  -0.000473   0.337995
    16  H   -0.000025   0.000866   0.000930   0.000032  -0.000004  -0.032519
    17  H    0.000003  -0.000145   0.000044   0.000116  -0.000045  -0.033551
    18  H    0.000000  -0.000010   0.000171  -0.000000   0.000015  -0.035524
              13         14         15         16         17         18
     1  C   -0.040647  -0.043786  -0.056096  -0.003068  -0.001072   0.008464
     2  C   -0.002978   0.000864  -0.002151   0.000176   0.002332  -0.000255
     3  C   -0.000010   0.000122  -0.000042   0.000039   0.000000   0.000000
     4  H    0.000073  -0.000199   0.000042  -0.000005  -0.000002  -0.000001
     5  H    0.000001   0.000009  -0.000003  -0.000003   0.000000  -0.000000
     6  H   -0.000002  -0.000004  -0.000014   0.000011  -0.000001  -0.000000
     7  O   -0.000024  -0.000013   0.000023  -0.000025   0.000003   0.000000
     8  O   -0.000237   0.000876   0.000423   0.000866  -0.000145  -0.000010
     9  H    0.002059  -0.000451  -0.002525   0.000930   0.000044   0.000171
    10  H    0.005233  -0.000081   0.000040   0.000032   0.000116  -0.000000
    11  H   -0.000396  -0.000146  -0.000473  -0.000004  -0.000045   0.000015
    12  C    0.402852   0.421079   0.337995  -0.032519  -0.033551  -0.035524
    13  H    0.604222  -0.033345  -0.031567   0.006320  -0.004768  -0.004707
    14  H   -0.033345   0.589210  -0.040682  -0.004985   0.007684  -0.004005
    15  C   -0.031567  -0.040682   4.864182   0.411366   0.402824   0.406903
    16  H    0.006320  -0.004985   0.411366   0.570399  -0.028812  -0.030363
    17  H   -0.004768   0.007684   0.402824  -0.028812   0.582687  -0.029191
    18  H   -0.004707  -0.004005   0.406903  -0.030363  -0.029191   0.587397
          Atomic-Atomic Spin Densities.
               1          2          3          4          5          6
     1  C    0.763511  -0.011709   0.000622  -0.005294   0.000170   0.001291
     2  C   -0.011709  -0.142781  -0.000074   0.000764  -0.000068  -0.000165
     3  C    0.000622  -0.000074  -0.006219   0.004518   0.000433  -0.002302
     4  H   -0.005294   0.000764   0.004518   0.001496  -0.000803  -0.001058
     5  H    0.000170  -0.000068   0.000433  -0.000803  -0.001317   0.000973
     6  H    0.001291  -0.000165  -0.002302  -0.001058   0.000973   0.003622
     7  O    0.013899  -0.002536  -0.000056  -0.001010   0.000125  -0.000575
     8  O   -0.087504   0.006319  -0.001595   0.004059  -0.000221  -0.000468
     9  H    0.057102  -0.003335   0.000910  -0.003698   0.000109   0.001388
    10  H   -0.012073  -0.004805   0.000076  -0.000432   0.000014   0.000026
    11  H   -0.006883   0.013390  -0.000403   0.001535  -0.000118  -0.000209
    12  C   -0.026186   0.005833  -0.000014   0.000495  -0.000004  -0.000076
    13  H   -0.008262  -0.001795   0.000008  -0.000096   0.000001   0.000007
    14  H   -0.004732   0.000209  -0.000002   0.000056  -0.000001  -0.000012
    15  C   -0.004474   0.000603   0.000007   0.000005   0.000000  -0.000000
    16  H    0.003492  -0.000076  -0.000004  -0.000012   0.000000   0.000006
    17  H    0.000262  -0.000227   0.000000  -0.000000  -0.000000   0.000000
    18  H    0.000034   0.000014   0.000000  -0.000000   0.000000   0.000000
               7          8          9         10         11         12
     1  C    0.013899  -0.087504   0.057102  -0.012073  -0.006883  -0.026186
     2  C   -0.002536   0.006319  -0.003335  -0.004805   0.013390   0.005833
     3  C   -0.000056  -0.001595   0.000910   0.000076  -0.000403  -0.000014
     4  H   -0.001010   0.004059  -0.003698  -0.000432   0.001535   0.000495
     5  H    0.000125  -0.000221   0.000109   0.000014  -0.000118  -0.000004
     6  H   -0.000575  -0.000468   0.001388   0.000026  -0.000209  -0.000076
     7  O    0.063958  -0.043763   0.010461   0.000470  -0.004350  -0.000542
     8  O   -0.043763   0.542782  -0.043216  -0.000871   0.002750   0.006101
     9  H    0.010461  -0.043216  -0.095590   0.001152  -0.000418  -0.004582
    10  H    0.000470  -0.000871   0.001152   0.085856  -0.009596  -0.004900
    11  H   -0.004350   0.002750  -0.000418  -0.009596   0.024692   0.001181
    12  C   -0.000542   0.006101  -0.004582  -0.004900   0.001181   0.015927
    13  H    0.000049  -0.000501   0.000753   0.005975  -0.000443  -0.007110
    14  H   -0.000026   0.000364  -0.000365  -0.000257   0.000047   0.005153
    15  C   -0.000008   0.000304  -0.000795  -0.000058   0.000013   0.007462
    16  H    0.000034  -0.000792   0.000919   0.000074  -0.000035  -0.002228
    17  H    0.000001   0.000004  -0.000042  -0.000013   0.000004   0.000218
    18  H    0.000000   0.000003  -0.000016  -0.000002   0.000001   0.000498
              13         14         15         16         17         18
     1  C   -0.008262  -0.004732  -0.004474   0.003492   0.000262   0.000034
     2  C   -0.001795   0.000209   0.000603  -0.000076  -0.000227   0.000014
     3  C    0.000008  -0.000002   0.000007  -0.000004   0.000000   0.000000
     4  H   -0.000096   0.000056   0.000005  -0.000012  -0.000000  -0.000000
     5  H    0.000001  -0.000001   0.000000   0.000000  -0.000000   0.000000
     6  H    0.000007  -0.000012  -0.000000   0.000006   0.000000   0.000000
     7  O    0.000049  -0.000026  -0.000008   0.000034   0.000001   0.000000
     8  O   -0.000501   0.000364   0.000304  -0.000792   0.000004   0.000003
     9  H    0.000753  -0.000365  -0.000795   0.000919  -0.000042  -0.000016
    10  H    0.005975  -0.000257  -0.000058   0.000074  -0.000013  -0.000002
    11  H   -0.000443   0.000047   0.000013  -0.000035   0.000004   0.000001
    12  C   -0.007110   0.005153   0.007462  -0.002228   0.000218   0.000498
    13  H    0.058036  -0.002871  -0.002292   0.000848  -0.000255  -0.000092
    14  H   -0.002871   0.005148  -0.000162  -0.000356   0.000011   0.000355
    15  C   -0.002292  -0.000162   0.005704  -0.001668   0.000050  -0.000299
    16  H    0.000848  -0.000356  -0.001668   0.001115  -0.000012   0.000179
    17  H   -0.000255   0.000011   0.000050  -0.000012  -0.000643   0.000285
    18  H   -0.000092   0.000355  -0.000299   0.000179   0.000285  -0.001627
 Mulliken charges and spin densities:
               1          2
     1  C   -0.051162   0.673266
     2  C   -0.323996  -0.140441
     3  C   -0.076211  -0.004096
     4  H    0.075348   0.000526
     5  H    0.096892  -0.000707
     6  H    0.097459   0.002447
     7  O   -0.179712   0.036130
     8  O   -0.220369   0.383753
     9  H    0.216940  -0.079263
    10  H    0.128953   0.060636
    11  H    0.157286   0.021157
    12  C   -0.149604  -0.002775
    13  H    0.097921   0.041960
    14  H    0.107853   0.002559
    15  C   -0.290246   0.004390
    16  H    0.109644   0.001485
    17  H    0.101896  -0.000360
    18  H    0.101106  -0.000667
 Sum of Mulliken charges =  -0.00000   1.00000
 Mulliken charges and spin densities with hydrogens summed into heavy atoms:
               1          2
     1  C   -0.051162   0.673266
     2  C   -0.037758  -0.058648
     3  C    0.193490  -0.001830
     7  O   -0.179712   0.036130
     8  O   -0.003429   0.304490
    12  C    0.056170   0.041744
    15  C    0.022401   0.004848
 APT charges:
               1
     1  C    0.432001
     2  C   -0.286283
     3  C    0.430033
     4  H   -0.032773
     5  H   -0.006021
     6  H   -0.030680
     7  O   -0.437351
     8  O    0.167760
     9  H   -0.333972
    10  H    0.040949
    11  H    0.081200
    12  C    0.014770
    13  H   -0.069539
    14  H   -0.016535
    15  C    0.084382
    16  H    0.002030
    17  H   -0.010127
    18  H   -0.029845
 Sum of APT charges =  -0.00000
 APT charges with hydrogens summed into heavy atoms:
               1
     1  C    0.432001
     2  C   -0.164133
     3  C    0.360559
     7  O   -0.437351
     8  O   -0.166212
    12  C   -0.071304
    15  C    0.046440
 Electronic spatial extent (au):  <R**2>=           1160.1580
 Charge=              0.0000 electrons
 Dipole moment (field-independent basis, Debye):
    X=              1.0527    Y=              1.5888    Z=              1.7531  Tot=              2.5895
 Quadrupole moment (field-independent basis, Debye-Ang):
   XX=            -39.0912   YY=            -44.8838   ZZ=            -46.0451
   XY=             -1.9158   XZ=             -2.2766   YZ=             -1.5445
 Traceless Quadrupole moment (field-independent basis, Debye-Ang):
   XX=              4.2488   YY=             -1.5438   ZZ=             -2.7050
   XY=             -1.9158   XZ=             -2.2766   YZ=             -1.5445
 Octapole moment (field-independent basis, Debye-Ang**2):
  XXX=            -21.4571  YYY=              0.2536  ZZZ=             -0.2391  XYY=             -1.8009
  XXY=              2.2363  XXZ=              8.8778  XZZ=             -3.7460  YZZ=             -2.9451
  YYZ=             -1.8304  XYZ=              1.8921
 Hexadecapole moment (field-independent basis, Debye-Ang**3):
 XXXX=          -1038.0380 YYYY=           -297.3572 ZZZZ=           -134.0830 XXXY=             -1.8229
 XXXZ=             -7.0143 YYYX=             11.9738 YYYZ=             -3.9523 ZZZX=              4.5642
 ZZZY=              1.4337 XXYY=           -229.7180 XXZZ=           -206.7038 YYZZ=            -76.3410
 XXYZ=             -4.6082 YYXZ=              2.3258 ZZXY=              0.3797
 N-N= 3.061965829633D+02 E-N=-1.423475122952D+03  KE= 3.453608263558D+02
  Exact polarizability: 109.498   5.735  82.186   2.268  -3.689  58.514
 Approx polarizability:  94.259   0.228  92.501   6.158  -4.468  70.008
                          Isotropic Fermi Contact Couplings
        Atom                 a.u.       MegaHertz       Gauss      10(-4) cm-1
     1  C(13)              0.14637     164.54321      58.71311      54.88571
     2  C(13)              0.01345      15.11695       5.39411       5.04247
     3  C(13)             -0.00392      -4.40475      -1.57172      -1.46927
     4  H(1)               0.00264      11.81449       4.21570       3.94089
     5  H(1)              -0.00007      -0.31699      -0.11311      -0.10574
     6  H(1)               0.00079       3.51848       1.25548       1.17364
     7  O(17)              0.01688     -10.23044      -3.65047      -3.41251
     8  O(17)              0.03742     -22.68339      -8.09400      -7.56636
     9  H(1)              -0.02421    -108.19811     -38.60778     -36.09100
    10  H(1)               0.02393     106.97763      38.17228      35.68390
    11  H(1)               0.01244      55.59324      19.83705      18.54391
    12  C(13)              0.01532      17.22083       6.14482       5.74425
    13  H(1)               0.01625      72.61791      25.91188      24.22273
    14  H(1)               0.00130       5.82627       2.07896       1.94344
    15  C(13)              0.00360       4.04510       1.44339       1.34930
    16  H(1)              -0.00009      -0.38844      -0.13861      -0.12957
    17  H(1)              -0.00012      -0.54337      -0.19389      -0.18125
    18  H(1)              -0.00034      -1.50736      -0.53787      -0.50280
 --------------------------------------------------------
       Center         ----  Spin Dipole Couplings  ----
                      3XX-RR        3YY-RR        3ZZ-RR
 --------------------------------------------------------
     1   Atom        0.084856      0.242733     -0.327589
     2   Atom       -0.012462      0.049451     -0.036989
     3   Atom        0.005227     -0.005175     -0.000052
     4   Atom        0.001749     -0.002320      0.000571
     5   Atom        0.004121     -0.001431     -0.002690
     6   Atom        0.003731     -0.004535      0.000804
     7   Atom        0.134000      0.065368     -0.199367
     8   Atom        0.132052      0.682225     -0.814277
     9   Atom        0.074819      0.041326     -0.116145
    10   Atom       -0.002415      0.008231     -0.005816
    11   Atom        0.001755      0.004082     -0.005837
    12   Atom        0.052669     -0.033415     -0.019255
    13   Atom        0.005623      0.001214     -0.006837
    14   Atom       -0.001212     -0.006040      0.007252
    15   Atom        0.006694     -0.001370     -0.005324
    16   Atom        0.002561      0.002959     -0.005520
    17   Atom        0.004505     -0.002766     -0.001740
    18   Atom        0.003161     -0.000292     -0.002868
 --------------------------------------------------------
                        XY            XZ            YZ
 --------------------------------------------------------
     1   Atom        0.511241      0.055706      0.081589
     2   Atom       -0.006855      0.017921     -0.022814
     3   Atom       -0.003175     -0.004413      0.004201
     4   Atom       -0.002269     -0.005601      0.005003
     5   Atom       -0.003120     -0.002712      0.001498
     6   Atom        0.000112     -0.006302     -0.000055
     7   Atom        0.347181      0.055531      0.083139
     8   Atom        1.229658      0.184140      0.224639
     9   Atom        0.176418      0.036366      0.033634
    10   Atom        0.003035      0.000814     -0.002418
    11   Atom       -0.008288      0.006509     -0.007160
    12   Atom       -0.003375      0.033365     -0.001115
    13   Atom        0.003652      0.005375     -0.000278
    14   Atom       -0.001939      0.010229     -0.006085
    15   Atom       -0.007183     -0.001687      0.001768
    16   Atom       -0.006404     -0.000400      0.001264
    17   Atom       -0.002548     -0.004068      0.002109
    18   Atom       -0.002837      0.000416      0.000053
 --------------------------------------------------------


 ---------------------------------------------------------------------------------
              Anisotropic Spin Dipole Couplings in Principal Axis System
 ---------------------------------------------------------------------------------

       Atom             a.u.   MegaHertz   Gauss  10(-4) cm-1        Axes

              Baa    -0.3588   -48.152   -17.182   -16.062  0.6533 -0.6151  0.4414
     1 C(13)  Bbb    -0.3317   -44.515   -15.884   -14.849 -0.3929  0.2229  0.8922
              Bcc     0.6906    92.667    33.066    30.910  0.6472  0.7563  0.0960
 
              Baa    -0.0495    -6.648    -2.372    -2.218 -0.4011  0.1793  0.8983
     2 C(13)  Bbb    -0.0074    -0.987    -0.352    -0.329  0.9017  0.2504  0.3526
              Bcc     0.0569     7.635     2.724     2.547 -0.1617  0.9514 -0.2621
 
              Baa    -0.0076    -1.016    -0.363    -0.339  0.0616  0.8863 -0.4590
     3 C(13)  Bbb    -0.0018    -0.242    -0.086    -0.081  0.6044  0.3328  0.7238
              Bcc     0.0094     1.258     0.449     0.420  0.7943 -0.3220 -0.5152
 
              Baa    -0.0065    -3.494    -1.247    -1.165  0.2846 -0.6646  0.6909
     4 H(1)   Bbb    -0.0025    -1.353    -0.483    -0.451  0.7227  0.6222  0.3008
              Bcc     0.0091     4.847     1.730     1.617 -0.6298  0.4137  0.6574
 
              Baa    -0.0038    -2.019    -0.720    -0.673  0.1771 -0.3507  0.9196
     5 H(1)   Bbb    -0.0028    -1.478    -0.527    -0.493  0.4755  0.8485  0.2321
              Bcc     0.0066     3.497     1.248     1.166  0.8617 -0.3962 -0.3170
 
              Baa    -0.0045    -2.422    -0.864    -0.808 -0.0556  0.9969 -0.0553
     6 H(1)   Bbb    -0.0042    -2.241    -0.800    -0.748  0.6196  0.0779  0.7811
              Bcc     0.0087     4.663     1.664     1.555  0.7830  0.0092 -0.6220
 
              Baa    -0.2613    18.910     6.748     6.308 -0.5545  0.7027 -0.4459
     7 O(17)  Bbb    -0.2014    14.576     5.201     4.862 -0.3998  0.2450  0.8833
              Bcc     0.4628   -33.486   -11.949   -11.170  0.7299  0.6680  0.1451
 
              Baa    -0.8545    61.831    22.063    20.625  0.7329 -0.5228 -0.4354
     8 O(17)  Bbb    -0.8462    61.233    21.849    20.425  0.2775 -0.3545  0.8929
              Bcc     1.7007  -123.064   -43.912   -41.050  0.6212  0.7752  0.1147
 
              Baa    -0.1230   -65.646   -23.424   -21.897 -0.0308 -0.1686  0.9852
     9 H(1)   Bbb    -0.1191   -63.544   -22.674   -21.196 -0.6799  0.7261  0.1030
              Bcc     0.2421   129.190    46.098    43.093  0.7327  0.6666  0.1370
 
              Baa    -0.0067    -3.562    -1.271    -1.188 -0.3294  0.2162  0.9191
    10 H(1)   Bbb    -0.0027    -1.420    -0.507    -0.474  0.9136 -0.1729  0.3681
              Bcc     0.0093     4.982     1.778     1.662  0.2385  0.9609 -0.1405
 
              Baa    -0.0102    -5.443    -1.942    -1.816 -0.3001  0.2826  0.9111
    11 H(1)   Bbb    -0.0054    -2.904    -1.036    -0.969  0.7405  0.6711  0.0357
              Bcc     0.0156     8.347     2.979     2.784 -0.6014  0.6853 -0.4107
 
              Baa    -0.0336    -4.505    -1.608    -1.503  0.0902  0.9870 -0.1333
    12 C(13)  Bbb    -0.0323    -4.337    -1.547    -1.447 -0.3555  0.1569  0.9214
              Bcc     0.0659     8.842     3.155     2.949  0.9303 -0.0357  0.3650
 
              Baa    -0.0091    -4.844    -1.729    -1.616 -0.3733  0.1571  0.9143
    13 H(1)   Bbb     0.0000     0.012     0.004     0.004 -0.3167  0.9048 -0.2848
              Bcc     0.0091     4.832     1.724     1.612  0.8720  0.3959  0.2880
 
              Baa    -0.0096    -5.134    -1.832    -1.712 -0.5186  0.6543  0.5504
    14 H(1)   Bbb    -0.0062    -3.309    -1.181    -1.104  0.6802  0.7057 -0.1980
              Bcc     0.0158     8.442     3.012     2.816  0.5180 -0.2717  0.8111
 
              Baa    -0.0063    -0.843    -0.301    -0.281 -0.2609 -0.6410  0.7218
    15 C(13)  Bbb    -0.0049    -0.664    -0.237    -0.222  0.4547  0.5780  0.6776
              Bcc     0.0112     1.507     0.538     0.503  0.8515 -0.5051 -0.1407
 
              Baa    -0.0058    -3.083    -1.100    -1.028 -0.1386 -0.2405  0.9607
    16 H(1)   Bbb    -0.0035    -1.859    -0.663    -0.620  0.7093  0.6529  0.2658
              Bcc     0.0093     4.942     1.763     1.648 -0.6912  0.7182  0.0801
 
              Baa    -0.0045    -2.396    -0.855    -0.799  0.1309 -0.6839  0.7177
    17 H(1)   Bbb    -0.0030    -1.617    -0.577    -0.540  0.5162  0.6651  0.5396
              Bcc     0.0075     4.014     1.432     1.339  0.8464 -0.2998 -0.4401
 
              Baa    -0.0029    -1.570    -0.560    -0.524 -0.1498 -0.1798  0.9722
    18 H(1)   Bbb    -0.0018    -0.975    -0.348    -0.325  0.4666  0.8541  0.2299
              Bcc     0.0048     2.545     0.908     0.849  0.8717 -0.4880  0.0440
 

 ---------------------------------------------------------------------------------

 Calling FoFJK, ICntrl=  10100127 FMM=F ISym2X=0 I1Cent= 0 IOpClX= 1 NMat=1 NMatS=1 NMatT=0.
 ***** Axes restored to original set *****
 -------------------------------------------------------------------
 Center     Atomic                   Forces (Hartrees/Bohr)
 Number     Number              X              Y              Z
 -------------------------------------------------------------------
      1        6          -0.000108272   -0.006655047   -0.001362474
      2        6           0.001374229    0.004930631    0.001860545
      3        6           0.001717763    0.000847015   -0.005190704
      4        1           0.001170568   -0.000476919    0.000081056
      5        1          -0.000407221   -0.000291206    0.000136112
      6        1           0.000053818    0.000733871   -0.000085104
      7        8           0.009757331    0.006448724    0.007380999
      8        8          -0.007049519   -0.010354942   -0.001800107
      9        1          -0.005412252    0.004768654   -0.001000991
     10        1           0.000673142   -0.000330353    0.000261826
     11        1          -0.001323042    0.000176520   -0.000479882
     12        6           0.001091485    0.001201529   -0.000015889
     13        1          -0.000268359   -0.000264905   -0.000263496
     14        1          -0.000261880    0.000089125    0.000161896
     15        6          -0.000291750   -0.000709286    0.000389323
     16        1          -0.000692369    0.000299102    0.000047087
     17        1          -0.000111091   -0.000346654   -0.000347373
     18        1           0.000087419   -0.000065859    0.000227177
 -------------------------------------------------------------------
 Cartesian Forces:  Max     0.010354942 RMS     0.003104771
 FormGI is forming the generalized inverse of G from B-inverse, IUseBI=4.

 GradGradGradGradGradGradGradGradGradGradGradGradGradGradGradGradGradGrad
 Berny optimization.
 Internal  Forces:  Max     0.014355613 RMS     0.002264044
 Search for a saddle point.
 Step number   1 out of a maximum of  108
 All quantities printed in internal units (Hartrees-Bohrs-Radians)
 Swapping is turned off.
 Second derivative matrix not updated -- analytic derivatives used.
 ITU=  0
     Eigenvalues ---   -0.06714   0.00170   0.00249   0.00441   0.00705
     Eigenvalues ---    0.00880   0.01667   0.02137   0.03768   0.03963
     Eigenvalues ---    0.04234   0.04477   0.04606   0.04624   0.05551
     Eigenvalues ---    0.06618   0.07488   0.08470   0.08581   0.09367
     Eigenvalues ---    0.10039   0.10753   0.12302   0.12702   0.13391
     Eigenvalues ---    0.13797   0.16432   0.16800   0.18520   0.19354
     Eigenvalues ---    0.19703   0.22092   0.29144   0.29180   0.31254
     Eigenvalues ---    0.32502   0.32833   0.33532   0.33912   0.34017
     Eigenvalues ---    0.34225   0.34324   0.34527   0.34850   0.35419
     Eigenvalues ---    0.36302   0.43885   0.66010
 Eigenvectors required to have negative eigenvalues:
                          R2        R11       A2        R10       A1
   1                   -0.73860   0.61834  -0.15067  -0.14797   0.08297
                          A3        A14       D16       A27       A28
   1                    0.06769   0.05844   0.04357  -0.04349  -0.03723
 RFO step:  Lambda0=1.626095335D-04 Lambda=-1.08882640D-03.
 Linear search not attempted -- option 19 set.
 Iteration  1 RMS(Cart)=  0.04341087 RMS(Int)=  0.00038898
 Iteration  2 RMS(Cart)=  0.00087225 RMS(Int)=  0.00002015
 Iteration  3 RMS(Cart)=  0.00000072 RMS(Int)=  0.00002015
 Variable       Old X    -DE/DX   Delta X   Delta X   Delta X     New X
                                 (Linear)    (Quad)   (Total)
    R1        2.47530   0.00497   0.00000   0.00602   0.00602   2.48132
    R2        2.62316  -0.00142   0.00000   0.03162   0.03162   2.65478
    R3        2.80078   0.00024   0.00000  -0.00315  -0.00315   2.79763
    R4        2.05706  -0.00065   0.00000  -0.00193  -0.00193   2.05513
    R5        2.04962  -0.00139   0.00000  -0.00401  -0.00401   2.04561
    R6        2.06496  -0.00105   0.00000  -0.00325  -0.00325   2.06171
    R7        2.05705  -0.00046   0.00000  -0.00057  -0.00057   2.05648
    R8        2.05924  -0.00055   0.00000  -0.00202  -0.00202   2.05722
    R9        2.67206   0.00568   0.00000   0.01246   0.01246   2.68452
   R10        2.61704   0.01436   0.00000   0.05162   0.05162   2.66866
   R11        2.14422   0.00603   0.00000  -0.01962  -0.01962   2.12460
   R12        2.07027  -0.00003   0.00000   0.00037   0.00037   2.07065
   R13        2.06388  -0.00023   0.00000  -0.00071  -0.00071   2.06317
   R14        2.88913   0.00121   0.00000   0.00387   0.00387   2.89301
   R15        2.05919  -0.00065   0.00000  -0.00204  -0.00204   2.05715
   R16        2.05780  -0.00041   0.00000  -0.00123  -0.00123   2.05657
   R17        2.05744  -0.00016   0.00000  -0.00045  -0.00045   2.05699
    A1        1.94332   0.00113   0.00000  -0.00325  -0.00326   1.94006
    A2        2.36163  -0.00134   0.00000   0.00599   0.00597   2.36760
    A3        1.97777   0.00022   0.00000  -0.00248  -0.00249   1.97528
    A4        2.11428   0.00043   0.00000   0.00090   0.00090   2.11517
    A5        2.11646   0.00006   0.00000   0.00079   0.00079   2.11725
    A6        2.05241  -0.00049   0.00000  -0.00167  -0.00167   2.05073
    A7        1.92105  -0.00027   0.00000  -0.00126  -0.00125   1.91980
    A8        1.92067  -0.00050   0.00000  -0.00022  -0.00025   1.92042
    A9        1.92461   0.00110   0.00000   0.00766   0.00765   1.93226
   A10        1.92558  -0.00023   0.00000  -0.00180  -0.00180   1.92378
   A11        1.84503  -0.00075   0.00000  -0.00883  -0.00883   1.83620
   A12        1.92574   0.00065   0.00000   0.00423   0.00421   1.92995
   A13        1.88511   0.00106   0.00000  -0.00934  -0.00934   1.87577
   A14        1.80271   0.00523   0.00000  -0.00095  -0.00095   1.80177
   A15        1.88800  -0.00007   0.00000  -0.00085  -0.00084   1.88716
   A16        1.90593  -0.00027   0.00000   0.00091   0.00090   1.90683
   A17        1.95738   0.00113   0.00000   0.00864   0.00864   1.96602
   A18        1.86762   0.00004   0.00000  -0.00338  -0.00339   1.86423
   A19        1.92877  -0.00056   0.00000  -0.00398  -0.00399   1.92478
   A20        1.91374  -0.00031   0.00000  -0.00184  -0.00186   1.91188
   A21        1.92970   0.00046   0.00000   0.00371   0.00371   1.93341
   A22        1.93011   0.00028   0.00000   0.00199   0.00198   1.93209
   A23        1.93278   0.00010   0.00000  -0.00225  -0.00225   1.93053
   A24        1.88389  -0.00028   0.00000   0.00006   0.00005   1.88394
   A25        1.89095  -0.00032   0.00000  -0.00163  -0.00163   1.88933
   A26        1.89506  -0.00027   0.00000  -0.00199  -0.00199   1.89307
   A27        3.03275   0.00264   0.00000   0.02715   0.02712   3.05987
   A28        3.04175   0.00183   0.00000   0.03674   0.03676   3.07851
    D1       -3.12375  -0.00001   0.00000  -0.00576  -0.00577  -3.12952
    D2        0.00819  -0.00009   0.00000  -0.00418  -0.00419   0.00400
    D3       -0.01841   0.00009   0.00000   0.00395   0.00396  -0.01445
    D4        3.11352   0.00001   0.00000   0.00553   0.00555   3.11907
    D5       -0.25481  -0.00065   0.00000   0.00459   0.00449  -0.25032
    D6        2.89726  -0.00014   0.00000  -0.00118  -0.00108   2.89617
    D7        0.04316   0.00005   0.00000   0.01814   0.01812   0.06128
    D8        2.06990  -0.00008   0.00000   0.01415   0.01412   2.08402
    D9       -2.08836   0.00007   0.00000   0.01817   0.01815  -2.07021
   D10       -3.13521   0.00017   0.00000   0.02798   0.02800  -3.10721
   D11       -1.10847   0.00004   0.00000   0.02399   0.02400  -1.08447
   D12        1.01646   0.00019   0.00000   0.02801   0.02803   1.04449
   D13        1.12623   0.00026   0.00000   0.00698   0.00701   1.13325
   D14       -3.08105   0.00008   0.00000   0.00441   0.00440  -3.07665
   D15       -0.99916  -0.00028   0.00000  -0.00063  -0.00066  -0.99982
   D16       -1.55382  -0.00169   0.00000  -0.03776  -0.03777  -1.59159
   D17       -1.03379  -0.00003   0.00000  -0.00433  -0.00433  -1.03812
   D18        1.05176   0.00010   0.00000  -0.00058  -0.00058   1.05118
   D19       -3.12990   0.00000   0.00000  -0.00325  -0.00325  -3.13315
   D20        3.14128  -0.00032   0.00000  -0.00633  -0.00632   3.13496
   D21       -1.05635  -0.00019   0.00000  -0.00258  -0.00257  -1.05893
   D22        1.04517  -0.00029   0.00000  -0.00525  -0.00524   1.03993
   D23        1.08667   0.00016   0.00000   0.00132   0.00131   1.08798
   D24       -3.11096   0.00029   0.00000   0.00507   0.00506  -3.10590
   D25       -1.00944   0.00019   0.00000   0.00240   0.00239  -1.00705
         Item               Value     Threshold  Converged?
 Maximum Force            0.014356     0.000450     NO 
 RMS     Force            0.002264     0.000300     NO 
 Maximum Displacement     0.148667     0.001800     NO 
 RMS     Displacement     0.043594     0.001200     NO 
 Predicted change in Energy=-4.679042D-04
 GradGradGradGradGradGradGradGradGradGradGradGradGradGradGradGradGradGrad

                          Input orientation:                          
 ---------------------------------------------------------------------
 Center     Atomic      Atomic             Coordinates (Angstroms)
 Number     Number       Type             X           Y           Z
 ---------------------------------------------------------------------
      1          6           0       -0.808056    0.636059   -0.009197
      2          6           0       -0.356044    1.774814    0.463078
      3          6           0        2.716833    0.001484   -0.685473
      4          1           0        2.055839    0.601970   -1.312212
      5          1           0        3.603457    0.575301   -0.422977
      6          1           0        2.999894   -0.910349   -1.208506
      7          8           0        2.092233   -0.306509    0.552703
      8          8           0        0.977927   -1.127658    0.272835
      9          1           0        0.139343   -0.389433    0.147006
     10          1           0       -0.963106    2.676716    0.435320
     11          1           0        0.631011    1.849991    0.901090
     12          6           0       -2.068923    0.174378   -0.632713
     13          1           0       -2.729950    1.040775   -0.746916
     14          1           0       -1.858681   -0.197058   -1.637614
     15          6           0       -2.763679   -0.919376    0.182586
     16          1           0       -2.116137   -1.787148    0.295325
     17          1           0       -3.014602   -0.556789    1.177545
     18          1           0       -3.680512   -1.239753   -0.308973
 ---------------------------------------------------------------------
                    Distance matrix (angstroms):
                    1          2          3          4          5
     1  C    0.000000
     2  C    1.313058   0.000000
     3  C    3.644842   3.729134   0.000000
     4  H    3.146570   3.216271   1.091007   0.000000
     5  H    4.431292   4.231024   1.088242   1.785096   0.000000
     6  H    4.281379   4.611574   1.088635   1.785806   1.785637
     7  O    3.100943   3.214654   1.420586   2.074745   2.003332
     8  O    2.525861   3.200002   2.284099   2.581837   3.205874
     9  H    1.404848   2.242604   2.736657   2.604833   3.640835
    10  H    2.094258   1.087530   4.685615   4.058629   5.099619
    11  H    2.091211   1.082489   3.206994   2.913142   3.494771
    12  C    1.480442   2.587685   4.789169   4.202168   5.690397
    13  H    2.098023   2.763753   5.545389   4.838996   6.358745
    14  H    2.109417   3.249478   4.677747   4.008466   5.648613
    15  C    2.506117   3.624093   5.624724   5.270358   6.568195
    16  H    2.770513   3.976637   5.245833   5.069265   6.229838
    17  H    2.774903   3.607598   6.052425   5.766366   6.902318
    18  H    3.443768   4.553654   6.527514   6.107713   7.507571
                    6          7          8          9         10
     6  H    0.000000
     7  O    2.071311   0.000000
     8  O    2.515938   1.412193   0.000000
     9  H    3.208040   1.996309   1.124292   0.000000
    10  H    5.592367   4.271828   4.274023   3.271053   0.000000
    11  H    4.204935   2.628125   3.062915   2.413586   1.855161
    12  C    5.215465   4.353354   3.434911   2.408793   2.936873
    13  H    6.070507   5.172779   4.414787   3.328277   2.682484
    14  H    4.929368   4.518760   3.544316   2.685884   3.654817
    15  C    5.929081   4.908409   3.748486   2.951211   4.029618
    16  H    5.404078   4.468659   3.163647   2.657592   4.612500
    17  H    6.480155   5.151003   4.133362   3.322256   3.900652
    18  H    6.748740   5.910839   4.695969   3.939829   4.824624
                   11         12         13         14         15
    11  H    0.000000
    12  C    3.528438   0.000000
    13  H    3.829727   1.095738   0.000000
    14  H    4.102925   1.091783   1.756327   0.000000
    15  C    4.439545   1.530914   2.169632   2.157288   0.000000
    16  H    4.598103   2.170499   3.075740   2.516132   1.088599
    17  H    4.377157   2.169320   2.517297   3.064421   1.088290
    18  H    5.440588   2.168361   2.509217   2.484264   1.088510
                   16         17         18
    16  H    0.000000
    17  H    1.760493   0.000000
    18  H    1.764111   1.766243   0.000000
[...]
 2515853,0.0374828,0.3006392,-0.1233846,-0.2377126,-0.7503408,0.3842728
 ,-0.0296073,0.7151425,-0.2487874,0.008826,-0.1555518,0.0520754,0.12738
 51,0.0453033,0.0805027,-0.0215977,0.1165067,-0.0397195,-0.016114,-0.00
 30201,-0.0102475,0.1170241,0.0378349,-0.0232892,-0.064954,0.001163,0.0
 808294,0.0020594,-0.0536672,-0.0237794,0.128855,-0.0500638,-0.0353597,
 -0.0660391,0.3811532,-0.0529392,-0.0029099,0.0028685,-0.0402769,0.1419
 966,-0.1626232,0.0808076,-0.0394425,0.0089794,-0.0821788,0.0354191,-0.
 0591073,0.023783,0.0503551,0.0199899,-0.0437584,0.0422639,-0.0347308,0
 .0306474,-0.0538743,0.0183369,-0.0463311,-0.0923044,0.1074342,-0.03289
 29,-0.0037736,0.0366675,0.0795961,0.0357995,-0.0652059,-0.0155308,0.06
 61745,0.0064511,0.1026367,-0.003536,0.0475734,-0.0470106,0.0303734,0.0
 243184,0.0226801,0.0495813,0.0490901,-0.0065539,0.0310283,0.0144442,0.
 0159305,-0.0680878,0.0711145,-0.0189139,-0.0957263,-0.1229023,-0.09331
 63,-0.0641022,-0.0867751,0.0173942,-0.0112851,-0.0774273,-0.0175811,0.
 0181782\Polar=108.3149479,-5.177039,82.3280274,1.880527,4.3353041,58.8
 128568\PG=C01 [X(C5H11O2)]\NImag=1\\0.36301572,0.22543890,0.57294503,0
 .15878888,0.20827892,0.23328904,-0.12987662,-0.13642243,-0.07223272,0.
 56027858,-0.16076372,-0.44137892,-0.16981811,0.04013548,0.73712535,-0.
 07835499,-0.16079870,-0.11450046,0.20534406,0.18217293,0.23096732,-0.0
 0377122,0.00508874,0.00039036,0.00092586,-0.00093944,0.00021534,0.5676
 8787,-0.00178935,0.00300049,-0.00081210,0.00061337,-0.00061591,0.00040
 604,-0.00293349,0.58621382,0.00629138,-0.00909025,0.00038657,-0.001592
 57,0.00248898,-0.00068752,0.07213454,0.04470026,0.49334627,0.00015050,
 -0.00036075,-0.00010306,-0.00023768,0.00034312,0.00011694,-0.15584097,
 0.09156303,-0.09342676,0.15916863,0.00052885,-0.00040936,-0.00001870,-
 0.00003349,-0.00014087,-0.00000034,0.09033290,-0.13201787,0.07417866,-
 0.09746356,0.13577926,-0.00168969,0.00280530,0.00030759,0.00036853,-0.
 00099291,0.00026265,-0.08643850,0.07440837,-0.12179846,0.09411090,-0.0
 8946045,0.14760881,0.00050785,-0.00078678,0.00010426,-0.00032511,0.000
 31132,-0.00012634,-0.22446744,-0.11107685,-0.05524694,-0.01355267,-0.0
 1039250,-0.00490617,0.24661541,0.00030034,-0.00031792,-0.00005282,-0.0
 0009629,0.00016602,0.00002450,-0.11161393,-0.12250990,-0.03583712,0.01
 531285,0.01095984,0.00376738,0.12791468,0.12825786,-0.00052488,0.00064
 116,0.00004331,0.00018436,-0.00035150,0.00002106,-0.06532328,-0.042282
 18,-0.07197605,-0.01292886,-0.01062307,-0.00269846,0.05683099,0.036937
 67,0.07393568,0.00025640,-0.00014099,0.00002999,-0.00019343,-0.0001543
 2,-0.00004717,-0.06655279,0.05401233,0.02282459,-0.00373748,0.01883460
 ,0.00830249,0.00893965,-0.02214927,-0.01244860,0.06655058,-0.00050391,
 0.00043516,-0.00017632,0.00018376,-0.00004542,-0.00006303,0.05721025,-
 0.25025747,-0.10437406,0.00286213,-0.01375134,-0.00813189,0.00493604,-
 0.01159827,-0.00544123,-0.06121603,0.26119013,-0.00098346,0.00153989,-
 0.00010736,0.00020718,-0.00038294,0.00022100,0.02619157,-0.09683550,-0
 .09806773,-0.00482467,0.01488166,0.01027961,0.00133635,-0.00631580,-0.
 00224589,-0.03656363,0.11138662,0.11973575,0.01877202,-0.02524818,0.00
 038844,-0.00503317,0.00433971,-0.00115613,-0.07901398,-0.00493677,0.05
 787822,0.00890275,-0.00320690,-0.00871331,-0.01688493,-0.00816964,0.02
 674717,-0.00836936,-0.00506280,0.01858072,0.27757781,0.01827663,-0.024
 86896,0.00249032,-0.00438449,0.00538747,-0.00118963,-0.00703375,-0.065
 33317,0.02083655,-0.01401792,-0.00173118,0.02335258,-0.01090652,-0.005
 88310,0.01735607,0.00725533,0.01238443,-0.02261243,0.11230162,0.145791
 10,0.00203901,-0.00407237,-0.00004677,-0.00030800,0.00065201,0.0001805
 5,0.02407219,-0.00015221,-0.21431628,0.01617471,0.01160198,-0.03539566
 ,-0.00267667,-0.00121387,0.00675802,0.01838361,0.00520712,-0.03203538,
 -0.03817389,-0.00174314,0.33423241,-0.08527817,0.10445409,-0.01067261,
 0.00918946,-0.01444964,0.00070750,-0.04428573,-0.03050028,0.00103442,0
 .00563423,0.00263744,-0.00426448,-0.00073345,-0.00112672,0.00701993,0.
 00394598,0.00090767,-0.00556567,-0.13220802,-0.07343088,-0.00873833,0.
 19584468,0.04432459,-0.04078741,0.00532045,0.00214476,0.00254102,0.002
 00961,-0.02192529,-0.01582024,0.00054492,0.00018088,0.00065088,-0.0031
 6793,-0.00037665,0.00104436,0.00354706,0.00298543,0.00265957,-0.000341
 00,-0.08525026,-0.11003072,-0.01547462,0.05777268,0.22741152,-0.017434
 54,0.01992999,0.00272473,0.00283646,-0.00321326,-0.00002605,0.02493504
 ,0.02161102,0.01303060,0.00117798,-0.00068283,0.00163320,0.00461332,0.
 00231953,-0.00343425,-0.00010369,0.00142632,0.00223289,-0.04175347,-0.
 03722344,-0.05565800,0.00890588,0.01245499,0.04783022,0.05166250,-0.08
 775192,0.00991797,-0.00769019,0.01765662,-0.00098939,0.00445491,0.0046
 0782,-0.00884413,-0.00046176,-0.00100628,0.00302208,-0.00000026,-0.000
 30655,0.00030279,-0.00075151,0.00056072,0.00152789,-0.06007382,-0.0266
 0498,-0.01059900,0.04149019,-0.00005125,0.01446268,-0.01435362,-0.0627
 6336,0.05074070,-0.00680303,0.01436428,-0.02578235,-0.00127693,-0.0069
 3370,-0.00229755,0.00437532,0.00128361,0.00067254,-0.00174008,0.000048
 92,-0.00022517,0.00052036,0.00054671,-0.00081654,-0.00106802,0.0067288
 8,0.03619182,0.00330447,-0.03249059,-0.06415227,-0.01367220,0.07833468
 ,0.01326255,0.01207809,-0.01153893,-0.02004757,-0.00095720,-0.00131929
 ,0.00340197,0.00344909,-0.00046541,-0.00050146,-0.00018503,0.00022922,
 0.00039199,-0.00007158,0.00039305,-0.00034292,-0.00029269,-0.00001792,
 0.00017300,-0.01466321,-0.00301845,-0.00348053,0.01186620,-0.00472989,
 -0.00747648,-0.00410132,0.01873511,0.02569109,0.00628712,-0.00721393,-
 0.00413757,-0.13523581,0.12668040,-0.01069703,0.00012198,-0.00018875,0
 .00027851,-0.00007642,0.00007637,-0.00014858,0.00004792,0.00001696,-0.
 00003800,-0.00004466,0.00002665,-0.00003245,0.00054463,0.00147594,0.00
 025638,-0.00204222,-0.00050357,-0.00080749,0.00289510,-0.00201828,-0.0
 0044778,0.13695366,0.01449635,-0.02684289,-0.00360396,0.12959525,-0.22
 675929,0.00372958,-0.00026504,-0.00025627,0.00076575,-0.00002016,0.000
 07401,-0.00017582,0.00006838,0.00002993,-0.00008173,0.00000883,-0.0000
 1777,-0.00012083,0.00186778,0.00152044,0.00018271,-0.00131429,-0.00115
 839,-0.00049230,-0.00072172,-0.00152843,-0.00141419,-0.14046682,0.2480
 4405,0.00147860,-0.01228576,0.00887323,-0.00969340,0.00243590,-0.03513
 720,-0.00025541,0.00017978,-0.00029243,0.00029552,-0.00019789,-0.00006
 498,0.00005272,-0.00001218,-0.00001327,0.00007350,-0.00004589,0.000023
 00,0.00070798,0.00108517,0.00024221,-0.00162260,-0.00053133,0.00034868
 ,-0.00009704,-0.00211550,0.00178528,0.01459072,0.00122311,0.02212495,-
 0.00824401,-0.00480322,-0.00402392,-0.28405253,-0.01407051,-0.11007349
 ,-0.00040009,-0.00000165,0.00056557,0.00009352,0.00004105,-0.00004938,
 -0.00007167,0.00001528,0.00002918,0.00009063,-0.00004295,-0.00015541,0
 .00045764,0.00061165,-0.00009486,-0.00065639,-0.00093827,0.00003541,-0
 .00045036,0.00009556,0.00042042,-0.01005923,-0.00243895,-0.00755931,0.
 30026561,-0.02632722,-0.00316165,-0.01137268,-0.01449351,-0.04910909,-
 0.01043834,0.00062864,0.00046580,-0.00092530,0.00008132,-0.00008350,0.
 00007519,-0.00006605,-0.00002112,0.00000748,-0.00011133,-0.00002114,0.
 00027462,-0.00006644,0.00078621,0.00064635,-0.00015126,-0.00083880,0.0
 0043665,-0.00213065,0.00014584,-0.00066707,0.02201356,0.00376420,0.008
 69023,0.02057456,0.05114158,-0.00956543,-0.00254142,-0.00627665,-0.110
 83187,-0.01029631,-0.08317263,0.00048102,-0.00072221,0.00055554,-0.000
 22062,0.00003658,-0.00045365,0.00005570,-0.00001448,-0.00000929,-0.000
 08711,0.00017418,-0.00019883,0.00021157,0.00112069,-0.00030733,0.00003
 325,-0.00060314,-0.00078374,0.00002230,0.00056207,-0.00112530,-0.00102
 322,-0.00159619,0.00530688,0.12398429,0.01676496,0.07789264,-0.1731977
 2,-0.05085954,-0.05862553,-0.00557681,0.00024192,-0.00481861,0.0005727
 9,0.00045041,-0.00119205,-0.00001876,-0.00020984,0.00033839,-0.0000438
 4,-0.00005685,0.00009457,-0.00003542,0.00003666,0.00018113,-0.00293951
 ,-0.00232481,-0.00023328,0.00748339,-0.00049747,0.00216618,-0.01583223
 ,0.00429970,-0.00610478,0.00041350,0.00051329,0.00270568,0.00299675,0.
 00116942,-0.00296560,0.48140032,-0.03620941,-0.07565826,-0.01856475,-0
 .02856498,-0.00397132,-0.01453857,-0.00184320,-0.00075327,0.00289900,0
 .00026456,0.00008317,-0.00083135,0.00035841,0.00013824,-0.00028561,0.0
 0015028,-0.00020752,-0.00047511,0.00803298,0.00660161,0.00109346,-0.01
 365507,-0.00188651,-0.00330641,0.01971966,-0.00844537,0.00440293,-0.00
 052828,0.00239457,0.00138759,0.00094903,-0.00304442,-0.00293003,-0.046
 91954,0.51262665,-0.05444027,-0.02448520,-0.09947911,-0.01151195,-0.00
 289931,-0.00034636,-0.00014698,-0.00020745,0.00081210,-0.00012825,0.00
 012777,-0.00009169,0.00006886,0.00003183,-0.00010052,0.00002564,-0.000
 04046,-0.00007920,0.00103919,0.00052156,-0.00021889,-0.00026920,-0.000
 11742,-0.00080809,-0.00250554,-0.00074238,0.00125047,0.00235397,0.0022
 4472,-0.00410899,-0.00366495,-0.00328631,0.00980031,-0.00140219,0.0363
 6544,0.52451814,-0.02511560,0.01869440,-0.00678311,0.00330877,0.000008
 99,0.00160832,0.00063708,0.00023201,-0.00094586,-0.00005939,-0.0000369
 2,0.00023894,-0.00011190,-0.00004470,0.00008415,-0.00005176,0.00006404
 ,0.00016036,-0.00236400,-0.00188891,-0.00028997,0.00314239,0.00143622,
 0.00102684,-0.00348310,0.00061710,-0.00128892,0.00007522,-0.00139548,-
 0.00047039,0.00021601,0.00007764,0.00023809,-0.13508722,0.12309195,-0.
 01386115,0.15273764,-0.00316060,0.00655702,-0.00013582,-0.00040787,0.0
 0011100,-0.00007767,0.00022852,0.00010794,-0.00040428,-0.00002310,-0.0
 0003453,0.00010016,-0.00003803,-0.00002034,0.00003338,-0.00002558,0.00
 003529,0.00006458,-0.00122750,-0.00074649,-0.00011972,0.00216574,-0.00
 021269,0.00045453,-0.00291784,0.00233650,-0.00054645,0.00042988,0.0001
 7840,0.00018255,0.00025841,0.00032545,0.00025360,0.11654785,-0.1992650
 6,0.01691882,-0.12957141,0.22023622,-0.01273169,0.00950049,-0.00242047
 ,0.00167858,0.00038267,0.00020213,0.00020133,0.00011753,-0.00036999,-0
 .00002868,-0.00002046,0.00009240,-0.00004533,-0.00001785,0.00004425,-0
 .00003188,0.00003296,0.00006064,-0.00091615,-0.00084684,-0.00005360,0.
 00121892,0.00073740,0.00027630,-0.00185192,0.00025613,0.00009237,-0.00
 009281,-0.00068791,0.00028294,0.00031118,0.00020248,-0.00025968,-0.014
 10776,0.01913759,-0.04903637,0.01739957,-0.02267081,0.05056724,0.00386
 421,-0.01267090,-0.02942524,-0.00334461,-0.00017876,-0.00081929,-0.000
 05058,0.00004919,0.00001717,-0.00000328,-0.00009144,-0.00006969,0.0000
 5004,-0.00001188,0.00001474,-0.00003001,0.00002708,-0.00002072,0.00025
 667,0.00021762,0.00017837,-0.00057689,0.00030783,0.00006764,0.00096218
 ,-0.00079133,0.00003779,0.00014265,0.00013561,-0.00019365,-0.00071852,
 -0.00094682,0.00126898,-0.05696190,0.02075451,0.04584091,-0.00397823,0
 .00714395,0.01808340,0.06406179,0.00059415,-0.00674649,-0.00968852,-0.
 00191852,0.00095948,-0.00048613,0.00005764,0.00010904,-0.00025143,-0.0
 0000837,-0.00003566,0.00001493,-0.00000931,-0.00002254,0.00002867,0.00
 000212,0.00001495,0.00003201,-0.00030444,-0.00020569,0.00003661,0.0002
 0720,0.00010070,0.00007202,-0.00033598,0.00040728,0.00006990,0.0004503
 5,0.00052043,-0.00070829,-0.00056340,-0.00046575,0.00096207,0.02150156
 ,-0.07781228,-0.08500010,0.00461277,-0.00961592,-0.02301430,-0.0166721
 9,0.08647647,-0.00198053,-0.00829507,-0.01342605,-0.00108383,0.0014545
 2,-0.00019828,-0.00003166,0.00000901,0.00003276,-0.00002822,-0.0000196
 3,-0.00005136,0.00001573,0.00000174,0.00000644,-0.00003510,0.00002777,
 -0.00001282,0.00011539,0.00000708,0.00014221,-0.00031566,0.00039260,-0
 .00002027,0.00024474,-0.00049181,0.00006345,0.00004910,0.00004871,0.00
 009923,-0.00020529,-0.00040539,0.00028338,0.04843853,-0.08307479,-0.26
 075828,-0.00028972,0.00110781,0.00328458,-0.05088649,0.09118780,0.2869
 4323,-0.02138834,-0.02547876,0.01300173,-0.00160985,0.00104966,-0.0002
 5143,-0.00007383,-0.00008018,0.00020378,0.00003728,-0.00001864,-0.0000
 9496,0.00003678,0.00001879,-0.00003257,-0.00001389,0.00000133,-0.00003
 783,0.00056868,0.00055417,0.00008902,-0.00096307,0.00014248,-0.0000950
 8,0.00136086,-0.00131167,-0.00001631,0.00006593,-0.00007550,-0.0001467
 3,0.00047765,-0.00022799,-0.00134610,-0.09632223,-0.03288509,0.0296419
 9,0.01006706,0.01375370,-0.01005873,-0.00357095,-0.00634353,0.00494820
 ,0.55648826,-0.01479642,-0.01152270,0.00100672,0.00068058,0.00122448,0
 .00133176,-0.00020752,-0.00002344,-0.00006565,0.00001947,-0.00001253,0
 .00000860,-0.00001863,-0.00001775,0.00005922,0.00003606,-0.00002220,-0
 .00001497,0.00047808,0.00023875,0.00039724,-0.00154704,-0.00001678,-0.
 00039155,0.00211470,-0.00016204,-0.00014361,-0.00018586,-0.00000230,0.
 00028811,0.00016207,0.00025919,-0.00060395,-0.02890655,-0.13162033,0.0
 4468173,-0.01413741,-0.01929978,0.01546961,0.00508477,0.00745222,-0.00
 477505,-0.03578441,0.51882732,-0.00187847,-0.01145583,0.01185503,-0.00
 371469,-0.00092925,-0.00260142,0.00022489,0.00002395,-0.00025806,-0.00
 001023,-0.00003950,-0.00000854,-0.00001986,-0.00001346,0.00002487,-0.0
 0005163,0.00005713,0.00003473,-0.00061709,-0.00032101,0.00006559,0.001
 09655,0.00016407,0.00019755,-0.00105314,0.00034486,-0.00004212,-0.0001
 3838,-0.00008201,0.00074155,0.00045320,-0.00021431,-0.00151047,0.02400
 482,0.04288071,-0.11041453,0.00209310,0.00255507,-0.00241904,0.0154893
 9,0.02492596,-0.01723624,0.02954245,0.04507438,0.54734380,0.00148480,-
 0.00005244,-0.00009957,-0.00003770,-0.00002987,0.00000714,-0.00005618,
 -0.00000348,0.00016362,0.00000141,-0.00000025,-0.00002170,0.00002112,0
 .00000666,-0.00003024,0.00000492,-0.00001376,-0.00002461,0.00013691,0.
 00011984,-0.00007857,-0.00043814,0.00023840,-0.00003982,0.00035588,-0.
 00048267,0.00016141,-0.00006680,0.00006987,0.00001365,-0.00004236,0.00
 001244,0.00001479,0.00990936,-0.01479984,0.00177411,-0.00103587,-0.003
 14941,0.00185900,0.00060301,0.00070266,-0.00065556,-0.14673069,0.12952
 420,-0.01685658,0.15649983,0.00204003,0.00033219,-0.00022270,-0.000524
 21,0.00014616,-0.00017697,0.00004605,0.00000251,0.00014230,-0.00001670
 ,-0.00000258,-0.00001779,0.00002906,0.00001322,-0.00004164,-0.00001247
 ,0.00000085,-0.00001696,-0.00008384,-0.00005668,-0.00024117,0.00018562
 ,0.00036074,0.00011894,-0.00073712,-0.00036257,0.00007285,-0.00002817,
 0.00012642,0.00019426,-0.00000309,-0.00001761,-0.00008272,0.01314833,-
 0.01943489,0.00255313,-0.00295729,-0.00235287,0.00274480,0.00004843,0.
 00103754,-0.00011912,0.12753378,-0.21446958,0.02074774,-0.13857742,0.2
 3424414,-0.00070592,-0.00060216,0.00025081,0.00012345,0.00004018,0.000
 03693,-0.00003950,0.00000929,0.00010244,0.00000460,0.00001288,-0.00001
 145,0.00001240,0.00000209,-0.00002101,0.00001961,-0.00001591,-0.000009
 77,0.00013539,0.00008781,-0.00019258,-0.00013850,-0.00012037,-0.000079
 08,0.00027135,-0.00005486,0.00037115,0.00003035,-0.00001950,-0.0001104
 0,-0.00000531,-0.00002299,0.00003574,-0.01117029,0.01528219,-0.0027970
 3,0.00213213,0.00296266,-0.00128265,-0.00081825,-0.00037771,0.00037626
 ,-0.01625832,0.02035107,-0.05104294,0.01639105,-0.02619598,0.05225265,
 0.00089695,0.00135018,0.00099873,0.00011145,-0.00032058,-0.00046765,-0
 .00000624,-0.00001571,0.00003470,0.00000245,0.00001418,0.00000757,-0.0
 0000115,0.00000280,-0.00000464,0.00001214,-0.00000900,-0.00000450,-0.0
 0003286,-0.00002577,-0.00007686,0.00007326,-0.00004497,-0.00006883,-0.
 00001285,0.00014338,0.00014933,-0.00001498,-0.00004074,0.00003322,-0.0
 0004102,0.00000083,0.00002356,-0.00507625,0.00485717,0.01398910,0.0004
 7802,0.00005421,-0.00082647,-0.00073183,-0.00257448,0.00163244,-0.0629
 2957,0.02191952,0.05477269,-0.00484948,0.00636027,0.01881813,0.0642260
 9,0.00122062,0.00158313,0.00056772,0.00026159,-0.00015884,-0.00029525,
 -0.00000215,-0.00001585,0.00003271,0.00000102,0.00000833,0.00000444,0.
 00000045,0.00000689,-0.00000910,-0.00000296,-0.00000348,-0.00000115,0.
 00003509,0.00002848,-0.00000816,0.00002298,-0.00001953,0.00004705,-0.0
 0003878,-0.00003684,-0.00004609,0.00000396,-0.00006939,0.00002015,-0.0
 0002059,-0.00002465,0.00005016,-0.00744056,0.00778524,0.02452860,0.000
 70180,0.00126618,-0.00047909,-0.00306591,-0.00329296,0.00319343,0.0228
 2363,-0.08112903,-0.08757163,0.00457105,-0.00874059,-0.02416493,-0.021
 89201,0.08688743,-0.00128851,-0.00039574,0.00064189,0.00037181,0.00023
 635,0.00046475,-0.00004120,0.00001162,0.00000334,0.00000513,-0.0000122
 7,-0.00000708,0.00000780,0.00000113,0.00000452,-0.00000252,-0.00000146
 ,-0.00000577,0.00010181,0.00005857,0.00004366,-0.00017939,0.00001183,0
 .00000257,0.00020867,-0.00013175,-0.00007475,-0.00002198,0.00002797,0.
 00003682,0.00008104,0.00011280,-0.00012583,0.00456175,-0.00557487,-0.0
 1626746,-0.00052071,0.00002610,0.00035969,0.00152919,0.00314570,-0.000
 48545,0.05589020,-0.08562927,-0.26851662,-0.00117560,0.00140431,0.0043
 1256,-0.06328574,0.09138630,0.29211308,-0.00002641,-0.00323648,0.00248
 298,-0.00060062,0.00013961,-0.00019778,0.00011855,-0.00000166,-0.00017
 818,-0.00000235,-0.00000558,0.00000757,-0.00002637,-0.00001253,0.00002
 320,-0.00001998,0.00003211,0.00002776,-0.00029746,-0.00019476,0.000076
 14,0.00037849,0.00005446,0.00007548,-0.00007194,0.00032877,-0.00003352
 ,-0.00000759,-0.00001665,0.00008691,0.00013835,-0.00003716,-0.00029361
 ,-0.01168422,-0.00277312,-0.00680329,0.00062488,-0.00006092,-0.0000605
 6,0.00002625,0.00060176,0.00006793,-0.23550009,-0.06443561,-0.10333700
 ,-0.01576003,-0.00645126,-0.00880236,0.00789587,0.00282077,0.00375824,
 0.25481467,-0.00090647,-0.00389917,0.00360536,-0.00113330,0.00030104,-
 0.00033286,0.00010477,0.00000132,-0.00001635,-0.00000142,-0.00000860,-
 0.00001873,0.00000406,-0.00000026,-0.00001501,-0.00001874,0.00002078,0
 .00000534,-0.00022738,-0.00007433,-0.00009669,0.00031237,0.00015454,0.
 00011095,-0.00039114,0.00005191,0.00000425,-0.00004041,-0.00001771,0.0
 0020997,0.00017502,-0.00010054,-0.00053388,-0.02069399,-0.00753025,-0.
 01119496,0.00049521,0.00039369,-0.00084438,0.00066023,0.00111918,-0.00
 024961,-0.06367180,-0.06970349,-0.03614687,0.02186401,0.00917361,0.012
 82625,-0.00977928,-0.00407452,-0.00467732,0.07324826,0.07419281,0.0009
 0245,0.00286569,-0.00206776,0.00081178,0.00033936,0.00091157,-0.000018
 86,0.00000020,-0.00000164,-0.00000140,0.00000641,0.00000509,-0.0000052
 6,-0.00000134,0.00000351,0.00000460,-0.00000395,0.00000213,0.00008736,
 0.00003854,0.00004036,-0.00011621,-0.00009722,0.00000922,0.00006103,-0
 .00000176,-0.00012965,0.00002628,0.00005187,-0.00013747,-0.00004836,0.
 00012163,0.00034891,0.01812902,0.00613257,0.00812550,-0.00053167,-0.00
 070452,0.00057925,-0.00029426,-0.00094919,0.00095722,-0.10497930,-0.03
 704438,-0.10621313,-0.00140251,-0.00086331,-0.00219161,-0.02572479,-0.
 00725515,-0.01249992,0.11310009,0.03736454,0.11225843\\0.00000004,-0.0
 0000676,-0.00000032,0.00000120,0.00000268,-0.00000150,0.00000284,0.000
 00271,-0.00000218,-0.00000151,-0.00000018,0.00000067,-0.00000014,-0.00
 000022,-0.00000055,-0.00000068,-0.00000062,0.00000043,0.00001889,0.000
 01732,0.00000707,-0.00001217,-0.00002809,-0.00000385,-0.00000956,0.000
 00921,-0.00000018,0.00000106,0.00000061,-0.00000078,0.00000155,-0.0000
 0005,-0.00000092,-0.00000104,0.00000306,0.00000011,-0.00000091,-0.0000
 0040,-0.00000019,-0.00000011,-0.00000021,-0.00000009,0.00000050,0.0000
 0023,0.00000026,0.00000005,0.00000016,0.00000085,0.00000005,0.00000054
 ,0.00000045,-0.00000007,0.00000002,0.00000071\\\@


 GOD GAVE US TWO ENDS... ONE TO SIT ON...    
 AND THE OTHER TO THINK WITH...              
 YOUR SUCCESS DEPENDS UPON WHICH END YOU     
 USE THE MOST...                             
                                             
 IT'S A CASE OF HEADS YOU WIN TAILS YOU LOSE.
          SOURCE UNKNOWN(IT'S JUST AS WELL.) 
 Job cpu time:       3 days  0 hours 40 minutes 39.3 seconds.
 Elapsed time:       0 days  1 hours 52 minutes 31.4 seconds.
 File lengths (MBytes):  RWF= 108510 Int=      0 D2E=      0 Chk=     21 Scr=      1
 Normal termination of Gaussian 16 at Thu Jun  6 08:26:59 2019.
