 Entering Gaussian System, Link 0=g16
 Initial command:
 /ichec/packages/gaussian/16b01/l1.exe "/localscratch/347863/Gau-57767.inp" -scrdir="/localscratch/347863/"
 Entering Link 1 = /ichec/packages/gaussian/16b01/l1.exe PID=     59195.
  
 Copyright (c) 1988-2017, Gaussian, Inc.  All Rights Reserved.
  
 This is part of the Gaussian(R) 16 program.  It is based on
 the Gaussian(R) 09 system (copyright 2009, Gaussian, Inc.),
 the Gaussian(R) 03 system (copyright 2003, Gaussian, Inc.),
 the Gaussian(R) 98 system (copyright 1998, Gaussian, Inc.),
 the Gaussian(R) 94 system (copyright 1995, Gaussian, Inc.),
 the Gaussian 92(TM) system (copyright 1992, Gaussian, Inc.),
 the Gaussian 90(TM) system (copyright 1990, Gaussian, Inc.),
 the Gaussian 88(TM) system (copyright 1988, Gaussian, Inc.),
 the Gaussian 86(TM) system (copyright 1986, Carnegie Mellon
 University), and the Gaussian 82(TM) system (copyright 1983,
 Carnegie Mellon University). Gaussian is a federally registered
 trademark of Gaussian, Inc.
  
 This software contains proprietary and confidential information,
 including trade secrets, belonging to Gaussian, Inc.
  
 This software is provided under written license and may be
 used, copied, transmitted, or stored only in accord with that
 written license.
  
 The following legend is applicable only to US Government
 contracts under FAR:
  
                    RESTRICTED RIGHTS LEGEND
  
 Use, reproduction and disclosure by the US Government is
 subject to restrictions as set forth in subparagraphs (a)
 and (c) of the Commercial Computer Software - Restricted
 Rights clause in FAR 52.227-19.
  
 Gaussian, Inc.
 340 Quinnipiac St., Bldg. 40, Wallingford CT 06492
  
  
 ---------------------------------------------------------------
 Warning -- This program may not be used in any manner that
 competes with the business of Gaussian, Inc. or will provide
 assistance to any competitor of Gaussian, Inc.  The licensee
 of this program is prohibited from giving any competitor of
 Gaussian, Inc. access to this program.  By using this program,
 the user acknowledges that Gaussian, Inc. is engaged in the
 business of creating and licensing software in the field of
 computational chemistry and represents and warrants to the
 licensee that it is not a competitor of Gaussian, Inc. and that
 it will not use this program in any manner prohibited above.
 ---------------------------------------------------------------
  

 Cite this work as:
 Gaussian 16, Revision B.01,
 M. J. Frisch, G. W. Trucks, H. B. Schlegel, G. E. Scuseria, 
 M. A. Robb, J. R. Cheeseman, G. Scalmani, V. Barone, 
 G. A. Petersson, H. Nakatsuji, X. Li, M. Caricato, A. V. Marenich, 
 J. Bloino, B. G. Janesko, R. Gomperts, B. Mennucci, H. P. Hratchian, 
 J. V. Ortiz, A. F. Izmaylov, J. L. Sonnenberg, D. Williams-Young, 
 F. Ding, F. Lipparini, F. Egidi, J. Goings, B. Peng, A. Petrone, 
 T. Henderson, D. Ranasinghe, V. G. Zakrzewski, J. Gao, N. Rega, 
 G. Zheng, W. Liang, M. Hada, M. Ehara, K. Toyota, R. Fukuda, 
 J. Hasegawa, M. Ishida, T. Nakajima, Y. Honda, O. Kitao, H. Nakai, 
 T. Vreven, K. Throssell, J. A. Montgomery, Jr., J. E. Peralta, 
 F. Ogliaro, M. J. Bearpark, J. J. Heyd, E. N. Brothers, K. N. Kudin, 
 V. N. Staroverov, T. A. Keith, R. Kobayashi, J. Normand, 
 K. Raghavachari, A. P. Rendell, J. C. Burant, S. S. Iyengar, 
 J. Tomasi, M. Cossi, J. M. Millam, M. Klene, C. Adamo, R. Cammi, 
 J. W. Ochterski, R. L. Martin, K. Morokuma, O. Farkas, 
 J. B. Foresman, and D. J. Fox, Gaussian, Inc., Wallingford CT, 2016.
 
 ******************************************
 Gaussian 16:  ES64L-G16RevB.01 20-Dec-2017
                14-Jun-2019 
 ******************************************
 %mem=80GB
 %nproc=40
 Will use up to   40 processors via shared memory.
 ----------------------------------------------------------------------
 # opt=(calcfc,ts,noeigentest,maxcyc=500,modredundant) uB2PLYPD3/cc-pvt
 z scf=maxcyc=500 nosymm
 ----------------------------------------------------------------------
 1/5=1,6=500,10=4,11=1,18=120,38=1/1,3;
 2/9=110,12=2,15=1,17=6,18=5,40=1/2;
 3/5=16,6=1,11=2,25=1,30=1,71=2,74=-60,116=2,140=1/1,2,3;
 4//1;
 5/5=2,7=500,38=5/2;
 8/6=3,8=1,10=1,19=11,30=-1/1;
 9/15=3,16=-3/6;
 11/6=1,8=1,15=11,17=12,24=-1,27=1,28=-2,29=300,31=1,32=6,42=3/1,2,10;
 10/6=2,21=1,31=1/2;
 8/6=4,8=1,10=1,19=11,30=-1/11,4;
 10/5=1,20=4,31=1/2;
 11/12=2,14=11,16=1,17=2,28=-2,31=1,42=3,76=2/2,10,12;
 6/7=2,8=2,9=2,10=2/1;
 7/10=1,12=2,25=1,30=1,44=2/1,2,3,16;
 1/5=1,6=500,10=4,11=1,18=20/3(2);
 2/9=110,15=1/2;
 99//99;
 2/9=110,15=1/2;
 3/5=16,6=1,11=2,25=1,30=1,71=1,74=-60,116=2/1,2,3;
 4/5=5,16=3,69=1/1;
 5/5=2,7=500,38=5/2;
 8/6=4,10=1/1;
 9/15=2,16=-3/6;
 10/5=1,31=1/2;
 7/12=2,30=1/1,2,3,16;
 1/5=1,6=500,11=1,18=20/3(-8);
 2/9=110,15=1/2;
 6/7=2,8=2,9=2,10=2/1;
 99/9=10/99;
 -------------------
 Title Card Required
 -------------------
 Symbolic Z-matrix:
 Charge =  0 Multiplicity = 2
 C                    -1.37341   0.00995   0.58435 
 H                    -0.92422  -0.93913   0.87858 
 H                    -1.37818   0.6451    1.47095 
 C                    -0.56158   0.65597  -0.51579 
 H                    -0.35545   0.03163  -1.37902 
 H                    -0.84818   1.66917  -0.77501 
 C                     2.68445  -1.12131   0.01095 
 H                     1.7206   -1.62701  -0.07302 
 H                     3.40559  -1.5923   -0.65368 
 H                     3.03616  -1.16404   1.04025 
 O                     2.59203   0.22399  -0.4331 
 O                     1.75165   0.91578   0.46252 
 H                     0.70716   0.83244  -0.00594 
 C                    -2.74997  -0.2206    0.1476 
 C                    -3.87398  -0.39447  -0.25174 
 H                    -4.86595  -0.5512   -0.59059 
 
 Add virtual bond connecting atoms H13        and O12        Dist= 2.17D+00.
 Add virtual bond connecting atoms H13        and C4         Dist= 2.61D+00.
 The following ModRedundant input section has been read:
 D    *          4      12    *    R                                           
 D       1       4      12      11 S  36 10.000                                
 

 GradGradGradGradGradGradGradGradGradGradGradGradGradGradGradGradGradGrad
 Berny optimization.
 Initialization pass.
                           ----------------------------
                           !    Initial Parameters    !
                           ! (Angstroms and Degrees)  !
 --------------------------                            --------------------------
 ! Name  Definition              Value          Derivative Info.                !
 --------------------------------------------------------------------------------
 ! R1    R(1,2)                  1.0905         calculate D2E/DX2 analytically  !
 ! R2    R(1,3)                  1.0906         calculate D2E/DX2 analytically  !
 ! R3    R(1,4)                  1.5122         calculate D2E/DX2 analytically  !
 ! R4    R(1,14)                 1.4625         calculate D2E/DX2 analytically  !
 ! R5    R(4,5)                  1.0851         calculate D2E/DX2 analytically  !
 ! R6    R(4,6)                  1.0844         calculate D2E/DX2 analytically  !
 ! R7    R(4,13)                 1.3787         calculate D2E/DX2 analytically  !
 ! R8    R(7,8)                  1.0917         calculate D2E/DX2 analytically  !
 ! R9    R(7,9)                  1.0879         calculate D2E/DX2 analytically  !
 ! R10   R(7,10)                 1.0886         calculate D2E/DX2 analytically  !
 ! R11   R(7,11)                 1.4197         calculate D2E/DX2 analytically  !
 ! R12   R(11,12)                1.4096         calculate D2E/DX2 analytically  !
 ! R13   R(12,13)                1.1478         calculate D2E/DX2 analytically  !
 ! R14   R(14,15)                1.2054         calculate D2E/DX2 analytically  !
 ! R15   R(15,16)                1.0599         calculate D2E/DX2 analytically  !
 ! A1    A(2,1,3)              106.8168         calculate D2E/DX2 analytically  !
 ! A2    A(2,1,4)              110.3023         calculate D2E/DX2 analytically  !
 ! A3    A(2,1,14)             109.3359         calculate D2E/DX2 analytically  !
 ! A4    A(3,1,4)              110.1801         calculate D2E/DX2 analytically  !
 ! A5    A(3,1,14)             109.2963         calculate D2E/DX2 analytically  !
 ! A6    A(4,1,14)             110.8183         calculate D2E/DX2 analytically  !
 ! A7    A(1,4,5)              115.7811         calculate D2E/DX2 analytically  !
 ! A8    A(1,4,6)              115.5424         calculate D2E/DX2 analytically  !
 ! A9    A(1,4,13)             106.2416         calculate D2E/DX2 analytically  !
 ! A10   A(5,4,6)              113.4306         calculate D2E/DX2 analytically  !
 ! A11   A(5,4,13)             101.1296         calculate D2E/DX2 analytically  !
 ! A12   A(6,4,13)             102.2406         calculate D2E/DX2 analytically  !
 ! A13   A(8,7,9)              109.737          calculate D2E/DX2 analytically  !
 ! A14   A(8,7,10)             109.8648         calculate D2E/DX2 analytically  !
 ! A15   A(8,7,11)             110.9418         calculate D2E/DX2 analytically  !
 ! A16   A(9,7,10)             110.2723         calculate D2E/DX2 analytically  !
 ! A17   A(9,7,11)             105.2072         calculate D2E/DX2 analytically  !
 ! A18   A(10,7,11)            110.7306         calculate D2E/DX2 analytically  !
 ! A19   A(7,11,12)            107.7664         calculate D2E/DX2 analytically  !
 ! A20   A(11,12,13)           104.3346         calculate D2E/DX2 analytically  !
 ! A21   L(4,13,12,8,-1)       177.2605         calculate D2E/DX2 analytically  !
 ! A22   L(1,14,15,6,-1)       178.128          calculate D2E/DX2 analytically  !
 ! A23   L(14,15,16,6,-1)      180.6191         calculate D2E/DX2 analytically  !
 ! A24   L(4,13,12,8,-2)       182.8715         calculate D2E/DX2 analytically  !
 ! A25   L(1,14,15,6,-2)       178.8257         calculate D2E/DX2 analytically  !
 ! A26   L(14,15,16,6,-2)      180.6201         calculate D2E/DX2 analytically  !
 ! D1    D(2,1,4,5)             52.3999         calculate D2E/DX2 analytically  !
 ! D2    D(2,1,4,6)           -171.5249         calculate D2E/DX2 analytically  !
 ! D3    D(2,1,4,13)           -58.9453         calculate D2E/DX2 analytically  !
 ! D4    D(3,1,4,5)            170.0857         calculate D2E/DX2 analytically  !
 ! D5    D(3,1,4,6)            -53.8391         calculate D2E/DX2 analytically  !
 ! D6    D(3,1,4,13)            58.7405         calculate D2E/DX2 analytically  !
 ! D7    D(14,1,4,5)           -68.8229         calculate D2E/DX2 analytically  !
 ! D8    D(14,1,4,6)            67.2523         calculate D2E/DX2 analytically  !
 ! D9    D(14,1,4,13)          179.8319         calculate D2E/DX2 analytically  !
 ! D10   D(1,4,12,11)          122.9395         Scan                            !
 ! D11   D(8,7,11,12)           66.178          calculate D2E/DX2 analytically  !
 ! D12   D(9,7,11,12)         -175.219          calculate D2E/DX2 analytically  !
 ! D13   D(10,7,11,12)         -56.089          calculate D2E/DX2 analytically  !
 ! D14   D(7,11,12,13)         -92.6431         calculate D2E/DX2 analytically  !
 --------------------------------------------------------------------------------
 Trust Radius=3.00D-01 FncErr=1.00D-07 GrdErr=1.00D-07 EigMax=2.50D+02 EigMin=1.00D-04
 Number of optimizations in scan=  37
 Number of steps in this run=    100 maximum allowed number of steps=    100.
 Search for a saddle point of order  1.
 GradGradGradGradGradGradGradGradGradGradGradGradGradGradGradGradGradGrad

                          Input orientation:                          
 ---------------------------------------------------------------------
 Center     Atomic      Atomic             Coordinates (Angstroms)
 Number     Number       Type             X           Y           Z
 ---------------------------------------------------------------------
      1          6           0       -1.373410    0.009952    0.584345
      2          1           0       -0.924218   -0.939131    0.878582
      3          1           0       -1.378183    0.645100    1.470950
      4          6           0       -0.561579    0.655965   -0.515791
      5          1           0       -0.355454    0.031625   -1.379018
      6          1           0       -0.848177    1.669169   -0.775011
      7          6           0        2.684446   -1.121310    0.010945
      8          1           0        1.720598   -1.627008   -0.073022
      9          1           0        3.405587   -1.592301   -0.653677
     10          1           0        3.036159   -1.164043    1.040250
     11          8           0        2.592028    0.223990   -0.433098
     12          8           0        1.751650    0.915775    0.462515
     13          1           0        0.707162    0.832439   -0.005943
     14          6           0       -2.749968   -0.220596    0.147597
     15          6           0       -3.873981   -0.394474   -0.251739
     16          1           0       -4.865947   -0.551196   -0.590592
 ---------------------------------------------------------------------
                    Distance matrix (angstroms):
                    1          2          3          4          5
     1  C    0.000000
     2  H    1.090462   0.000000
     3  H    1.090644   1.751220   0.000000
     4  C    1.512184   2.149445   2.148046   0.000000
     5  H    2.211673   2.522423   3.089441   1.085103   0.000000
     6  H    2.208330   3.089236   2.524671   1.084396   1.813602
     7  C    4.251439   3.715971   4.664416   3.738026   3.535852
     8  H    3.561552   2.893748   4.141107   3.258273   2.960858
     9  H    5.190253   4.639144   5.692491   4.562030   4.160371
    10  H    4.585893   3.970051   4.790085   4.321737   4.334226
    11  O    4.099476   3.929038   4.423269   3.184129   3.101519
    12  O    3.255973   3.282386   3.299403   2.524997   2.934766
    13  H    2.313807   2.565589   2.562220   1.378692   1.912012
    14  C    1.462468   2.093799   2.093439   2.448977   2.850941
    15  C    2.667480   3.205523   3.205835   3.484990   3.719187
    16  H    3.727355   4.224476   4.224403   4.471064   4.615825
                    6          7          8          9         10
     6  H    0.000000
     7  C    4.569893   0.000000
     8  H    4.237473   1.091689   0.000000
     9  H    5.361568   1.087933   1.782569   0.000000
    10  H    5.139098   1.088576   1.784492   1.785853   0.000000
    11  O    3.747060   1.419700   2.077315   2.002360   2.072352
    12  O    2.976268   2.285550   2.598752   3.204971   2.511849
    13  H    1.926308   2.779761   2.660908   3.685162   3.241094
    14  C    2.835353   5.510246   4.691762   6.357238   5.930109
    15  C    3.699720   6.603806   5.731526   7.388400   7.071881
    16  H    4.594182   7.595743   6.693865   8.337035   8.091879
                   11         12         13         14         15
    11  O    0.000000
    12  O    1.409583   0.000000
    13  H    2.026177   1.147760   0.000000
    14  C    5.391826   4.653502   3.617210   0.000000
    15  C    6.498051   5.820192   4.748958   1.205449   0.000000
    16  H    7.499807   6.859565   5.771984   2.265301   1.059896
                   16
    16  H    0.000000
 Symmetry turned off by external request.
 Stoichiometry    C5H9O2(2)
 Framework group  C1[X(C5H9O2)]
 Deg. of freedom    42
 Full point group                 C1      NOp   1
 Rotational constants (GHZ):           7.1716566           0.8224676           0.7886286
 Standard basis: CC-pVTZ (5D, 7F)
   336 basis functions,   517 primitive gaussians,   380 cartesian basis functions
    28 alpha electrons       27 beta electrons
       nuclear repulsion energy       273.8324745608 Hartrees.
 NAtoms=   16 NActive=   16 NUniq=   16 SFac= 1.00D+00 NAtFMM=   60 NAOKFM=F Big=F
 Integral buffers will be    131072 words long.
 Raffenetti 2 integral format.
 Two-electron integral symmetry is turned off.
 Nuclear repulsion after empirical dispersion term =      273.8245680056 Hartrees.
 One-electron integrals computed using PRISM.
 NBasis=   336 RedAO= T EigKep=  4.31D-05  NBF=   336
 NBsUse=   336 1.00D-06 EigRej= -1.00D+00 NBFU=   336
 ExpMin= 1.03D-01 ExpMax= 1.53D+04 ExpMxC= 5.22D+02 IAcc=3 IRadAn=         5 AccDes= 0.00D+00
 Harris functional with IExCor=  419 and IRadAn=       5 diagonalized for initial guess.
 HarFok:  IExCor=  419 AccDes= 0.00D+00 IRadAn=         5 IDoV= 1 UseB2=F ITyADJ=14
 ICtDFT=  3500011 ScaDFX=  1.000000  1.000000  1.000000  1.000000
 FoFCou: FMM=F IPFlag=           0 FMFlag=      100000 FMFlg1=           0
         NFxFlg=           0 DoJE=T BraDBF=F KetDBF=T FulRan=T
         wScrn=  0.000000 ICntrl=       500 IOpCl=  0 I1Cent=   200000004 NGrid=           0
         NMat0=    1 NMatS0=      1 NMatT0=    0 NMatD0=    1 NMtDS0=    0 NMtDT0=    0
 Symmetry not used in FoFCou.
 Initial guess <Sx>= 0.0000 <Sy>= 0.0000 <Sz>= 0.5000 <S**2>= 0.7500 S= 0.5000
 Requested convergence on RMS density matrix=1.00D-08 within 500 cycles.
 Requested convergence on MAX density matrix=1.00D-06.
 Requested convergence on             energy=1.00D-06.
 No special actions if energy rises.
 Integral accuracy reduced to 1.0D-05 until final iterations.
 Initial convergence to 1.0D-05 achieved.  Increase integral accuracy.
 SCF Done:  E(UB2PLYPD3) =  -345.566393071     A.U. after   22 cycles
            NFock= 22  Conv=0.67D-08     -V/T= 2.0044
 <Sx>= 0.0000 <Sy>= 0.0000 <Sz>= 0.5000 <S**2>= 0.7684 S= 0.5091
 <L.S>=  0.00000000000    
 Annihilation of the first spin contaminant:
 S**2 before annihilation     0.7684,   after     0.7502
 DoSCS=T DFT=T ScalE2(SS,OS)=  0.270000  0.270000
 ExpMin= 1.03D-01 ExpMax= 1.53D+04 ExpMxC= 5.22D+02 IAcc=3 IRadAn=         5 AccDes= 0.00D+00
 HarFok:  IExCor=  205 AccDes= 0.00D+00 IRadAn=         5 IDoV=-2 UseB2=F ITyADJ=14
 ICtDFT= 12500011 ScaDFX=  1.000000  1.000000  1.000000  1.000000
 Range of M.O.s used for correlation:     8   336
 NBasis=   336 NAE=    28 NBE=    27 NFC=     7 NFV=     0
 NROrb=    329 NOA=    21 NOB=    20 NVA=   308 NVB=   309

 **** Warning!!: The largest alpha MO coefficient is  0.33115044D+02


 **** Warning!!: The largest beta MO coefficient is  0.32273739D+02

 DoSCS=T DFT=T ScalE2(SS,OS)=  0.270000  0.270000
 Disk-based method using ON**2 memory for 21 occupieds at a time.
 Permanent disk used for amplitudes=   106523802 words.
 Estimated scratch disk usage=  1880143776 words.
 Actual    scratch disk usage=  1818221472 words.
 JobTyp=2 Pass  1:  I=   8 to  28 NPSUse= 40 ParTrn=T ParDer=T DoDerP=T.
 (rs|ai) integrals will be sorted in core.
 Actual    scratch disk usage=  1818221472 words.
 JobTyp=3 Pass  1:  I=   8 to  27 NPSUse= 40 ParTrn=T ParDer=T DoDerP=T.
 (rs|ai) integrals will be sorted in core.
 Spin components of T(2) and E(2):
     alpha-alpha T2 =       0.7924057816D-01 E2=     -0.5363062364D-01
     alpha-beta  T2 =       0.4675186243D+00 E2=     -0.3262052029D+00
     beta-beta   T2 =       0.8309968726D-01 E2=     -0.5179413743D-01
 (S**2,0)=  0.76837D+00           (S**2,1)=  0.74293D+00
 Scaling Projection term by:   0.270000
 E(PUHF)=      -0.34557249804D+03        E(PMP2)=      -0.34599853591D+03
 E2(B2PLYPD3) =    -0.4316299639D+00 E(B2PLYPD3) =    -0.34599802303492D+03
 G2DrvN: will do    17 centers at a time, making    1 passes.
 Calling FoFCou, ICntrl=  3107 FMM=F I1Cent=   0 AccDes= 0.00D+00.
 End of G2Drv F.D. properties file   721 does not exist.
 End of G2Drv F.D. properties file   722 does not exist.
 End of G2Drv F.D. properties file   788 does not exist.
          IDoAtm=1111111111111111
          Differentiating once with respect to electric field.
                with respect to dipole field.
          Differentiating once with respect to nuclear coordinates.
 Keep R1 and R2 ints in memory in canonical form, NReq=3251641613.
          There are    51 degrees of freedom in the 1st order CPHF.  IDoFFX=6 NUNeed=    51.
     48 vectors produced by pass  0 Test12= 3.33D-14 1.96D-09 XBig12= 1.17D+02 5.07D+00.
 AX will form    48 AO Fock derivatives at one time.
     48 vectors produced by pass  1 Test12= 3.33D-14 1.96D-09 XBig12= 1.49D+01 5.49D-01.
     48 vectors produced by pass  2 Test12= 3.33D-14 1.96D-09 XBig12= 6.02D-01 1.06D-01.
     48 vectors produced by pass  3 Test12= 3.33D-14 1.96D-09 XBig12= 1.21D-02 1.03D-02.
     48 vectors produced by pass  4 Test12= 3.33D-14 1.96D-09 XBig12= 1.26D-04 9.55D-04.
     48 vectors produced by pass  5 Test12= 3.33D-14 1.96D-09 XBig12= 1.27D-06 1.24D-04.
     48 vectors produced by pass  6 Test12= 3.33D-14 1.96D-09 XBig12= 1.20D-08 9.93D-06.
     24 vectors produced by pass  7 Test12= 3.33D-14 1.96D-09 XBig12= 9.56D-11 1.31D-06.
      4 vectors produced by pass  8 Test12= 3.33D-14 1.96D-09 XBig12= 6.86D-13 9.84D-08.
      2 vectors produced by pass  9 Test12= 3.33D-14 1.96D-09 XBig12= 5.05D-15 8.14D-09.
 InvSVY:  IOpt=1 It=  1 EMax= 6.44D-15
 Solved reduced A of dimension   366 with    51 vectors.
 End of Minotr F.D. properties file   721 does not exist.
 End of Minotr F.D. properties file   722 does not exist.
 End of Minotr F.D. properties file   788 does not exist.
 MDV= 10737418240.
 DoSCS=T DFT=T ScalE2(SS,OS)=  0.270000  0.270000
 Form MO integral derivatives with frozen-active canonical formalism.
 Discarding MO integrals.
 Reordered first order wavefunction length =    428928697
 In DefCFB: NBatch=  1 ICI= 28 ICA=309 LFMax= 78
            Large arrays: LIAPS=  8665386240 LIARS=  1611002400 words.
 In DefCFB: NBatch=  1 ICI= 28 ICA=309 LFMax= 78
            Large arrays: LIAPS=  8665386240 LIARS=  1611002400 words.
 Semi-Direct transformation.
 ModeAB=           4 MOrb=            28 LenV=   10734114501
 LASXX=    503301435 LTotXX=   503301435 LenRXX=  1014543915
 LTotAB=   511242480 MaxLAS=   580012608 LenRXY=           0
 NonZer=  1517845350 LenScr=  2285697024 LnRSAI=   580012608
 LnScr1=   873431040 LExtra=           0 Total=   4753684587
 MaxDsk=          -1 SrtSym=           T ITran=            4
 JobTyp=1 Pass  1:  I=   1 to  28.
 (rs|ai) integrals will be sorted in core.
 ModeAB=           4 MOrb=            27 LenV=   10734114501
 LASXX=    486308502 LTotXX=   486308502 LenRXX=   901306008
 LTotAB=   414997506 MaxLAS=   559297872 LenRXY=           0
 NonZer=  1387614510 LenScr=  2089584640 LnRSAI=   559297872
 LnScr1=   842236928 LExtra=           0 Total=   4392425448
 MaxDsk=          -1 SrtSym=           T ITran=            4
 JobTyp=2 Pass  1:  I=   1 to  27.
 (rs|ai) integrals will be sorted in core.
 DoSCS=T DFT=T ScalE2(SS,OS)=  0.270000  0.270000
 Spin components of T(2) and E(2):
     alpha-alpha T2 =       0.7924057816D-01 E2=     -0.5363062364D-01
     alpha-beta  T2 =       0.4675186243D+00 E2=     -0.3262052029D+00
     beta-beta   T2 =       0.8309968726D-01 E2=     -0.5179413743D-01
 E2(B2PLYPD3) =    -0.4316299639D+00 E(B2PLYPD3) =    -0.34599802303492D+03
 (S**2,0)=  0.76837D+00           (S**2,1)=  0.74293D+00
 Scaling Projection term by:   0.270000
 E(PUHF)=      -0.34557249804D+03        E(PMP2)=      -0.34599853591D+03
          IDoAtm=1111111111111111
          Differentiating once with respect to electric field.
                with respect to dipole field.
          Differentiating once with respect to nuclear coordinates.
 Keep R1 and R2 ints in memory in canonical form, NReq=3251777228.
          There are     1 degrees of freedom in the 1st order CPHF.  IDoFFX=0 NUNeed=     1.
 LinEq1:  Iter=  0 NonCon=     1 RMS=8.98D-04 Max=6.82D-02 NDo=     1
 AX will form     1 AO Fock derivatives at one time.
 LinEq1:  Iter=  1 NonCon=     1 RMS=2.96D-04 Max=9.70D-03 NDo=     1
 LinEq1:  Iter=  2 NonCon=     1 RMS=1.76D-04 Max=1.00D-02 NDo=     1
 LinEq1:  Iter=  3 NonCon=     1 RMS=1.13D-04 Max=3.48D-03 NDo=     1
 LinEq1:  Iter=  4 NonCon=     1 RMS=5.20D-05 Max=1.40D-03 NDo=     1
 LinEq1:  Iter=  5 NonCon=     1 RMS=4.19D-05 Max=1.18D-03 NDo=     1
 LinEq1:  Iter=  6 NonCon=     1 RMS=1.87D-05 Max=4.81D-04 NDo=     1
 LinEq1:  Iter=  7 NonCon=     1 RMS=7.07D-06 Max=1.96D-04 NDo=     1
 LinEq1:  Iter=  8 NonCon=     1 RMS=4.96D-06 Max=9.01D-05 NDo=     1
 LinEq1:  Iter=  9 NonCon=     1 RMS=2.97D-06 Max=7.60D-05 NDo=     1
 LinEq1:  Iter= 10 NonCon=     1 RMS=1.28D-06 Max=2.92D-05 NDo=     1
 LinEq1:  Iter= 11 NonCon=     1 RMS=5.51D-07 Max=1.03D-05 NDo=     1
 LinEq1:  Iter= 12 NonCon=     1 RMS=2.44D-07 Max=4.64D-06 NDo=     1
 LinEq1:  Iter= 13 NonCon=     1 RMS=1.03D-07 Max=1.80D-06 NDo=     1
 LinEq1:  Iter= 14 NonCon=     1 RMS=3.71D-08 Max=7.80D-07 NDo=     1
 LinEq1:  Iter= 15 NonCon=     1 RMS=1.52D-08 Max=3.59D-07 NDo=     1
 LinEq1:  Iter= 16 NonCon=     1 RMS=6.55D-09 Max=1.41D-07 NDo=     1
 LinEq1:  Iter= 17 NonCon=     1 RMS=2.29D-09 Max=5.34D-08 NDo=     1
 LinEq1:  Iter= 18 NonCon=     1 RMS=7.00D-10 Max=1.44D-08 NDo=     1
 LinEq1:  Iter= 19 NonCon=     1 RMS=3.06D-10 Max=6.73D-09 NDo=     1
 LinEq1:  Iter= 20 NonCon=     1 RMS=1.41D-10 Max=3.27D-09 NDo=     1
 LinEq1:  Iter= 21 NonCon=     0 RMS=5.15D-11 Max=9.04D-10 NDo=     1
 Linear equations converged to 1.000D-10 1.000D-09 after    21 iterations.
 End of Minotr F.D. properties file   721 does not exist.
 End of Minotr F.D. properties file   722 does not exist.
 End of Minotr F.D. properties file   788 does not exist.
 Symmetrizing basis deriv contribution to polar:
 IMax=3 JMax=2 DiffMx= 0.00D+00
 G2DrvN: will do    17 centers at a time, making    1 passes.
 Calling FoFCou, ICntrl=  3107 FMM=F I1Cent=   0 AccDes= 0.00D+00.
 End of G2Drv F.D. properties file   721 does not exist.
 End of G2Drv F.D. properties file   722 does not exist.
 End of G2Drv F.D. properties file   788 does not exist.
 DoSCS=T DFT=T ScalE2(SS,OS)=  0.270000  0.270000
 R2 and R3 integrals will be kept in memory, NReq=  5268037470.
 DD1Dir will call FoFMem   1 times, MxPair=      2242
 NAB=   756 NAA=   378 NBB=   351.
 Discarding MO integrals.

 **********************************************************************

            Population analysis using the SCF Density.

 **********************************************************************

 Alpha  occ. eigenvalues --  -19.79018 -19.78975 -10.66453 -10.65716 -10.65218
 Alpha  occ. eigenvalues --  -10.63041 -10.61653  -1.27828  -1.02715  -0.94016
 Alpha  occ. eigenvalues --   -0.85493  -0.78291  -0.75759  -0.62327  -0.61389
 Alpha  occ. eigenvalues --   -0.56671  -0.55431  -0.55170  -0.54632  -0.50311
 Alpha  occ. eigenvalues --   -0.48869  -0.45938  -0.44446  -0.38045  -0.37180
 Alpha  occ. eigenvalues --   -0.33827  -0.33028  -0.30627
 Alpha virt. eigenvalues --    0.06579   0.08609   0.10045   0.10341   0.11003
 Alpha virt. eigenvalues --    0.11217   0.12452   0.13499   0.15267   0.16576
 Alpha virt. eigenvalues --    0.18153   0.20176   0.23040   0.23665   0.25893
 Alpha virt. eigenvalues --    0.29174   0.30695   0.31019   0.32850   0.33461
 Alpha virt. eigenvalues --    0.34102   0.36021   0.38013   0.41418   0.43551
 Alpha virt. eigenvalues --    0.45002   0.45820   0.47783   0.48284   0.49331
 Alpha virt. eigenvalues --    0.51038   0.51325   0.52354   0.52912   0.53572
 Alpha virt. eigenvalues --    0.54134   0.54657   0.55650   0.57498   0.59332
 Alpha virt. eigenvalues --    0.61406   0.62756   0.65248   0.65504   0.68047
 Alpha virt. eigenvalues --    0.70401   0.71326   0.73409   0.74907   0.77185
 Alpha virt. eigenvalues --    0.79690   0.82752   0.85118   0.86602   0.87669
 Alpha virt. eigenvalues --    0.88784   0.89257   0.93466   0.94319   0.95466
 Alpha virt. eigenvalues --    0.96338   0.97734   0.99289   1.02006   1.03193
 Alpha virt. eigenvalues --    1.04706   1.06018   1.08260   1.09871   1.11443
 Alpha virt. eigenvalues --    1.14101   1.14999   1.16684   1.17060   1.17504
 Alpha virt. eigenvalues --    1.19248   1.21883   1.24048   1.25893   1.26418
 Alpha virt. eigenvalues --    1.28048   1.29465   1.32274   1.33677   1.35183
 Alpha virt. eigenvalues --    1.35792   1.37471   1.39020   1.40338   1.41690
 Alpha virt. eigenvalues --    1.43752   1.45957   1.48517   1.50179   1.53804
 Alpha virt. eigenvalues --    1.55073   1.59402   1.60231   1.61547   1.62658
 Alpha virt. eigenvalues --    1.65159   1.71398   1.74992   1.76235   1.78574
 Alpha virt. eigenvalues --    1.86319   1.93600   1.98400   2.04179   2.11706
 Alpha virt. eigenvalues --    2.12613   2.17409   2.18998   2.19387   2.21938
 Alpha virt. eigenvalues --    2.27273   2.33346   2.37020   2.39391   2.40164
 Alpha virt. eigenvalues --    2.42782   2.45683   2.49048   2.50372   2.54235
 Alpha virt. eigenvalues --    2.55175   2.57157   2.57872   2.59975   2.62073
 Alpha virt. eigenvalues --    2.64748   2.65922   2.67796   2.68605   2.69074
 Alpha virt. eigenvalues --    2.73537   2.75451   2.77704   2.81862   2.84053
 Alpha virt. eigenvalues --    2.85399   2.88744   2.90374   2.91244   2.91952
 Alpha virt. eigenvalues --    2.92696   2.93663   2.97224   3.00215   3.01363
 Alpha virt. eigenvalues --    3.02338   3.03216   3.04132   3.05386   3.05996
 Alpha virt. eigenvalues --    3.06342   3.07052   3.09428   3.10727   3.11670
 Alpha virt. eigenvalues --    3.13419   3.14906   3.15525   3.15995   3.17310
 Alpha virt. eigenvalues --    3.18144   3.20242   3.20575   3.24405   3.25579
 Alpha virt. eigenvalues --    3.26325   3.26457   3.29058   3.33800   3.35422
 Alpha virt. eigenvalues --    3.40485   3.41309   3.43004   3.43519   3.46435
 Alpha virt. eigenvalues --    3.46519   3.48482   3.49574   3.51320   3.52223
 Alpha virt. eigenvalues --    3.54587   3.55827   3.57460   3.60310   3.62975
 Alpha virt. eigenvalues --    3.64487   3.65986   3.72058   3.74245   3.76002
 Alpha virt. eigenvalues --    3.81447   3.82496   3.83896   3.85560   3.86897
 Alpha virt. eigenvalues --    3.87361   3.89327   3.90593   3.93318   3.94618
 Alpha virt. eigenvalues --    3.95807   3.97186   3.97385   3.99521   4.02429
 Alpha virt. eigenvalues --    4.05062   4.05966   4.08310   4.10917   4.11376
 Alpha virt. eigenvalues --    4.13339   4.15075   4.18051   4.18849   4.19517
 Alpha virt. eigenvalues --    4.20797   4.23251   4.25876   4.27670   4.29288
 Alpha virt. eigenvalues --    4.34145   4.35259   4.36751   4.39253   4.40425
 Alpha virt. eigenvalues --    4.40827   4.44958   4.46547   4.51293   4.55934
 Alpha virt. eigenvalues --    4.58425   4.62633   4.64187   4.66489   4.74255
 Alpha virt. eigenvalues --    4.79072   4.80184   4.81556   4.86892   4.91985
 Alpha virt. eigenvalues --    4.94141   4.98597   4.99966   5.01048   5.02780
 Alpha virt. eigenvalues --    5.05583   5.07450   5.14279   5.19024   5.22070
 Alpha virt. eigenvalues --    5.28057   5.29239   5.29892   5.30354   5.33228
 Alpha virt. eigenvalues --    5.34455   5.35508   5.37253   5.38982   5.39536
 Alpha virt. eigenvalues --    5.41816   5.44727   5.47264   5.53889   5.61261
 Alpha virt. eigenvalues --    5.64722   5.67855   5.77083   5.77487   5.84220
 Alpha virt. eigenvalues --    5.93557   5.95891   5.98313   6.00856   6.02704
 Alpha virt. eigenvalues --    6.05554   6.07947   6.09865   6.13749   6.24736
 Alpha virt. eigenvalues --    6.31848   6.34401   6.37873   6.42557   6.63208
 Alpha virt. eigenvalues --    6.74956   6.75655   6.82900   6.95325   7.04717
 Alpha virt. eigenvalues --    7.06300   7.19611   7.41617   7.42658   7.58382
 Alpha virt. eigenvalues --    7.73217   8.35682   9.91807  10.62617  12.58370
 Alpha virt. eigenvalues --   13.39982  13.50868  16.95973
  Beta  occ. eigenvalues --  -19.78850 -19.77462 -10.66461 -10.65768 -10.63905
  Beta  occ. eigenvalues --  -10.62964 -10.61589  -1.26010  -0.99934  -0.92968
  Beta  occ. eigenvalues --   -0.84451  -0.77834  -0.73325  -0.61916  -0.58291
  Beta  occ. eigenvalues --   -0.55908  -0.54670  -0.54550  -0.53948  -0.48723
  Beta  occ. eigenvalues --   -0.46546  -0.45460  -0.43612  -0.36019  -0.34576
  Beta  occ. eigenvalues --   -0.32960  -0.32727
  Beta virt. eigenvalues --   -0.05476   0.06740   0.08762   0.10342   0.10542
  Beta virt. eigenvalues --    0.11108   0.11589   0.12761   0.14009   0.15291
  Beta virt. eigenvalues --    0.16793   0.18294   0.20918   0.23632   0.23920
  Beta virt. eigenvalues --    0.26211   0.29479   0.30924   0.31682   0.32986
  Beta virt. eigenvalues --    0.34004   0.34342   0.36211   0.38796   0.41982
  Beta virt. eigenvalues --    0.43782   0.45192   0.46222   0.48033   0.48977
  Beta virt. eigenvalues --    0.50150   0.51174   0.51521   0.52664   0.53341
  Beta virt. eigenvalues --    0.54418   0.54900   0.56073   0.56252   0.58222
  Beta virt. eigenvalues --    0.59741   0.61638   0.62921   0.65449   0.65996
  Beta virt. eigenvalues --    0.68325   0.70525   0.71580   0.74060   0.75825
  Beta virt. eigenvalues --    0.77592   0.80143   0.82987   0.85297   0.86801
  Beta virt. eigenvalues --    0.88008   0.88872   0.89649   0.93546   0.94405
  Beta virt. eigenvalues --    0.95946   0.96551   0.97960   0.99504   1.02188
  Beta virt. eigenvalues --    1.03327   1.04963   1.06186   1.08736   1.09982
  Beta virt. eigenvalues --    1.11694   1.14278   1.15049   1.16884   1.17485
  Beta virt. eigenvalues --    1.17817   1.19484   1.22180   1.24637   1.26286
  Beta virt. eigenvalues --    1.26893   1.28441   1.29876   1.33175   1.33849
  Beta virt. eigenvalues --    1.35428   1.36009   1.37667   1.39061   1.40524
  Beta virt. eigenvalues --    1.42013   1.43998   1.46440   1.48681   1.50674
  Beta virt. eigenvalues --    1.54275   1.55347   1.59830   1.60809   1.61896
  Beta virt. eigenvalues --    1.62902   1.66005   1.71860   1.75588   1.76407
  Beta virt. eigenvalues --    1.78840   1.89437   1.94411   1.98989   2.05036
  Beta virt. eigenvalues --    2.11983   2.12739   2.17946   2.19395   2.21150
  Beta virt. eigenvalues --    2.22089   2.27925   2.33505   2.37112   2.40334
  Beta virt. eigenvalues --    2.40539   2.42957   2.46346   2.49296   2.50493
  Beta virt. eigenvalues --    2.54623   2.55530   2.57374   2.58644   2.60512
  Beta virt. eigenvalues --    2.62318   2.65120   2.66120   2.67910   2.68885
  Beta virt. eigenvalues --    2.69979   2.74312   2.75710   2.78243   2.82093
  Beta virt. eigenvalues --    2.84191   2.85748   2.89106   2.90624   2.91641
  Beta virt. eigenvalues --    2.92068   2.93129   2.94364   2.97736   3.00538
  Beta virt. eigenvalues --    3.01930   3.02719   3.03491   3.04365   3.05573
  Beta virt. eigenvalues --    3.06151   3.06593   3.07299   3.09827   3.11131
  Beta virt. eigenvalues --    3.11822   3.13757   3.15525   3.16156   3.16289
  Beta virt. eigenvalues --    3.17441   3.18825   3.20574   3.20752   3.24988
  Beta virt. eigenvalues --    3.25882   3.26815   3.27303   3.30099   3.34081
  Beta virt. eigenvalues --    3.35780   3.40506   3.41315   3.43054   3.44663
  Beta virt. eigenvalues --    3.46522   3.47633   3.49466   3.49759   3.51551
  Beta virt. eigenvalues --    3.52481   3.54966   3.55955   3.57828   3.60493
  Beta virt. eigenvalues --    3.63113   3.64495   3.66064   3.72371   3.74552
  Beta virt. eigenvalues --    3.76841   3.81539   3.82593   3.84096   3.85658
  Beta virt. eigenvalues --    3.87108   3.87476   3.89793   3.90754   3.93456
  Beta virt. eigenvalues --    3.94560   3.95844   3.97169   3.97664   3.99601
  Beta virt. eigenvalues --    4.02705   4.05051   4.06070   4.08447   4.11050
  Beta virt. eigenvalues --    4.11925   4.13368   4.15378   4.18236   4.18905
  Beta virt. eigenvalues --    4.19671   4.20925   4.23733   4.26000   4.27961
  Beta virt. eigenvalues --    4.29387   4.34210   4.35346   4.36763   4.39532
  Beta virt. eigenvalues --    4.40766   4.41057   4.45092   4.47063   4.51667
  Beta virt. eigenvalues --    4.56484   4.59006   4.63508   4.64877   4.66742
  Beta virt. eigenvalues --    4.74729   4.79613   4.80562   4.81868   4.87643
  Beta virt. eigenvalues --    4.92253   4.94280   4.99191   5.00449   5.01234
  Beta virt. eigenvalues --    5.02943   5.05703   5.07759   5.15215   5.19582
  Beta virt. eigenvalues --    5.22627   5.28594   5.29579   5.30135   5.30565
  Beta virt. eigenvalues --    5.33572   5.34663   5.35685   5.37693   5.39431
  Beta virt. eigenvalues --    5.39811   5.42291   5.45262   5.47544   5.54228
  Beta virt. eigenvalues --    5.61832   5.65037   5.68516   5.77214   5.78201
  Beta virt. eigenvalues --    5.85668   5.93607   5.96176   5.98445   6.01242
  Beta virt. eigenvalues --    6.03433   6.05905   6.08334   6.10509   6.13812
  Beta virt. eigenvalues --    6.25089   6.31909   6.35863   6.39070   6.44000
  Beta virt. eigenvalues --    6.64184   6.77043   6.77595   6.84296   6.96974
  Beta virt. eigenvalues --    7.05382   7.07726   7.21741   7.41913   7.44680
  Beta virt. eigenvalues --    7.60297   7.73820   8.35759   9.92579  10.63696
  Beta virt. eigenvalues --   12.59378  13.39982  13.50972  16.96028
          Condensed to atoms (all electrons):
               1          2          3          4          5          6
     1  C    5.028148   0.416493   0.420509   0.305915  -0.029782  -0.031885
     2  H    0.416493   0.566448  -0.030314  -0.034093  -0.004905   0.005742
     3  H    0.420509  -0.030314   0.562213  -0.031952   0.005943  -0.004658
     4  C    0.305915  -0.034093  -0.031952   5.160972   0.393920   0.400610
     5  H   -0.029782  -0.004905   0.005943   0.393920   0.537119  -0.024417
     6  H   -0.031885   0.005742  -0.004658   0.400610  -0.024417   0.522442
     7  C   -0.000341  -0.000080   0.000058  -0.003305   0.000059   0.000035
     8  H   -0.000916  -0.000575   0.000071   0.000889  -0.002188  -0.000088
     9  H    0.000078   0.000051  -0.000008   0.000347  -0.000112   0.000007
    10  H    0.000027   0.000215  -0.000011  -0.000589   0.000295   0.000002
    11  O   -0.000010   0.000104  -0.000069   0.005020   0.003544   0.000368
    12  O    0.006684   0.001501   0.000645  -0.080730  -0.001536   0.000483
    13  H   -0.003694  -0.002268  -0.000482   0.198640  -0.005535  -0.006829
    14  C    0.243782  -0.041944  -0.046469  -0.044265  -0.003379   0.001153
    15  C   -0.192194  -0.000119  -0.003035   0.005928   0.000863   0.002535
    16  H   -0.001015  -0.000032  -0.000066   0.000022  -0.000004   0.000020
               7          8          9         10         11         12
     1  C   -0.000341  -0.000916   0.000078   0.000027  -0.000010   0.006684
     2  H   -0.000080  -0.000575   0.000051   0.000215   0.000104   0.001501
     3  H    0.000058   0.000071  -0.000008  -0.000011  -0.000069   0.000645
     4  C   -0.003305   0.000889   0.000347  -0.000589   0.005020  -0.080730
     5  H    0.000059  -0.002188  -0.000112   0.000295   0.003544  -0.001536
     6  H    0.000035  -0.000088   0.000007   0.000002   0.000368   0.000483
     7  C    4.577818   0.390343   0.403160   0.408416   0.311251  -0.037182
     8  H    0.390343   0.699655  -0.035236  -0.064780  -0.048640  -0.005292
     9  H    0.403160  -0.035236   0.579837  -0.028956  -0.025795   0.006496
    10  H    0.408416  -0.064780  -0.028956   0.637420  -0.042777   0.004541
    11  O    0.311251  -0.048640  -0.025795  -0.042777   7.940992   0.070090
    12  O   -0.037182  -0.005292   0.006496   0.004541   0.070090   8.043416
    13  H    0.004215   0.003651  -0.001400   0.001304  -0.028427   0.209253
    14  C    0.000014   0.000554   0.000041  -0.000049  -0.000182   0.002744
    15  C    0.000003   0.000050   0.000002  -0.000002  -0.000004   0.000072
    16  H    0.000000   0.000001   0.000000  -0.000000  -0.000000   0.000000
              13         14         15         16
     1  C   -0.003694   0.243782  -0.192194  -0.001015
     2  H   -0.002268  -0.041944  -0.000119  -0.000032
     3  H   -0.000482  -0.046469  -0.003035  -0.000066
     4  C    0.198640  -0.044265   0.005928   0.000022
     5  H   -0.005535  -0.003379   0.000863  -0.000004
     6  H   -0.006829   0.001153   0.002535   0.000020
     7  C    0.004215   0.000014   0.000003   0.000000
     8  H    0.003651   0.000554   0.000050   0.000001
     9  H   -0.001400   0.000041   0.000002   0.000000
    10  H    0.001304  -0.000049  -0.000002  -0.000000
    11  O   -0.028427  -0.000182  -0.000004  -0.000000
    12  O    0.209253   0.002744   0.000072   0.000000
    13  H    0.423358  -0.003824  -0.000929  -0.000008
    14  C   -0.003824   5.253973   0.746747  -0.064216
    15  C   -0.000929   0.746747   5.227885   0.415639
    16  H   -0.000008  -0.064216   0.415639   0.479205
          Atomic-Atomic Spin Densities.
               1          2          3          4          5          6
     1  C   -0.063049   0.000511  -0.000558  -0.022851  -0.002061  -0.000416
     2  H    0.000511   0.004998   0.001019  -0.003053   0.000726   0.000024
     3  H   -0.000558   0.001019   0.005909  -0.003512  -0.000064   0.000835
     4  C   -0.022851  -0.003053  -0.003512   0.720663   0.007699   0.004937
     5  H   -0.002061   0.000726  -0.000064   0.007699  -0.028246   0.002524
     6  H   -0.000416   0.000024   0.000835   0.004937   0.002524  -0.023517
     7  C   -0.000119  -0.000046  -0.000003   0.001039  -0.000303  -0.000030
     8  H    0.000607   0.000552   0.000071  -0.004381   0.000786   0.000109
     9  H   -0.000010  -0.000007  -0.000000   0.000078  -0.000007  -0.000002
    10  H   -0.000139  -0.000106  -0.000025   0.001155  -0.000096  -0.000019
    11  O   -0.000371  -0.000127  -0.000036   0.010358  -0.001037  -0.000291
    12  O    0.004037   0.000794   0.000797  -0.084791   0.002126   0.002192
    13  H    0.000880  -0.000397  -0.000574   0.057545   0.003336   0.001029
    14  C    0.043473  -0.001921  -0.000878  -0.021313   0.000606  -0.000668
    15  C    0.010033   0.000986   0.001331   0.005606   0.000584   0.000439
    16  H    0.000230   0.000004   0.000009   0.000050   0.000007   0.000004
               7          8          9         10         11         12
     1  C   -0.000119   0.000607  -0.000010  -0.000139  -0.000371   0.004037
     2  H   -0.000046   0.000552  -0.000007  -0.000106  -0.000127   0.000794
     3  H   -0.000003   0.000071  -0.000000  -0.000025  -0.000036   0.000797
     4  C    0.001039  -0.004381   0.000078   0.001155   0.010358  -0.084791
     5  H   -0.000303   0.000786  -0.000007  -0.000096  -0.001037   0.002126
     6  H   -0.000030   0.000109  -0.000002  -0.000019  -0.000291   0.002192
     7  C   -0.004031   0.002695   0.000223  -0.002550   0.001238  -0.002834
     8  H    0.002695   0.003502  -0.000521  -0.001674  -0.001098   0.003960
     9  H    0.000223  -0.000521  -0.001599   0.000935   0.000072  -0.000170
    10  H   -0.002550  -0.001674   0.000935   0.004229  -0.000680  -0.000359
    11  O    0.001238  -0.001098   0.000072  -0.000680   0.044242  -0.038403
    12  O   -0.002834   0.003960  -0.000170  -0.000359  -0.038403   0.557033
    13  H    0.000924  -0.003231   0.000125   0.001383   0.009474  -0.046818
    14  C    0.000011  -0.000115  -0.000004   0.000003   0.000010  -0.000124
    15  C   -0.000001   0.000008  -0.000000  -0.000001  -0.000000   0.000013
    16  H   -0.000000   0.000000  -0.000000  -0.000000  -0.000000   0.000000
              13         14         15         16
     1  C    0.000880   0.043473   0.010033   0.000230
     2  H   -0.000397  -0.001921   0.000986   0.000004
     3  H   -0.000574  -0.000878   0.001331   0.000009
     4  C    0.057545  -0.021313   0.005606   0.000050
     5  H    0.003336   0.000606   0.000584   0.000007
     6  H    0.001029  -0.000668   0.000439   0.000004
     7  C    0.000924   0.000011  -0.000001  -0.000000
     8  H   -0.003231  -0.000115   0.000008   0.000000
     9  H    0.000125  -0.000004  -0.000000  -0.000000
    10  H    0.001383   0.000003  -0.000001  -0.000000
    11  O    0.009474   0.000010  -0.000000  -0.000000
    12  O   -0.046818  -0.000124   0.000013   0.000000
    13  H   -0.097055  -0.000990  -0.000089  -0.000000
    14  C   -0.000990  -0.002333  -0.012607   0.000746
    15  C   -0.000089  -0.012607   0.025120  -0.000942
    16  H   -0.000000   0.000746  -0.000942  -0.000918
 Mulliken charges and spin densities:
               1          2
     1  C   -0.161799  -0.029805
     2  H    0.123776   0.003957
     3  H    0.127627   0.004319
     4  C   -0.277329   0.669230
     5  H    0.130115  -0.013420
     6  H    0.134481  -0.012848
     7  C   -0.054464  -0.003785
     8  H    0.062501   0.001269
     9  H    0.101489  -0.000888
    10  H    0.084945   0.002057
    11  O   -0.185466   0.023352
    12  O   -0.221184   0.397453
    13  H    0.212975  -0.074460
    14  C   -0.044681   0.003898
    15  C   -0.203439   0.030479
    16  H    0.170453  -0.000809
 Sum of Mulliken charges =  -0.00000   1.00000
 Mulliken charges and spin densities with hydrogens summed into heavy atoms:
               1          2
     1  C    0.089604  -0.021528
     4  C   -0.012732   0.642962
     7  C    0.194471  -0.001347
    11  O   -0.185466   0.023352
    12  O   -0.008209   0.322993
    14  C   -0.044681   0.003898
    15  C   -0.032986   0.029670
 APT charges:
               1
     1  C    0.070170
     2  H   -0.008376
     3  H   -0.001009
     4  C    0.467194
     5  H   -0.046888
     6  H   -0.031951
     7  C    0.429752
     8  H   -0.042324
     9  H   -0.004410
    10  H   -0.026853
    11  O   -0.467048
    12  O    0.227979
    13  H   -0.386782
    14  C   -0.068118
    15  C   -0.330470
    16  H    0.219134
 Sum of APT charges =  -0.00000
 APT charges with hydrogens summed into heavy atoms:
               1
     1  C    0.060785
     4  C    0.388355
     7  C    0.356164
    11  O   -0.467048
    12  O   -0.158803
    14  C   -0.068118
    15  C   -0.111336
 Electronic spatial extent (au):  <R**2>=           1405.3418
 Charge=             -0.0000 electrons
 Dipole moment (field-independent basis, Debye):
    X=             -1.1428    Y=             -1.7641    Z=             -0.1306  Tot=              2.1060
 Quadrupole moment (field-independent basis, Debye-Ang):
   XX=            -43.2095   YY=            -43.0752   ZZ=            -43.7251
   XY=             -6.0811   XZ=              1.7815   YZ=             -0.0096
 Traceless Quadrupole moment (field-independent basis, Debye-Ang):
   XX=              0.1271   YY=              0.2614   ZZ=             -0.3885
   XY=             -6.0811   XZ=              1.7815   YZ=             -0.0096
 Octapole moment (field-independent basis, Debye-Ang**2):
  XXX=             -6.9046  YYY=              4.4631  ZZZ=              1.3165  XYY=             11.7071
  XXY=            -20.5081  XXZ=             -9.7626  XZZ=              8.7054  YZZ=              1.1622
  YYZ=             -0.8610  XYZ=             -1.4302
 Hexadecapole moment (field-independent basis, Debye-Ang**3):
 XXXX=          -1332.1491 YYYY=           -182.0756 ZZZZ=           -109.7327 XXXY=             -0.6704
 XXXZ=             72.6022 YYYX=             -8.6233 YYYZ=             -0.7672 ZZZX=             -2.5761
 ZZZY=              2.8738 XXYY=           -301.0971 XXZZ=           -289.0505 YYZZ=            -47.8230
 XXYZ=             12.5497 YYXZ=             -2.6752 ZZXY=             -3.1318
 N-N= 2.738245680056D+02 E-N=-1.356013362888D+03  KE= 3.440375536577D+02
  Exact polarizability: 131.117  -2.689  58.417   9.463   0.826  56.558
 Approx polarizability: 112.217   1.797  66.397  10.184   3.677  68.403
                          Isotropic Fermi Contact Couplings
        Atom                 a.u.       MegaHertz       Gauss      10(-4) cm-1
     1  C(13)             -0.00901     -10.12669      -3.61346      -3.37790
     2  H(1)               0.00211       9.41054       3.35791       3.13902
     3  H(1)               0.00287      12.84149       4.58216       4.28346
     4  C(13)              0.09781     109.95708      39.23542      36.67773
     5  H(1)              -0.00420     -18.75299      -6.69153      -6.25532
     6  H(1)              -0.00417     -18.64513      -6.65304      -6.21934
     7  C(13)             -0.00340      -3.82283      -1.36408      -1.27516
     8  H(1)               0.00220       9.82198       3.50473       3.27626
     9  H(1)              -0.00009      -0.39648      -0.14147      -0.13225
    10  H(1)               0.00048       2.16655       0.77308       0.72268
    11  O(17)              0.01393      -8.44329      -3.01278      -2.81638
    12  O(17)              0.03851     -23.34673      -8.33069      -7.78763
    13  H(1)              -0.02519    -112.59546     -40.17686     -37.55780
    14  C(13)              0.04826      54.24843      19.35719      18.09533
    15  C(13)              0.00342       3.83968       1.37009       1.28078
    16  H(1)              -0.00019      -0.87152      -0.31098      -0.29071
 --------------------------------------------------------
       Center         ----  Spin Dipole Couplings  ----
                      3XX-RR        3YY-RR        3ZZ-RR
 --------------------------------------------------------
     1   Atom        0.013455     -0.008947     -0.004507
     2   Atom       -0.003678      0.004163     -0.000485
     3   Atom        0.000115     -0.008531      0.008416
     4   Atom        0.545908     -0.365552     -0.180356
     5   Atom       -0.000190     -0.015156      0.015346
     6   Atom       -0.006637      0.042351     -0.035714
     7   Atom       -0.000151      0.006617     -0.006467
     8   Atom       -0.002248      0.007894     -0.005647
     9   Atom        0.000226      0.002704     -0.002930
    10   Atom       -0.000465      0.003745     -0.003280
    11   Atom        0.309804     -0.158941     -0.150864
    12   Atom        0.877488     -0.760266     -0.117222
    13   Atom        0.194581     -0.121329     -0.073252
    14   Atom        0.036035     -0.013346     -0.022689
    15   Atom       -0.009063     -0.013644      0.022707
    16   Atom        0.003594     -0.002424     -0.001170
 --------------------------------------------------------
                        XY            XZ            YZ
 --------------------------------------------------------
     1   Atom        0.013043     -0.007929     -0.006782
     2   Atom        0.005649     -0.002661     -0.009229
     3   Atom        0.000004     -0.008696     -0.000190
     4   Atom        0.121875      0.432860      0.057870
     5   Atom       -0.011601     -0.003326      0.044306
     6   Atom       -0.011443      0.021073     -0.015207
     7   Atom       -0.005173     -0.001181     -0.000126
     8   Atom       -0.002727      0.000719      0.000512
     9   Atom       -0.004124     -0.000725      0.001566
    10   Atom       -0.005364      0.002038     -0.003206
    11   Atom        0.077642      0.205709      0.004534
    12   Atom        0.448555      1.144158      0.295336
    13   Atom        0.026380      0.125563      0.012121
    14   Atom        0.014477      0.000849      0.003029
    15   Atom        0.003046      0.001596     -0.017606
    16   Atom        0.001624      0.000815     -0.000559
 --------------------------------------------------------


 ---------------------------------------------------------------------------------
              Anisotropic Spin Dipole Couplings in Principal Axis System
 ---------------------------------------------------------------------------------

       Atom             a.u.   MegaHertz   Gauss  10(-4) cm-1        Axes

              Baa    -0.0159    -2.133    -0.761    -0.711 -0.3128  0.8958  0.3157
     1 C(13)  Bbb    -0.0072    -0.970    -0.346    -0.324  0.4390 -0.1584  0.8844
              Bcc     0.0231     3.103     1.107     1.035  0.8423  0.4153 -0.3437
 
              Baa    -0.0084    -4.457    -1.590    -1.487 -0.4373  0.6532  0.6182
     2 H(1)   Bbb    -0.0052    -2.759    -0.984    -0.920  0.8345  0.0384  0.5497
              Bcc     0.0135     7.216     2.575     2.407  0.3353  0.7562 -0.5619
 
              Baa    -0.0085    -4.554    -1.625    -1.519  0.0223  0.9995  0.0226
     3 H(1)   Bbb    -0.0054    -2.864    -1.022    -0.955  0.8455 -0.0309  0.5330
              Bcc     0.0139     7.418     2.647     2.474 -0.5335 -0.0073  0.8458
 
              Baa    -0.3829   -51.384   -18.335   -17.140 -0.2756 -0.5913  0.7579
     4 C(13)  Bbb    -0.3810   -51.124   -18.242   -17.053 -0.3381  0.7977  0.4994
              Bcc     0.7639   102.508    36.577    34.193  0.8998  0.1186  0.4198
 
              Baa    -0.0480   -25.593    -9.132    -8.537  0.1583  0.8129 -0.5605
     5 H(1)   Bbb    -0.0008    -0.442    -0.158    -0.147  0.9686 -0.0178  0.2479
              Bcc     0.0488    26.035     9.290     8.684 -0.1915  0.5822  0.7902
 
              Baa    -0.0476   -25.378    -9.056    -8.465 -0.4342  0.0962  0.8956
     6 H(1)   Bbb    -0.0020    -1.080    -0.386    -0.360  0.8570  0.3505  0.3779
              Bcc     0.0496    26.459     9.441     8.826 -0.2775  0.9316 -0.2346
 
              Baa    -0.0068    -0.912    -0.325    -0.304  0.2543  0.1071  0.9612
     7 C(13)  Bbb    -0.0026    -0.354    -0.126    -0.118  0.8409  0.4664 -0.2744
              Bcc     0.0094     1.265     0.451     0.422 -0.4777  0.8781  0.0285
 
              Baa    -0.0059    -3.139    -1.120    -1.047 -0.2552 -0.0863  0.9630
     8 H(1)   Bbb    -0.0027    -1.443    -0.515    -0.481  0.9360  0.2278  0.2684
              Bcc     0.0086     4.582     1.635     1.529 -0.2426  0.9699  0.0226
 
              Baa    -0.0034    -1.838    -0.656    -0.613 -0.3064 -0.4227  0.8529
     9 H(1)   Bbb    -0.0026    -1.410    -0.503    -0.470  0.7543  0.4388  0.4884
              Bcc     0.0061     3.248     1.159     1.084 -0.5807  0.7930  0.1844
 
              Baa    -0.0045    -2.415    -0.862    -0.805  0.0647  0.3969  0.9156
    10 H(1)   Bbb    -0.0041    -2.181    -0.778    -0.728  0.8429  0.4695 -0.2630
              Bcc     0.0086     4.596     1.640     1.533 -0.5342  0.7887 -0.3042
 
              Baa    -0.2373    17.168     6.126     5.726 -0.3729  0.3193  0.8712
    11 O(17)  Bbb    -0.1609    11.644     4.155     3.884 -0.0038  0.9384 -0.3455
              Bcc     0.3982   -28.812   -10.281    -9.611  0.9279  0.1321  0.3487
 
              Baa    -0.8756    63.358    22.608    21.134 -0.1077  0.9706 -0.2154
    12 O(17)  Bbb    -0.8673    62.759    22.394    20.934 -0.5656  0.1184  0.8161
              Bcc     1.7429  -126.118   -45.002   -42.068  0.8176  0.2098  0.5362
 
              Baa    -0.1249   -66.623   -23.773   -22.223  0.1730  0.7783 -0.6036
    13 H(1)   Bbb    -0.1217   -64.911   -23.162   -21.652 -0.3330  0.6229  0.7079
              Bcc     0.2465   131.534    46.934    43.875  0.9269  0.0786  0.3669
 
              Baa    -0.0238    -3.199    -1.142    -1.067  0.0771 -0.3733  0.9245
    14 C(13)  Bbb    -0.0162    -2.169    -0.774    -0.724 -0.2529  0.8896  0.3803
              Bcc     0.0400     5.369     1.916     1.791  0.9644  0.2631  0.0258
 
              Baa    -0.0217    -2.912    -1.039    -0.971 -0.2614  0.8940  0.3638
    15 C(13)  Bbb    -0.0081    -1.092    -0.390    -0.364  0.9652  0.2455  0.0902
              Bcc     0.0298     4.004     1.429     1.336  0.0087 -0.3748  0.9271
 
              Baa    -0.0031    -1.667    -0.595    -0.556 -0.2603  0.8942  0.3643
    16 H(1)   Bbb    -0.0010    -0.514    -0.183    -0.171 -0.0281 -0.3842  0.9228
              Bcc     0.0041     2.180     0.778     0.727  0.9651  0.2299  0.1251
 

 ---------------------------------------------------------------------------------

 Calling FoFJK, ICntrl=  10100127 FMM=F ISym2X=0 I1Cent= 0 IOpClX= 1 NMat=1 NMatS=1 NMatT=0.
 -------------------------------------------------------------------
 Center     Atomic                   Forces (Hartrees/Bohr)
 Number     Number              X              Y              Z
 -------------------------------------------------------------------
      1        6          -0.000000643    0.000000017   -0.000000943
      2        1          -0.000000826   -0.000000060   -0.000000571
      3        1          -0.000000394    0.000000134   -0.000000160
      4        6           0.000002141    0.000001681   -0.000000088
      5        1          -0.000001760   -0.000000113   -0.000000264
      6        1          -0.000003096   -0.000001532   -0.000000886
      7        6          -0.000000632   -0.000000387    0.000000333
      8        1           0.000000525    0.000000080    0.000000182
      9        1          -0.000000003   -0.000000217   -0.000000213
     10        1           0.000000142    0.000000048   -0.000000139
     11        8           0.000000421   -0.000001080   -0.000001146
     12        8          -0.000001829    0.000001268    0.000001230
     13        1           0.000004951   -0.000000367    0.000002414
     14        6           0.000000143    0.000000209   -0.000000058
     15        6           0.000001043    0.000000269    0.000000470
     16        1          -0.000000182    0.000000049   -0.000000162
 -------------------------------------------------------------------
 Cartesian Forces:  Max     0.000004951 RMS     0.000001191
 FormGI is forming the generalized inverse of G from B-inverse, IUseBI=4.

 GradGradGradGradGradGradGradGradGradGradGradGradGradGradGradGradGradGrad
 Berny optimization.
 Internal  Forces:  Max     0.000004174 RMS     0.000001000
 Search for a saddle point.
 Step number   1 out of a maximum of  100 on scan point     1 out of    37
 All quantities printed in internal units (Hartrees-Bohrs-Radians)
 Swapping is turned off.
 Second derivative matrix not updated -- analytic derivatives used.
 ITU=  0
     Eigenvalues ---   -0.07357   0.00159   0.00658   0.01481   0.01564
     Eigenvalues ---    0.02018   0.02651   0.03146   0.03394   0.04009
     Eigenvalues ---    0.04621   0.04815   0.05975   0.06763   0.08494
     Eigenvalues ---    0.08537   0.08936   0.11211   0.11449   0.12943
     Eigenvalues ---    0.13260   0.15130   0.16616   0.16904   0.17135
     Eigenvalues ---    0.18078   0.18700   0.25746   0.30563   0.31948
     Eigenvalues ---    0.32689   0.33351   0.33479   0.34496   0.35196
     Eigenvalues ---    0.35426   0.35534   0.35695   0.40571   0.41644
     Eigenvalues ---    1.048181000.000001000.000001000.000001000.00000
     Eigenvalues --- 1000.000001000.000001000.000001000.000001000.00000
     Eigenvalues --- 1000.000001000.000001000.000001000.000001000.00000
 Eigenvectors required to have negative eigenvalues:
                          R7        R13       R12       A20       D1
   1                    0.70739  -0.64264   0.15474  -0.09651  -0.08126
                          D5        D7        D8        D4        A11
   1                    0.07609  -0.07418   0.06874  -0.06683  -0.06590
 RFO step:  Lambda0=1.602264640D-10 Lambda= 0.00000000D+00.
 Linear search not attempted -- option 19 set.
 Iteration  1 RMS(Cart)=  0.00008222 RMS(Int)=  0.00000000
 Iteration  2 RMS(Cart)=  0.00000000 RMS(Int)=  0.00000000
 Iteration  1 RMS(Cart)=  0.00000000 RMS(Int)=  0.00000000
 Variable       Old X    -DE/DX   Delta X   Delta X   Delta X     New X
                                 (Linear)    (Quad)   (Total)
    R1        2.06067  -0.00000   0.00000  -0.00000  -0.00000   2.06067
    R2        2.06102  -0.00000   0.00000   0.00000   0.00000   2.06102
    R3        2.85761  -0.00000   0.00000   0.00000   0.00000   2.85762
    R4        2.76366  -0.00000   0.00000  -0.00000  -0.00000   2.76366
    R5        2.05055  -0.00000   0.00000   0.00000   0.00000   2.05055
    R6        2.04921  -0.00000   0.00000   0.00000   0.00000   2.04921
    R7        2.60535   0.00000   0.00000  -0.00001  -0.00001   2.60534
    R8        2.06299  -0.00000   0.00000  -0.00000  -0.00000   2.06299
    R9        2.05590   0.00000   0.00000   0.00000   0.00000   2.05590
   R10        2.05711  -0.00000   0.00000  -0.00000  -0.00000   2.05711
   R11        2.68284   0.00000   0.00000   0.00000   0.00000   2.68285
   R12        2.66373   0.00000   0.00000  -0.00000  -0.00000   2.66373
   R13        2.16895  -0.00000   0.00000   0.00002   0.00002   2.16897
   R14        2.27797  -0.00000   0.00000  -0.00000  -0.00000   2.27797
   R15        2.00291   0.00000   0.00000   0.00000   0.00000   2.00291
    A1        1.86430   0.00000   0.00000   0.00001   0.00001   1.86431
    A2        1.92514   0.00000   0.00000   0.00001   0.00001   1.92514
    A3        1.90827  -0.00000   0.00000  -0.00000  -0.00000   1.90827
    A4        1.92301   0.00000   0.00000   0.00000   0.00000   1.92301
    A5        1.90758  -0.00000   0.00000  -0.00000  -0.00000   1.90758
    A6        1.93414   0.00000   0.00000  -0.00000  -0.00000   1.93414
    A7        2.02076  -0.00000   0.00000  -0.00002  -0.00002   2.02074
    A8        2.01660  -0.00000   0.00000  -0.00003  -0.00003   2.01656
    A9        1.85427   0.00000   0.00000   0.00002   0.00002   1.85428
   A10        1.97974   0.00000   0.00000  -0.00002  -0.00002   1.97972
   A11        1.76504   0.00000   0.00000   0.00002   0.00002   1.76506
   A12        1.78444   0.00000   0.00000   0.00007   0.00007   1.78450
   A13        1.91527  -0.00000   0.00000   0.00000   0.00000   1.91527
   A14        1.91750   0.00000   0.00000   0.00000   0.00000   1.91750
   A15        1.93630   0.00000   0.00000   0.00000   0.00000   1.93630
   A16        1.92461   0.00000   0.00000   0.00000   0.00000   1.92461
   A17        1.83621  -0.00000   0.00000  -0.00000  -0.00000   1.83621
   A18        1.93261  -0.00000   0.00000   0.00000   0.00000   1.93261
   A19        1.88088   0.00000   0.00000   0.00000   0.00000   1.88088
   A20        1.82098  -0.00000   0.00000  -0.00001  -0.00001   1.82097
   A21        3.09378  -0.00000   0.00000  -0.00002  -0.00002   3.09376
   A22        3.10892   0.00000   0.00000   0.00000   0.00000   3.10892
   A23        3.15240   0.00000   0.00000  -0.00000  -0.00000   3.15240
   A24        3.19171  -0.00000   0.00000  -0.00004  -0.00004   3.19167
   A25        3.12110   0.00000   0.00000   0.00001   0.00001   3.12110
   A26        3.15242  -0.00000   0.00000  -0.00000  -0.00000   3.15241
    D1        0.91455   0.00000   0.00000  -0.00005  -0.00005   0.91450
    D2       -2.99367  -0.00000   0.00000  -0.00014  -0.00014  -2.99382
    D3       -1.02879  -0.00000   0.00000  -0.00007  -0.00007  -1.02886
    D4        2.96855   0.00000   0.00000  -0.00004  -0.00004   2.96852
    D5       -0.93967  -0.00000   0.00000  -0.00013  -0.00013  -0.93980
    D6        1.02521   0.00000   0.00000  -0.00006  -0.00006   1.02516
    D7       -1.20119   0.00000   0.00000  -0.00004  -0.00004  -1.20123
    D8        1.17377  -0.00000   0.00000  -0.00014  -0.00014   1.17363
    D9        3.13866   0.00000   0.00000  -0.00006  -0.00006   3.13859
   D10        2.14570  -0.00000   0.00000   0.00000   0.00000   2.14570
   D11        1.15502  -0.00000   0.00000  -0.00005  -0.00005   1.15498
   D12       -3.05815  -0.00000   0.00000  -0.00005  -0.00005  -3.05820
   D13       -0.97894  -0.00000   0.00000  -0.00005  -0.00005  -0.97899
   D14       -1.61693  -0.00000   0.00000  -0.00004  -0.00004  -1.61697
         Item               Value     Threshold  Converged?
 Maximum Force            0.000004     0.000450     YES
 RMS     Force            0.000001     0.000300     YES
 Maximum Displacement     0.000294     0.001800     YES
 RMS     Displacement     0.000082     0.001200     YES
 Predicted change in Energy=-4.057834D-10
 Optimization completed.
    -- Stationary point found.
                           ----------------------------
                           !   Optimized Parameters   !
                           ! (Angstroms and Degrees)  !
 --------------------------                            --------------------------
 ! Name  Definition              Value          Derivative Info.                !
 --------------------------------------------------------------------------------
 ! R1    R(1,2)                  1.0905         -DE/DX =    0.0                 !
 ! R2    R(1,3)                  1.0906         -DE/DX =    0.0                 !
 ! R3    R(1,4)                  1.5122         -DE/DX =    0.0                 !
 ! R4    R(1,14)                 1.4625         -DE/DX =    0.0                 !
 ! R5    R(4,5)                  1.0851         -DE/DX =    0.0                 !
 ! R6    R(4,6)                  1.0844         -DE/DX =    0.0                 !
 ! R7    R(4,13)                 1.3787         -DE/DX =    0.0                 !
 ! R8    R(7,8)                  1.0917         -DE/DX =    0.0                 !
 ! R9    R(7,9)                  1.0879         -DE/DX =    0.0                 !
 ! R10   R(7,10)                 1.0886         -DE/DX =    0.0                 !
 ! R11   R(7,11)                 1.4197         -DE/DX =    0.0                 !
 ! R12   R(11,12)                1.4096         -DE/DX =    0.0                 !
 ! R13   R(12,13)                1.1478         -DE/DX =    0.0                 !
 ! R14   R(14,15)                1.2054         -DE/DX =    0.0                 !
 ! R15   R(15,16)                1.0599         -DE/DX =    0.0                 !
 ! A1    A(2,1,3)              106.8168         -DE/DX =    0.0                 !
 ! A2    A(2,1,4)              110.3023         -DE/DX =    0.0                 !
 ! A3    A(2,1,14)             109.3359         -DE/DX =    0.0                 !
 ! A4    A(3,1,4)              110.1801         -DE/DX =    0.0                 !
 ! A5    A(3,1,14)             109.2963         -DE/DX =    0.0                 !
 ! A6    A(4,1,14)             110.8183         -DE/DX =    0.0                 !
 ! A7    A(1,4,5)              115.7811         -DE/DX =    0.0                 !
 ! A8    A(1,4,6)              115.5424         -DE/DX =    0.0                 !
 ! A9    A(1,4,13)             106.2416         -DE/DX =    0.0                 !
 ! A10   A(5,4,6)              113.4306         -DE/DX =    0.0                 !
 ! A11   A(5,4,13)             101.1296         -DE/DX =    0.0                 !
 ! A12   A(6,4,13)             102.2406         -DE/DX =    0.0                 !
 ! A13   A(8,7,9)              109.737          -DE/DX =    0.0                 !
 ! A14   A(8,7,10)             109.8648         -DE/DX =    0.0                 !
 ! A15   A(8,7,11)             110.9418         -DE/DX =    0.0                 !
 ! A16   A(9,7,10)             110.2723         -DE/DX =    0.0                 !
 ! A17   A(9,7,11)             105.2072         -DE/DX =    0.0                 !
 ! A18   A(10,7,11)            110.7306         -DE/DX =    0.0                 !
 ! A19   A(7,11,12)            107.7664         -DE/DX =    0.0                 !
 ! A20   A(11,12,13)           104.3346         -DE/DX =    0.0                 !
 ! A21   L(4,13,12,8,-1)       177.2605         -DE/DX =    0.0                 !
 ! A22   L(1,14,15,6,-1)       178.128          -DE/DX =    0.0                 !
 ! A23   L(14,15,16,6,-1)      180.6191         -DE/DX =    0.0                 !
 ! A24   L(4,13,12,8,-2)       182.8715         -DE/DX =    0.0                 !
 ! A25   L(1,14,15,6,-2)       178.8257         -DE/DX =    0.0                 !
 ! A26   L(14,15,16,6,-2)      180.6201         -DE/DX =    0.0                 !
 ! D1    D(2,1,4,5)             52.3999         -DE/DX =    0.0                 !
 ! D2    D(2,1,4,6)           -171.5249         -DE/DX =    0.0                 !
 ! D3    D(2,1,4,13)           -58.9453         -DE/DX =    0.0                 !
 ! D4    D(3,1,4,5)            170.0857         -DE/DX =    0.0                 !
 ! D5    D(3,1,4,6)            -53.8391         -DE/DX =    0.0                 !
 ! D6    D(3,1,4,13)            58.7405         -DE/DX =    0.0                 !
 ! D7    D(14,1,4,5)           -68.8229         -DE/DX =    0.0                 !
 ! D8    D(14,1,4,6)            67.2523         -DE/DX =    0.0                 !
 ! D9    D(14,1,4,13)          179.8319         -DE/DX =    0.0                 !
 ! D10   D(1,4,12,11)          122.9395         -DE/DX =    0.0                 !
 ! D11   D(8,7,11,12)           66.178          -DE/DX =    0.0                 !
 ! D12   D(9,7,11,12)         -175.219          -DE/DX =    0.0                 !
 ! D13   D(10,7,11,12)         -56.089          -DE/DX =    0.0                 !
 ! D14   D(7,11,12,13)         -92.6431         -DE/DX =    0.0                 !
 --------------------------------------------------------------------------------
 Iteration  1 RMS(Cart)=  0.11187616 RMS(Int)=  0.00366994
 Iteration  2 RMS(Cart)=  0.00594935 RMS(Int)=  0.00000749
 Iteration  3 RMS(Cart)=  0.00002126 RMS(Int)=  0.00000000
 Iteration  4 RMS(Cart)=  0.00000000 RMS(Int)=  0.00000000
 Iteration  1 RMS(Cart)=  0.00000000 RMS(Int)=  0.00000000
 GradGradGradGradGradGradGradGradGradGradGradGradGradGradGradGradGradGrad

                          Input orientation:                          
 ---------------------------------------------------------------------
 Center     Atomic      Atomic             Coordinates (Angstroms)
 Number     Number       Type             X           Y           Z
 ---------------------------------------------------------------------
      1          6           0       -1.430744    0.051444    0.623446
      2          1           0       -1.020547   -0.880785    1.013054
      3          1           0       -1.451119    0.758521    1.453585
      4          6           0       -0.559307    0.582208   -0.492617
      5          1           0       -0.338375   -0.117294   -1.292203
      6          1           0       -0.806709    1.577054   -0.846156
      7          6           0        2.748362   -1.101068   -0.046751
      8          1           0        1.807233   -1.636383   -0.186382
      9          1           0        3.497674   -1.490218   -0.732823
     10          1           0        3.086522   -1.209634    0.982257
     11          8           0        2.607696    0.269935   -0.387505
     12          8           0        1.726857    0.856396    0.543682
     13          1           0        0.693577    0.768518    0.051759
     14          6           0       -2.795679   -0.179782    0.151966
     15          6           0       -3.908162   -0.357844   -0.276732
     16          1           0       -4.890565   -0.517112   -0.641287
 ---------------------------------------------------------------------
                    Distance matrix (angstroms):
                    1          2          3          4          5
     1  C    0.000000
     2  H    1.090461   0.000000
     3  H    1.090644   1.751223   0.000000
     4  C    1.512187   2.149450   2.148050   0.000000
     5  H    2.211662   2.522397   3.089434   1.085104   0.000000
     6  H    2.208311   3.089233   2.524692   1.084397   1.813590
     7  C    4.386612   3.921274   4.831638   3.738033   3.470865
     8  H    3.740197   3.163213   4.363704   3.258288   2.852035
     9  H    5.339053   4.881989   5.858989   4.561989   4.112553
    10  H    4.703695   4.120328   4.968498   4.321808   4.253973
    11  O    4.168784   4.055844   4.483560   3.184097   3.106084
    12  O    3.259563   3.284256   3.307119   2.525003   2.929800
    13  H    2.313819   2.565640   2.562213   1.378686   1.912020
    14  C    1.462466   2.093794   2.093434   2.448974   2.850942
    15  C    2.667478   3.205517   3.205827   3.484987   3.719197
    16  H    3.727354   4.224469   4.224395   4.471062   4.615840
                    6          7          8          9         10
     6  H    0.000000
     7  C    4.522158   0.000000
     8  H    4.194540   1.091687   0.000000
     9  H    5.286654   1.087934   1.782569   0.000000
    10  H    5.125033   1.088575   1.784492   1.785853   0.000000
    11  O    3.684709   1.419701   2.077315   2.002359   2.072353
    12  O    2.978247   2.285552   2.598730   3.204973   2.511874
    13  H    1.926354   2.779784   2.660919   3.685162   3.241157
    14  C    2.835264   5.623580   4.839728   6.488943   6.029118
    15  C    3.699607   6.701835   5.857352   7.505778   7.157947
    16  H    4.594059   7.684248   6.805894   8.444990   8.170030
                   11         12         13         14         15
    11  O    0.000000
    12  O    1.409583   0.000000
    13  H    2.026177   1.147771   0.000000
    14  C    5.448829   4.656226   3.617212   0.000000
    15  C    6.546968   5.822448   4.748958   1.205449   0.000000
    16  H    7.543723   6.861555   5.771983   2.265300   1.059896
                   16
    16  H    0.000000
 Symmetry turned off by external request.
 Stoichiometry    C5H9O2(2)
 Framework group  C1[X(C5H9O2)]
 Deg. of freedom    42
 Full point group                 C1      NOp   1
 Rotational constants (GHZ):           7.4447365           0.8033562           0.7758221
 Standard basis: CC-pVTZ (5D, 7F)
   336 basis functions,   517 primitive gaussians,   380 cartesian basis functions
    28 alpha electrons       27 beta electrons
       nuclear repulsion energy       273.1344887217 Hartrees.
 NAtoms=   16 NActive=   16 NUniq=   16 SFac= 1.00D+00 NAtFMM=   60 NAOKFM=F Big=F
 Integral buffers will be    131072 words long.
 Raffenetti 2 integral format.
 Two-electron integral symmetry is turned off.
 Nuclear repulsion after empirical dispersion term =      273.1266326471 Hartrees.
 One-electron integrals computed using PRISM.
 NBasis=   336 RedAO= T EigKep=  4.30D-05  NBF=   336
 NBsUse=   336 1.00D-06 EigRej= -1.00D+00 NBFU=   336
 Initial guess from the checkpoint file:  "/localscratch/347863/Gau-59195.chk"
 B after Tr=    -0.014399    0.008008    0.027731
         Rot=    0.999922   -0.012284    0.002127    0.000849 Ang=  -1.43 deg.
 Initial guess <Sx>= 0.0000 <Sy>= 0.0000 <Sz>= 0.5000 <S**2>= 0.7684 S= 0.5091
 ExpMin= 1.03D-01 ExpMax= 1.53D+04 ExpMxC= 5.22D+02 IAcc=3 IRadAn=         5 AccDes= 0.00D+00
 Harris functional with IExCor=  419 and IRadAn=       5 diagonalized for initial guess.
 HarFok:  IExCor=  419 AccDes= 0.00D+00 IRadAn=         5 IDoV= 1 UseB2=F ITyADJ=14
 ICtDFT=  3500011 ScaDFX=  1.000000  1.000000  1.000000  1.000000
 FoFCou: FMM=F IPFlag=           0 FMFlag=      100000 FMFlg1=           0
         NFxFlg=           0 DoJE=T BraDBF=F KetDBF=T FulRan=T
         wScrn=  0.000000 ICntrl=       500 IOpCl=  0 I1Cent=   200000004 NGrid=           0
         NMat0=    1 NMatS0=      1 NMatT0=    0 NMatD0=    1 NMtDS0=    0 NMtDT0=    0
 Symmetry not used in FoFCou.
 Requested convergence on RMS density matrix=1.00D-08 within 500 cycles.
 Requested convergence on MAX density matrix=1.00D-06.
 Requested convergence on             energy=1.00D-06.
 No special actions if energy rises.
 Integral accuracy reduced to 1.0D-05 until final iterations.
 Initial convergence to 1.0D-05 achieved.  Increase integral accuracy.
 SCF Done:  E(UB2PLYPD3) =  -345.566398467     A.U. after   15 cycles
            NFock= 15  Conv=0.87D-08     -V/T= 2.0044
 <Sx>= 0.0000 <Sy>= 0.0000 <Sz>= 0.5000 <S**2>= 0.7684 S= 0.5091
 <L.S>=  0.00000000000    
 Annihilation of the first spin contaminant:
 S**2 before annihilation     0.7684,   after     0.7502
 DoSCS=T DFT=T ScalE2(SS,OS)=  0.270000  0.270000
 ExpMin= 1.03D-01 ExpMax= 1.53D+04 ExpMxC= 5.22D+02 IAcc=3 IRadAn=         5 AccDes= 0.00D+00
 HarFok:  IExCor=  205 AccDes= 0.00D+00 IRadAn=         5 IDoV=-2 UseB2=F ITyADJ=14
 ICtDFT= 12500011 ScaDFX=  1.000000  1.000000  1.000000  1.000000
 Range of M.O.s used for correlation:     8   336
 NBasis=   336 NAE=    28 NBE=    27 NFC=     7 NFV=     0
 NROrb=    329 NOA=    21 NOB=    20 NVA=   308 NVB=   309

 **** Warning!!: The largest alpha MO coefficient is  0.31138062D+02


 **** Warning!!: The largest beta MO coefficient is  0.30202263D+02

 DoSCS=T DFT=T ScalE2(SS,OS)=  0.270000  0.270000
 Disk-based method using ON**2 memory for 21 occupieds at a time.
 Estimated scratch disk usage=  1874712504 words.
 Actual    scratch disk usage=  1718355384 words.
 JobTyp=2 Pass  1:  I=   8 to  28 NPSUse= 40 ParTrn=T ParDer=T DoDerP=T.
 (rs|ai) integrals will be sorted in core.
 Actual    scratch disk usage=  1718355384 words.
 JobTyp=3 Pass  1:  I=   8 to  27 NPSUse= 40 ParTrn=T ParDer=T DoDerP=T.
 (rs|ai) integrals will be sorted in core.
 Spin components of T(2) and E(2):
     alpha-alpha T2 =       0.7921000377D-01 E2=     -0.5361794628D-01
     alpha-beta  T2 =       0.4674751560D+00 E2=     -0.3261844056D+00
     beta-beta   T2 =       0.8309805872D-01 E2=     -0.5179079710D-01
 (S**2,0)=  0.76837D+00           (S**2,1)=  0.74293D+00
 Scaling Projection term by:   0.270000
 E(PUHF)=      -0.34557250605D+03        E(PMP2)=      -0.34599850446D+03
 E2(B2PLYPD3) =    -0.4315931489D+00 E(B2PLYPD3) =    -0.34599799161623D+03
          IDoAtm=1111111111111111
          Differentiating once with respect to electric field.
                with respect to dipole field.
          Differentiating once with respect to nuclear coordinates.
 Keep R1 and R2 ints in memory in canonical form, NReq=3251777228.
          There are     1 degrees of freedom in the 1st order CPHF.  IDoFFX=0 NUNeed=     1.
 LinEq1:  Iter=  0 NonCon=     1 RMS=8.98D-04 Max=6.83D-02 NDo=     1
 AX will form     1 AO Fock derivatives at one time.
 LinEq1:  Iter=  1 NonCon=     1 RMS=2.96D-04 Max=9.73D-03 NDo=     1
 LinEq1:  Iter=  2 NonCon=     1 RMS=1.76D-04 Max=9.99D-03 NDo=     1
 LinEq1:  Iter=  3 NonCon=     1 RMS=1.13D-04 Max=3.50D-03 NDo=     1
 LinEq1:  Iter=  4 NonCon=     1 RMS=5.20D-05 Max=1.43D-03 NDo=     1
 LinEq1:  Iter=  5 NonCon=     1 RMS=4.20D-05 Max=1.18D-03 NDo=     1
 LinEq1:  Iter=  6 NonCon=     1 RMS=1.87D-05 Max=4.79D-04 NDo=     1
 LinEq1:  Iter=  7 NonCon=     1 RMS=7.04D-06 Max=1.96D-04 NDo=     1
 LinEq1:  Iter=  8 NonCon=     1 RMS=4.93D-06 Max=8.92D-05 NDo=     1
 LinEq1:  Iter=  9 NonCon=     1 RMS=2.97D-06 Max=7.58D-05 NDo=     1
 LinEq1:  Iter= 10 NonCon=     1 RMS=1.28D-06 Max=2.91D-05 NDo=     1
 LinEq1:  Iter= 11 NonCon=     1 RMS=5.52D-07 Max=1.04D-05 NDo=     1
 LinEq1:  Iter= 12 NonCon=     1 RMS=2.45D-07 Max=4.57D-06 NDo=     1
 LinEq1:  Iter= 13 NonCon=     1 RMS=1.04D-07 Max=1.84D-06 NDo=     1
 LinEq1:  Iter= 14 NonCon=     1 RMS=3.76D-08 Max=7.86D-07 NDo=     1
 LinEq1:  Iter= 15 NonCon=     1 RMS=1.58D-08 Max=3.89D-07 NDo=     1
 LinEq1:  Iter= 16 NonCon=     1 RMS=6.63D-09 Max=1.48D-07 NDo=     1
 LinEq1:  Iter= 17 NonCon=     1 RMS=2.28D-09 Max=5.31D-08 NDo=     1
 LinEq1:  Iter= 18 NonCon=     1 RMS=6.90D-10 Max=1.43D-08 NDo=     1
 LinEq1:  Iter= 19 NonCon=     1 RMS=2.95D-10 Max=6.74D-09 NDo=     1
 LinEq1:  Iter= 20 NonCon=     1 RMS=1.39D-10 Max=3.14D-09 NDo=     1
 LinEq1:  Iter= 21 NonCon=     0 RMS=5.04D-11 Max=8.52D-10 NDo=     1
 Linear equations converged to 1.000D-10 1.000D-09 after    21 iterations.
 End of Minotr F.D. properties file   721 does not exist.
 End of Minotr F.D. properties file   722 does not exist.
 End of Minotr F.D. properties file   788 does not exist.
 Calling FoFJK, ICntrl=  10002127 FMM=F ISym2X=0 I1Cent= 0 IOpClX= 1 NMat=1 NMatS=1 NMatT=0.
 -------------------------------------------------------------------
 Center     Atomic                   Forces (Hartrees/Bohr)
 Number     Number              X              Y              Z
 -------------------------------------------------------------------
      1        6           0.000152555   -0.000174324   -0.000009745
      2        1           0.000076621   -0.000000268   -0.000029595
      3        1          -0.000034898    0.000045840   -0.000009077
      4        6           0.000114174    0.000018976    0.000011257
      5        1          -0.000281494    0.000046212   -0.000052710
      6        1           0.000080206   -0.000006677   -0.000035262
      7        6          -0.000034075   -0.000071987    0.000029131
      8        1          -0.000010128    0.000026182    0.000057722
      9        1           0.000017570    0.000016929    0.000000007
     10        1           0.000010580    0.000010647   -0.000009967
     11        8          -0.000127076    0.000053130    0.000020266
     12        8           0.000099244    0.000042118    0.000120702
[...]
     2  H   -0.002269  -0.041953  -0.000120  -0.000032
     3  H   -0.000482  -0.046463  -0.003037  -0.000066
     4  C    0.198672  -0.044268   0.005927   0.000022
     5  H   -0.005538  -0.003382   0.000862  -0.000004
     6  H   -0.006828   0.001151   0.002534   0.000020
     7  C    0.004216   0.000014   0.000003   0.000000
     8  H    0.003655   0.000555   0.000051   0.000001
     9  H   -0.001400   0.000041   0.000002   0.000000
    10  H    0.001301  -0.000049  -0.000002  -0.000000
    11  O   -0.028434  -0.000182  -0.000004  -0.000000
    12  O    0.209244   0.002744   0.000072   0.000000
    13  H    0.423343  -0.003815  -0.000928  -0.000008
    14  C   -0.003815   5.253940   0.746778  -0.064221
    15  C   -0.000928   0.746778   5.227801   0.415643
    16  H   -0.000008  -0.064221   0.415643   0.479206
          Atomic-Atomic Spin Densities.
               1          2          3          4          5          6
     1  C   -0.063055   0.000511  -0.000558  -0.022846  -0.002064  -0.000416
     2  H    0.000511   0.005006   0.001019  -0.003055   0.000725   0.000024
     3  H   -0.000558   0.001019   0.005897  -0.003508  -0.000064   0.000835
     4  C   -0.022846  -0.003055  -0.003508   0.720606   0.007703   0.004937
     5  H   -0.002064   0.000725  -0.000064   0.007703  -0.028248   0.002523
     6  H   -0.000416   0.000024   0.000835   0.004937   0.002523  -0.023513
     7  C   -0.000119  -0.000046  -0.000003   0.001041  -0.000304  -0.000030
     8  H    0.000607   0.000552   0.000071  -0.004381   0.000786   0.000109
     9  H   -0.000010  -0.000007  -0.000000   0.000078  -0.000007  -0.000002
    10  H   -0.000139  -0.000106  -0.000025   0.001154  -0.000096  -0.000019
    11  O   -0.000371  -0.000127  -0.000036   0.010360  -0.001038  -0.000291
    12  O    0.004037   0.000795   0.000795  -0.084795   0.002125   0.002193
    13  H    0.000880  -0.000397  -0.000574   0.057551   0.003339   0.001027
    14  C    0.043478  -0.001922  -0.000877  -0.021313   0.000608  -0.000668
    15  C    0.010034   0.000987   0.001330   0.005605   0.000584   0.000439
    16  H    0.000230   0.000004   0.000009   0.000050   0.000007   0.000004
               7          8          9         10         11         12
     1  C   -0.000119   0.000607  -0.000010  -0.000139  -0.000371   0.004037
     2  H   -0.000046   0.000552  -0.000007  -0.000106  -0.000127   0.000795
     3  H   -0.000003   0.000071  -0.000000  -0.000025  -0.000036   0.000795
     4  C    0.001041  -0.004381   0.000078   0.001154   0.010360  -0.084795
     5  H   -0.000304   0.000786  -0.000007  -0.000096  -0.001038   0.002125
     6  H   -0.000030   0.000109  -0.000002  -0.000019  -0.000291   0.002193
     7  C   -0.004033   0.002694   0.000223  -0.002550   0.001242  -0.002837
     8  H    0.002694   0.003506  -0.000522  -0.001675  -0.001098   0.003959
     9  H    0.000223  -0.000522  -0.001600   0.000935   0.000072  -0.000170
    10  H   -0.002550  -0.001675   0.000935   0.004232  -0.000682  -0.000356
    11  O    0.001242  -0.001098   0.000072  -0.000682   0.044228  -0.038404
    12  O   -0.002837   0.003959  -0.000170  -0.000356  -0.038404   0.557100
    13  H    0.000925  -0.003231   0.000125   0.001382   0.009476  -0.046832
    14  C    0.000011  -0.000115  -0.000004   0.000003   0.000010  -0.000124
    15  C   -0.000001   0.000008  -0.000000  -0.000001  -0.000000   0.000013
    16  H   -0.000000   0.000000  -0.000000  -0.000000  -0.000000   0.000000
              13         14         15         16
     1  C    0.000880   0.043478   0.010034   0.000230
     2  H   -0.000397  -0.001922   0.000987   0.000004
     3  H   -0.000574  -0.000877   0.001330   0.000009
     4  C    0.057551  -0.021313   0.005605   0.000050
     5  H    0.003339   0.000608   0.000584   0.000007
     6  H    0.001027  -0.000668   0.000439   0.000004
     7  C    0.000925   0.000011  -0.000001  -0.000000
     8  H   -0.003231  -0.000115   0.000008   0.000000
     9  H    0.000125  -0.000004  -0.000000  -0.000000
    10  H    0.001382   0.000003  -0.000001  -0.000000
    11  O    0.009476   0.000010  -0.000000  -0.000000
    12  O   -0.046832  -0.000124   0.000013   0.000000
    13  H   -0.097050  -0.000991  -0.000089  -0.000000
    14  C   -0.000991  -0.002347  -0.012602   0.000747
    15  C   -0.000089  -0.012602   0.025122  -0.000942
    16  H   -0.000000   0.000747  -0.000942  -0.000919
 Mulliken charges and spin densities:
               1          2
     1  C   -0.161807  -0.029802
     2  H    0.123782   0.003964
     3  H    0.127618   0.004310
     4  C   -0.277314   0.669187
     5  H    0.130117  -0.013419
     6  H    0.134472  -0.012846
     7  C   -0.054450  -0.003786
     8  H    0.062506   0.001270
     9  H    0.101476  -0.000889
    10  H    0.084949   0.002059
    11  O   -0.185477   0.023342
    12  O   -0.221175   0.397500
    13  H    0.212971  -0.074461
    14  C   -0.044690   0.003895
    15  C   -0.203432   0.030486
    16  H    0.170453  -0.000809
 Sum of Mulliken charges =  -0.00000   1.00000
 Mulliken charges and spin densities with hydrogens summed into heavy atoms:
               1          2
     1  C    0.089593  -0.021528
     4  C   -0.012724   0.642922
     7  C    0.194481  -0.001346
    11  O   -0.185477   0.023342
    12  O   -0.008204   0.323039
    14  C   -0.044690   0.003895
    15  C   -0.032979   0.029676
 Electronic spatial extent (au):  <R**2>=           1428.6183
 Charge=             -0.0000 electrons
 Dipole moment (field-independent basis, Debye):
    X=             -0.8489    Y=              1.9257    Z=              0.0658  Tot=              2.1055
 Quadrupole moment (field-independent basis, Debye-Ang):
   XX=            -40.6775   YY=            -46.4406   ZZ=            -44.1417
   XY=              5.9229   XZ=             -0.9912   YZ=              1.1869
 Traceless Quadrupole moment (field-independent basis, Debye-Ang):
   XX=              3.0757   YY=             -2.6873   ZZ=             -0.3884
   XY=              5.9229   XZ=             -0.9912   YZ=              1.1869
 Octapole moment (field-independent basis, Debye-Ang**2):
  XXX=              3.4639  YYY=             37.7417  ZZZ=              4.8652  XYY=              0.1843
  XXY=             36.5550  XXZ=              7.5367  XZZ=             12.2095  YZZ=             12.0931
  YYZ=              1.6791  XYZ=              1.6275
 Hexadecapole moment (field-independent basis, Debye-Ang**3):
 XXXX=          -1239.6533 YYYY=           -248.7570 ZZZZ=           -147.9154 XXXY=             62.8356
 XXXZ=           -131.7547 YYYX=            124.3951 YYYZ=             16.7400 ZZZX=           -119.8808
 ZZZY=             22.3209 XXYY=           -304.7511 XXZZ=           -294.0890 YYZZ=            -67.0382
 XXYZ=             17.2166 YYXZ=            -43.0279 ZZXY=             44.6044
 N-N= 2.738257357305D+02 E-N=-1.356015740694D+03  KE= 3.440375628200D+02
                          Isotropic Fermi Contact Couplings
        Atom                 a.u.       MegaHertz       Gauss      10(-4) cm-1
     1  C(13)             -0.00901     -10.12463      -3.61272      -3.37721
     2  H(1)               0.00211       9.42586       3.36338       3.14413
     3  H(1)               0.00287      12.82070       4.57475       4.27653
     4  C(13)              0.09781     109.96228      39.23727      36.67947
     5  H(1)              -0.00419     -18.74983      -6.69040      -6.25427
     6  H(1)              -0.00417     -18.64007      -6.65124      -6.21766
     7  C(13)             -0.00340      -3.82183      -1.36372      -1.27482
     8  H(1)               0.00220       9.81863       3.50353       3.27514
     9  H(1)              -0.00009      -0.39899      -0.14237      -0.13309
    10  H(1)               0.00049       2.16819       0.77366       0.72323
    11  O(17)              0.01393      -8.44318      -3.01274      -2.81634
    12  O(17)              0.03852     -23.34862      -8.33137      -7.78826
    13  H(1)              -0.02519    -112.59193     -40.17560     -37.55663
    14  C(13)              0.04825      54.24731      19.35679      18.09495
    15  C(13)              0.00342       3.83914       1.36990       1.28060
    16  H(1)              -0.00020      -0.87177      -0.31107      -0.29079
 --------------------------------------------------------
       Center         ----  Spin Dipole Couplings  ----
                      3XX-RR        3YY-RR        3ZZ-RR
 --------------------------------------------------------
     1   Atom        0.005998     -0.003244     -0.002754
     2   Atom       -0.005527      0.006613     -0.001086
     3   Atom       -0.002748     -0.008110      0.010858
     4   Atom        0.603580     -0.308652     -0.294927
     5   Atom       -0.000040     -0.022135      0.022175
     6   Atom        0.005218      0.037892     -0.043110
     7   Atom        0.001070      0.004689     -0.005759
     8   Atom       -0.001021      0.006611     -0.005590
     9   Atom        0.001160      0.001121     -0.002280
    10   Atom        0.002099      0.002042     -0.004140
    11   Atom        0.328087     -0.122500     -0.205587
    12   Atom        1.030948     -0.601552     -0.429396
    13   Atom        0.211451     -0.106000     -0.105452
    14   Atom        0.028604     -0.007312     -0.021293
    15   Atom       -0.007712     -0.011016      0.018728
    16   Atom        0.003091     -0.001667     -0.001424
 --------------------------------------------------------
                        XY            XZ            YZ
 --------------------------------------------------------
     1   Atom       -0.014704      0.007927     -0.010660
     2   Atom       -0.002396      0.000140     -0.009810
     3   Atom       -0.001380      0.006558     -0.002632
     4   Atom       -0.268318     -0.292936      0.080794
     5   Atom        0.000720      0.007892      0.042277
     6   Atom        0.021099     -0.015289     -0.004785
     7   Atom        0.005848      0.002705      0.001159
     8   Atom        0.004036      0.000349      0.001854
     9   Atom        0.003921      0.001850      0.002295
    10   Atom        0.006218     -0.001337     -0.001545
    11   Atom       -0.148277     -0.125072      0.015497
    12   Atom       -0.722725     -0.911882      0.347025
    13   Atom       -0.077214     -0.075684      0.019030
    14   Atom       -0.022236      0.007629     -0.000038
    15   Atom       -0.000238     -0.009751     -0.018789
    16   Atom       -0.002392     -0.000257     -0.000854
 --------------------------------------------------------


 ---------------------------------------------------------------------------------
              Anisotropic Spin Dipole Couplings in Principal Axis System
 ---------------------------------------------------------------------------------

       Atom             a.u.   MegaHertz   Gauss  10(-4) cm-1        Axes

              Baa    -0.0159    -2.133    -0.761    -0.711  0.3943  0.8155  0.4237
     1 C(13)  Bbb    -0.0072    -0.970    -0.346    -0.324 -0.6036 -0.1179  0.7885
              Bcc     0.0231     3.103     1.107     1.035  0.6929 -0.5667  0.4458
 
              Baa    -0.0084    -4.457    -1.590    -1.487  0.4244  0.5429  0.7247
     2 H(1)   Bbb    -0.0052    -2.759    -0.985    -0.920  0.8990 -0.1574 -0.4086
              Bcc     0.0135     7.216     2.575     2.407 -0.1078  0.8249 -0.5549
 
              Baa    -0.0085    -4.554    -1.625    -1.519  0.1355  0.9869  0.0881
     3 H(1)   Bbb    -0.0054    -2.864    -1.022    -0.955  0.9180 -0.0916 -0.3859
              Bcc     0.0139     7.417     2.647     2.474  0.3728 -0.1332  0.9183
 
              Baa    -0.3829   -51.381   -18.334   -17.139  0.0427 -0.6609  0.7492
     4 C(13)  Bbb    -0.3810   -51.121   -18.241   -17.052  0.3717  0.7066  0.6021
              Bcc     0.7639   102.503    36.575    34.191  0.9274 -0.2528 -0.2759
 
              Baa    -0.0480   -25.592    -9.132    -8.536  0.0730  0.8505 -0.5209
     5 H(1)   Bbb    -0.0008    -0.442    -0.158    -0.147  0.9868 -0.1374 -0.0860
              Bcc     0.0488    26.033     9.289     8.684  0.1447  0.5077  0.8493
 
              Baa    -0.0476   -25.377    -9.055    -8.465  0.2843 -0.0165  0.9586
     6 H(1)   Bbb    -0.0020    -1.081    -0.386    -0.360  0.8412 -0.4755 -0.2576
              Bcc     0.0496    26.458     9.441     8.825  0.4601  0.8796 -0.1213
 
              Baa    -0.0068    -0.911    -0.325    -0.304 -0.3950  0.1091  0.9122
     7 C(13)  Bbb    -0.0026    -0.354    -0.126    -0.118  0.6950 -0.6138  0.3744
              Bcc     0.0094     1.265     0.452     0.422  0.6008  0.7819  0.1666
 
              Baa    -0.0059    -3.139    -1.120    -1.047  0.0690 -0.1682  0.9833
     8 H(1)   Bbb    -0.0027    -1.444    -0.515    -0.482  0.9191 -0.3726 -0.1283
              Bcc     0.0086     4.583     1.635     1.529  0.3880  0.9126  0.1289
 
              Baa    -0.0034    -1.838    -0.656    -0.613  0.0834 -0.5038  0.8598
     9 H(1)   Bbb    -0.0026    -1.410    -0.503    -0.470  0.7463 -0.5402 -0.3889
              Bcc     0.0061     3.249     1.159     1.084  0.6604  0.6741  0.3309
 
              Baa    -0.0045    -2.414    -0.862    -0.805 -0.1563  0.3640  0.9182
    10 H(1)   Bbb    -0.0041    -2.182    -0.778    -0.728  0.6983 -0.6167  0.3634
              Bcc     0.0086     4.596     1.640     1.533  0.6985  0.6980 -0.1578
 
              Baa    -0.2372    17.164     6.125     5.725  0.2643  0.2147  0.9402
    11 O(17)  Bbb    -0.1609    11.643     4.154     3.884  0.2141  0.9375 -0.2742
              Bcc     0.3981   -28.807   -10.279    -9.609  0.9404 -0.2738 -0.2018
 
              Baa    -0.8757    63.364    22.610    21.136  0.2977  0.9461 -0.1274
    12 O(17)  Bbb    -0.8674    62.766    22.396    20.936  0.4288 -0.0133  0.9033
              Bcc     1.7431  -126.130   -45.006   -42.072  0.8529 -0.3235 -0.4097
 
              Baa    -0.1249   -66.626   -23.774   -22.224  0.0605  0.8206 -0.5683
    13 H(1)   Bbb    -0.1217   -64.912   -23.162   -21.652  0.3026  0.5274  0.7939
              Bcc     0.2465   131.538    46.936    43.876  0.9512 -0.2200 -0.2164
 
              Baa    -0.0238    -3.199    -1.142    -1.067 -0.2932 -0.3924  0.8718
    14 C(13)  Bbb    -0.0162    -2.169    -0.774    -0.724  0.3245  0.8169  0.4768
              Bcc     0.0400     5.369     1.916     1.791  0.8993 -0.4227  0.1122
 
              Baa    -0.0217    -2.912    -1.039    -0.971  0.3362  0.8205  0.4624
    15 C(13)  Bbb    -0.0081    -1.092    -0.390    -0.364  0.9139 -0.4027  0.0500
              Bcc     0.0298     4.005     1.429     1.336 -0.2273 -0.4058  0.8853
 
              Baa    -0.0031    -1.667    -0.595    -0.556  0.3350  0.8208  0.4627
    16 H(1)   Bbb    -0.0010    -0.514    -0.183    -0.171 -0.1924 -0.4211  0.8864
              Bcc     0.0041     2.181     0.778     0.727  0.9224 -0.3860  0.0168
 

 ---------------------------------------------------------------------------------

 1\1\GINC-N165\Scan\UB2PLYPD3-FC\CC-pVTZ\C5H9O2(2)\ROOT\14-Jun-2019\0\\
 # opt=(calcfc,ts,noeigentest,maxcyc=500,modredundant) uB2PLYPD3/cc-pvt
 z scf=maxcyc=500 nosymm\\Title Card Required\\0,2\C,-1.263909703,-0.08
 81341897,-0.8097924388\H,-0.6238275616,0.7816502325,-0.9610433981\H,-1
 .2195607527,-0.6759364552,-1.727415531\C,-0.7671576976,-0.9082228198,0
 .3595711222\H,-0.6139723549,-0.3645400721,1.2860621448\H,-1.2533799523
 ,-1.8675824902,0.4979133747\C,2.7642307212,0.3102773527,0.4908620931\H
 ,1.8945126181,0.9689450762,0.4518427664\H,3.4266166919,0.6236025081,1.
 2950220805\H,3.2899567954,0.3349159347,-0.462030536\O,2.3814078229,-1.
 0167559945,0.8194554974\O,1.6070348749,-1.5175217916,-0.2466149603\H,0
 .5248835107,-1.2770140528,0.0508474976\C,-2.6393174802,0.3558299306,-0
 .5862676434\C,-3.7720119094,0.702400612,-0.3626614901\H,-4.7687926235,
 1.0120422191,-0.1784575789\\Version=ES64L-G16RevB.01\HF=-345.5663931,-
 345.5664199,-345.5664159,-345.5663989,-345.5663829,-345.5663814,-345.5
 664004,-345.566445,-345.5665149,-345.5665979,-345.5666823,-345.5667635
 ,-345.5668359,-345.5669032,-345.5669727,-345.5670526,-345.5671419,-345
 .5672227,-345.5672631,-345.5672346,-345.5671567,-345.567057,-345.56692
 78,-345.5667745,-345.5666095,-345.5664536,-345.5663267,-345.5662264,-3
 45.566144,-345.5660813,-345.566039,-345.5660206,-345.5660401,-345.5661
 071,-345.566213,-345.5663214,-345.5663934\MP2=-345.998023,-345.9979986
 ,-345.9979433,-345.9978788,-345.9978198,-345.9977812,-345.9977759,-345
 .9978139,-345.9978939,-345.9980042,-345.9981278,-345.9982466,-345.9983
 538,-345.9984555,-345.998568,-345.9987113,-345.9988948,-345.999094,-34
 5.9992433,-345.9992859,-345.9992184,-345.9990931,-345.9989619,-345.998
 8242,-345.9986847,-345.9985581,-345.998434,-345.9982911,-345.9981239,-
 345.9979519,-345.9978141,-345.9977353,-345.9977233,-345.9977809,-345.9
 978884,-345.9979882,-345.9980234\PUHF=-345.572498,-345.5725201,-345.57
 25117,-345.5724907,-345.5724713,-345.572466,-345.5724834,-345.5725289,
 -345.5725995,-345.5726855,-345.5727743,-345.5728595,-345.5729353,-345.
 573006,-345.5730794,-345.5731638,-345.5732573,-345.5733378,-345.573371
 3,-345.5733319,-345.5732468,-345.5731489,-345.5730279,-345.5728866,-34
 5.5727334,-345.5725888,-345.5724745,-345.5723874,-345.5723146,-345.572
 2521,-345.5722023,-345.5721735,-345.5721828,-345.5722389,-345.572333,-
 345.5724326,-345.5724986\PMP2-0=-345.9985359,-345.9985107,-345.9984549
 ,-345.9983899,-345.9983305,-345.9982915,-345.998286,-345.998324,-345.9
 984039,-345.9985145,-345.9986385,-345.9987578,-345.9988653,-345.998967
 5,-345.9990801,-345.9992236,-345.9994068,-345.9996054,-345.9997534,-34
 5.9997945,-345.9997264,-345.9996016,-345.9994717,-345.9993356,-345.999
 1976,-345.9990722,-345.9989492,-345.9988076,-345.9986418,-345.9984707,
 -345.9983334,-345.9982544,-345.9982418,-345.9982982,-345.9984041,-345.
 9985022,-345.9985362\S2=0.768374,0.76835,0.768332,0.768317,0.768305,0.
 768293,0.768291,0.768296,0.7683,0.768311,0.768326,0.768337,0.768344,0.
 768348,0.768347,0.768341,0.768332,0.768316,0.768289,0.768262,0.76825,0
 .768266,0.7683,0.768347,0.768393,0.768429,0.768453,0.768476,0.768498,0
 .768515,0.768527,0.768532,0.768526,0.768502,0.768458,0.768411,0.768374
 \S2-1=0.742932,0.742934,0.742937,0.74294,0.742942,0.742943,0.742943,0.
 742939,0.742936,0.742931,0.742927,0.742924,0.742925,0.742925,0.742924,
 0.742919,0.74291,0.742902,0.742897,0.742897,0.7429,0.742903,0.742902,0
 .742898,0.742891,0.742882,0.742874,0.74287,0.742874,0.742888,0.742906,
 0.74292,0.742928,0.742932,0.742933,0.742931,0.742931\S2A=0.750155,0.75
 0155,0.750155,0.750154,0.750154,0.750154,0.750154,0.750154,0.750154,0.
 750155,0.750155,0.750155,0.750155,0.750155,0.750155,0.750155,0.750154,
 0.750154,0.750153,0.750152,0.750152,0.750152,0.750153,0.750153,0.75015
 4,0.750154,0.750155,0.750155,0.750156,0.750156,0.750157,0.750157,0.750
 158,0.750157,0.750157,0.750156,0.750155\RMSD=6.678e-09,4.407e-09,9.357
 e-09,7.407e-09,4.186e-09,6.853e-09,4.494e-09,7.841e-09,8.482e-09,8.978
 e-09,9.652e-09,8.072e-09,2.918e-09,9.649e-09,6.272e-09,8.001e-09,8.602
 e-09,8.118e-09,9.768e-09,6.790e-09,8.654e-09,6.315e-09,4.771e-09,9.913
 e-09,6.327e-09,7.299e-09,7.438e-09,7.701e-09,5.198e-09,7.651e-09,8.229
 e-09,5.253e-09,7.721e-09,5.193e-09,9.850e-09,8.759e-09,3.799e-09\PG=C0
 1 [X(C5H9O2)]\\@


 CHARLIE BROWN -- WHICH DO YOU THINK LASTS LONGER IN LIFE, THE GOOD THINGS 
                  OR THE BAD THINGS?
 LINUS --         GOOD THINGS LAST EIGHT SECONDS ..
                  BAD THINGS LAST THREE WEEKS
 CHARLIE BROWN -- WHAT ABOUT IN BETWEEN?
 SNOOPY --        IN BETWEEN YOU SHOULD TAKE A NAP ...
 Job cpu time:      17 days  8 hours  2 minutes 39.1 seconds.
 Elapsed time:       0 days 15 hours  1 minutes 54.4 seconds.
 File lengths (MBytes):  RWF=  83476 Int=      0 D2E=      0 Chk=     20 Scr=      1
 Normal termination of Gaussian 16 at Fri Jun 14 16:44:07 2019.
