 Entering Gaussian System, Link 0=g16
 Initial command:
 /ichec/packages/gaussian/16b01/l1.exe "/localscratch/353443/Gau-97971.inp" -scrdir="/localscratch/353443/"
 Entering Link 1 = /ichec/packages/gaussian/16b01/l1.exe PID=     98051.
  
 Copyright (c) 1988-2017, Gaussian, Inc.  All Rights Reserved.
  
 This is part of the Gaussian(R) 16 program.  It is based on
 the Gaussian(R) 09 system (copyright 2009, Gaussian, Inc.),
 the Gaussian(R) 03 system (copyright 2003, Gaussian, Inc.),
 the Gaussian(R) 98 system (copyright 1998, Gaussian, Inc.),
 the Gaussian(R) 94 system (copyright 1995, Gaussian, Inc.),
 the Gaussian 92(TM) system (copyright 1992, Gaussian, Inc.),
 the Gaussian 90(TM) system (copyright 1990, Gaussian, Inc.),
 the Gaussian 88(TM) system (copyright 1988, Gaussian, Inc.),
 the Gaussian 86(TM) system (copyright 1986, Carnegie Mellon
 University), and the Gaussian 82(TM) system (copyright 1983,
 Carnegie Mellon University). Gaussian is a federally registered
 trademark of Gaussian, Inc.
  
 This software contains proprietary and confidential information,
 including trade secrets, belonging to Gaussian, Inc.
  
 This software is provided under written license and may be
 used, copied, transmitted, or stored only in accord with that
 written license.
  
 The following legend is applicable only to US Government
 contracts under FAR:
  
                    RESTRICTED RIGHTS LEGEND
  
 Use, reproduction and disclosure by the US Government is
 subject to restrictions as set forth in subparagraphs (a)
 and (c) of the Commercial Computer Software - Restricted
 Rights clause in FAR 52.227-19.
  
 Gaussian, Inc.
 340 Quinnipiac St., Bldg. 40, Wallingford CT 06492
  
  
 ---------------------------------------------------------------
 Warning -- This program may not be used in any manner that
 competes with the business of Gaussian, Inc. or will provide
 assistance to any competitor of Gaussian, Inc.  The licensee
 of this program is prohibited from giving any competitor of
 Gaussian, Inc. access to this program.  By using this program,
 the user acknowledges that Gaussian, Inc. is engaged in the
 business of creating and licensing software in the field of
 computational chemistry and represents and warrants to the
 licensee that it is not a competitor of Gaussian, Inc. and that
 it will not use this program in any manner prohibited above.
 ---------------------------------------------------------------
  

 Cite this work as:
 Gaussian 16, Revision B.01,
 M. J. Frisch, G. W. Trucks, H. B. Schlegel, G. E. Scuseria, 
 M. A. Robb, J. R. Cheeseman, G. Scalmani, V. Barone, 
 G. A. Petersson, H. Nakatsuji, X. Li, M. Caricato, A. V. Marenich, 
 J. Bloino, B. G. Janesko, R. Gomperts, B. Mennucci, H. P. Hratchian, 
 J. V. Ortiz, A. F. Izmaylov, J. L. Sonnenberg, D. Williams-Young, 
 F. Ding, F. Lipparini, F. Egidi, J. Goings, B. Peng, A. Petrone, 
 T. Henderson, D. Ranasinghe, V. G. Zakrzewski, J. Gao, N. Rega, 
 G. Zheng, W. Liang, M. Hada, M. Ehara, K. Toyota, R. Fukuda, 
 J. Hasegawa, M. Ishida, T. Nakajima, Y. Honda, O. Kitao, H. Nakai, 
 T. Vreven, K. Throssell, J. A. Montgomery, Jr., J. E. Peralta, 
 F. Ogliaro, M. J. Bearpark, J. J. Heyd, E. N. Brothers, K. N. Kudin, 
 V. N. Staroverov, T. A. Keith, R. Kobayashi, J. Normand, 
 K. Raghavachari, A. P. Rendell, J. C. Burant, S. S. Iyengar, 
 J. Tomasi, M. Cossi, J. M. Millam, M. Klene, C. Adamo, R. Cammi, 
 J. W. Ochterski, R. L. Martin, K. Morokuma, O. Farkas, 
 J. B. Foresman, and D. J. Fox, Gaussian, Inc., Wallingford CT, 2016.
 
 ******************************************
 Gaussian 16:  ES64L-G16RevB.01 20-Dec-2017
                24-Jun-2019 
 ******************************************
 %mem=80GB
 %nproc=40
 Will use up to   40 processors via shared memory.
 ----------------------------------------------------------------------
 # opt=(calcfc,ts,noeigentest,maxcyc=500) freq=noraman uB2PLYPD3/cc-pvt
 z
 ----------------------------------------------------------------------
 1/5=1,6=500,10=4,11=1,18=20,38=1/1,3;
 2/9=110,12=2,17=6,18=5,40=1/2;
 3/5=16,6=1,11=2,25=1,30=1,71=2,74=-60,116=2,140=1/1,2,3;
 4//1;
 5/5=2,38=5/2;
 8/6=3,8=1,10=1,19=11,30=-1/1;
 9/15=3,16=-3/6;
 11/6=1,8=1,15=11,17=12,24=-1,27=1,28=-2,29=300,32=6,42=3/1,2,10;
 10/6=2,21=1/2;
 8/6=4,8=1,10=1,19=11,30=-1/11,4;
 10/5=1,20=4/2;
 11/12=2,14=11,16=1,17=2,28=-2,42=3,76=2/2,10,12;
 6/7=2,8=2,9=2,10=2/1;
 7/10=1,12=2,25=1,44=2/1,2,3,16;
 1/5=1,6=500,10=4,11=1,18=20/3(2);
 2/9=110/2;
 99//99;
 2/9=110/2;
 3/5=16,6=1,11=2,25=1,30=1,71=1,74=-60,116=2/1,2,3;
 4/5=5,16=3,69=1/1;
 5/5=2,38=5/2;
 8/6=4,10=1/1;
 9/15=2,16=-3/6;
 10/5=1/2;
 7/12=2/1,2,3,16;
 1/5=1,6=500,11=1,18=20/3(-8);
 2/9=110/2;
 6/7=2,8=2,9=2,10=2/1;
 99/9=10/99;
 -------------------
 Title Card Required
 -------------------
 Symbolic Z-matrix:
 Charge =  0 Multiplicity = 2
 C                    -1.07104   0.4434   -1.00887 
 H                    -1.59569  -0.01608  -1.84393 
 C                     2.10068  -0.77765   0.69557 
 H                     1.46355  -0.01359   1.13751 
 H                     2.25466  -1.5886    1.40371 
 H                     3.05528  -0.34941   0.39558 
 O                     1.45701  -1.37993  -0.42533 
 O                     1.28069  -0.40137  -1.40088 
 H                     0.15511  -0.01127  -1.23011 
 C                    -1.40512  -0.13753   0.2421 
 C                    -1.63232  -0.64808   1.31606 
 H                    -1.85397  -1.09679   2.25052 
 C                    -0.95347   1.9505   -1.07984 
 H                    -0.52994   2.25546  -2.03462 
 H                    -1.93396   2.4195   -0.97811 
 H                    -0.31743   2.32713  -0.28185 
 
 Add virtual bond connecting atoms H9         and O8         Dist= 2.27D+00.
 Add virtual bond connecting atoms H9         and C1         Dist= 2.51D+00.

 GradGradGradGradGradGradGradGradGradGradGradGradGradGradGradGradGradGrad
 Berny optimization.
 Initialization pass.
                           ----------------------------
                           !    Initial Parameters    !
                           ! (Angstroms and Degrees)  !
 --------------------------                            --------------------------
 ! Name  Definition              Value          Derivative Info.                !
 --------------------------------------------------------------------------------
 ! R1    R(1,2)                  1.088          calculate D2E/DX2 analytically  !
 ! R2    R(1,9)                  1.3263         calculate D2E/DX2 analytically  !
 ! R3    R(1,10)                 1.4192         calculate D2E/DX2 analytically  !
 ! R4    R(1,13)                 1.5133         calculate D2E/DX2 analytically  !
 ! R5    R(3,4)                  1.0886         calculate D2E/DX2 analytically  !
 ! R6    R(3,5)                  1.0876         calculate D2E/DX2 analytically  !
 ! R7    R(3,6)                  1.0884         calculate D2E/DX2 analytically  !
 ! R8    R(3,7)                  1.426          calculate D2E/DX2 analytically  !
 ! R9    R(7,8)                  1.393          calculate D2E/DX2 analytically  !
 ! R10   R(8,9)                  1.2034         calculate D2E/DX2 analytically  !
 ! R11   R(10,11)                1.2106         calculate D2E/DX2 analytically  !
 ! R12   R(11,12)                1.06           calculate D2E/DX2 analytically  !
 ! R13   R(13,14)                1.0881         calculate D2E/DX2 analytically  !
 ! R14   R(13,15)                1.0916         calculate D2E/DX2 analytically  !
 ! R15   R(13,16)                1.0877         calculate D2E/DX2 analytically  !
 ! A1    A(2,1,9)               99.9618         calculate D2E/DX2 analytically  !
 ! A2    A(2,1,10)             112.9653         calculate D2E/DX2 analytically  !
 ! A3    A(2,1,13)             114.964          calculate D2E/DX2 analytically  !
 ! A4    A(9,1,10)             102.9643         calculate D2E/DX2 analytically  !
 ! A5    A(9,1,13)             105.1737         calculate D2E/DX2 analytically  !
 ! A6    A(10,1,13)            117.8585         calculate D2E/DX2 analytically  !
 ! A7    A(4,3,5)              109.9913         calculate D2E/DX2 analytically  !
 ! A8    A(4,3,6)              110.4299         calculate D2E/DX2 analytically  !
 ! A9    A(4,3,7)              110.5711         calculate D2E/DX2 analytically  !
 ! A10   A(5,3,6)              110.4058         calculate D2E/DX2 analytically  !
 ! A11   A(5,3,7)              105.1172         calculate D2E/DX2 analytically  !
 ! A12   A(6,3,7)              110.2073         calculate D2E/DX2 analytically  !
 ! A13   A(3,7,8)              108.1155         calculate D2E/DX2 analytically  !
 ! A14   A(7,8,9)              104.2842         calculate D2E/DX2 analytically  !
 ! A15   A(1,13,14)            110.5183         calculate D2E/DX2 analytically  !
 ! A16   A(1,13,15)            110.7147         calculate D2E/DX2 analytically  !
 ! A17   A(1,13,16)            110.8453         calculate D2E/DX2 analytically  !
 ! A18   A(14,13,15)           108.1172         calculate D2E/DX2 analytically  !
 ! A19   A(14,13,16)           108.6072         calculate D2E/DX2 analytically  !
 ! A20   A(15,13,16)           107.9428         calculate D2E/DX2 analytically  !
 ! A21   L(1,9,8,4,-1)         178.3685         calculate D2E/DX2 analytically  !
 ! A22   L(1,10,11,3,-1)       177.1634         calculate D2E/DX2 analytically  !
 ! A23   L(10,11,12,3,-1)      181.2218         calculate D2E/DX2 analytically  !
 ! A24   L(1,9,8,4,-2)         181.001          calculate D2E/DX2 analytically  !
 ! A25   L(1,10,11,3,-2)       180.2006         calculate D2E/DX2 analytically  !
 ! A26   L(10,11,12,3,-2)      180.3728         calculate D2E/DX2 analytically  !
 ! D1    D(2,1,8,7)           -105.5898         calculate D2E/DX2 analytically  !
 ! D2    D(10,1,8,7)            11.1631         calculate D2E/DX2 analytically  !
 ! D3    D(13,1,8,7)           134.7817         calculate D2E/DX2 analytically  !
 ! D4    D(2,1,13,14)          -52.6296         calculate D2E/DX2 analytically  !
 ! D5    D(2,1,13,15)           67.139          calculate D2E/DX2 analytically  !
 ! D6    D(2,1,13,16)         -173.0975         calculate D2E/DX2 analytically  !
 ! D7    D(9,1,13,14)           56.2734         calculate D2E/DX2 analytically  !
 ! D8    D(9,1,13,15)          176.0421         calculate D2E/DX2 analytically  !
 ! D9    D(9,1,13,16)          -64.1945         calculate D2E/DX2 analytically  !
 ! D10   D(10,1,13,14)         170.2436         calculate D2E/DX2 analytically  !
 ! D11   D(10,1,13,15)         -69.9878         calculate D2E/DX2 analytically  !
 ! D12   D(10,1,13,16)          49.7756         calculate D2E/DX2 analytically  !
 ! D13   D(4,3,7,8)             63.856          calculate D2E/DX2 analytically  !
 ! D14   D(5,3,7,8)           -177.4825         calculate D2E/DX2 analytically  !
 ! D15   D(6,3,7,8)            -58.5168         calculate D2E/DX2 analytically  !
 ! D16   D(3,7,8,9)            -96.0463         calculate D2E/DX2 analytically  !
 --------------------------------------------------------------------------------
 Trust Radius=3.00D-01 FncErr=1.00D-07 GrdErr=1.00D-07 EigMax=2.50D+02 EigMin=1.00D-04
 Number of steps in this run=    100 maximum allowed number of steps=    100.
 Search for a saddle point of order  1.
 GradGradGradGradGradGradGradGradGradGradGradGradGradGradGradGradGradGrad

                          Input orientation:                          
 ---------------------------------------------------------------------
 Center     Atomic      Atomic             Coordinates (Angstroms)
 Number     Number       Type             X           Y           Z
 ---------------------------------------------------------------------
      1          6           0       -1.071040    0.443400   -1.008866
      2          1           0       -1.595686   -0.016081   -1.843926
      3          6           0        2.100680   -0.777653    0.695566
      4          1           0        1.463546   -0.013592    1.137510
      5          1           0        2.254657   -1.588598    1.403708
      6          1           0        3.055276   -0.349414    0.395582
      7          8           0        1.457008   -1.379925   -0.425333
      8          8           0        1.280685   -0.401366   -1.400881
      9          1           0        0.155113   -0.011268   -1.230114
     10          6           0       -1.405116   -0.137530    0.242100
     11          6           0       -1.632320   -0.648077    1.316057
     12          1           0       -1.853973   -1.096787    2.250516
     13          6           0       -0.953472    1.950495   -1.079840
     14          1           0       -0.529942    2.255461   -2.034616
     15          1           0       -1.933961    2.419502   -0.978108
     16          1           0       -0.317429    2.327131   -0.281851
 ---------------------------------------------------------------------
                    Distance matrix (angstroms):
                    1          2          3          4          5
     1  C    0.000000
     2  H    1.087980   0.000000
     3  C    3.802087   4.548861   0.000000
     4  H    3.352596   4.271752   1.088597   0.000000
     5  H    4.583644   5.276844   1.087569   1.782516   0.000000
     6  H    4.430295   5.172809   1.088408   1.787970   1.786865
     7  O    3.171128   3.631999   1.425994   2.075906   2.006285
     8  O    2.529410   2.935685   2.282340   2.574342   3.197477
     9  H    1.326320   1.855286   2.842678   2.705115   3.719284
    10  C    1.419156   2.098231   3.592491   3.007714   4.104737
    11  C    2.628997   3.222771   3.786435   3.165255   4.000107
    12  H    3.689001   4.242534   4.261337   3.663062   4.223719
    13  C    1.513339   2.205377   4.463485   3.823121   5.383798
    14  H    2.151398   2.516362   4.855291   4.380066   5.861131
    15  H    2.156515   2.606940   5.413069   4.683892   6.267570
    16  H    2.155208   3.092679   4.054908   3.265799   4.978922
                    6          7          8          9         10
     6  H    0.000000
     7  O    2.071308   0.000000
     8  O    2.525698   1.392969   0.000000
     9  H    3.341882   2.053247   1.203433   0.000000
    10  C    4.468059   3.190731   3.159513   2.148877   0.000000
    11  C    4.786442   3.621048   3.991017   3.175442   1.210646
    12  H    5.300950   4.266489   4.862344   4.162879   2.270547
    13  C    4.851444   4.162991   3.259720   2.258331   2.512241
    14  H    5.054209   4.444524   3.276999   2.500917   3.416983
    15  H    5.869106   5.122487   4.297672   3.215024   2.882186
    16  H    4.358664   4.112357   3.354235   2.567218   2.744475
                   11         12         13         14         15
    11  C    0.000000
    12  H    1.060040   0.000000
    13  C    3.599130   4.603053   0.000000
    14  H    4.568674   5.599373   1.088108   0.000000
    15  H    3.842424   4.774379   1.091639   1.764763   0.000000
    16  H    3.624101   4.527368   1.087746   1.767055   1.762521
                   16
    16  H    0.000000
 Stoichiometry    C5H9O2(2)
 Framework group  C1[X(C5H9O2)]
 Deg. of freedom    42
 Full point group                 C1      NOp   1
 Largest Abelian subgroup         C1      NOp   1
 Largest concise Abelian subgroup C1      NOp   1
                         Standard orientation:                         
 ---------------------------------------------------------------------
 Center     Atomic      Atomic             Coordinates (Angstroms)
 Number     Number       Type             X           Y           Z
 ---------------------------------------------------------------------
      1          6           0        1.353839   -0.384570   -0.449020
      2          1           0        1.670945   -0.628448   -1.460785
      3          6           0       -2.180811    0.293691    0.776573
      4          1           0       -1.304186    0.539029    1.373550
      5          1           0       -2.811267    1.172592    0.663151
      6          1           0       -2.740245   -0.517561    1.238672
      7          8           0       -1.799438   -0.064128   -0.550070
      8          8           0       -1.031813   -1.224506   -0.481980
      9          1           0        0.104858   -0.829273   -0.486554
     10          6           0        1.189284    1.009613   -0.241224
     11          6           0        0.991197    2.188664   -0.050794
     12          1           0        0.836994    3.226036    0.103368
     13          6           0        2.027585   -1.187570    0.642517
     14          1           0        1.939186   -2.253345    0.441800
     15          1           0        3.089144   -0.940674    0.704246
     16          1           0        1.578013   -0.978258    1.610641
 ---------------------------------------------------------------------
 Rotational constants (GHZ):           3.0351456           1.7034124           1.2740476
 Standard basis: CC-pVTZ (5D, 7F)
 There are   380 symmetry adapted cartesian basis functions of A   symmetry.
 There are   336 symmetry adapted basis functions of A   symmetry.
   336 basis functions,   517 primitive gaussians,   380 cartesian basis functions
    28 alpha electrons       27 beta electrons
       nuclear repulsion energy       289.8950175002 Hartrees.
 NAtoms=   16 NActive=   16 NUniq=   16 SFac= 1.00D+00 NAtFMM=   60 NAOKFM=F Big=F
 Integral buffers will be    131072 words long.
 Raffenetti 2 integral format.
 Two-electron integral symmetry is turned on.
 Nuclear repulsion after empirical dispersion term =      289.8863930518 Hartrees.
 One-electron integrals computed using PRISM.
 NBasis=   336 RedAO= T EigKep=  4.49D-05  NBF=   336
 NBsUse=   336 1.00D-06 EigRej= -1.00D+00 NBFU=   336
 ExpMin= 1.03D-01 ExpMax= 1.53D+04 ExpMxC= 5.22D+02 IAcc=3 IRadAn=         5 AccDes= 0.00D+00
 Harris functional with IExCor=  419 and IRadAn=       5 diagonalized for initial guess.
 HarFok:  IExCor=  419 AccDes= 0.00D+00 IRadAn=         5 IDoV= 1 UseB2=F ITyADJ=14
 ICtDFT=  3500011 ScaDFX=  1.000000  1.000000  1.000000  1.000000
 FoFCou: FMM=F IPFlag=           0 FMFlag=      100000 FMFlg1=           0
         NFxFlg=           0 DoJE=T BraDBF=F KetDBF=T FulRan=T
         wScrn=  0.000000 ICntrl=       500 IOpCl=  0 I1Cent=   200000004 NGrid=           0
         NMat0=    1 NMatS0=      1 NMatT0=    0 NMatD0=    1 NMtDS0=    0 NMtDT0=    0
 Petite list used in FoFCou.
 Initial guess <Sx>= 0.0000 <Sy>= 0.0000 <Sz>= 0.5000 <S**2>= 0.7500 S= 0.5000
 Requested convergence on RMS density matrix=1.00D-08 within 128 cycles.
 Requested convergence on MAX density matrix=1.00D-06.
 Requested convergence on             energy=1.00D-06.
 No special actions if energy rises.
 Integral accuracy reduced to 1.0D-05 until final iterations.
 Initial convergence to 1.0D-05 achieved.  Increase integral accuracy.
 SCF Done:  E(UB2PLYPD3) =  -345.576567139     A.U. after   21 cycles
            NFock= 21  Conv=0.56D-08     -V/T= 2.0044
 <Sx>= 0.0000 <Sy>= 0.0000 <Sz>= 0.5000 <S**2>= 0.7893 S= 0.5194
 <L.S>=  0.00000000000    
 Annihilation of the first spin contaminant:
 S**2 before annihilation     0.7893,   after     0.7510
 DoSCS=T DFT=T ScalE2(SS,OS)=  0.270000  0.270000
 ExpMin= 1.03D-01 ExpMax= 1.53D+04 ExpMxC= 5.22D+02 IAcc=3 IRadAn=         5 AccDes= 0.00D+00
 HarFok:  IExCor=  205 AccDes= 0.00D+00 IRadAn=         5 IDoV=-2 UseB2=F ITyADJ=14
 ICtDFT= 12500011 ScaDFX=  1.000000  1.000000  1.000000  1.000000
 Range of M.O.s used for correlation:     8   336
 NBasis=   336 NAE=    28 NBE=    27 NFC=     7 NFV=     0
 NROrb=    329 NOA=    21 NOB=    20 NVA=   308 NVB=   309

 **** Warning!!: The largest alpha MO coefficient is  0.35730189D+02


 **** Warning!!: The largest beta MO coefficient is  0.37048581D+02

 DoSCS=T DFT=T ScalE2(SS,OS)=  0.270000  0.270000
 Disk-based method using ON**2 memory for 21 occupieds at a time.
 Permanent disk used for amplitudes=   106523802 words.
 Estimated scratch disk usage=  2007009528 words.
 Actual    scratch disk usage=  1940587768 words.
 JobTyp=2 Pass  1:  I=   8 to  28 NPSUse= 40 ParTrn=T ParDer=T DoDerP=T.
 (rs|ai) integrals will be sorted in core.
 Actual    scratch disk usage=  1940587768 words.
 JobTyp=3 Pass  1:  I=   8 to  27 NPSUse= 40 ParTrn=T ParDer=T DoDerP=T.
 (rs|ai) integrals will be sorted in core.
 Spin components of T(2) and E(2):
     alpha-alpha T2 =       0.7915856088D-01 E2=     -0.5372157173D-01
     alpha-beta  T2 =       0.4708898666D+00 E2=     -0.3274007431D+00
     beta-beta   T2 =       0.8880635847D-01 E2=     -0.5354096151D-01
 (S**2,0)=  0.78928D+00           (S**2,1)=  0.74700D+00
 Scaling Projection term by:   0.270000
 E(PUHF)=      -0.34558495653D+03        E(PMP2)=      -0.34601229531D+03
 E2(B2PLYPD3) =    -0.4346632764D+00 E(B2PLYPD3) =    -0.34601123041515D+03
 G2DrvN: will do    17 centers at a time, making    1 passes.
 Calling FoFCou, ICntrl=  3107 FMM=F I1Cent=   0 AccDes= 0.00D+00.
 End of G2Drv F.D. properties file   721 does not exist.
 End of G2Drv F.D. properties file   722 does not exist.
 End of G2Drv F.D. properties file   788 does not exist.
          IDoAtm=1111111111111111
          Differentiating once with respect to electric field.
                with respect to dipole field.
          Differentiating once with respect to nuclear coordinates.
 Keep R1 and R2 ints in memory in canonical form, NReq=3251642446.
          There are    51 degrees of freedom in the 1st order CPHF.  IDoFFX=6 NUNeed=    51.
     48 vectors produced by pass  0 Test12= 3.33D-14 1.96D-09 XBig12= 1.10D+02 6.08D+00.
 AX will form    48 AO Fock derivatives at one time.
     48 vectors produced by pass  1 Test12= 3.33D-14 1.96D-09 XBig12= 1.90D+01 5.88D-01.
     48 vectors produced by pass  2 Test12= 3.33D-14 1.96D-09 XBig12= 8.72D-01 1.75D-01.
     48 vectors produced by pass  3 Test12= 3.33D-14 1.96D-09 XBig12= 1.08D-02 1.34D-02.
     48 vectors produced by pass  4 Test12= 3.33D-14 1.96D-09 XBig12= 1.47D-04 1.66D-03.
     48 vectors produced by pass  5 Test12= 3.33D-14 1.96D-09 XBig12= 1.73D-06 1.29D-04.
     48 vectors produced by pass  6 Test12= 3.33D-14 1.96D-09 XBig12= 1.65D-08 1.13D-05.
     25 vectors produced by pass  7 Test12= 3.33D-14 1.96D-09 XBig12= 1.21D-10 9.49D-07.
      4 vectors produced by pass  8 Test12= 3.33D-14 1.96D-09 XBig12= 9.11D-13 1.02D-07.
      2 vectors produced by pass  9 Test12= 3.33D-14 1.96D-09 XBig12= 7.10D-15 8.77D-09.
 InvSVY:  IOpt=1 It=  1 EMax= 3.55D-15
 Solved reduced A of dimension   367 with    51 vectors.
 End of Minotr F.D. properties file   721 does not exist.
 End of Minotr F.D. properties file   722 does not exist.
 End of Minotr F.D. properties file   788 does not exist.
 MDV= 10737418240.
 DoSCS=T DFT=T ScalE2(SS,OS)=  0.270000  0.270000
 Form MO integral derivatives with frozen-active canonical formalism.
 Discarding MO integrals.
 Reordered first order wavefunction length =    428928697
 In DefCFB: NBatch=  1 ICI= 28 ICA=309 LFMax= 78
            Large arrays: LIAPS=  8665386240 LIARS=  1611002400 words.
 In DefCFB: NBatch=  1 ICI= 28 ICA=309 LFMax= 78
            Large arrays: LIAPS=  8665386240 LIARS=  1611002400 words.
 Semi-Direct transformation.
 ModeAB=           4 MOrb=            28 LenV=   10734086395
 LASXX=    503301435 LTotXX=   503301435 LenRXX=  1014543915
 LTotAB=   511242480 MaxLAS=   628143936 LenRXY=           0
 NonZer=  1517845350 LenScr=  2285697024 LnRSAI=   628143936
 LnScr1=   945911808 LExtra=           0 Total=   4874296683
 MaxDsk=          -1 SrtSym=           T ITran=            4
 JobTyp=1 Pass  1:  I=   1 to  28.
 (rs|ai) integrals will be sorted in core.
 ModeAB=           4 MOrb=            27 LenV=   10734086395
 LASXX=    486308502 LTotXX=   486308502 LenRXX=   901306008
 LTotAB=   414997506 MaxLAS=   605710224 LenRXY=           0
 NonZer=  1387614510 LenScr=  2089584640 LnRSAI=   605710224
 LnScr1=   912129024 LExtra=           0 Total=   4508729896
 MaxDsk=          -1 SrtSym=           T ITran=            4
 JobTyp=2 Pass  1:  I=   1 to  27.
 (rs|ai) integrals will be sorted in core.
 SymMOI:  orbitals are not symmetric.
 DoSCS=T DFT=T ScalE2(SS,OS)=  0.270000  0.270000
 Spin components of T(2) and E(2):
     alpha-alpha T2 =       0.7915856088D-01 E2=     -0.5372157173D-01
     alpha-beta  T2 =       0.4708898666D+00 E2=     -0.3274007431D+00
     beta-beta   T2 =       0.8880635847D-01 E2=     -0.5354096151D-01
 E2(B2PLYPD3) =    -0.4346632764D+00 E(B2PLYPD3) =    -0.34601123041515D+03
 (S**2,0)=  0.78928D+00           (S**2,1)=  0.74700D+00
 Scaling Projection term by:   0.270000
 E(PUHF)=      -0.34558495653D+03        E(PMP2)=      -0.34601229531D+03
          IDoAtm=1111111111111111
          Differentiating once with respect to electric field.
                with respect to dipole field.
          Differentiating once with respect to nuclear coordinates.
 Keep R1 and R2 ints in memory in canonical form, NReq=3251778068.
          There are     1 degrees of freedom in the 1st order CPHF.  IDoFFX=0 NUNeed=     1.
 LinEq1:  Iter=  0 NonCon=     1 RMS=9.79D-04 Max=5.50D-02 NDo=     1
 AX will form     1 AO Fock derivatives at one time.
 LinEq1:  Iter=  1 NonCon=     1 RMS=3.60D-04 Max=8.16D-03 NDo=     1
 LinEq1:  Iter=  2 NonCon=     1 RMS=2.52D-04 Max=8.63D-03 NDo=     1
 LinEq1:  Iter=  3 NonCon=     1 RMS=1.69D-04 Max=6.97D-03 NDo=     1
 LinEq1:  Iter=  4 NonCon=     1 RMS=9.33D-05 Max=3.35D-03 NDo=     1
 LinEq1:  Iter=  5 NonCon=     1 RMS=6.75D-05 Max=2.72D-03 NDo=     1
 LinEq1:  Iter=  6 NonCon=     1 RMS=3.07D-05 Max=9.17D-04 NDo=     1
 LinEq1:  Iter=  7 NonCon=     1 RMS=9.31D-06 Max=2.38D-04 NDo=     1
 LinEq1:  Iter=  8 NonCon=     1 RMS=5.93D-06 Max=1.71D-04 NDo=     1
 LinEq1:  Iter=  9 NonCon=     1 RMS=3.89D-06 Max=8.29D-05 NDo=     1
 LinEq1:  Iter= 10 NonCon=     1 RMS=2.03D-06 Max=4.08D-05 NDo=     1
 LinEq1:  Iter= 11 NonCon=     1 RMS=9.28D-07 Max=2.13D-05 NDo=     1
 LinEq1:  Iter= 12 NonCon=     1 RMS=3.30D-07 Max=6.03D-06 NDo=     1
 LinEq1:  Iter= 13 NonCon=     1 RMS=1.07D-07 Max=2.54D-06 NDo=     1
 LinEq1:  Iter= 14 NonCon=     1 RMS=3.26D-08 Max=1.36D-06 NDo=     1
 LinEq1:  Iter= 15 NonCon=     1 RMS=1.15D-08 Max=6.24D-07 NDo=     1
 LinEq1:  Iter= 16 NonCon=     1 RMS=4.62D-09 Max=2.21D-07 NDo=     1
 LinEq1:  Iter= 17 NonCon=     1 RMS=2.32D-09 Max=1.06D-07 NDo=     1
 LinEq1:  Iter= 18 NonCon=     1 RMS=9.59D-10 Max=3.96D-08 NDo=     1
 LinEq1:  Iter= 19 NonCon=     1 RMS=3.96D-10 Max=1.27D-08 NDo=     1
 LinEq1:  Iter= 20 NonCon=     1 RMS=1.44D-10 Max=3.69D-09 NDo=     1
 LinEq1:  Iter= 21 NonCon=     1 RMS=5.63D-11 Max=1.07D-09 NDo=     1
 LinEq1:  Iter= 22 NonCon=     1 RMS=2.59D-11 Max=1.12D-09 NDo=     1
 LinEq1:  Iter= 23 NonCon=     0 RMS=9.98D-12 Max=2.03D-10 NDo=     1
 Linear equations converged to 1.000D-10 1.000D-09 after    23 iterations.
 End of Minotr F.D. properties file   721 does not exist.
 End of Minotr F.D. properties file   722 does not exist.
 End of Minotr F.D. properties file   788 does not exist.
 Symmetrizing basis deriv contribution to polar:
 IMax=3 JMax=2 DiffMx= 0.00D+00
 G2DrvN: will do    17 centers at a time, making    1 passes.
 Calling FoFCou, ICntrl=  3107 FMM=F I1Cent=   0 AccDes= 0.00D+00.
 End of G2Drv F.D. properties file   721 does not exist.
 End of G2Drv F.D. properties file   722 does not exist.
 End of G2Drv F.D. properties file   788 does not exist.
 DoSCS=T DFT=T ScalE2(SS,OS)=  0.270000  0.270000
 R2 and R3 integrals will be kept in memory, NReq=  5268037470.
 DD1Dir will call FoFMem   1 times, MxPair=      2242
 NAB=   756 NAA=   378 NBB=   351.
 Discarding MO integrals.

 **********************************************************************

            Population analysis using the SCF Density.

 **********************************************************************

 Orbital symmetries:
 Alpha Orbitals:
       Occupied  (A) (A) (A) (A) (A) (A) (A) (A) (A) (A) (A) (A)
                 (A) (A) (A) (A) (A) (A) (A) (A) (A) (A) (A) (A)
                 (A) (A) (A) (A)
       Virtual   (A) (A) (A) (A) (A) (A) (A) (A) (A) (A) (A) (A)
                 (A) (A) (A) (A) (A) (A) (A) (A) (A) (A) (A) (A)
                 (A) (A) (A) (A) (A) (A) (A) (A) (A) (A) (A) (A)
                 (A) (A) (A) (A) (A) (A) (A) (A) (A) (A) (A) (A)
                 (A) (A) (A) (A) (A) (A) (A) (A) (A) (A) (A) (A)
                 (A) (A) (A) (A) (A) (A) (A) (A) (A) (A) (A) (A)
                 (A) (A) (A) (A) (A) (A) (A) (A) (A) (A) (A) (A)
                 (A) (A) (A) (A) (A) (A) (A) (A) (A) (A) (A) (A)
                 (A) (A) (A) (A) (A) (A) (A) (A) (A) (A) (A) (A)
                 (A) (A) (A) (A) (A) (A) (A) (A) (A) (A) (A) (A)
                 (A) (A) (A) (A) (A) (A) (A) (A) (A) (A) (A) (A)
                 (A) (A) (A) (A) (A) (A) (A) (A) (A) (A) (A) (A)
                 (A) (A) (A) (A) (A) (A) (A) (A) (A) (A) (A) (A)
                 (A) (A) (A) (A) (A) (A) (A) (A) (A) (A) (A) (A)
                 (A) (A) (A) (A) (A) (A) (A) (A) (A) (A) (A) (A)
                 (A) (A) (A) (A) (A) (A) (A) (A) (A) (A) (A) (A)
                 (A) (A) (A) (A) (A) (A) (A) (A) (A) (A) (A) (A)
                 (A) (A) (A) (A) (A) (A) (A) (A) (A) (A) (A) (A)
                 (A) (A) (A) (A) (A) (A) (A) (A) (A) (A) (A) (A)
                 (A) (A) (A) (A) (A) (A) (A) (A) (A) (A) (A) (A)
                 (A) (A) (A) (A) (A) (A) (A) (A) (A) (A) (A) (A)
                 (A) (A) (A) (A) (A) (A) (A) (A) (A) (A) (A) (A)
                 (A) (A) (A) (A) (A) (A) (A) (A) (A) (A) (A) (A)
                 (A) (A) (A) (A) (A) (A) (A) (A) (A) (A) (A) (A)
                 (A) (A) (A) (A) (A) (A) (A) (A) (A) (A) (A) (A)
                 (A) (A) (A) (A) (A) (A) (A) (A)
 Beta  Orbitals:
       Occupied  (A) (A) (A) (A) (A) (A) (A) (A) (A) (A) (A) (A)
                 (A) (A) (A) (A) (A) (A) (A) (A) (A) (A) (A) (A)
                 (A) (A) (A)
       Virtual   (A) (A) (A) (A) (A) (A) (A) (A) (A) (A) (A) (A)
                 (A) (A) (A) (A) (A) (A) (A) (A) (A) (A) (A) (A)
                 (A) (A) (A) (A) (A) (A) (A) (A) (A) (A) (A) (A)
                 (A) (A) (A) (A) (A) (A) (A) (A) (A) (A) (A) (A)
                 (A) (A) (A) (A) (A) (A) (A) (A) (A) (A) (A) (A)
                 (A) (A) (A) (A) (A) (A) (A) (A) (A) (A) (A) (A)
                 (A) (A) (A) (A) (A) (A) (A) (A) (A) (A) (A) (A)
                 (A) (A) (A) (A) (A) (A) (A) (A) (A) (A) (A) (A)
                 (A) (A) (A) (A) (A) (A) (A) (A) (A) (A) (A) (A)
                 (A) (A) (A) (A) (A) (A) (A) (A) (A) (A) (A) (A)
                 (A) (A) (A) (A) (A) (A) (A) (A) (A) (A) (A) (A)
                 (A) (A) (A) (A) (A) (A) (A) (A) (A) (A) (A) (A)
                 (A) (A) (A) (A) (A) (A) (A) (A) (A) (A) (A) (A)
                 (A) (A) (A) (A) (A) (A) (A) (A) (A) (A) (A) (A)
                 (A) (A) (A) (A) (A) (A) (A) (A) (A) (A) (A) (A)
                 (A) (A) (A) (A) (A) (A) (A) (A) (A) (A) (A) (A)
                 (A) (A) (A) (A) (A) (A) (A) (A) (A) (A) (A) (A)
                 (A) (A) (A) (A) (A) (A) (A) (A) (A) (A) (A) (A)
                 (A) (A) (A) (A) (A) (A) (A) (A) (A) (A) (A) (A)
                 (A) (A) (A) (A) (A) (A) (A) (A) (A) (A) (A) (A)
                 (A) (A) (A) (A) (A) (A) (A) (A) (A) (A) (A) (A)
                 (A) (A) (A) (A) (A) (A) (A) (A) (A) (A) (A) (A)
                 (A) (A) (A) (A) (A) (A) (A) (A) (A) (A) (A) (A)
                 (A) (A) (A) (A) (A) (A) (A) (A) (A) (A) (A) (A)
                 (A) (A) (A) (A) (A) (A) (A) (A) (A) (A) (A) (A)
                 (A) (A) (A) (A) (A) (A) (A) (A) (A)
 The electronic state is 2-A.
 Alpha  occ. eigenvalues --  -19.79085 -19.78901 -10.66153 -10.65826 -10.63141
 Alpha  occ. eigenvalues --  -10.62661 -10.62400  -1.28244  -1.01815  -0.93714
 Alpha  occ. eigenvalues --   -0.85837  -0.77682  -0.75833  -0.63113  -0.61024
 Alpha  occ. eigenvalues --   -0.56686  -0.55707  -0.54692  -0.52047  -0.49288
 Alpha  occ. eigenvalues --   -0.48043  -0.45189  -0.44268  -0.39946  -0.36727
 Alpha  occ. eigenvalues --   -0.35293  -0.33476  -0.28709
 Alpha virt. eigenvalues --    0.06895   0.08924   0.09614   0.10628   0.11201
 Alpha virt. eigenvalues --    0.12178   0.13603   0.15415   0.15457   0.15723
 Alpha virt. eigenvalues --    0.18812   0.20021   0.22947   0.25007   0.26150
 Alpha virt. eigenvalues --    0.29058   0.30459   0.31178   0.32459   0.34094
 Alpha virt. eigenvalues --    0.35030   0.35726   0.40366   0.41556   0.44635
 Alpha virt. eigenvalues --    0.45830   0.46741   0.47788   0.48642   0.49800
 Alpha virt. eigenvalues --    0.50888   0.52230   0.52643   0.53147   0.54209
 Alpha virt. eigenvalues --    0.54619   0.55486   0.56217   0.57895   0.60347
 Alpha virt. eigenvalues --    0.60794   0.64556   0.65284   0.67488   0.67995
 Alpha virt. eigenvalues --    0.69484   0.73382   0.74174   0.75295   0.77317
 Alpha virt. eigenvalues --    0.80569   0.84891   0.85538   0.86515   0.89132
 Alpha virt. eigenvalues --    0.90765   0.91966   0.93347   0.95728   0.96062
 Alpha virt. eigenvalues --    0.97897   0.98448   1.00009   1.01450   1.02948
 Alpha virt. eigenvalues --    1.04006   1.08574   1.10070   1.11117   1.11366
 Alpha virt. eigenvalues --    1.14262   1.14688   1.17163   1.18408   1.19151
 Alpha virt. eigenvalues --    1.19832   1.22288   1.24711   1.26707   1.27782
 Alpha virt. eigenvalues --    1.29696   1.30236   1.35191   1.35777   1.37154
 Alpha virt. eigenvalues --    1.39132   1.39788   1.40272   1.40944   1.42431
 Alpha virt. eigenvalues --    1.43182   1.47680   1.48300   1.50670   1.52878
 Alpha virt. eigenvalues --    1.54041   1.57753   1.62216   1.63444   1.64972
 Alpha virt. eigenvalues --    1.66228   1.70482   1.73854   1.79049   1.79390
 Alpha virt. eigenvalues --    1.88456   1.92825   2.00645   2.03964   2.12203
 Alpha virt. eigenvalues --    2.15053   2.18787   2.22450   2.24122   2.27728
 Alpha virt. eigenvalues --    2.29209   2.35274   2.36466   2.39797   2.41860
 Alpha virt. eigenvalues --    2.44218   2.46248   2.47332   2.50512   2.53564
 Alpha virt. eigenvalues --    2.56013   2.56679   2.58666   2.59164   2.62555
 Alpha virt. eigenvalues --    2.64063   2.65340   2.68649   2.69780   2.73997
 Alpha virt. eigenvalues --    2.76538   2.78832   2.81854   2.84278   2.87670
 Alpha virt. eigenvalues --    2.88552   2.90096   2.91378   2.92820   2.93633
 Alpha virt. eigenvalues --    2.94554   2.95477   2.96251   2.99460   3.00160
 Alpha virt. eigenvalues --    3.02157   3.03195   3.03939   3.05757   3.05971
 Alpha virt. eigenvalues --    3.07881   3.09589   3.10340   3.10569   3.12358
 Alpha virt. eigenvalues --    3.13511   3.14264   3.14362   3.16141   3.17768
 Alpha virt. eigenvalues --    3.18959   3.21793   3.22098   3.23662   3.26188
 Alpha virt. eigenvalues --    3.28300   3.29510   3.32460   3.34984   3.36181
 Alpha virt. eigenvalues --    3.40788   3.41829   3.42765   3.43612   3.46188
 Alpha virt. eigenvalues --    3.48530   3.49712   3.51414   3.53487   3.55536
 Alpha virt. eigenvalues --    3.57241   3.57912   3.59845   3.61650   3.64096
 Alpha virt. eigenvalues --    3.65515   3.66672   3.69497   3.74081   3.75703
 Alpha virt. eigenvalues --    3.80260   3.83496   3.85870   3.86964   3.88495
 Alpha virt. eigenvalues --    3.90253   3.92237   3.93379   3.94135   3.96198
 Alpha virt. eigenvalues --    3.97111   3.98878   4.00807   4.01565   4.04406
 Alpha virt. eigenvalues --    4.06460   4.08411   4.10211   4.10981   4.14277
 Alpha virt. eigenvalues --    4.15589   4.18313   4.18773   4.19484   4.23402
 Alpha virt. eigenvalues --    4.24234   4.25288   4.26000   4.27864   4.32035
 Alpha virt. eigenvalues --    4.33940   4.36021   4.38174   4.38579   4.40389
 Alpha virt. eigenvalues --    4.44780   4.46451   4.48828   4.51680   4.55926
 Alpha virt. eigenvalues --    4.60763   4.63297   4.66089   4.69219   4.74377
 Alpha virt. eigenvalues --    4.77690   4.82247   4.83295   4.88191   4.94862
 Alpha virt. eigenvalues --    4.98031   4.99825   5.00725   5.02775   5.04791
 Alpha virt. eigenvalues --    5.06880   5.11669   5.12237   5.20162   5.22362
 Alpha virt. eigenvalues --    5.28729   5.30657   5.31656   5.34121   5.34357
 Alpha virt. eigenvalues --    5.35776   5.36676   5.37756   5.40187   5.41344
 Alpha virt. eigenvalues --    5.47399   5.48067   5.49326   5.51341   5.58241
 Alpha virt. eigenvalues --    5.62507   5.66981   5.77052   5.81908   5.84609
 Alpha virt. eigenvalues --    5.93833   5.96780   5.97827   6.00868   6.02218
 Alpha virt. eigenvalues --    6.05253   6.05940   6.10158   6.15904   6.22998
 Alpha virt. eigenvalues --    6.27155   6.33495   6.39629   6.40789   6.65324
 Alpha virt. eigenvalues --    6.73039   6.75374   6.81724   6.96405   7.05248
 Alpha virt. eigenvalues --    7.06990   7.15672   7.43967   7.47529   7.58488
 Alpha virt. eigenvalues --    7.72466   8.59123   9.84174  10.68717  13.04066
 Alpha virt. eigenvalues --   13.43541  13.77723  16.84622
  Beta  occ. eigenvalues --  -19.78809 -19.77202 -10.65840 -10.65103 -10.63501
  Beta  occ. eigenvalues --  -10.62456 -10.62137  -1.26114  -0.98745  -0.92359
  Beta  occ. eigenvalues --   -0.84949  -0.77196  -0.74456  -0.61940  -0.58127
  Beta  occ. eigenvalues --   -0.55994  -0.54383  -0.54289  -0.50414  -0.48567
  Beta  occ. eigenvalues --   -0.45641  -0.44889  -0.43361  -0.36623  -0.35337
  Beta  occ. eigenvalues --   -0.33263  -0.31227
  Beta virt. eigenvalues --   -0.06401   0.07071   0.08945   0.10301   0.11247
  Beta virt. eigenvalues --    0.11299   0.12338   0.14084   0.15530   0.15708
  Beta virt. eigenvalues --    0.16030   0.19185   0.20422   0.23460   0.25297
  Beta virt. eigenvalues --    0.26443   0.29275   0.30994   0.31816   0.33201
  Beta virt. eigenvalues --    0.34471   0.35277   0.36625   0.40678   0.41985
  Beta virt. eigenvalues --    0.44820   0.46431   0.47597   0.48132   0.49165
  Beta virt. eigenvalues --    0.50264   0.50927   0.52292   0.52772   0.53503
  Beta virt. eigenvalues --    0.54623   0.55094   0.55599   0.56919   0.58744
  Beta virt. eigenvalues --    0.60734   0.61279   0.65028   0.65552   0.67934
  Beta virt. eigenvalues --    0.68229   0.69941   0.73901   0.74304   0.75878
  Beta virt. eigenvalues --    0.77872   0.80968   0.84957   0.86503   0.86977
  Beta virt. eigenvalues --    0.89243   0.90938   0.92171   0.93721   0.95909
  Beta virt. eigenvalues --    0.96318   0.98126   0.98815   1.00482   1.01632
  Beta virt. eigenvalues --    1.03072   1.04123   1.08738   1.10447   1.11315
  Beta virt. eigenvalues --    1.11519   1.14755   1.14918   1.17319   1.18549
  Beta virt. eigenvalues --    1.19639   1.20072   1.22748   1.24826   1.27149
  Beta virt. eigenvalues --    1.28180   1.29927   1.30559   1.35315   1.36120
  Beta virt. eigenvalues --    1.37443   1.39336   1.40131   1.40475   1.41082
  Beta virt. eigenvalues --    1.42586   1.43477   1.48207   1.48459   1.51205
  Beta virt. eigenvalues --    1.53441   1.54454   1.58044   1.62632   1.63639
  Beta virt. eigenvalues --    1.65315   1.66750   1.71150   1.74655   1.79361
  Beta virt. eigenvalues --    1.80346   1.90430   1.93726   2.01303   2.04848
  Beta virt. eigenvalues --    2.12612   2.15507   2.20169   2.22761   2.24524
  Beta virt. eigenvalues --    2.28989   2.30070   2.35447   2.36603   2.40067
  Beta virt. eigenvalues --    2.42342   2.44579   2.46768   2.47743   2.50608
  Beta virt. eigenvalues --    2.53878   2.56375   2.57126   2.59142   2.59858
  Beta virt. eigenvalues --    2.62819   2.64335   2.65860   2.68942   2.70308
  Beta virt. eigenvalues --    2.74357   2.77235   2.79490   2.82286   2.84465
  Beta virt. eigenvalues --    2.87774   2.89051   2.90252   2.91524   2.92978
  Beta virt. eigenvalues --    2.94148   2.94867   2.96018   2.96960   2.99667
  Beta virt. eigenvalues --    3.00500   3.02301   3.03678   3.04161   3.06035
  Beta virt. eigenvalues --    3.06621   3.08382   3.09611   3.10561   3.11100
  Beta virt. eigenvalues --    3.12698   3.13632   3.14356   3.14663   3.16436
  Beta virt. eigenvalues --    3.18002   3.19008   3.21915   3.22365   3.23746
  Beta virt. eigenvalues --    3.26455   3.28463   3.29928   3.33499   3.35336
  Beta virt. eigenvalues --    3.36623   3.41401   3.42083   3.42982   3.44023
  Beta virt. eigenvalues --    3.46817   3.49005   3.50064   3.51524   3.53647
  Beta virt. eigenvalues --    3.55783   3.57568   3.58160   3.59999   3.61795
  Beta virt. eigenvalues --    3.64194   3.65999   3.67157   3.70093   3.74150
  Beta virt. eigenvalues --    3.75822   3.81091   3.83715   3.86200   3.87220
  Beta virt. eigenvalues --    3.88813   3.90427   3.92400   3.93596   3.94186
  Beta virt. eigenvalues --    3.96073   3.97379   3.99352   4.00833   4.01873
  Beta virt. eigenvalues --    4.04743   4.06709   4.08334   4.10350   4.11099
  Beta virt. eigenvalues --    4.14346   4.15837   4.18458   4.18786   4.19549
  Beta virt. eigenvalues --    4.23437   4.24396   4.25494   4.26400   4.28207
  Beta virt. eigenvalues --    4.32020   4.34243   4.36061   4.38442   4.39061
  Beta virt. eigenvalues --    4.40559   4.45079   4.47102   4.48933   4.52180
  Beta virt. eigenvalues --    4.56428   4.61219   4.64036   4.66998   4.69744
  Beta virt. eigenvalues --    4.74856   4.78310   4.82436   4.83591   4.88787
  Beta virt. eigenvalues --    4.95050   4.98295   5.00013   5.00885   5.03028
  Beta virt. eigenvalues --    5.05102   5.07031   5.12238   5.12923   5.20959
  Beta virt. eigenvalues --    5.23092   5.29145   5.30899   5.32027   5.34296
  Beta virt. eigenvalues --    5.34573   5.36064   5.37306   5.38370   5.40678
  Beta virt. eigenvalues --    5.41520   5.47731   5.48264   5.49457   5.51599
  Beta virt. eigenvalues --    5.58678   5.62922   5.67790   5.77577   5.82132
  Beta virt. eigenvalues --    5.85831   5.93949   5.97453   5.98291   6.01398
  Beta virt. eigenvalues --    6.02451   6.05818   6.06574   6.11012   6.16099
  Beta virt. eigenvalues --    6.24456   6.28352   6.33822   6.40083   6.42139
  Beta virt. eigenvalues --    6.66280   6.76244   6.77603   6.83070   6.98430
  Beta virt. eigenvalues --    7.06716   7.08651   7.17911   7.44147   7.49698
  Beta virt. eigenvalues --    7.60170   7.73341   8.59267   9.85285  10.69753
  Beta virt. eigenvalues --   13.04813  13.43540  13.77799  16.84809
          Condensed to atoms (all electrons):
               1          2          3          4          5          6
     1  C    5.062026   0.421517  -0.002278  -0.000447   0.000395  -0.000628
     2  H    0.421517   0.533230  -0.000014   0.000030   0.000018   0.000007
     3  C   -0.002278  -0.000014   4.603776   0.394571   0.397062   0.414075
     4  H   -0.000447   0.000030   0.394571   0.669051  -0.034292  -0.056850
     5  H    0.000395   0.000018   0.397062  -0.034292   0.589805  -0.028771
     6  H   -0.000628   0.000007   0.414075  -0.056850  -0.028771   0.611058
     7  O    0.003558   0.000401   0.296317  -0.048164  -0.025577  -0.037751
     8  O   -0.079482   0.000062  -0.040722  -0.002051   0.006708   0.003663
     9  H    0.221625  -0.010908   0.002938   0.002946  -0.000972   0.000934
    10  C    0.401800  -0.046873  -0.001787   0.001010   0.000178   0.000530
    11  C   -0.095203  -0.003526  -0.003023  -0.002249   0.000321   0.000213
    12  H    0.000805  -0.000077  -0.000042  -0.000039   0.000040  -0.000005
    13  C    0.347315  -0.030821   0.000074  -0.000578   0.000024   0.000084
    14  H   -0.040004  -0.003225   0.000038   0.000007  -0.000004   0.000011
    15  H   -0.035249  -0.003506  -0.000016   0.000097   0.000002  -0.000005
    16  H   -0.033861   0.005860  -0.000123  -0.000123   0.000031   0.000066
               7          8          9         10         11         12
     1  C    0.003558  -0.079482   0.221625   0.401800  -0.095203   0.000805
     2  H    0.000401   0.000062  -0.010908  -0.046873  -0.003526  -0.000077
     3  C    0.296317  -0.040722   0.002938  -0.001787  -0.003023  -0.000042
     4  H   -0.048164  -0.002051   0.002946   0.001010  -0.002249  -0.000039
     5  H   -0.025577   0.006708  -0.000972   0.000178   0.000321   0.000040
     6  H   -0.037751   0.003663   0.000934   0.000530   0.000213  -0.000005
     7  O    7.930377   0.073200  -0.024184   0.000657   0.003347   0.000048
     8  O    0.073200   8.075874   0.180313  -0.004307   0.001761   0.000034
     9  H   -0.024184   0.180313   0.433652   0.002931  -0.001663  -0.000025
    10  C    0.000657  -0.004307   0.002931   4.978391   0.796249  -0.056317
    11  C    0.003347   0.001761  -0.001663   0.796249   5.079578   0.413029
    12  H    0.000048   0.000034  -0.000025  -0.056317   0.413029   0.472232
    13  C    0.000266   0.004871  -0.013464  -0.063631  -0.001739  -0.000082
    14  H   -0.000021   0.000826  -0.002357   0.009166   0.000073   0.000004
    15  H   -0.000031   0.000002   0.002954  -0.001083   0.002350   0.000023
    16  H    0.000074   0.001296  -0.003529  -0.001825   0.001943   0.000008
              13         14         15         16
     1  C    0.347315  -0.040004  -0.035249  -0.033861
     2  H   -0.030821  -0.003225  -0.003506   0.005860
     3  C    0.000074   0.000038  -0.000016  -0.000123
     4  H   -0.000578   0.000007   0.000097  -0.000123
     5  H    0.000024  -0.000004   0.000002   0.000031
     6  H    0.000084   0.000011  -0.000005   0.000066
     7  O    0.000266  -0.000021  -0.000031   0.000074
     8  O    0.004871   0.000826   0.000002   0.001296
     9  H   -0.013464  -0.002357   0.002954  -0.003529
    10  C   -0.063631   0.009166  -0.001083  -0.001825
    11  C   -0.001739   0.000073   0.002350   0.001943
    12  H   -0.000082   0.000004   0.000023   0.000008
    13  C    4.821575   0.410724   0.398515   0.406152
    14  H    0.410724   0.570671  -0.031681  -0.025308
    15  H    0.398515  -0.031681   0.587656  -0.030325
    16  H    0.406152  -0.025308  -0.030325   0.570382
          Atomic-Atomic Spin Densities.
               1          2          3          4          5          6
     1  C    0.565993   0.001677   0.001175  -0.004280   0.000036   0.000790
     2  H    0.001677  -0.022300  -0.000054   0.000164  -0.000003  -0.000026
     3  C    0.001175  -0.000054  -0.007259   0.001073   0.000865  -0.000529
     4  H   -0.004280   0.000164   0.001073   0.005376  -0.000687  -0.001215
     5  H    0.000036  -0.000003   0.000865  -0.000687  -0.001895   0.000602
     6  H    0.000790  -0.000026  -0.000529  -0.001215   0.000602   0.001453
     7  O    0.010444  -0.000542   0.001583  -0.001973   0.000285  -0.000451
     8  O   -0.071548   0.003044  -0.002966   0.004100  -0.000186   0.000235
     9  H    0.056357   0.002048   0.001246  -0.003453   0.000113   0.001187
    10  C   -0.012916   0.002534  -0.001294   0.002403  -0.000107  -0.000276
    11  C   -0.012143  -0.000425  -0.001098   0.002569  -0.000039  -0.000164
    12  H   -0.000100   0.000016   0.000023  -0.000013  -0.000000   0.000003
    13  C   -0.024712   0.002704  -0.000148   0.000622  -0.000006  -0.000099
    14  H   -0.002744   0.000432  -0.000009   0.000052  -0.000000  -0.000011
    15  H   -0.010169  -0.001479   0.000021  -0.000128   0.000000   0.000009
    16  H   -0.003616   0.000161  -0.000091   0.000528  -0.000004  -0.000073
               7          8          9         10         11         12
     1  C    0.010444  -0.071548   0.056357  -0.012916  -0.012143  -0.000100
     2  H   -0.000542   0.003044   0.002048   0.002534  -0.000425   0.000016
     3  C    0.001583  -0.002966   0.001246  -0.001294  -0.001098   0.000023
     4  H   -0.001973   0.004100  -0.003453   0.002403   0.002569  -0.000013
     5  H    0.000285  -0.000186   0.000113  -0.000107  -0.000039  -0.000000
     6  H   -0.000451   0.000235   0.001187  -0.000276  -0.000164   0.000003
     7  O    0.090767  -0.051271   0.010014  -0.002436  -0.002472   0.000013
     8  O   -0.051271   0.597969  -0.046451   0.006528   0.000909  -0.000013
     9  H    0.010014  -0.046451  -0.100136  -0.001008  -0.001694  -0.000027
    10  C   -0.002436   0.006528  -0.001008  -0.213450   0.006639  -0.001536
    11  C   -0.002472   0.000909  -0.001694   0.006639   0.317634   0.003175
    12  H    0.000013  -0.000013  -0.000027  -0.001536   0.003175  -0.011665
    13  C   -0.000488   0.005220  -0.001697   0.005870   0.000620   0.000009
    14  H   -0.000029   0.000555  -0.000289  -0.000185  -0.000037  -0.000000
    15  H    0.000041  -0.000491   0.000357   0.000288   0.000954  -0.000003
    16  H   -0.000132   0.000896  -0.000419   0.000279  -0.000192   0.000002
              13         14         15         16
     1  C   -0.024712  -0.002744  -0.010169  -0.003616
     2  H    0.002704   0.000432  -0.001479   0.000161
     3  C   -0.000148  -0.000009   0.000021  -0.000091
     4  H    0.000622   0.000052  -0.000128   0.000528
     5  H   -0.000006  -0.000000   0.000000  -0.000004
     6  H   -0.000099  -0.000011   0.000009  -0.000073
     7  O   -0.000488  -0.000029   0.000041  -0.000132
     8  O    0.005220   0.000555  -0.000491   0.000896
     9  H   -0.001697  -0.000289   0.000357  -0.000419
    10  C    0.005870  -0.000185   0.000288   0.000279
    11  C    0.000620  -0.000037   0.000954  -0.000192
    12  H    0.000009  -0.000000  -0.000003   0.000002
    13  C   -0.024358   0.003480   0.005072   0.003131
    14  H    0.003480   0.002934  -0.002091   0.000524
    15  H    0.005072  -0.002091   0.037861  -0.003753
    16  H    0.003131   0.000524  -0.003753   0.006708
 Mulliken charges and spin densities:
               1          2
     1  C   -0.171889   0.494245
     2  H    0.137825  -0.012052
     3  C   -0.060846  -0.007462
     4  H    0.077081   0.005139
     5  H    0.095031  -0.001026
     6  H    0.093367   0.001435
     7  O   -0.172516   0.053353
     8  O   -0.222050   0.446530
     9  H    0.208808  -0.083852
    10  C   -0.015087  -0.208666
    11  C   -0.191462   0.314236
    12  H    0.170366  -0.010117
    13  C   -0.279285  -0.024782
    14  H    0.111080   0.002581
    15  H    0.110297   0.026488
    16  H    0.109282   0.003950
 Sum of Mulliken charges =  -0.00000   1.00000
 Mulliken charges and spin densities with hydrogens summed into heavy atoms:
               1          2
     1  C   -0.034064   0.482193
     3  C    0.204633  -0.001915
     7  O   -0.172516   0.053353
     8  O   -0.013242   0.362678
    10  C   -0.015087  -0.208666
    11  C   -0.021096   0.304120
    13  C    0.051373   0.008237
 APT charges:
               1
     1  C    0.592522
     2  H   -0.056773
     3  C    0.416804
     4  H   -0.023052
     5  H   -0.004160
     6  H   -0.031841
     7  O   -0.400000
     8  O    0.206038
     9  H   -0.443874
    10  C   -0.176845
    11  C   -0.251742
    12  H    0.217014
    13  C   -0.031886
    14  H   -0.001893
    15  H   -0.015450
    16  H    0.005138
 Sum of APT charges =  -0.00000
 APT charges with hydrogens summed into heavy atoms:
               1
     1  C    0.535749
     3  C    0.357751
     7  O   -0.400000
     8  O   -0.237836
    10  C   -0.176845
    11  C   -0.034727
    13  C   -0.044092
 Electronic spatial extent (au):  <R**2>=            978.5647
 Charge=              0.0000 electrons
 Dipole moment (field-independent basis, Debye):
    X=              1.1710    Y=              0.9425    Z=              1.6738  Tot=              2.2497
 Quadrupole moment (field-independent basis, Debye-Ang):
   XX=            -41.4970   YY=            -39.6348   ZZ=            -43.9583
   XY=             -4.3359   XZ=             -4.0625   YZ=              0.6123
 Traceless Quadrupole moment (field-independent basis, Debye-Ang):
   XX=              0.1997   YY=              2.0619   ZZ=             -2.2616
   XY=             -4.3359   XZ=             -4.0625   YZ=              0.6123
 Octapole moment (field-independent basis, Debye-Ang**2):
  XXX=            -19.8498  YYY=             15.8191  ZZZ=             -2.8735  XYY=             -1.0610
  XXY=             -4.5381  XXZ=              5.7405  XZZ=             -3.4974  YZZ=             -4.9218
  YYZ=              1.9890  XYZ=              1.5392
 Hexadecapole moment (field-independent basis, Debye-Ang**3):
 XXXX=           -724.4788 YYYY=           -324.8947 ZZZZ=           -141.2358 XXXY=            -19.0547
 XXXZ=            -10.1153 YYYX=              5.8760 YYYZ=              9.2795 ZZZX=             -0.0647
 ZZZY=              4.5337 XXYY=           -195.0551 XXZZ=           -149.3533 YYZZ=            -99.8633
 XXYZ=              1.6000 YYXZ=              1.0631 ZZXY=             -3.4063
 N-N= 2.898863930518D+02 E-N=-1.388333775347D+03  KE= 3.440658578545D+02
  Exact polarizability: 106.743   4.243  90.154  -2.218   2.476  54.605
 Approx polarizability:  91.897   0.384 108.143   0.129   6.587  63.940
                          Isotropic Fermi Contact Couplings
        Atom                 a.u.       MegaHertz       Gauss      10(-4) cm-1
     1  C(13)              0.07899      88.79878      31.68561      29.62008
     2  H(1)              -0.00289     -12.90551      -4.60501      -4.30482
     3  C(13)             -0.00483      -5.43298      -1.93862      -1.81225
     4  H(1)               0.00221       9.86840       3.52129       3.29174
     5  H(1)              -0.00015      -0.66483      -0.23723      -0.22176
     6  H(1)               0.00074       3.29515       1.17579       1.09914
     7  O(17)              0.02135     -12.94166      -4.61791      -4.31687
     8  O(17)              0.02938     -17.80765      -6.35421      -5.93999
     9  H(1)              -0.02175     -97.21054     -34.68714     -32.42595
    10  C(13)             -0.01276     -14.34788      -5.11968      -4.78594
    11  C(13)              0.00055       0.62131       0.22170       0.20725
    12  H(1)              -0.00266     -11.88498      -4.24086      -3.96440
    13  C(13)             -0.00876      -9.84433      -3.51270      -3.28372
    14  H(1)               0.00217       9.70690       3.46366       3.23787
    15  H(1)               0.01309      58.53244      20.88583      19.52432
    16  H(1)               0.00207       9.26657       3.30654       3.09099
 --------------------------------------------------------
       Center         ----  Spin Dipole Couplings  ----
                      3XX-RR        3YY-RR        3ZZ-RR
 --------------------------------------------------------
     1   Atom        0.473207     -0.195191     -0.278016
     2   Atom        0.000540     -0.025822      0.025282
     3   Atom       -0.001401     -0.001946      0.003347
     4   Atom       -0.003175     -0.000685      0.003860
     5   Atom        0.000927      0.000595     -0.001522
     6   Atom        0.001219     -0.004241      0.003022
     7   Atom        0.432056     -0.150879     -0.281177
     8   Atom        1.041996     -0.126871     -0.915125
     9   Atom        0.178756     -0.073271     -0.105485
    10   Atom       -0.048180      0.044138      0.004042
    11   Atom        0.212958     -0.095343     -0.117615
    12   Atom        0.000468      0.014307     -0.014775
    13   Atom        0.013100     -0.009926     -0.003175
    14   Atom       -0.000584      0.004645     -0.004061
    15   Atom        0.005509     -0.003563     -0.001946
    16   Atom       -0.002775     -0.004820      0.007595
 --------------------------------------------------------
                        XY            XZ            YZ
 --------------------------------------------------------
     1   Atom        0.255631     -0.019234     -0.006665
     2   Atom        0.006311     -0.015056      0.016442
     3   Atom       -0.004711     -0.005835      0.005433
     4   Atom       -0.000474     -0.002807      0.005659
     5   Atom       -0.003512     -0.003380      0.003678
     6   Atom       -0.001662     -0.006765      0.001537
     7   Atom        0.369822      0.063888      0.053112
     8   Atom        1.254112      0.058834      0.034547
     9   Atom        0.089238      0.002031      0.000938
    10   Atom       -0.004507      0.003362      0.008260
    11   Atom        0.040744     -0.011691      0.001282
    12   Atom       -0.000950     -0.001017      0.004155
    13   Atom       -0.003811      0.014038     -0.004582
    14   Atom       -0.005357      0.002619     -0.005010
    15   Atom       -0.000780      0.003990     -0.002419
    16   Atom       -0.000162      0.004282     -0.002876
 --------------------------------------------------------


 ---------------------------------------------------------------------------------
              Anisotropic Spin Dipole Couplings in Principal Axis System
 ---------------------------------------------------------------------------------

       Atom             a.u.   MegaHertz   Gauss  10(-4) cm-1        Axes

              Baa    -0.2818   -37.809   -13.491   -12.612 -0.3194  0.9466  0.0443
     1 C(13)  Bbb    -0.2785   -37.373   -13.335   -12.466  0.0372 -0.0342  0.9987
              Bcc     0.5603    75.181    26.827    25.078  0.9469  0.3206 -0.0243
 
              Baa    -0.0340   -18.125    -6.467    -6.046 -0.3058  0.8946 -0.3259
     2 H(1)   Bbb    -0.0010    -0.549    -0.196    -0.183  0.8817  0.3952  0.2575
              Bcc     0.0350    18.674     6.663     6.229 -0.3592  0.2086  0.9096
 
              Baa    -0.0064    -0.858    -0.306    -0.286  0.6971  0.7167  0.0179
     3 C(13)  Bbb    -0.0048    -0.641    -0.229    -0.214  0.5030 -0.5067  0.7002
              Bcc     0.0112     1.499     0.535     0.500 -0.5109  0.4791  0.7138
 
              Baa    -0.0053    -2.854    -1.018    -0.952 -0.5755  0.6068 -0.5483
     4 H(1)   Bbb    -0.0029    -1.563    -0.558    -0.521  0.7869  0.5934 -0.1693
              Bcc     0.0083     4.416     1.576     1.473 -0.2226  0.5289  0.8190
 
              Baa    -0.0044    -2.367    -0.845    -0.790  0.2388 -0.4588  0.8558
     5 H(1)   Bbb    -0.0027    -1.446    -0.516    -0.482  0.7510  0.6460  0.1367
              Bcc     0.0071     3.813     1.361     1.272  0.6156 -0.6101 -0.4989
 
              Baa    -0.0049    -2.614    -0.933    -0.872  0.6473  0.6287  0.4309
     6 H(1)   Bbb    -0.0044    -2.359    -0.842    -0.787 -0.3949  0.7602 -0.5159
              Bcc     0.0093     4.972     1.774     1.659 -0.6519  0.1638  0.7404
 
              Baa    -0.3382    24.471     8.732     8.163 -0.3773  0.8495 -0.3686
     7 O(17)  Bbb    -0.2805    20.298     7.243     6.771 -0.2368  0.2963  0.9253
              Bcc     0.6187   -44.768   -15.974   -14.933  0.8953  0.4364  0.0893
 
              Baa    -0.9267    67.053    23.926    22.366 -0.5262  0.8146  0.2441
     8 O(17)  Bbb    -0.9162    66.294    23.656    22.113  0.1110 -0.2188  0.9694
              Bcc     1.8429  -133.347   -47.582   -44.480  0.8431  0.5372  0.0247
 
              Baa    -0.1055   -56.301   -20.090   -18.780  0.0151 -0.0707  0.9974
     9 H(1)   Bbb    -0.1016   -54.235   -19.352   -18.091 -0.3029  0.9503  0.0719
              Bcc     0.2072   110.536    39.442    36.871  0.9529  0.3032  0.0071
 
              Baa    -0.0487    -6.531    -2.330    -2.179  0.9959  0.0548 -0.0721
    10 C(13)  Bbb     0.0027     0.369     0.132     0.123  0.0812 -0.1866  0.9791
              Bcc     0.0459     6.163     2.199     2.056 -0.0402  0.9809  0.1902
 
              Baa    -0.1184   -15.893    -5.671    -5.301  0.0531 -0.1485  0.9875
    11 C(13)  Bbb    -0.1002   -13.446    -4.798    -4.485 -0.1218  0.9805  0.1540
              Bcc     0.2186    29.339    10.469     9.787  0.9911  0.1285 -0.0340
 
              Baa    -0.0154    -8.220    -2.933    -2.742  0.0552 -0.1366  0.9891
    12 H(1)   Bbb     0.0004     0.232     0.083     0.078  0.9957  0.0814 -0.0443
              Bcc     0.0150     7.987     2.850     2.664 -0.0745  0.9873  0.1405
 
              Baa    -0.0131    -1.762    -0.629    -0.588 -0.2746  0.6658  0.6938
    13 C(13)  Bbb    -0.0090    -1.213    -0.433    -0.405  0.4531  0.7260 -0.5174
              Bcc     0.0222     2.975     1.061     0.992  0.8481 -0.1722  0.5010
 
              Baa    -0.0064    -3.390    -1.210    -1.131 -0.0520  0.3929  0.9181
    14 H(1)   Bbb    -0.0039    -2.062    -0.736    -0.688  0.8740  0.4627 -0.1485
              Bcc     0.0102     5.452     1.945     1.819 -0.4832  0.7947 -0.3675
 
              Baa    -0.0056    -3.009    -1.074    -1.004 -0.1912  0.7136  0.6740
    15 H(1)   Bbb    -0.0019    -0.995    -0.355    -0.332  0.4020  0.6834 -0.6094
              Bcc     0.0075     4.004     1.429     1.336  0.8954 -0.1544  0.4175
 
              Baa    -0.0058    -3.088    -1.102    -1.030 -0.3981  0.8624  0.3127
    16 H(1)   Bbb    -0.0039    -2.067    -0.738    -0.690  0.8590  0.4700 -0.2029
              Bcc     0.0097     5.155     1.840     1.720  0.3219 -0.1878  0.9279
 

 ---------------------------------------------------------------------------------

 Calling FoFJK, ICntrl=  10100127 FMM=F ISym2X=0 I1Cent= 0 IOpClX= 1 NMat=1 NMatS=1 NMatT=0.
 ***** Axes restored to original set *****
 -------------------------------------------------------------------
 Center     Atomic                   Forces (Hartrees/Bohr)
 Number     Number              X              Y              Z
 -------------------------------------------------------------------
      1        6          -0.000118442   -0.000555572    0.000471888
      2        1           0.000134185    0.000558550   -0.000392021
      3        6          -0.000000709    0.000000530   -0.000001311
      4        1          -0.000004269   -0.000000461   -0.000002081
      5        1          -0.000001335   -0.000000138    0.000000572
      6        1           0.000000432   -0.000000375    0.000000362
      7        8           0.000200740    0.000382167    0.000350932
      8        8          -0.000213190   -0.000386811   -0.000426630
      9        1           0.000002690    0.000002529   -0.000001026
     10        6          -0.000001226    0.000002234   -0.000000511
     11        6           0.000000348   -0.000003487   -0.000000545
     12        1           0.000000023    0.000001020    0.000000206
     13        6           0.000000696   -0.000000508   -0.000000835
     14        1           0.000001318   -0.000000136    0.000000384
     15        1          -0.000000183    0.000000124   -0.000000695
     16        1          -0.000001077    0.000000333    0.000001310
 -------------------------------------------------------------------
 Cartesian Forces:  Max     0.000558550 RMS     0.000189060
 FormGI is forming the generalized inverse of G from B-inverse, IUseBI=4.

 GradGradGradGradGradGradGradGradGradGradGradGradGradGradGradGradGradGrad
 Berny optimization.
 Internal  Forces:  Max     0.000738555 RMS     0.000134964
 Search for a saddle point.
 Step number   1 out of a maximum of  100
 All quantities printed in internal units (Hartrees-Bohrs-Radians)
 Swapping is turned off.
 Second derivative matrix not updated -- analytic derivatives used.
 ITU=  0
     Eigenvalues ---   -0.08375   0.00125   0.00168   0.00582   0.01822
     Eigenvalues ---    0.02962   0.03135   0.03579   0.03655   0.03902
     Eigenvalues ---    0.04486   0.04512   0.06363   0.07719   0.08385
     Eigenvalues ---    0.08464   0.08490   0.09850   0.10693   0.12083
     Eigenvalues ---    0.12339   0.13094   0.15236   0.16487   0.16615
     Eigenvalues ---    0.16769   0.18139   0.19422   0.26197   0.30193
     Eigenvalues ---    0.31834   0.33468   0.33943   0.34154   0.34283
     Eigenvalues ---    0.34583   0.34944   0.35492   0.37956   0.41126
     Eigenvalues ---    0.41625   1.03559
 Eigenvectors required to have negative eigenvalues:
                          R10       R2        R9        D4        D12
   1                    0.71299  -0.62071  -0.17195  -0.08595   0.07947
                          D5        R3        A14       D11       D6
   1                   -0.07905   0.07756   0.07553   0.07405  -0.07363
 RFO step:  Lambda0=2.279646819D-10 Lambda=-3.86960663D-04.
 Linear search not attempted -- option 19 set.
 Iteration  1 RMS(Cart)=  0.14292385 RMS(Int)=  0.01942356
 Iteration  2 RMS(Cart)=  0.06779201 RMS(Int)=  0.00109662
 Iteration  3 RMS(Cart)=  0.00195850 RMS(Int)=  0.00007857
 Iteration  4 RMS(Cart)=  0.00000246 RMS(Int)=  0.00007857
 Iteration  5 RMS(Cart)=  0.00000000 RMS(Int)=  0.00007857
 Variable       Old X    -DE/DX   Delta X   Delta X   Delta X     New X
                                 (Linear)    (Quad)   (Total)
    R1        2.05599   0.00000   0.00000  -0.00025  -0.00025   2.05573
    R2        2.50638  -0.00000   0.00000   0.00635   0.00635   2.51273
    R3        2.68182   0.00000   0.00000  -0.00291  -0.00291   2.67890
    R4        2.85980   0.00000   0.00000   0.00106   0.00106   2.86086
    R5        2.05715   0.00000   0.00000   0.00125   0.00125   2.05840
    R6        2.05521   0.00000   0.00000  -0.00007  -0.00007   2.05514
    R7        2.05679   0.00000   0.00000  -0.00022  -0.00022   2.05657
    R8        2.69474  -0.00001   0.00000  -0.00176  -0.00176   2.69298
    R9        2.63233  -0.00000   0.00000  -0.00110  -0.00109   2.63123
   R10        2.27416  -0.00000   0.00000  -0.00078  -0.00078   2.27338
   R11        2.28779   0.00000   0.00000   0.00049   0.00049   2.28828
   R12        2.00318  -0.00000   0.00000  -0.00003  -0.00003   2.00315
   R13        2.05623   0.00000   0.00000  -0.00004  -0.00004   2.05619
   R14        2.06290   0.00000   0.00000  -0.00003  -0.00003   2.06287
   R15        2.05554   0.00000   0.00000   0.00004   0.00004   2.05559
    A1        1.74466   0.00010   0.00000   0.00560   0.00555   1.75021
    A2        1.97162   0.00032   0.00000   0.00828   0.00806   1.97968
    A3        2.00650  -0.00035   0.00000  -0.00490  -0.00474   2.00176
    A4        1.79707   0.00009   0.00000  -0.01674  -0.01681   1.78026
    A5        1.83563  -0.00008   0.00000   0.00636   0.00642   1.84205
    A6        2.05702  -0.00003   0.00000   0.00030   0.00041   2.05743
    A7        1.91971   0.00000   0.00000  -0.00223  -0.00223   1.91748
    A8        1.92737   0.00000   0.00000  -0.00075  -0.00075   1.92662
    A9        1.92983  -0.00001   0.00000  -0.00012  -0.00012   1.92971
   A10        1.92694   0.00000   0.00000   0.00151   0.00151   1.92846
   A11        1.83464  -0.00000   0.00000   0.00125   0.00124   1.83589
   A12        1.92348   0.00000   0.00000   0.00043   0.00043   1.92391
   A13        1.88697  -0.00001   0.00000   0.00133   0.00133   1.88830
   A14        1.82010  -0.00001   0.00000  -0.00199  -0.00199   1.81812
   A15        1.92891  -0.00000   0.00000  -0.00002  -0.00002   1.92888
   A16        1.93234   0.00000   0.00000   0.00039   0.00039   1.93273
   A17        1.93462  -0.00000   0.00000   0.00137   0.00137   1.93599
   A18        1.88700   0.00000   0.00000  -0.00015  -0.00015   1.88685
   A19        1.89555   0.00000   0.00000  -0.00115  -0.00115   1.89440
   A20        1.88396  -0.00000   0.00000  -0.00051  -0.00051   1.88344
   A21        3.11312   0.00004   0.00000  -0.03615  -0.03614   3.07698
   A22        3.09208  -0.00000   0.00000  -0.01194  -0.01194   3.08014
   A23        3.16292  -0.00000   0.00000   0.00305   0.00305   3.16597
   A24        3.15906   0.00008   0.00000  -0.00862  -0.00868   3.15039
   A25        3.14509  -0.00000   0.00000   0.00617   0.00617   3.15126
   A26        3.14810  -0.00000   0.00000  -0.00067  -0.00067   3.14743
    D1       -1.84289  -0.00074   0.00000  -0.27474  -0.27511  -2.11800
    D2        0.19483  -0.00032   0.00000  -0.26866  -0.26833  -0.07350
    D3        2.35238  -0.00035   0.00000  -0.27931  -0.27925   2.07313
    D4       -0.91856   0.00004   0.00000  -0.00438  -0.00439  -0.92295
    D5        1.17180   0.00004   0.00000  -0.00432  -0.00434   1.16746
    D6       -3.02112   0.00004   0.00000  -0.00381  -0.00383  -3.02495
    D7        0.98216  -0.00004   0.00000   0.00383   0.00383   0.98599
    D8        3.07251  -0.00004   0.00000   0.00388   0.00389   3.07640
    D9       -1.12040  -0.00004   0.00000   0.00439   0.00440  -1.11601
   D10        2.97131  -0.00000   0.00000  -0.01248  -0.01247   2.95884
   D11       -1.22152  -0.00000   0.00000  -0.01243  -0.01242  -1.23393
   D12        0.86875  -0.00000   0.00000  -0.01192  -0.01190   0.85684
   D13        1.11450  -0.00000   0.00000   0.02432   0.02432   1.13882
   D14       -3.09765  -0.00000   0.00000   0.02233   0.02233  -3.07532
   D15       -1.02131  -0.00000   0.00000   0.02505   0.02505  -0.99626
   D16       -1.67632   0.00001   0.00000   0.05138   0.05138  -1.62494
         Item               Value     Threshold  Converged?
 Maximum Force            0.000739     0.000450     NO 
 RMS     Force            0.000135     0.000300     YES
 Maximum Displacement     0.583416     0.001800     NO 
 RMS     Displacement     0.195544     0.001200     NO 
 Predicted change in Energy=-2.385001D-04
 GradGradGradGradGradGradGradGradGradGradGradGradGradGradGradGradGradGrad

                          Input orientation:                          
 ---------------------------------------------------------------------
 Center     Atomic      Atomic             Coordinates (Angstroms)
 Number     Number       Type             X           Y           Z
 ---------------------------------------------------------------------
      1          6           0       -1.091898    0.420887   -1.012290
      2          1           0       -1.668559    0.072534   -1.866410
      3          6           0        2.074987   -0.612284    0.657789
      4          1           0        1.457304    0.222435    0.986714
      5          1           0        2.269727   -1.279868    1.493933
      6          1           0        3.009514   -0.248794    0.234808
      7          8           0        1.376767   -1.405364   -0.298408
      8          8           0        1.170665   -0.631616   -1.437523
      9          1           0        0.082277   -0.146812   -1.271282
     10          6           0       -1.458148   -0.202503    0.207085
     11          6           0       -1.699135   -0.756014    1.256774
     12          1           0       -1.935569   -1.242085    2.168631
     13          6           0       -0.826593    1.911245   -0.993759
     14          1           0       -0.381223    2.231031   -1.933609
     15          1           0       -1.755118    2.467402   -0.851713
     16          1           0       -0.150972    2.175504   -0.183236
 ---------------------------------------------------------------------
                    Distance matrix (angstroms):
                    1          2          3          4          5
     1  C    0.000000
     2  H    1.087847   0.000000
     3  C    3.726361   4.566694   0.000000
     4  H    3.245586   4.234833   1.089256   0.000000
     5  H    4.524846   5.350793   1.087533   1.781632   0.000000
     6  H    4.338813   5.138359   1.088291   1.787953   1.787678
     7  O    3.152638   3.730526   1.425062   2.075512   2.006392
     8  O    2.531358   2.956512   2.282216   2.586212   3.197124
     9  H    1.329679   1.862181   2.812272   2.669380   3.703399
    10  C    1.417614   2.102213   3.585262   3.047664   4.088244
    11  C    2.627257   3.231362   3.824060   3.315630   4.010303
    12  H    3.687210   4.252184   4.331727   3.879863   4.259244
    13  C    1.513901   2.202564   4.185089   3.462736   5.094998
    14  H    2.151862   2.514133   4.564291   3.992860   5.576915
    15  H    2.157282   2.602402   5.141280   4.328897   5.978583
    16  H    2.156699   3.091703   3.665239   2.787439   4.540074
                    6          7          8          9         10
     6  H    0.000000
     7  O    2.070709   0.000000
     8  O    2.514878   1.392389   0.000000
     9  H    3.293543   2.050888   1.203021   0.000000
    10  C    4.467988   3.120759   3.130420   2.135785   0.000000
    11  C    4.844900   3.507337   3.938332   3.152081   1.210907
    12  H    5.401865   4.133341   4.798511   4.135738   2.270754
    13  C    4.570652   4.042054   3.263756   2.266862   2.511736
    14  H    4.727437   4.357497   3.293813   2.511504   3.415323
    15  H    5.591061   5.011303   4.302009   3.222758   2.887497
    16  H    4.005079   3.894851   3.346622   2.575151   2.741528
                   11         12         13         14         15
    11  C    0.000000
    12  H    1.060024   0.000000
    13  C    3.597290   4.601524   0.000000
    14  H    4.564852   5.595257   1.088089   0.000000
    15  H    3.852176   4.786997   1.091625   1.764641   0.000000
    16  H    3.614447   4.516191   1.087769   1.766325   1.762200
                   16
    16  H    0.000000
 Stoichiometry    C5H9O2(2)
 Framework group  C1[X(C5H9O2)]
 Deg. of freedom    42
 Full point group                 C1      NOp   1
 Largest Abelian subgroup         C1      NOp   1
 Largest concise Abelian subgroup C1      NOp   1
                         Standard orientation:                         
 ---------------------------------------------------------------------
 Center     Atomic      Atomic             Coordinates (Angstroms)
 Number     Number       Type             X           Y           Z
 ---------------------------------------------------------------------
      1          6           0        1.345644   -0.428973   -0.452773
      2          1           0        1.764890   -0.677287   -1.425390
      3          6           0       -2.075343    0.189441    0.888933
      4          1           0       -1.168236    0.233174    1.490368
      5          1           0       -2.649195    1.104090    1.018692
      6          1           0       -2.672322   -0.677381    1.165727
      7          8           0       -1.754172    0.143875   -0.498717
      8          8           0       -1.089278   -1.053011   -0.751949
      9          1           0        0.075476   -0.770647   -0.647649
     10          6           0        1.243630    0.966092   -0.222522
     11          6           0        1.082986    2.147829   -0.012794
     12          1           0        0.964507    3.187401    0.157217
     13          6           0        1.830115   -1.300929    0.686032
     14          1           0        1.689367   -2.353120    0.447240
     15          1           0        2.892387   -1.135032    0.874982
     16          1           0        1.288531   -1.078867    1.602884
 ---------------------------------------------------------------------
 Rotational constants (GHZ):           2.9786442           1.7465368           1.3446896
 Standard basis: CC-pVTZ (5D, 7F)
 There are   380 symmetry adapted cartesian basis functions of A   symmetry.
 There are   336 symmetry adapted basis functions of A   symmetry.
   336 basis functions,   517 primitive gaussians,   380 cartesian basis functions
    28 alpha electrons       27 beta electrons
       nuclear repulsion energy       291.5404834816 Hartrees.
 NAtoms=   16 NActive=   16 NUniq=   16 SFac= 1.00D+00 NAtFMM=   60 NAOKFM=F Big=F
 Integral buffers will be    131072 words long.
 Raffenetti 2 integral format.
 Two-electron integral symmetry is turned on.
 Nuclear repulsion after empirical dispersion term =      291.5317225263 Hartrees.
 One-electron integrals computed using PRISM.
 NBasis=   336 RedAO= T EigKep=  4.58D-05  NBF=   336
 NBsUse=   336 1.00D-06 EigRej= -1.00D+00 NBFU=   336
 Initial guess from the checkpoint file:  "/localscratch/353443/Gau-98051.chk"
 B after Tr=    -0.000000   -0.000000    0.000000
         Rot=    0.999066   -0.035501    0.003960    0.024312 Ang=  -4.95 deg.
 Initial guess <Sx>= 0.0000 <Sy>= 0.0000 <Sz>= 0.5000 <S**2>= 0.7894 S= 0.5195
 ExpMin= 1.03D-01 ExpMax= 1.53D+04 ExpMxC= 5.22D+02 IAcc=3 IRadAn=         5 AccDes= 0.00D+00
 Harris functional with IExCor=  419 and IRadAn=       5 diagonalized for initial guess.
 HarFok:  IExCor=  419 AccDes= 0.00D+00 IRadAn=         5 IDoV= 1 UseB2=F ITyADJ=14
 ICtDFT=  3500011 ScaDFX=  1.000000  1.000000  1.000000  1.000000
 FoFCou: FMM=F IPFlag=           0 FMFlag=      100000 FMFlg1=           0
         NFxFlg=           0 DoJE=T BraDBF=F KetDBF=T FulRan=T
         wScrn=  0.000000 ICntrl=       500 IOpCl=  0 I1Cent=   200000004 NGrid=           0
         NMat0=    1 NMatS0=      1 NMatT0=    0 NMatD0=    1 NMtDS0=    0 NMtDT0=    0
 Petite list used in FoFCou.
 Requested convergence on RMS density matrix=1.00D-08 within 128 cycles.
 Requested convergence on MAX density matrix=1.00D-06.
 Requested convergence on             energy=1.00D-06.
 No special actions if energy rises.
 Integral accuracy reduced to 1.0D-05 until final iterations.
 Initial convergence to 1.0D-05 achieved.  Increase integral accuracy.
 SCF Done:  E(UB2PLYPD3) =  -345.576417666     A.U. after   19 cycles
            NFock= 19  Conv=0.61D-08     -V/T= 2.0044
 <Sx>= 0.0000 <Sy>= 0.0000 <Sz>= 0.5000 <S**2>= 0.7902 S= 0.5199
 <L.S>=  0.00000000000    
 Annihilation of the first spin contaminant:
 S**2 before annihilation     0.7902,   after     0.7511
 DoSCS=T DFT=T ScalE2(SS,OS)=  0.270000  0.270000
 ExpMin= 1.03D-01 ExpMax= 1.53D+04 ExpMxC= 5.22D+02 IAcc=3 IRadAn=         5 AccDes= 0.00D+00
 HarFok:  IExCor=  205 AccDes= 0.00D+00 IRadAn=         5 IDoV=-2 UseB2=F ITyADJ=14
 ICtDFT= 12500011 ScaDFX=  1.000000  1.000000  1.000000  1.000000
 Range of M.O.s used for correlation:     8   336
 NBasis=   336 NAE=    28 NBE=    27 NFC=     7 NFV=     0
 NROrb=    329 NOA=    21 NOB=    20 NVA=   308 NVB=   309

 **** Warning!!: The largest alpha MO coefficient is  0.27254979D+02


 **** Warning!!: The largest beta MO coefficient is  0.32452292D+02

 DoSCS=T DFT=T ScalE2(SS,OS)=  0.270000  0.270000
 Disk-based method using ON**2 memory for 21 occupieds at a time.
 Estimated scratch disk usage=  2061397024 words.
 Actual    scratch disk usage=  1889424416 words.
 JobTyp=2 Pass  1:  I=   8 to  28 NPSUse= 40 ParTrn=T ParDer=T DoDerP=T.
 (rs|ai) integrals will be sorted in core.
 Actual    scratch disk usage=  1889424416 words.
 JobTyp=3 Pass  1:  I=   8 to  27 NPSUse= 40 ParTrn=T ParDer=T DoDerP=T.
 (rs|ai) integrals will be sorted in core.
 Spin components of T(2) and E(2):
     alpha-alpha T2 =       0.7923674596D-01 E2=     -0.5376277539D-01
     alpha-beta  T2 =       0.4712097135D+00 E2=     -0.3275479054D+00
     beta-beta   T2 =       0.8914963201D-01 E2=     -0.5366575267D-01
 (S**2,0)=  0.79019D+00           (S**2,1)=  0.74717D+00
 Scaling Projection term by:   0.270000
 E(PUHF)=      -0.34558488155D+03        E(PMP2)=      -0.34601247557D+03
 E2(B2PLYPD3) =    -0.4349764335D+00 E(B2PLYPD3) =    -0.34601139409903D+03
          IDoAtm=1111111111111111
          Differentiating once with respect to electric field.
                with respect to dipole field.
          Differentiating once with respect to nuclear coordinates.
 Keep R1 and R2 ints in memory in canonical form, NReq=3251778068.
          There are     1 degrees of freedom in the 1st order CPHF.  IDoFFX=0 NUNeed=     1.
 LinEq1:  Iter=  0 NonCon=     1 RMS=9.82D-04 Max=5.64D-02 NDo=     1
 AX will form     1 AO Fock derivatives at one time.
 LinEq1:  Iter=  1 NonCon=     1 RMS=3.64D-04 Max=8.35D-03 NDo=     1
 LinEq1:  Iter=  2 NonCon=     1 RMS=2.56D-04 Max=9.53D-03 NDo=     1
 LinEq1:  Iter=  3 NonCon=     1 RMS=1.70D-04 Max=7.04D-03 NDo=     1
 LinEq1:  Iter=  4 NonCon=     1 RMS=9.38D-05 Max=3.46D-03 NDo=     1
 LinEq1:  Iter=  5 NonCon=     1 RMS=6.84D-05 Max=2.78D-03 NDo=     1
 LinEq1:  Iter=  6 NonCon=     1 RMS=3.13D-05 Max=9.99D-04 NDo=     1
 LinEq1:  Iter=  7 NonCon=     1 RMS=9.17D-06 Max=2.44D-04 NDo=     1
 LinEq1:  Iter=  8 NonCon=     1 RMS=5.11D-06 Max=1.53D-04 NDo=     1
 LinEq1:  Iter=  9 NonCon=     1 RMS=3.63D-06 Max=8.03D-05 NDo=     1
 LinEq1:  Iter= 10 NonCon=     1 RMS=2.01D-06 Max=3.81D-05 NDo=     1
 LinEq1:  Iter= 11 NonCon=     1 RMS=9.43D-07 Max=2.40D-05 NDo=     1
 LinEq1:  Iter= 12 NonCon=     1 RMS=3.42D-07 Max=6.75D-06 NDo=     1
 LinEq1:  Iter= 13 NonCon=     1 RMS=1.09D-07 Max=2.25D-06 NDo=     1
[...]

 Dipole orientation:
     6         -2.31111154          1.72123479         -0.45364417
     1         -3.71224278          2.20499266         -1.87807833
     6          3.99439575         -1.45448633         -0.64676000
     1          3.07061252         -0.84800060          1.08967949
     1          4.54451668         -3.42865555         -0.49312095
     1          5.63635746         -0.27789758         -1.03304494
     8          2.27354999         -1.36102292         -2.71613066
     8          1.61492976          1.15353597         -3.12602922
     1         -0.28285438          1.44122795         -1.90637839
     6         -2.62953950         -0.73705945          0.56429370
     6         -2.77216245         -2.86347946          1.39693640
     1         -2.94545721         -4.72238177          2.12294526
     6         -1.66784949          3.84202279          1.35557929
     1         -1.13332447          5.53582934          0.31955879
     1         -3.28880195          4.30272505          2.54542995
     1         -0.11073958          3.30963739          2.58731618

 Electric dipole moment (dipole orientation):
 (Debye = 10**-18 statcoulomb cm , SI units = C m)
                  (au)            (Debye)         (10**-30 SI)
   Tot        0.858116D+00      0.218111D+01      0.727541D+01
   x          0.000000D+00      0.000000D+00      0.000000D+00
   y          0.000000D+00      0.000000D+00      0.000000D+00
   z          0.858116D+00      0.218111D+01      0.727541D+01

 Dipole polarizability, Alpha (dipole orientation).
 (esu units = cm**3 , SI units = C**2 m**2 J**-1)
 Alpha(0;0):
               (au)            (10**-24 esu)      (10**-40 SI)
   iso        0.832184D+02      0.123317D+02      0.137209D+02
   aniso      0.443023D+02      0.656492D+01      0.730446D+01
   xx         0.943476D+02      0.139809D+02      0.155558D+02
   yx        -0.570588D+01     -0.845524D+00     -0.940773D+00
   yy         0.871377D+02      0.129125D+02      0.143671D+02
   zx        -0.201145D+02     -0.298066D+01     -0.331643D+01
   zy        -0.585181D+01     -0.867148D+00     -0.964832D+00
   zz         0.681700D+02      0.101017D+02      0.112397D+02

 ----------------------------------------------------------------------
 1\1\GINC-N143\Freq\UB2PLYPD3-FC\CC-pVTZ\C5H9O2(2)\ROOT\24-Jun-2019\0\\
 #N Geom=AllCheck Guess=TCheck SCRF=Check GenChk UB2PLYPD3(FC)/CC-pVTZ 
 Freq\\Title Card Required\\0,2\C,-1.0865055498,0.4241227098,-1.0112261
 767\H,-1.6527468207,0.0553071887,-1.8637537933\C,2.0785440581,-0.64415
 55417,0.6649608614\H,1.4507821969,0.1721813277,1.0196836939\H,2.272245
 044,-1.3414604124,1.476730094\H,3.0134142298,-0.2568314321,0.264447756
 3\O,1.3955166431,-1.4063705327,-0.3266862706\O,1.191867029,-0.59237731
 15,-1.4380298036\H,0.0982104619,-0.1213502553,-1.263879933\C,-1.447482
 6249,-0.1903653785,0.2147142738\C,-1.6861303844,-0.7337118142,1.270107
 2968\H,-1.9197674829,-1.2112443512,2.1871838419\C,-0.8507528431,1.9195
 821325,-1.0092098497\H,-0.4054779696,2.2367044169,-1.9500256832\H,-1.7
 912769382,2.4584849645,-0.8801618265\H,-0.1864130492,2.2071822895,-0.1
 973504817\\Version=ES64L-G16RevB.01\State=2-A\HF=-345.576499\MP2=-346.
 0114102\PUHF=-345.5849435\PMP2-0=-346.012487\S2=0.789928\S2-1=0.747114
 \S2A=0.751066\RMSD=1.678e-09\RMSF=2.315e-07\ZeroPoint=0.1233369\Therma
 l=0.1329111\Dipole=-0.160932,0.5739078,0.6173284\DipoleDeriv=1.0886955
 ,-0.4174113,-0.0002066,-0.3188002,0.3918291,-0.0683878,-0.4772423,0.14
 52265,0.2271673,-0.0907245,0.0175076,-0.0788081,0.0545186,-0.0415727,0
 .0125907,0.0130614,-0.0220912,-0.0284965,0.6176951,-0.0685195,0.068545
 9,0.2455779,0.2523526,0.0784299,0.3942789,-0.0630411,0.3744247,-0.0579
 547,0.1093593,0.0416672,-0.0315836,-0.0260062,-0.0739675,-0.0601128,0.
 0044776,0.0020633,0.0318221,-0.0000715,-0.0284572,0.0107096,-0.0076281
 ,0.0726559,-0.0914958,0.0676708,-0.0323175,-0.1481564,-0.0308228,-0.00
 36374,-0.1168235,0.0531237,-0.0243801,0.0661313,0.0370281,0.0046877,-0
 .416283,0.0673054,-0.0316201,0.5724364,-0.5407175,-0.0926569,-1.132413
 1,0.3861638,-0.196353,0.5494109,-0.3963336,-0.0152952,-1.0616588,0.267
 9176,0.0181734,0.8114692,-0.43567,-0.2928197,-1.1759007,0.5602089,0.05
 85049,0.6086814,-0.1578635,0.0151269,0.1590532,-0.0364834,0.0883265,-0
 .294318,0.0573167,-0.0064904,-0.1154938,-0.1473391,0.0122688,0.2959501
 ,-0.129581,-0.096332,-0.2077161,-0.0343107,0.0191092,-0.0233061,-0.223
 2304,0.0151658,0.023247,0.0654087,-0.2985539,0.2118566,0.0072468,-0.00
 44049,0.0204079,0.2102842,-0.0066446,-0.0303357,-0.0041627,0.2277332,-
 0.1405459,0.1778139,-0.0530584,0.0429114,0.0093731,-0.0216036,0.026837
 9,-0.0183457,0.0497909,0.0545822,-0.0528942,0.0796967,-0.0094745,0.008
 8686,0.0373772,0.0567393,0.0660053,-0.0699341,-0.0354234,0.0632787,0.0
 208627,0.1305963,-0.0802991,0.0278285,0.0278835,-0.0187557,0.0750319,0
 .0129604,-0.0596736,-0.0664082,-0.0086992,0.0309075,-0.0019767,-0.0830
 521,-0.0438501,-0.0344189\Polar=100.1234648,-13.647003,70.3222397,-6.9
 644334,-13.6163881,79.2096023\PG=C01 [X(C5H9O2)]\NImag=1\\0.23613781,0
 .11822951,0.44162874,0.09357221,-0.03382744,0.56176463,-0.10507081,-0.
 06061238,-0.12618495,0.11311365,-0.05509724,-0.07454315,-0.06276101,0.
 05989289,0.08219811,-0.11404901,-0.06884499,-0.21074134,0.12363927,0.0
 7217127,0.23174210,-0.00631123,0.00145296,0.00157553,0.00060801,-0.000
 36738,-0.00005805,0.55158806,-0.00439439,0.00324359,0.00274587,0.00062
 734,-0.00062723,-0.00045210,-0.03458023,0.57624588,-0.00935604,0.00479
 603,0.00474590,0.00152299,-0.00099247,-0.00056142,-0.05574807,-0.07582
 720,0.51666049,0.00081339,0.00015449,-0.00049566,-0.00011960,0.0000129
 7,0.00005487,-0.14998251,0.12246898,0.05057454,0.15442125,0.00238819,-
 0.00068751,-0.00138697,-0.00024903,0.00012428,0.00014168,0.11651066,-0
 .19040306,-0.05549189,-0.12490535,0.21137144,0.00168442,-0.00064509,-0
 .00057588,-0.00012105,0.00012793,0.00004157,0.04868562,-0.05120632,-0.
 07246176,-0.04947623,0.07099927,0.08014076,0.00048462,-0.00014254,-0.0
 0032658,-0.00008349,0.00003823,0.00005843,-0.05825169,0.02622563,-0.02
 969275,-0.00239726,0.01222328,-0.01424633,0.05797161,-0.00010018,-0.00
 013081,0.00005863,0.00003209,0.00003825,0.00000291,0.03149467,-0.17098
 370,0.13607070,0.00219533,-0.01289700,0.01772228,-0.03102974,0.1756038
 5,0.00065554,-0.00034287,-0.00038410,-0.00007009,0.00010551,0.00007015
 ,-0.03280114,0.12503181,-0.19180683,0.00218839,-0.00634031,0.00989135,
 0.04242455,-0.13971789,0.21696687,0.00144651,-0.00068139,-0.00049795,-
 0.00024330,0.00017048,0.00005406,-0.24185089,-0.07201514,0.09164637,-0
 .01446728,-0.00665066,0.00900477,0.00776785,0.00327626,-0.00204897,0.2
 6340030,0.00128031,-0.00073119,-0.00086924,-0.00022624,0.00013356,0.00
 011232,-0.07194565,-0.08014786,0.03543476,0.02092228,0.00977643,-0.009
 22965,-0.01734773,-0.00555308,0.00739282,0.08911746,0.08730725,0.00053
 024,-0.00012842,-0.00027902,-0.00010348,0.00002042,0.00005283,0.097857
 08,0.04156561,-0.09384760,0.00703894,0.00449089,-0.00199044,0.02031304
 ,0.00600522,-0.00676557,-0.09459896,-0.03385651,0.09736786,0.00352613,
 -0.00131507,0.00139779,-0.00042656,0.00047880,0.00014277,-0.09655150,-
 0.05996258,-0.03417377,0.01209759,0.00319156,0.00429540,-0.00406411,-0
 .00353839,-0.00563336,-0.01689885,-0.02396530,-0.03171762,0.14916037,-
 0.02236067,0.00838882,0.00854336,0.00309300,-0.00172710,-0.00070648,-0
 .04599508,-0.14772578,-0.04121040,-0.01905327,-0.01918047,-0.02613361,
 0.01173132,0.01181820,0.01708600,-0.01348995,-0.01172913,-0.01537160,0
 .05568041,0.29628805,0.03852366,-0.01651569,-0.01650064,-0.00526515,0.
 00322965,0.00152800,-0.04192300,-0.06956863,-0.10228767,-0.01335073,-0
 .01726185,-0.02124776,-0.01518754,-0.01402485,-0.02362454,-0.00776780,
 -0.00156275,-0.00047587,0.11301527,-0.01609869,0.31108833,-0.12222930,
 0.05020838,0.04080453,0.00874487,-0.00481659,-0.00236392,-0.00751332,0
 .01539997,-0.03198690,0.00171367,0.00087595,0.00411845,-0.00120911,-0.
 00252777,-0.00403642,0.00377629,0.00413875,0.00152636,-0.04061956,-0.0
 1527694,0.00688889,0.08341677,0.08131437,-0.02958435,-0.03053911,-0.00
 714098,0.00423930,0.00241604,0.00938274,0.01393338,0.00605143,-0.00229
 427,-0.00006123,-0.00347052,-0.00179265,0.00219179,-0.00321864,-0.0009
 6178,-0.00015206,-0.00352457,0.00944463,-0.10532015,0.09496397,0.00317
 383,0.08370413,-0.01724988,0.00602037,0.01310598,0.00428616,-0.0019488
 7,-0.00048947,-0.01340354,0.02671236,-0.05724352,0.00251910,0.00409528
 ,0.00554344,-0.00376682,-0.00561652,-0.00421531,0.00366444,0.00214426,
 0.00595241,-0.02539945,0.07153233,-0.16138345,-0.01063871,-0.08698388,
 0.24172304,0.09350544,-0.04237806,-0.05190387,-0.02402048,0.01106418,0
 .00441238,0.00693469,0.00653410,0.01550892,-0.00053772,-0.00349101,-0.
 00315751,-0.00011026,0.00030051,-0.00026490,-0.00229273,-0.00210959,-0
 .00108234,-0.00625725,0.03956779,-0.06491647,0.05754673,-0.07568253,0.
 05053381,-0.08747394,-0.05567527,-0.00278093,0.02683998,0.00323096,-0.
 00242536,-0.00184818,-0.00455999,-0.00215028,-0.00720692,0.00072270,0.
 00172507,0.00115294,0.00021672,-0.00025311,-0.00007452,0.00113368,0.00
 084258,0.00068560,0.01668935,-0.02845317,0.03455848,-0.04904305,0.0265
 2954,-0.01376452,0.06343582,0.02057654,-0.01394168,0.00690120,-0.02055
 215,-0.00958903,0.00266830,0.00029716,-0.00294342,0.00230993,-0.001659
 02,0.00055107,-0.00027983,0.00035751,0.00009021,-0.00050132,-0.0004878
 9,0.00041643,0.00008067,-0.00001918,-0.01904918,0.00658643,0.00356602,
 0.01188570,0.00946984,-0.03557869,0.01486825,-0.02357326,0.06455174,-0
 .05521681,-0.03851870,0.04369187,0.00658275,0.00892217,-0.01380160,-0.
 00017485,-0.00028965,0.00031370,-0.00120032,0.00006014,-0.00043289,0.0
 0002659,-0.00009913,-0.00029321,-0.00026301,0.00010588,0.00028251,0.00
 265461,0.00214820,-0.00517780,0.00743458,-0.00855842,0.00643673,-0.027
 71394,0.00430620,0.01755301,0.13883815,-0.02058308,-0.11304701,0.07935
 042,0.00321165,0.00702153,-0.00459083,-0.00020992,-0.00096339,-0.00042
 920,-0.00056798,0.00021675,-0.00000841,-0.00001852,0.00004604,-0.00005
 659,-0.00017986,0.00013583,0.00018166,0.00265579,0.00077249,-0.0021205
 7,0.00659393,-0.00463786,0.00180544,-0.01197173,0.00869819,-0.00397624
 ,0.12423099,0.34892497,0.01556902,0.09331191,-0.23463618,0.01305360,0.
 00926432,-0.02662990,-0.00058661,0.00040862,0.00005120,0.00087440,0.00
 012783,0.00026291,0.00008797,0.00002528,0.00031811,0.00031893,-0.00002
 956,-0.00044327,-0.00581628,-0.00266650,0.00753345,-0.01590072,0.01470
 405,-0.00776393,0.04138369,-0.01773808,-0.00947069,-0.22644816,-0.4871
 8710,1.03863495,0.00271986,-0.00218198,0.00688416,-0.00000716,-0.00145
 682,0.00069078,-0.00036855,-0.00081833,-0.00051369,-0.00016698,0.00049
 740,0.00017260,0.00010069,-0.00004585,0.00001845,-0.00007829,0.0002540
 8,0.00018950,-0.00060426,-0.00029583,0.00106892,-0.00074162,0.00145467
 ,-0.00126819,0.00308266,-0.00105476,-0.00096515,-0.06988255,-0.0895443
 3,0.17378438,0.10295580,-0.00492721,0.00073792,0.01278337,-0.00129357,
 -0.00112127,0.00060936,0.00015150,0.00020807,0.00049698,0.00010224,-0.
 00011929,-0.00000464,-0.00012690,0.00003290,-0.00000912,-0.00001594,-0
 .00005819,-0.00021658,-0.00115475,0.00076987,-0.00097799,-0.00040171,0
 .00040605,0.00011712,0.00349805,-0.00272746,0.00141815,-0.08867753,-0.
 22712937,0.38319386,0.13351515,0.32833212,0.00980036,0.01068678,-0.020
 40452,0.00073012,0.00224765,-0.00026787,-0.00066920,-0.00163703,-0.001
 42046,-0.00043488,0.00067473,-0.00002125,0.00022687,-0.00003219,0.0000
 2265,-0.00015353,0.00036988,0.00041047,0.00291351,-0.00110506,0.001301
 44,0.00129195,-0.00124060,0.00066838,-0.00736120,0.00509261,-0.0011854
 9,0.17298844,0.38506802,-0.77278962,-0.25706801,-0.55451877,1.11736767
 ,0.00520059,-0.00006546,0.00125631,-0.00034030,-0.00040223,0.00074087,
 0.00004583,0.00010028,0.00018456,0.00003259,-0.00015808,0.00005957,-0.
 00014216,0.00007763,-0.00000884,0.00002799,-0.00003322,-0.00010027,0.0
 0003268,0.00003237,-0.00021067,0.00015571,-0.00014731,0.00003286,0.000
 02432,0.00027275,-0.00042753,0.00123155,0.00129718,-0.00331360,-0.0381
 2308,-0.04144887,0.07851797,0.03195857,-0.00000982,0.00493087,0.002606
 37,-0.00028929,-0.00031355,0.00049319,-0.00010559,0.00013323,-0.000075
 02,0.00000702,-0.00005322,0.00003593,0.00002554,0.00000146,0.00003325,
 0.00003710,-0.00002308,0.00000155,-0.00000046,-0.00021778,0.00026646,-
 0.00016024,0.00020959,-0.00025496,0.00016421,-0.00016990,0.00023612,0.
 00000639,0.00161102,-0.00271245,-0.04040316,-0.10133646,0.15750679,0.0
 4038858,0.09485680,0.00132215,0.00224934,0.00203987,-0.00027462,-0.000
 31690,0.00046418,0.00023650,0.00015100,0.00027183,0.00002648,-0.000047
 40,-0.00000548,-0.00002882,0.00001885,-0.00002168,-0.00005301,-0.00004
 177,-0.00001714,-0.00014003,0.00018517,-0.00047998,0.00011117,-0.00039
 065,0.00033522,-0.00031016,0.00016134,0.00004803,-0.00092475,-0.002569
 60,0.00501694,0.07652038,0.15732038,-0.32235184,-0.07664726,-0.1570616
 9,0.31522590,-0.05534353,-0.02323350,-0.00975654,0.00014391,-0.0186164
 9,0.00008292,0.00204297,0.00144132,0.00269576,-0.00017037,-0.00053714,
 -0.00075736,-0.00010835,-0.00008506,-0.00022965,-0.00036111,-0.0003563
 7,-0.00021651,-0.00273041,0.00541719,-0.00790596,0.01114907,-0.0099072
 3,0.00570169,-0.01706925,0.02206779,0.00194955,-0.00347896,-0.01314517
 ,0.00575068,0.00107150,-0.00008267,0.00007692,-0.00007060,0.00035704,0
 .00017066,0.54969550,-0.03133734,-0.19198395,-0.00517134,0.00110771,-0
 .00911497,0.00023550,-0.00069950,0.00023556,-0.00008420,0.00024021,0.0
 0003631,0.00011177,0.00003231,-0.00008405,-0.00004201,0.00009260,0.000
 02994,0.00002277,0.00098685,-0.00209797,0.00189315,-0.00780352,0.00531
 470,-0.00105109,0.01162952,-0.01627312,-0.00209943,-0.00312742,-0.0185
 9821,0.01417927,0.00061294,0.00232539,-0.00586705,-0.00002058,0.000198
 04,0.00027658,-0.00272795,0.46294323,-0.00597205,-0.00253655,-0.079344
 58,-0.00169480,-0.02488194,0.00266110,-0.00035236,0.00032815,0.0002160
 9,0.00017674,0.00007117,-0.00016132,0.00008693,-0.00013275,-0.00003621
 ,0.00002527,0.00000938,0.00003799,0.00028683,-0.00060792,0.00049522,-0
 .00144306,0.00097943,-0.00063862,0.00190420,-0.00390623,-0.00024819,0.
 00452112,0.03412429,-0.00151451,0.00059063,0.00032863,-0.00242371,-0.0
 0000442,-0.00108327,-0.00052539,0.00424079,-0.00233451,0.58399713,-0.0
 0207818,0.00060509,0.00277692,-0.00013804,0.00006642,0.00005554,-0.000
 05000,-0.00011905,-0.00018340,0.00005278,-0.00002219,0.00005766,-0.000
 00590,0.00001721,0.00002797,-0.00000106,0.00004405,0.00001173,0.000156
 60,-0.00029434,0.00038196,-0.00006877,0.00003497,-0.00018367,0.0004322
 2,0.00012406,-0.00033914,0.00052751,-0.00131339,0.00068125,0.00017115,
 0.00020946,-0.00034237,-0.00003295,0.00003247,-0.00001453,-0.09313222,
 -0.03252065,0.09513633,0.09612716,-0.01174073,-0.01156695,0.03022751,0
 .00018208,0.00135095,-0.00059987,-0.00001480,0.00003928,-0.00001844,-0
 .00000206,-0.00006701,0.00001359,-0.00002064,0.00000732,-0.00000968,0.
 00003664,-0.00001554,-0.00000731,-0.00006008,0.00005232,0.00016493,0.0
 0083932,0.00003409,-0.00057907,-0.00134529,0.00069327,0.00086729,-0.00
 167999,-0.00645025,-0.00102564,-0.00018270,-0.00040388,0.00143157,0.00
 005499,0.00027434,0.00011355,-0.03118204,-0.06713227,0.06288340,0.0347
 2305,0.07679336,-0.00140639,-0.00065557,0.00152212,-0.00002072,0.00061
 576,0.00042793,0.00007653,-0.00004816,-0.00006276,0.00004179,0.0000056
 0,0.00001541,-0.00001642,0.00000572,0.00000742,-0.00005661,0.00003521,
 0.00001247,-0.00004713,-0.00001208,-0.00018019,-0.00044103,-0.00001487
 ,0.00028512,0.00027817,0.00009305,0.00001819,0.00051336,-0.00025178,0.
 00100036,-0.00001220,0.00006204,0.00047097,-0.00003582,-0.00002127,0.0
 0003853,0.09498470,0.06504246,-0.25190891,-0.10528437,-0.07177340,0.27
 038165,0.00534297,-0.00142597,-0.00046973,0.00023645,0.00067260,0.0000
 3686,-0.00012906,-0.00043613,-0.00052204,-0.00009643,0.00011016,0.0001
 6722,0.00000446,0.00005719,0.00005288,0.00006379,0.00005268,0.00003051
 ,0.00046293,-0.00063219,0.00127472,-0.00138159,0.00134737,-0.00084041,
 0.00315695,-0.00159153,-0.00031473,0.00053004,-0.00048414,0.00061145,-
 0.00009336,0.00045636,-0.00068653,-0.00000044,-0.00000803,0.00000739,-
 0.24291906,0.10657509,0.02643767,-0.01126835,0.00567689,0.00055647,0.2
 6319100,0.02377420,-0.02211935,-0.00169945,-0.00066529,0.00112830,0.00
 002677,-0.00068215,-0.00051052,-0.00097750,-0.00002184,0.00020215,0.00
 023311,0.00004596,0.00003495,0.00009037,0.00014973,0.00010601,0.000084
 96,0.00081038,-0.00153339,0.00249915,-0.00158299,0.00264568,-0.0020711
 4,0.00178809,-0.00440558,0.00012233,0.00076227,0.00156491,-0.00254391,
 -0.00054516,-0.00000047,0.00074928,0.00007755,-0.00003438,-0.00002633,
 0.11157214,-0.10307687,-0.01500231,-0.00852384,0.00459647,0.00039238,-
 0.11949939,0.11739336,-0.00074481,0.00002959,-0.00022932,0.00006218,-0
 .00005444,0.00007389,0.00003699,-0.00026290,-0.00030439,-0.00008757,0.
 00008428,0.00008523,-0.00001612,0.00004541,0.00003599,-0.00000744,0.00
 003214,0.00000594,-0.00008457,-0.00004500,0.00030233,-0.00024579,0.000
 44564,-0.00011949,0.00044684,-0.00030509,0.00047690,-0.00011501,0.0004
 0126,-0.00021631,0.00010894,-0.00034995,0.00025780,-0.00000721,0.00002
 853,-0.00001631,0.02701827,-0.01472898,-0.05027534,0.02507724,-0.01443
 060,-0.00280286,-0.02970442,0.01645087,0.04941524,-0.00292747,-0.00009
 536,-0.00232404,0.00102010,-0.00056201,0.00030382,-0.00003597,-0.00018
 212,-0.00027018,0.00000719,0.00015612,-0.00005434,0.00001652,-0.000024
 77,0.00001880,-0.00002622,0.00006862,0.00003926,0.00006156,-0.00027202
 ,0.00055171,-0.00017441,0.00033259,-0.00042412,0.00079255,-0.00027543,
 0.00025563,0.00010465,0.00002859,-0.00004999,-0.00003583,0.00019638,0.
 00016957,-0.00000030,-0.00004175,-0.00000153,-0.14871908,-0.04304026,-
 0.12393981,0.00930803,0.00471535,0.01086967,-0.01710030,-0.00745966,-0
 .02173753,0.15770899,-0.02076064,-0.01175475,-0.02690094,-0.00090095,-
 0.00636166,0.00083342,0.00016776,-0.00052717,-0.00053666,0.00001854,0.
 00001636,0.00030142,-0.00006028,0.00012696,0.00007186,-0.00001922,0.00
 007854,0.00004630,0.00005886,-0.00010481,0.00055522,0.00038269,0.00054
 740,-0.00015710,-0.00100405,0.00057372,-0.00023020,0.00040860,0.001834
 36,-0.00131189,0.00019468,0.00008405,0.00057339,-0.00002558,-0.0000669
 6,-0.00002187,-0.04098184,-0.06272176,-0.04823896,0.00693667,0.0017945
 0,0.00652490,0.00912904,0.00400873,0.01265925,0.04645572,0.07247247,0.
 00106225,-0.00049860,0.00046924,0.00002958,0.00050481,0.00133107,0.000
 01714,-0.00025099,-0.00029010,-0.00020126,0.00011752,0.00012570,-0.000
 00662,0.00007053,0.00002958,0.00005400,-0.00002197,-0.00000190,0.00000
 982,0.00002404,0.00036530,0.00042950,0.00035243,-0.00018112,-0.0003398
 0,-0.00016721,-0.00011425,0.00089267,0.00025926,0.00064651,-0.00020151
 ,-0.00025286,0.00036539,-0.00003651,0.00000047,-0.00002268,-0.12380590
 ,-0.05038290,-0.20033072,-0.01785913,-0.00725782,-0.01922547,0.0033626
 8,0.00167143,0.00331070,0.13659307,0.05583186,0.21352275\\0.00000015,-
 0.00000038,-0.00000033,0.,0.00000001,0.00000004,0.00000028,0.00000072,
 0.00000012,0.00000038,-0.00000010,-0.00000010,0.,-0.00000015,-0.000000
 10,0.00000009,-0.00000006,0.00000006,-0.00000048,-0.00000012,-0.000000
 19,-0.00000012,0.00000012,0.00000018,0.00000032,0.00000051,0.00000006,
 -0.00000027,-0.00000028,0.00000025,-0.00000038,-0.00000005,-0.00000043
 ,-0.00000002,-0.00000019,-0.00000011,0.00000016,-0.00000008,0.00000007
 ,-0.00000005,0.00000012,0.00000012,-0.00000004,0.00000001,0.00000011,-
 0.00000001,-0.00000009,0.00000025\\\@


 ALMOST ANYTHING IS EASIER TO GET INTO THAN OUT OF.

                         -- AGNES ALLEN'S LAW FROM
                PAUL DICKSON'S "THE OFFICIAL RULES"
 Job cpu time:       2 days  7 hours 54 minutes 56.1 seconds.
 Elapsed time:       0 days  1 hours 26 minutes 52.7 seconds.
 File lengths (MBytes):  RWF=  83473 Int=      0 D2E=      0 Chk=     18 Scr=      1
 Normal termination of Gaussian 16 at Mon Jun 24 13:50:08 2019.
