 Entering Gaussian System, Link 0=g16
 Initial command:
 /ichec/packages/gaussian/16b01/l1.exe "/localscratch/341085/Gau-15080.inp" -scrdir="/localscratch/341085/"
 Entering Link 1 = /ichec/packages/gaussian/16b01/l1.exe PID=     15118.
  
 Copyright (c) 1988-2017, Gaussian, Inc.  All Rights Reserved.
  
 This is part of the Gaussian(R) 16 program.  It is based on
 the Gaussian(R) 09 system (copyright 2009, Gaussian, Inc.),
 the Gaussian(R) 03 system (copyright 2003, Gaussian, Inc.),
 the Gaussian(R) 98 system (copyright 1998, Gaussian, Inc.),
 the Gaussian(R) 94 system (copyright 1995, Gaussian, Inc.),
 the Gaussian 92(TM) system (copyright 1992, Gaussian, Inc.),
 the Gaussian 90(TM) system (copyright 1990, Gaussian, Inc.),
 the Gaussian 88(TM) system (copyright 1988, Gaussian, Inc.),
 the Gaussian 86(TM) system (copyright 1986, Carnegie Mellon
 University), and the Gaussian 82(TM) system (copyright 1983,
 Carnegie Mellon University). Gaussian is a federally registered
 trademark of Gaussian, Inc.
  
 This software contains proprietary and confidential information,
 including trade secrets, belonging to Gaussian, Inc.
  
 This software is provided under written license and may be
 used, copied, transmitted, or stored only in accord with that
 written license.
  
 The following legend is applicable only to US Government
 contracts under FAR:
  
                    RESTRICTED RIGHTS LEGEND
  
 Use, reproduction and disclosure by the US Government is
 subject to restrictions as set forth in subparagraphs (a)
 and (c) of the Commercial Computer Software - Restricted
 Rights clause in FAR 52.227-19.
  
 Gaussian, Inc.
 340 Quinnipiac St., Bldg. 40, Wallingford CT 06492
  
  
 ---------------------------------------------------------------
 Warning -- This program may not be used in any manner that
 competes with the business of Gaussian, Inc. or will provide
 assistance to any competitor of Gaussian, Inc.  The licensee
 of this program is prohibited from giving any competitor of
 Gaussian, Inc. access to this program.  By using this program,
 the user acknowledges that Gaussian, Inc. is engaged in the
 business of creating and licensing software in the field of
 computational chemistry and represents and warrants to the
 licensee that it is not a competitor of Gaussian, Inc. and that
 it will not use this program in any manner prohibited above.
 ---------------------------------------------------------------
  

 Cite this work as:
 Gaussian 16, Revision B.01,
 M. J. Frisch, G. W. Trucks, H. B. Schlegel, G. E. Scuseria, 
 M. A. Robb, J. R. Cheeseman, G. Scalmani, V. Barone, 
 G. A. Petersson, H. Nakatsuji, X. Li, M. Caricato, A. V. Marenich, 
 J. Bloino, B. G. Janesko, R. Gomperts, B. Mennucci, H. P. Hratchian, 
 J. V. Ortiz, A. F. Izmaylov, J. L. Sonnenberg, D. Williams-Young, 
 F. Ding, F. Lipparini, F. Egidi, J. Goings, B. Peng, A. Petrone, 
 T. Henderson, D. Ranasinghe, V. G. Zakrzewski, J. Gao, N. Rega, 
 G. Zheng, W. Liang, M. Hada, M. Ehara, K. Toyota, R. Fukuda, 
 J. Hasegawa, M. Ishida, T. Nakajima, Y. Honda, O. Kitao, H. Nakai, 
 T. Vreven, K. Throssell, J. A. Montgomery, Jr., J. E. Peralta, 
 F. Ogliaro, M. J. Bearpark, J. J. Heyd, E. N. Brothers, K. N. Kudin, 
 V. N. Staroverov, T. A. Keith, R. Kobayashi, J. Normand, 
 K. Raghavachari, A. P. Rendell, J. C. Burant, S. S. Iyengar, 
 J. Tomasi, M. Cossi, J. M. Millam, M. Klene, C. Adamo, R. Cammi, 
 J. W. Ochterski, R. L. Martin, K. Morokuma, O. Farkas, 
 J. B. Foresman, and D. J. Fox, Gaussian, Inc., Wallingford CT, 2016.
 
 ******************************************
 Gaussian 16:  ES64L-G16RevB.01 20-Dec-2017
                 5-Jun-2019 
 ******************************************
 %mem=80GB
 %nproc=40
 Will use up to   40 processors via shared memory.
 ----------------------------------------------------------------------
 # opt=(calcfc,ts,noeigentest,maxcyc=500) freq=noraman uB2PLYPD3/cc-pvt
 z
 ----------------------------------------------------------------------
 1/5=1,6=500,10=4,11=1,18=20,38=1/1,3;
 2/9=110,12=2,17=6,18=5,40=1/2;
 3/5=16,6=1,11=2,25=1,30=1,71=2,74=-60,116=2,140=1/1,2,3;
 4//1;
 5/5=2,38=5/2;
 8/6=3,8=1,10=1,19=11,30=-1/1;
 9/15=3,16=-3/6;
 11/6=1,8=1,15=11,17=12,24=-1,27=1,28=-2,29=300,32=6,42=3/1,2,10;
 10/6=2,21=1/2;
 8/6=4,8=1,10=1,19=11,30=-1/11,4;
 10/5=1,20=4/2;
 11/12=2,14=11,16=1,17=2,28=-2,42=3,76=2/2,10,12;
 6/7=2,8=2,9=2,10=2/1;
 7/10=1,12=2,25=1,44=2/1,2,3,16;
 1/5=1,6=500,10=4,11=1,18=20/3(2);
 2/9=110/2;
 99//99;
 2/9=110/2;
 3/5=16,6=1,11=2,25=1,30=1,71=1,74=-60,116=2/1,2,3;
 4/5=5,16=3,69=1/1;
 5/5=2,38=5/2;
 8/6=4,10=1/1;
 9/15=2,16=-3/6;
 10/5=1/2;
 7/12=2/1,2,3,16;
 1/5=1,6=500,11=1,18=20/3(-8);
 2/9=110/2;
 6/7=2,8=2,9=2,10=2/1;
 99/9=10/99;
 -------------------
 Title Card Required
 -------------------
 Symbolic Z-matrix:
 Charge =  0 Multiplicity = 2
 C                    -0.31947   1.34042   0.31295 
 C                    -1.04443   0.31347  -0.07076 
 H                    -0.55411   2.24834   0.85256 
 H                    -0.56062  -0.49463  -0.61809 
 C                     2.22013  -1.10154   0.64244 
 H                     1.47155  -0.82732   1.38992 
 H                     2.17534  -2.17068   0.44301 
 H                     3.21431  -0.82232   0.98996 
 O                     1.93577  -0.47095  -0.59089 
 O                     2.06176   0.89951  -0.40872 
 H                     1.06364   1.20811  -0.08398 
 C                    -2.48056   0.1732    0.1839 
 C                    -3.18635  -0.87654  -0.22105 
 H                    -2.96024   0.97874   0.72786 
 H                    -4.24563  -0.95571  -0.02179 
 H                    -2.72037  -1.68705  -0.7675 
 
 Add virtual bond connecting atoms H11        and C1         Dist= 2.73D+00.

 GradGradGradGradGradGradGradGradGradGradGradGradGradGradGradGradGradGrad
 Berny optimization.
 Initialization pass.
                           ----------------------------
                           !    Initial Parameters    !
                           ! (Angstroms and Degrees)  !
 --------------------------                            --------------------------
 ! Name  Definition              Value          Derivative Info.                !
 --------------------------------------------------------------------------------
 ! R1    R(1,2)                  1.3143         calculate D2E/DX2 analytically  !
 ! R2    R(1,3)                  1.0819         calculate D2E/DX2 analytically  !
 ! R3    R(1,11)                 1.445          calculate D2E/DX2 analytically  !
 ! R4    R(2,4)                  1.0893         calculate D2E/DX2 analytically  !
 ! R5    R(2,12)                 1.4653         calculate D2E/DX2 analytically  !
 ! R6    R(5,6)                  1.0928         calculate D2E/DX2 analytically  !
 ! R7    R(5,7)                  1.0885         calculate D2E/DX2 analytically  !
 ! R8    R(5,8)                  1.0896         calculate D2E/DX2 analytically  !
 ! R9    R(5,9)                  1.4141         calculate D2E/DX2 analytically  !
 ! R10   R(9,10)                 1.3882         calculate D2E/DX2 analytically  !
 ! R11   R(10,11)                1.094          calculate D2E/DX2 analytically  !
 ! R12   R(12,13)                1.3282         calculate D2E/DX2 analytically  !
 ! R13   R(12,14)                1.0839         calculate D2E/DX2 analytically  !
 ! R14   R(13,15)                1.0808         calculate D2E/DX2 analytically  !
 ! R15   R(13,16)                1.0829         calculate D2E/DX2 analytically  !
 ! A1    A(2,1,3)              132.9752         calculate D2E/DX2 analytically  !
 ! A2    A(2,1,11)             112.0996         calculate D2E/DX2 analytically  !
 ! A3    A(3,1,11)             114.9243         calculate D2E/DX2 analytically  !
 ! A4    A(1,2,4)              118.7727         calculate D2E/DX2 analytically  !
 ! A5    A(1,2,12)             124.3799         calculate D2E/DX2 analytically  !
 ! A6    A(4,2,12)             116.8472         calculate D2E/DX2 analytically  !
 ! A7    A(6,5,7)              110.096          calculate D2E/DX2 analytically  !
 ! A8    A(6,5,8)              110.0332         calculate D2E/DX2 analytically  !
 ! A9    A(6,5,9)              110.2984         calculate D2E/DX2 analytically  !
 ! A10   A(7,5,8)              110.3463         calculate D2E/DX2 analytically  !
 ! A11   A(7,5,9)              105.6607         calculate D2E/DX2 analytically  !
 ! A12   A(8,5,9)              110.3279         calculate D2E/DX2 analytically  !
 ! A13   A(5,9,10)             107.9104         calculate D2E/DX2 analytically  !
 ! A14   A(9,10,11)            103.5685         calculate D2E/DX2 analytically  !
 ! A15   A(2,12,13)            122.9222         calculate D2E/DX2 analytically  !
 ! A16   A(2,12,14)            116.732          calculate D2E/DX2 analytically  !
 ! A17   A(13,12,14)           120.3457         calculate D2E/DX2 analytically  !
 ! A18   A(12,13,15)           121.5014         calculate D2E/DX2 analytically  !
 ! A19   A(12,13,16)           121.1137         calculate D2E/DX2 analytically  !
 ! A20   A(15,13,16)           117.3847         calculate D2E/DX2 analytically  !
 ! A21   L(1,11,10,6,-1)       172.3444         calculate D2E/DX2 analytically  !
 ! A22   L(1,11,10,6,-2)       171.6013         calculate D2E/DX2 analytically  !
 ! D1    D(3,1,2,4)            179.7865         calculate D2E/DX2 analytically  !
 ! D2    D(3,1,2,12)            -0.0438         calculate D2E/DX2 analytically  !
 ! D3    D(11,1,2,4)             0.1411         calculate D2E/DX2 analytically  !
 ! D4    D(11,1,2,12)         -179.6892         calculate D2E/DX2 analytically  !
 ! D5    D(2,1,10,9)           -18.6201         calculate D2E/DX2 analytically  !
 ! D6    D(3,1,10,9)           160.356          calculate D2E/DX2 analytically  !
 ! D7    D(1,2,12,13)          179.7946         calculate D2E/DX2 analytically  !
 ! D8    D(1,2,12,14)           -0.1138         calculate D2E/DX2 analytically  !
 ! D9    D(4,2,12,13)           -0.0387         calculate D2E/DX2 analytically  !
 ! D10   D(4,2,12,14)         -179.9471         calculate D2E/DX2 analytically  !
 ! D11   D(6,5,9,10)            64.6582         calculate D2E/DX2 analytically  !
 ! D12   D(7,5,9,10)          -176.3841         calculate D2E/DX2 analytically  !
 ! D13   D(8,5,9,10)           -57.1133         calculate D2E/DX2 analytically  !
 ! D14   D(5,9,10,11)          -88.6507         calculate D2E/DX2 analytically  !
 ! D15   D(2,12,13,15)        -179.9086         calculate D2E/DX2 analytically  !
 ! D16   D(2,12,13,16)          -0.0617         calculate D2E/DX2 analytically  !
 ! D17   D(14,12,13,15)         -0.0034         calculate D2E/DX2 analytically  !
 ! D18   D(14,12,13,16)        179.8435         calculate D2E/DX2 analytically  !
 --------------------------------------------------------------------------------
 Trust Radius=3.00D-01 FncErr=1.00D-07 GrdErr=1.00D-07 EigMax=2.50D+02 EigMin=1.00D-04
 Number of steps in this run=    100 maximum allowed number of steps=    100.
 Search for a saddle point of order  1.
 GradGradGradGradGradGradGradGradGradGradGradGradGradGradGradGradGradGrad

                          Input orientation:                          
 ---------------------------------------------------------------------
 Center     Atomic      Atomic             Coordinates (Angstroms)
 Number     Number       Type             X           Y           Z
 ---------------------------------------------------------------------
      1          6           0       -0.319470    1.340421    0.312950
      2          6           0       -1.044431    0.313466   -0.070763
      3          1           0       -0.554106    2.248341    0.852563
      4          1           0       -0.560620   -0.494627   -0.618091
      5          6           0        2.220128   -1.101541    0.642440
      6          1           0        1.471546   -0.827317    1.389924
      7          1           0        2.175340   -2.170677    0.443012
      8          1           0        3.214312   -0.822320    0.989955
      9          8           0        1.935767   -0.470947   -0.590885
     10          8           0        2.061762    0.899509   -0.408718
     11          1           0        1.063638    1.208111   -0.083980
     12          6           0       -2.480561    0.173197    0.183899
     13          6           0       -3.186351   -0.876541   -0.221049
     14          1           0       -2.960238    0.978736    0.727861
     15          1           0       -4.245626   -0.955714   -0.021790
     16          1           0       -2.720370   -1.687047   -0.767496
 ---------------------------------------------------------------------
                    Distance matrix (angstroms):
                    1          2          3          4          5
     1  C    0.000000
     2  C    1.314321   0.000000
     3  H    1.081922   2.199248   0.000000
     4  H    2.071809   1.089337   3.112353   0.000000
     5  C    3.538545   3.628808   4.354565   3.112851   0.000000
     6  H    3.011096   3.124921   3.721787   2.876196   1.092843
     7  H    4.309153   4.099007   5.210118   3.379432   1.088499
     8  H    4.198023   4.533434   4.863004   4.116225   1.089556
     9  O    3.030522   3.125286   3.959487   2.496648   1.414072
    10  O    2.526950   3.179008   3.202022   2.977304   2.265880
    11  H    1.445008   2.290092   2.139226   2.413049   2.683216
    12  C    2.459549   1.465264   2.909392   2.185257   4.892003
    13  C    3.663207   2.454898   4.224482   2.682902   5.479622
    14  H    2.697522   2.179610   2.723402   3.120986   5.583103
    15  H    4.560591   3.443961   4.965660   3.761309   6.501418
    16  H    4.012137   2.701159   4.775413   2.471580   5.171002
                    6          7          8          9         10
     6  H    0.000000
     7  H    1.787899   0.000000
     8  H    1.788081   1.787925   0.000000
     9  O    2.065455   2.003851   2.063297   0.000000
    10  O    2.562303   3.188163   2.499871   1.388240   0.000000
    11  H    2.545928   3.595805   3.146647   1.958774   1.094048
    12  C    4.251432   5.219032   5.837153   4.529808   4.638041
    13  C    4.928860   5.555492   6.514442   5.151444   5.543669
    14  H    4.831238   6.031095   6.437202   5.273664   5.149619
    15  H    5.890287   6.551411   7.529415   6.226435   6.585948
    16  H    4.792260   5.066281   6.249547   4.815569   5.448649
                   11         12         13         14         15
    11  H    0.000000
    12  C    3.701912   0.000000
    13  C    4.735712   1.328184   0.000000
    14  H    4.111359   1.083918   2.096094   0.000000
    15  H    5.733611   2.105280   1.080757   2.440552   0.000000
    16  H    4.813299   2.103133   1.082895   3.065947   1.848603
                   16
    16  H    0.000000
 Stoichiometry    C5H9O2(2)
 Framework group  C1[X(C5H9O2)]
 Deg. of freedom    42
 Full point group                 C1      NOp   1
 Largest Abelian subgroup         C1      NOp   1
 Largest concise Abelian subgroup C1      NOp   1
                         Standard orientation:                         
 ---------------------------------------------------------------------
 Center     Atomic      Atomic             Coordinates (Angstroms)
 Number     Number       Type             X           Y           Z
 ---------------------------------------------------------------------
      1          6           0       -0.319470    1.340421    0.312950
      2          6           0       -1.044431    0.313466   -0.070763
      3          1           0       -0.554106    2.248341    0.852563
      4          1           0       -0.560620   -0.494627   -0.618091
      5          6           0        2.220128   -1.101541    0.642440
      6          1           0        1.471546   -0.827317    1.389924
      7          1           0        2.175340   -2.170677    0.443012
      8          1           0        3.214312   -0.822320    0.989955
      9          8           0        1.935767   -0.470947   -0.590885
     10          8           0        2.061762    0.899509   -0.408718
     11          1           0        1.063638    1.208111   -0.083980
     12          6           0       -2.480561    0.173197    0.183899
     13          6           0       -3.186351   -0.876541   -0.221049
     14          1           0       -2.960238    0.978736    0.727861
     15          1           0       -4.245626   -0.955714   -0.021790
     16          1           0       -2.720370   -1.687047   -0.767496
 ---------------------------------------------------------------------
 Rotational constants (GHZ):           4.9723310           1.0723277           0.9505845
 Standard basis: CC-pVTZ (5D, 7F)
 There are   380 symmetry adapted cartesian basis functions of A   symmetry.
 There are   336 symmetry adapted basis functions of A   symmetry.
   336 basis functions,   517 primitive gaussians,   380 cartesian basis functions
    28 alpha electrons       27 beta electrons
       nuclear repulsion energy       281.8757740961 Hartrees.
 NAtoms=   16 NActive=   16 NUniq=   16 SFac= 1.00D+00 NAtFMM=   60 NAOKFM=F Big=F
 Integral buffers will be    131072 words long.
 Raffenetti 2 integral format.
 Two-electron integral symmetry is turned on.
 Nuclear repulsion after empirical dispersion term =      281.8671859728 Hartrees.
 One-electron integrals computed using PRISM.
 NBasis=   336 RedAO= T EigKep=  2.96D-04  NBF=   336
 NBsUse=   336 1.00D-06 EigRej= -1.00D+00 NBFU=   336
 ExpMin= 1.03D-01 ExpMax= 1.53D+04 ExpMxC= 5.22D+02 IAcc=3 IRadAn=         5 AccDes= 0.00D+00
 Harris functional with IExCor=  419 and IRadAn=       5 diagonalized for initial guess.
 HarFok:  IExCor=  419 AccDes= 0.00D+00 IRadAn=         5 IDoV= 1 UseB2=F ITyADJ=14
 ICtDFT=  3500011 ScaDFX=  1.000000  1.000000  1.000000  1.000000
 FoFCou: FMM=F IPFlag=           0 FMFlag=      100000 FMFlg1=           0
         NFxFlg=           0 DoJE=T BraDBF=F KetDBF=T FulRan=T
         wScrn=  0.000000 ICntrl=       500 IOpCl=  0 I1Cent=   200000004 NGrid=           0
         NMat0=    1 NMatS0=      1 NMatT0=    0 NMatD0=    1 NMtDS0=    0 NMtDT0=    0
 Petite list used in FoFCou.
 Initial guess <Sx>= 0.0000 <Sy>= 0.0000 <Sz>= 0.5000 <S**2>= 0.7500 S= 0.5000
 Requested convergence on RMS density matrix=1.00D-08 within 128 cycles.
 Requested convergence on MAX density matrix=1.00D-06.
 Requested convergence on             energy=1.00D-06.
 No special actions if energy rises.
 Integral accuracy reduced to 1.0D-05 until final iterations.
 Initial convergence to 1.0D-05 achieved.  Increase integral accuracy.
 SCF Done:  E(UB2PLYPD3) =  -345.583853222     A.U. after   25 cycles
            NFock= 25  Conv=0.75D-08     -V/T= 2.0041
 <Sx>= 0.0000 <Sy>= 0.0000 <Sz>= 0.5000 <S**2>= 0.8006 S= 0.5250
 <L.S>=  0.00000000000    
 Annihilation of the first spin contaminant:
 S**2 before annihilation     0.8006,   after     0.7516
 DoSCS=T DFT=T ScalE2(SS,OS)=  0.270000  0.270000
 ExpMin= 1.03D-01 ExpMax= 1.53D+04 ExpMxC= 5.22D+02 IAcc=3 IRadAn=         5 AccDes= 0.00D+00
 HarFok:  IExCor=  205 AccDes= 0.00D+00 IRadAn=         5 IDoV=-2 UseB2=F ITyADJ=14
 ICtDFT= 12500011 ScaDFX=  1.000000  1.000000  1.000000  1.000000
 Range of M.O.s used for correlation:     8   336
 NBasis=   336 NAE=    28 NBE=    27 NFC=     7 NFV=     0
 NROrb=    329 NOA=    21 NOB=    20 NVA=   308 NVB=   309

 **** Warning!!: The largest alpha MO coefficient is  0.13683941D+02


 **** Warning!!: The largest beta MO coefficient is  0.15110231D+02

 DoSCS=T DFT=T ScalE2(SS,OS)=  0.270000  0.270000
 Disk-based method using ON**2 memory for 21 occupieds at a time.
 Permanent disk used for amplitudes=   106523802 words.
 Estimated scratch disk usage=  1898615744 words.
 Actual    scratch disk usage=  1836022720 words.
 JobTyp=2 Pass  1:  I=   8 to  28 NPSUse= 40 ParTrn=T ParDer=T DoDerP=T.
 (rs|ai) integrals will be sorted in core.
 Actual    scratch disk usage=  1836022720 words.
 JobTyp=3 Pass  1:  I=   8 to  27 NPSUse= 40 ParTrn=T ParDer=T DoDerP=T.
 (rs|ai) integrals will be sorted in core.
 Spin components of T(2) and E(2):
     alpha-alpha T2 =       0.7579221296D-01 E2=     -0.5288969535D-01
     alpha-beta  T2 =       0.4623571053D+00 E2=     -0.3237027915D+00
     beta-beta   T2 =       0.8089999747D-01 E2=     -0.5169304873D-01
 (S**2,0)=  0.80063D+00           (S**2,1)=  0.76299D+00
 Scaling Projection term by:   0.270000
 E(PUHF)=      -0.34559127728D+03        E(PMP2)=      -0.34601341178D+03
 E2(B2PLYPD3) =    -0.4282855356D+00 E(B2PLYPD3) =    -0.34601213875771D+03
 G2DrvN: will do    17 centers at a time, making    1 passes.
 Calling FoFCou, ICntrl=  3107 FMM=F I1Cent=   0 AccDes= 0.00D+00.
 End of G2Drv F.D. properties file   721 does not exist.
 End of G2Drv F.D. properties file   722 does not exist.
 End of G2Drv F.D. properties file   788 does not exist.
          IDoAtm=1111111111111111
          Differentiating once with respect to electric field.
                with respect to dipole field.
          Differentiating once with respect to nuclear coordinates.
 Keep R1 and R2 ints in memory in canonical form, NReq=3251642460.
          There are    51 degrees of freedom in the 1st order CPHF.  IDoFFX=6 NUNeed=    51.
     48 vectors produced by pass  0 Test12= 3.33D-14 1.96D-09 XBig12= 1.07D+02 4.68D+00.
 AX will form    48 AO Fock derivatives at one time.
     48 vectors produced by pass  1 Test12= 3.33D-14 1.96D-09 XBig12= 7.29D+00 5.92D-01.
     48 vectors produced by pass  2 Test12= 3.33D-14 1.96D-09 XBig12= 4.89D-01 1.12D-01.
     48 vectors produced by pass  3 Test12= 3.33D-14 1.96D-09 XBig12= 7.47D-03 1.06D-02.
     48 vectors produced by pass  4 Test12= 3.33D-14 1.96D-09 XBig12= 9.50D-05 9.66D-04.
     48 vectors produced by pass  5 Test12= 3.33D-14 1.96D-09 XBig12= 8.51D-07 8.05D-05.
     48 vectors produced by pass  6 Test12= 3.33D-14 1.96D-09 XBig12= 7.50D-09 7.97D-06.
     30 vectors produced by pass  7 Test12= 3.33D-14 1.96D-09 XBig12= 5.22D-11 6.48D-07.
      3 vectors produced by pass  8 Test12= 3.33D-14 1.96D-09 XBig12= 3.40D-13 9.09D-08.
      2 vectors produced by pass  9 Test12= 3.33D-14 1.96D-09 XBig12= 2.45D-15 5.48D-09.
 InvSVY:  IOpt=1 It=  1 EMax= 5.33D-15
 Solved reduced A of dimension   371 with    51 vectors.
 End of Minotr F.D. properties file   721 does not exist.
 End of Minotr F.D. properties file   722 does not exist.
 End of Minotr F.D. properties file   788 does not exist.
 MDV= 10737418240.
 DoSCS=T DFT=T ScalE2(SS,OS)=  0.270000  0.270000
 Form MO integral derivatives with frozen-active canonical formalism.
 Discarding MO integrals.
 Reordered first order wavefunction length =    428928697
 In DefCFB: NBatch=  1 ICI= 28 ICA=309 LFMax= 78
            Large arrays: LIAPS=  8665386240 LIARS=  1611002400 words.
 In DefCFB: NBatch=  1 ICI= 28 ICA=309 LFMax= 78
            Large arrays: LIAPS=  8665386240 LIARS=  1611002400 words.
 Semi-Direct transformation.
 ModeAB=           4 MOrb=            28 LenV=   10734107571
 LASXX=    503301435 LTotXX=   503301435 LenRXX=  1014543915
 LTotAB=   511242480 MaxLAS=   588752640 LenRXY=           0
 NonZer=  1517845350 LenScr=  2285697024 LnRSAI=   588752640
 LnScr1=   886592512 LExtra=           0 Total=   4775586091
 MaxDsk=          -1 SrtSym=           T ITran=            4
 JobTyp=1 Pass  1:  I=   1 to  28.
 (rs|ai) integrals will be sorted in core.
 ModeAB=           4 MOrb=            27 LenV=   10734107571
 LASXX=    486308502 LTotXX=   486308502 LenRXX=   901306008
 LTotAB=   414997506 MaxLAS=   567725760 LenRXY=           0
 NonZer=  1387614510 LenScr=  2089584640 LnRSAI=   567725760
 LnScr1=   854928384 LExtra=           0 Total=   4413544792
 MaxDsk=          -1 SrtSym=           T ITran=            4
 JobTyp=2 Pass  1:  I=   1 to  27.
 (rs|ai) integrals will be sorted in core.
 SymMOI:  orbitals are not symmetric.
 DoSCS=T DFT=T ScalE2(SS,OS)=  0.270000  0.270000
 Spin components of T(2) and E(2):
     alpha-alpha T2 =       0.7579221296D-01 E2=     -0.5288969535D-01
     alpha-beta  T2 =       0.4623571053D+00 E2=     -0.3237027915D+00
     beta-beta   T2 =       0.8089999747D-01 E2=     -0.5169304873D-01
 E2(B2PLYPD3) =    -0.4282855356D+00 E(B2PLYPD3) =    -0.34601213875771D+03
 (S**2,0)=  0.80063D+00           (S**2,1)=  0.76299D+00
 Scaling Projection term by:   0.270000
 E(PUHF)=      -0.34559127728D+03        E(PMP2)=      -0.34601341178D+03
          IDoAtm=1111111111111111
          Differentiating once with respect to electric field.
                with respect to dipole field.
          Differentiating once with respect to nuclear coordinates.
 Keep R1 and R2 ints in memory in canonical form, NReq=3251778068.
          There are     1 degrees of freedom in the 1st order CPHF.  IDoFFX=0 NUNeed=     1.
 LinEq1:  Iter=  0 NonCon=     1 RMS=9.79D-04 Max=7.58D-02 NDo=     1
 AX will form     1 AO Fock derivatives at one time.
 LinEq1:  Iter=  1 NonCon=     1 RMS=3.59D-04 Max=2.15D-02 NDo=     1
 LinEq1:  Iter=  2 NonCon=     1 RMS=2.57D-04 Max=1.81D-02 NDo=     1
 LinEq1:  Iter=  3 NonCon=     1 RMS=1.39D-04 Max=8.61D-03 NDo=     1
 LinEq1:  Iter=  4 NonCon=     1 RMS=9.21D-05 Max=5.44D-03 NDo=     1
 LinEq1:  Iter=  5 NonCon=     1 RMS=3.48D-05 Max=1.18D-03 NDo=     1
 LinEq1:  Iter=  6 NonCon=     1 RMS=2.49D-05 Max=8.72D-04 NDo=     1
 LinEq1:  Iter=  7 NonCon=     1 RMS=1.07D-05 Max=4.86D-04 NDo=     1
 LinEq1:  Iter=  8 NonCon=     1 RMS=8.88D-06 Max=3.12D-04 NDo=     1
 LinEq1:  Iter=  9 NonCon=     1 RMS=3.75D-06 Max=1.82D-04 NDo=     1
 LinEq1:  Iter= 10 NonCon=     1 RMS=1.37D-06 Max=6.23D-05 NDo=     1
 LinEq1:  Iter= 11 NonCon=     1 RMS=1.03D-06 Max=4.64D-05 NDo=     1
 LinEq1:  Iter= 12 NonCon=     1 RMS=3.67D-07 Max=1.10D-05 NDo=     1
 LinEq1:  Iter= 13 NonCon=     1 RMS=1.19D-07 Max=2.78D-06 NDo=     1
 LinEq1:  Iter= 14 NonCon=     1 RMS=3.65D-08 Max=7.26D-07 NDo=     1
 LinEq1:  Iter= 15 NonCon=     1 RMS=1.47D-08 Max=3.67D-07 NDo=     1
 LinEq1:  Iter= 16 NonCon=     1 RMS=7.01D-09 Max=1.81D-07 NDo=     1
 LinEq1:  Iter= 17 NonCon=     1 RMS=3.10D-09 Max=6.87D-08 NDo=     1
 LinEq1:  Iter= 18 NonCon=     1 RMS=1.02D-09 Max=2.62D-08 NDo=     1
 LinEq1:  Iter= 19 NonCon=     1 RMS=3.14D-10 Max=5.34D-09 NDo=     1
 LinEq1:  Iter= 20 NonCon=     1 RMS=1.38D-10 Max=2.15D-09 NDo=     1
 LinEq1:  Iter= 21 NonCon=     1 RMS=5.15D-11 Max=1.14D-09 NDo=     1
 LinEq1:  Iter= 22 NonCon=     0 RMS=1.47D-11 Max=6.04D-10 NDo=     1
 Linear equations converged to 1.000D-10 1.000D-09 after    22 iterations.
 End of Minotr F.D. properties file   721 does not exist.
 End of Minotr F.D. properties file   722 does not exist.
 End of Minotr F.D. properties file   788 does not exist.
 Symmetrizing basis deriv contribution to polar:
 IMax=3 JMax=2 DiffMx= 0.00D+00
 G2DrvN: will do    17 centers at a time, making    1 passes.
 Calling FoFCou, ICntrl=  3107 FMM=F I1Cent=   0 AccDes= 0.00D+00.
 End of G2Drv F.D. properties file   721 does not exist.
 End of G2Drv F.D. properties file   722 does not exist.
 End of G2Drv F.D. properties file   788 does not exist.
 DoSCS=T DFT=T ScalE2(SS,OS)=  0.270000  0.270000
 R2 and R3 integrals will be kept in memory, NReq=  5268037470.
 DD1Dir will call FoFMem   1 times, MxPair=      2242
 NAB=   756 NAA=   378 NBB=   351.
 Discarding MO integrals.

 **********************************************************************

            Population analysis using the SCF Density.

 **********************************************************************

 Orbital symmetries:
 Alpha Orbitals:
       Occupied  (A) (A) (A) (A) (A) (A) (A) (A) (A) (A) (A) (A)
                 (A) (A) (A) (A) (A) (A) (A) (A) (A) (A) (A) (A)
                 (A) (A) (A) (A)
       Virtual   (A) (A) (A) (A) (A) (A) (A) (A) (A) (A) (A) (A)
                 (A) (A) (A) (A) (A) (A) (A) (A) (A) (A) (A) (A)
                 (A) (A) (A) (A) (A) (A) (A) (A) (A) (A) (A) (A)
                 (A) (A) (A) (A) (A) (A) (A) (A) (A) (A) (A) (A)
                 (A) (A) (A) (A) (A) (A) (A) (A) (A) (A) (A) (A)
                 (A) (A) (A) (A) (A) (A) (A) (A) (A) (A) (A) (A)
                 (A) (A) (A) (A) (A) (A) (A) (A) (A) (A) (A) (A)
                 (A) (A) (A) (A) (A) (A) (A) (A) (A) (A) (A) (A)
                 (A) (A) (A) (A) (A) (A) (A) (A) (A) (A) (A) (A)
                 (A) (A) (A) (A) (A) (A) (A) (A) (A) (A) (A) (A)
                 (A) (A) (A) (A) (A) (A) (A) (A) (A) (A) (A) (A)
                 (A) (A) (A) (A) (A) (A) (A) (A) (A) (A) (A) (A)
                 (A) (A) (A) (A) (A) (A) (A) (A) (A) (A) (A) (A)
                 (A) (A) (A) (A) (A) (A) (A) (A) (A) (A) (A) (A)
                 (A) (A) (A) (A) (A) (A) (A) (A) (A) (A) (A) (A)
                 (A) (A) (A) (A) (A) (A) (A) (A) (A) (A) (A) (A)
                 (A) (A) (A) (A) (A) (A) (A) (A) (A) (A) (A) (A)
                 (A) (A) (A) (A) (A) (A) (A) (A) (A) (A) (A) (A)
                 (A) (A) (A) (A) (A) (A) (A) (A) (A) (A) (A) (A)
                 (A) (A) (A) (A) (A) (A) (A) (A) (A) (A) (A) (A)
                 (A) (A) (A) (A) (A) (A) (A) (A) (A) (A) (A) (A)
                 (A) (A) (A) (A) (A) (A) (A) (A) (A) (A) (A) (A)
                 (A) (A) (A) (A) (A) (A) (A) (A) (A) (A) (A) (A)
                 (A) (A) (A) (A) (A) (A) (A) (A) (A) (A) (A) (A)
                 (A) (A) (A) (A) (A) (A) (A) (A) (A) (A) (A) (A)
                 (A) (A) (A) (A) (A) (A) (A) (A)
 Beta  Orbitals:
       Occupied  (A) (A) (A) (A) (A) (A) (A) (A) (A) (A) (A) (A)
                 (A) (A) (A) (A) (A) (A) (A) (A) (A) (A) (A) (A)
                 (A) (A) (A)
       Virtual   (A) (A) (A) (A) (A) (A) (A) (A) (A) (A) (A) (A)
                 (A) (A) (A) (A) (A) (A) (A) (A) (A) (A) (A) (A)
                 (A) (A) (A) (A) (A) (A) (A) (A) (A) (A) (A) (A)
                 (A) (A) (A) (A) (A) (A) (A) (A) (A) (A) (A) (A)
                 (A) (A) (A) (A) (A) (A) (A) (A) (A) (A) (A) (A)
                 (A) (A) (A) (A) (A) (A) (A) (A) (A) (A) (A) (A)
                 (A) (A) (A) (A) (A) (A) (A) (A) (A) (A) (A) (A)
                 (A) (A) (A) (A) (A) (A) (A) (A) (A) (A) (A) (A)
                 (A) (A) (A) (A) (A) (A) (A) (A) (A) (A) (A) (A)
                 (A) (A) (A) (A) (A) (A) (A) (A) (A) (A) (A) (A)
                 (A) (A) (A) (A) (A) (A) (A) (A) (A) (A) (A) (A)
                 (A) (A) (A) (A) (A) (A) (A) (A) (A) (A) (A) (A)
                 (A) (A) (A) (A) (A) (A) (A) (A) (A) (A) (A) (A)
                 (A) (A) (A) (A) (A) (A) (A) (A) (A) (A) (A) (A)
                 (A) (A) (A) (A) (A) (A) (A) (A) (A) (A) (A) (A)
                 (A) (A) (A) (A) (A) (A) (A) (A) (A) (A) (A) (A)
                 (A) (A) (A) (A) (A) (A) (A) (A) (A) (A) (A) (A)
                 (A) (A) (A) (A) (A) (A) (A) (A) (A) (A) (A) (A)
                 (A) (A) (A) (A) (A) (A) (A) (A) (A) (A) (A) (A)
                 (A) (A) (A) (A) (A) (A) (A) (A) (A) (A) (A) (A)
                 (A) (A) (A) (A) (A) (A) (A) (A) (A) (A) (A) (A)
                 (A) (A) (A) (A) (A) (A) (A) (A) (A) (A) (A) (A)
                 (A) (A) (A) (A) (A) (A) (A) (A) (A) (A) (A) (A)
                 (A) (A) (A) (A) (A) (A) (A) (A) (A) (A) (A) (A)
                 (A) (A) (A) (A) (A) (A) (A) (A) (A) (A) (A) (A)
                 (A) (A) (A) (A) (A) (A) (A) (A) (A)
 The electronic state is 2-A.
 Alpha  occ. eigenvalues --  -19.78878 -19.78551 -10.66013 -10.65183 -10.63876
 Alpha  occ. eigenvalues --  -10.63773 -10.62366  -1.29080  -1.02692  -0.94622
 Alpha  occ. eigenvalues --   -0.86801  -0.78000  -0.71077  -0.65528  -0.62541
 Alpha  occ. eigenvalues --   -0.56767  -0.56019  -0.55182  -0.52902  -0.49661
 Alpha  occ. eigenvalues --   -0.48488  -0.44482  -0.43964  -0.39745  -0.37979
 Alpha  occ. eigenvalues --   -0.36797  -0.31125  -0.29752
 Alpha virt. eigenvalues --    0.01251   0.08861   0.09214   0.10233   0.11207
 Alpha virt. eigenvalues --    0.13145   0.13311   0.14754   0.15796   0.16555
 Alpha virt. eigenvalues --    0.18004   0.20446   0.23390   0.26319   0.28853
 Alpha virt. eigenvalues --    0.31379   0.33860   0.34401   0.35104   0.35674
 Alpha virt. eigenvalues --    0.37067   0.38340   0.40804   0.42173   0.44194
 Alpha virt. eigenvalues --    0.45464   0.46708   0.47470   0.48254   0.49937
 Alpha virt. eigenvalues --    0.50077   0.51364   0.52427   0.53144   0.54100
 Alpha virt. eigenvalues --    0.54859   0.55315   0.56743   0.57838   0.59623
 Alpha virt. eigenvalues --    0.63198   0.64513   0.65962   0.67840   0.69204
 Alpha virt. eigenvalues --    0.69358   0.70550   0.71393   0.74958   0.75954
 Alpha virt. eigenvalues --    0.77686   0.78272   0.79854   0.82490   0.84807
 Alpha virt. eigenvalues --    0.87348   0.89022   0.93049   0.93980   0.95738
 Alpha virt. eigenvalues --    0.97522   0.98748   1.00139   1.02915   1.03063
 Alpha virt. eigenvalues --    1.04066   1.06158   1.07001   1.08820   1.10934
 Alpha virt. eigenvalues --    1.12280   1.13666   1.14269   1.16683   1.18342
 Alpha virt. eigenvalues --    1.19779   1.21056   1.23868   1.24768   1.28303
 Alpha virt. eigenvalues --    1.29378   1.31289   1.33510   1.34879   1.36329
 Alpha virt. eigenvalues --    1.38466   1.39199   1.39798   1.42585   1.47394
 Alpha virt. eigenvalues --    1.47996   1.50547   1.50958   1.51854   1.52474
 Alpha virt. eigenvalues --    1.55350   1.56088   1.59263   1.62690   1.64162
 Alpha virt. eigenvalues --    1.72182   1.74150   1.76297   1.79771   1.85980
 Alpha virt. eigenvalues --    1.90157   1.92627   2.01479   2.03843   2.07300
 Alpha virt. eigenvalues --    2.12880   2.13315   2.16794   2.20462   2.21149
 Alpha virt. eigenvalues --    2.24335   2.29418   2.34954   2.35962   2.37681
 Alpha virt. eigenvalues --    2.37945   2.39986   2.43506   2.45014   2.49941
 Alpha virt. eigenvalues --    2.50489   2.52434   2.54507   2.57167   2.59125
 Alpha virt. eigenvalues --    2.60115   2.64026   2.66399   2.71375   2.74532
 Alpha virt. eigenvalues --    2.77421   2.80586   2.83336   2.85067   2.85892
 Alpha virt. eigenvalues --    2.86784   2.89965   2.90360   2.91416   2.92521
 Alpha virt. eigenvalues --    2.94097   2.94512   2.96242   2.98571   3.00303
 Alpha virt. eigenvalues --    3.02677   3.04199   3.04853   3.05584   3.06827
 Alpha virt. eigenvalues --    3.10679   3.11159   3.12063   3.13924   3.14402
 Alpha virt. eigenvalues --    3.15613   3.17589   3.18377   3.19490   3.21465
 Alpha virt. eigenvalues --    3.22017   3.23222   3.25823   3.27372   3.29131
 Alpha virt. eigenvalues --    3.30419   3.32195   3.33208   3.40338   3.40579
 Alpha virt. eigenvalues --    3.41075   3.42936   3.43751   3.45328   3.50296
 Alpha virt. eigenvalues --    3.52556   3.53265   3.53875   3.54177   3.55870
 Alpha virt. eigenvalues --    3.59196   3.59856   3.60825   3.63953   3.64844
 Alpha virt. eigenvalues --    3.66774   3.68677   3.70305   3.71477   3.75789
 Alpha virt. eigenvalues --    3.77950   3.81379   3.82758   3.84472   3.87307
 Alpha virt. eigenvalues --    3.87867   3.88578   3.90303   3.91096   3.94272
 Alpha virt. eigenvalues --    3.96722   3.97882   3.98891   4.01117   4.03805
 Alpha virt. eigenvalues --    4.04399   4.06372   4.08850   4.09526   4.12433
 Alpha virt. eigenvalues --    4.13524   4.14675   4.15647   4.15857   4.19230
 Alpha virt. eigenvalues --    4.20288   4.21576   4.25950   4.27757   4.28688
 Alpha virt. eigenvalues --    4.33708   4.35092   4.36704   4.38324   4.40988
 Alpha virt. eigenvalues --    4.43781   4.46747   4.50799   4.51351   4.56266
 Alpha virt. eigenvalues --    4.61082   4.61855   4.65850   4.67760   4.68333
 Alpha virt. eigenvalues --    4.70709   4.79246   4.80165   4.82211   4.82946
 Alpha virt. eigenvalues --    4.84775   4.89149   4.94857   4.97183   5.00032
 Alpha virt. eigenvalues --    5.02682   5.06441   5.08257   5.08518   5.09338
 Alpha virt. eigenvalues --    5.12801   5.15964   5.20838   5.21590   5.27173
 Alpha virt. eigenvalues --    5.29291   5.30852   5.32455   5.35408   5.37837
 Alpha virt. eigenvalues --    5.39156   5.40196   5.40824   5.47704   5.49236
 Alpha virt. eigenvalues --    5.55128   5.60283   5.62216   5.70528   5.77756
 Alpha virt. eigenvalues --    5.83556   5.93503   5.97322   6.00130   6.09083
 Alpha virt. eigenvalues --    6.09455   6.10601   6.18241   6.24488   6.31513
 Alpha virt. eigenvalues --    6.38576   6.42318   6.51048   6.68002   6.70032
 Alpha virt. eigenvalues --    6.77386   6.80125   6.88048   6.98312   7.06652
 Alpha virt. eigenvalues --    7.07536   7.21016   7.42177   7.45011   7.63908
 Alpha virt. eigenvalues --    7.82072  10.05323  10.81827  11.20144  11.69146
 Alpha virt. eigenvalues --   13.48425  13.99190  14.80085
  Beta  occ. eigenvalues --  -19.78728 -19.77248 -10.66020 -10.64082 -10.63555
  Beta  occ. eigenvalues --  -10.63460 -10.62557  -1.27473  -1.00357  -0.93826
  Beta  occ. eigenvalues --   -0.85313  -0.77606  -0.69005  -0.64692  -0.59436
  Beta  occ. eigenvalues --   -0.56025  -0.55123  -0.54856  -0.51735  -0.47938
  Beta  occ. eigenvalues --   -0.47104  -0.43787  -0.43214  -0.39552  -0.35910
  Beta  occ. eigenvalues --   -0.34116  -0.28940
  Beta virt. eigenvalues --   -0.05565   0.02049   0.08893   0.09503   0.10337
  Beta virt. eigenvalues --    0.11201   0.13365   0.13862   0.14892   0.15967
  Beta virt. eigenvalues --    0.16628   0.18388   0.20955   0.23694   0.26914
  Beta virt. eigenvalues --    0.29081   0.31415   0.34038   0.34668   0.35602
  Beta virt. eigenvalues --    0.35824   0.37899   0.38563   0.41342   0.42838
  Beta virt. eigenvalues --    0.44565   0.45648   0.47231   0.47950   0.48403
  Beta virt. eigenvalues --    0.50031   0.51150   0.51712   0.52468   0.53804
  Beta virt. eigenvalues --    0.54316   0.55217   0.56351   0.57340   0.59335
  Beta virt. eigenvalues --    0.60199   0.63396   0.64761   0.66209   0.68272
  Beta virt. eigenvalues --    0.69314   0.69688   0.71186   0.71536   0.75557
  Beta virt. eigenvalues --    0.76112   0.78126   0.78647   0.80506   0.82863
  Beta virt. eigenvalues --    0.85582   0.87605   0.89521   0.93516   0.94343
  Beta virt. eigenvalues --    0.95910   0.97738   0.98921   1.00337   1.03070
  Beta virt. eigenvalues --    1.03776   1.04342   1.06179   1.07240   1.09098
  Beta virt. eigenvalues --    1.10954   1.12549   1.13888   1.14569   1.16859
  Beta virt. eigenvalues --    1.18770   1.19931   1.21300   1.24365   1.25046
  Beta virt. eigenvalues --    1.28694   1.29731   1.31420   1.33692   1.35354
  Beta virt. eigenvalues --    1.36718   1.38606   1.39248   1.39987   1.42861
  Beta virt. eigenvalues --    1.47628   1.48308   1.51079   1.51478   1.52013
  Beta virt. eigenvalues --    1.52789   1.55778   1.56379   1.59729   1.62856
  Beta virt. eigenvalues --    1.64325   1.73100   1.74610   1.76789   1.80046
  Beta virt. eigenvalues --    1.86437   1.92339   1.93859   2.01925   2.04724
  Beta virt. eigenvalues --    2.07983   2.13148   2.13521   2.18793   2.20677
  Beta virt. eigenvalues --    2.21392   2.24638   2.30107   2.35270   2.36299
  Beta virt. eigenvalues --    2.37956   2.38360   2.40193   2.44021   2.45685
  Beta virt. eigenvalues --    2.50099   2.50717   2.52737   2.55006   2.57751
  Beta virt. eigenvalues --    2.59517   2.60530   2.64120   2.66445   2.72815
  Beta virt. eigenvalues --    2.75041   2.77712   2.81074   2.84435   2.85391
  Beta virt. eigenvalues --    2.86077   2.87464   2.90074   2.90932   2.91618
  Beta virt. eigenvalues --    2.92805   2.94558   2.95144   2.96830   2.98512
  Beta virt. eigenvalues --    3.00787   3.03103   3.04426   3.05356   3.06252
  Beta virt. eigenvalues --    3.07166   3.11111   3.11248   3.12154   3.14272
  Beta virt. eigenvalues --    3.14656   3.15942   3.17814   3.18835   3.19807
  Beta virt. eigenvalues --    3.21988   3.22113   3.23882   3.26706   3.28874
  Beta virt. eigenvalues --    3.30636   3.31554   3.32854   3.34010   3.40370
  Beta virt. eigenvalues --    3.41181   3.41474   3.43173   3.43823   3.45471
  Beta virt. eigenvalues --    3.50290   3.52965   3.53380   3.53855   3.54570
  Beta virt. eigenvalues --    3.56298   3.59356   3.60129   3.61314   3.64300
  Beta virt. eigenvalues --    3.65057   3.67108   3.68896   3.70675   3.71779
  Beta virt. eigenvalues --    3.76130   3.78130   3.81732   3.83082   3.84644
  Beta virt. eigenvalues --    3.87460   3.88248   3.88759   3.90624   3.90927
  Beta virt. eigenvalues --    3.94328   3.96783   3.97965   3.99172   4.01435
  Beta virt. eigenvalues --    4.04085   4.04437   4.06637   4.09057   4.09734
  Beta virt. eigenvalues --    4.12784   4.13872   4.14680   4.15791   4.15997
  Beta virt. eigenvalues --    4.19373   4.20291   4.21824   4.26242   4.27956
  Beta virt. eigenvalues --    4.29122   4.34035   4.35668   4.37285   4.39111
  Beta virt. eigenvalues --    4.41338   4.44145   4.46856   4.51054   4.51617
  Beta virt. eigenvalues --    4.56802   4.61851   4.62035   4.66344   4.68200
  Beta virt. eigenvalues --    4.68811   4.71232   4.79655   4.80550   4.82399
  Beta virt. eigenvalues --    4.83080   4.84886   4.89800   4.94990   4.97255
  Beta virt. eigenvalues --    5.00192   5.02834   5.06592   5.08300   5.08597
  Beta virt. eigenvalues --    5.09556   5.13179   5.17213   5.21428   5.22635
  Beta virt. eigenvalues --    5.27287   5.29313   5.31219   5.32698   5.35683
  Beta virt. eigenvalues --    5.38068   5.39811   5.40485   5.41265   5.47911
  Beta virt. eigenvalues --    5.49419   5.55439   5.61103   5.62640   5.71128
  Beta virt. eigenvalues --    5.78684   5.84233   5.93574   5.97734   6.00788
  Beta virt. eigenvalues --    6.09737   6.09796   6.10845   6.18919   6.25214
  Beta virt. eigenvalues --    6.31753   6.40124   6.43292   6.51894   6.68553
  Beta virt. eigenvalues --    6.71262   6.79740   6.81233   6.89008   6.99772
  Beta virt. eigenvalues --    7.07315   7.08616   7.22675   7.43530   7.45766
  Beta virt. eigenvalues --    7.65308   7.82888  10.05872  10.82672  11.20827
  Beta virt. eigenvalues --   11.69306  13.48428  13.99596  14.80243
          Condensed to atoms (all electrons):
               1          2          3          4          5          6
     1  C    5.314425   0.593978   0.400622  -0.053561  -0.004556   0.005079
     2  C    0.593978   4.881769  -0.054534   0.394081  -0.001600  -0.000264
     3  H    0.400622  -0.054534   0.500357   0.004680   0.000131  -0.000305
     4  H   -0.053561   0.394081   0.004680   0.506676  -0.003302  -0.003061
     5  C   -0.004556  -0.001600   0.000131  -0.003302   4.621711   0.397675
     6  H    0.005079  -0.000264  -0.000305  -0.003061   0.397675   0.667504
     7  H    0.000408  -0.000088  -0.000007  -0.000433   0.395338  -0.037034
     8  H   -0.000838   0.000398  -0.000010   0.000972   0.413015  -0.054404
     9  O   -0.004936  -0.003913   0.000174   0.022542   0.295755  -0.052206
    10  O   -0.069932   0.000005   0.000885  -0.003134  -0.044029  -0.004206
    11  H    0.165667  -0.001866  -0.007166  -0.002197   0.003947   0.005225
    12  C   -0.065582   0.372705  -0.001994  -0.035897  -0.000271  -0.000098
    13  C    0.002326  -0.063456   0.000115  -0.003331   0.000035   0.000059
    14  H    0.001166  -0.042369   0.003202   0.004363  -0.000006  -0.000005
    15  H   -0.000508   0.006993  -0.000026  -0.000222  -0.000000   0.000003
    16  H    0.000699  -0.002934   0.000043   0.003642   0.000028   0.000020
               7          8          9         10         11         12
     1  C    0.000408  -0.000838  -0.004936  -0.069932   0.165667  -0.065582
     2  C   -0.000088   0.000398  -0.003913   0.000005  -0.001866   0.372705
     3  H   -0.000007  -0.000010   0.000174   0.000885  -0.007166  -0.001994
     4  H   -0.000433   0.000972   0.022542  -0.003134  -0.002197  -0.035897
     5  C    0.395338   0.413015   0.295755  -0.044029   0.003947  -0.000271
     6  H   -0.037034  -0.054404  -0.052206  -0.004206   0.005225  -0.000098
     7  H    0.592593  -0.025139  -0.027121   0.006999  -0.000933  -0.000072
     8  H   -0.025139   0.596301  -0.035717   0.005202   0.000100   0.000003
     9  O   -0.027121  -0.035717   7.956157   0.064838  -0.031816   0.000458
    10  O    0.006999   0.005202   0.064838   8.003892   0.255420   0.000356
    11  H   -0.000933   0.000100  -0.031816   0.255420   0.391532   0.001254
    12  C   -0.000072   0.000003   0.000458   0.000356   0.001254   4.876488
    13  C    0.000014  -0.000004  -0.000123   0.000027  -0.000214   0.600851
    14  H   -0.000001   0.000001   0.000001   0.000005  -0.000045   0.413330
    15  H    0.000000  -0.000000  -0.000001   0.000000   0.000003  -0.046170
    16  H    0.000007  -0.000003  -0.000083   0.000008  -0.000025  -0.052166
              13         14         15         16
     1  C    0.002326   0.001166  -0.000508   0.000699
     2  C   -0.063456  -0.042369   0.006993  -0.002934
     3  H    0.000115   0.003202  -0.000026   0.000043
     4  H   -0.003331   0.004363  -0.000222   0.003642
     5  C    0.000035  -0.000006  -0.000000   0.000028
     6  H    0.000059  -0.000005   0.000003   0.000020
     7  H    0.000014  -0.000001   0.000000   0.000007
     8  H   -0.000004   0.000001  -0.000000  -0.000003
     9  O   -0.000123   0.000001  -0.000001  -0.000083
    10  O    0.000027   0.000005   0.000000   0.000008
    11  H   -0.000214  -0.000045   0.000003  -0.000025
    12  C    0.600851   0.413330  -0.046170  -0.052166
    13  C    4.970074  -0.040641   0.420858   0.415798
    14  H   -0.040641   0.530778  -0.007823   0.006002
    15  H    0.420858  -0.007823   0.529855  -0.033556
    16  H    0.415798   0.006002  -0.033556   0.536738
          Atomic-Atomic Spin Densities.
               1          2          3          4          5          6
     1  C    0.919072  -0.033388   0.004903  -0.003700   0.000461  -0.004653
     2  C   -0.033388  -0.186503  -0.004258   0.006803  -0.000033   0.000018
     3  H    0.004903  -0.004258   0.019447   0.000820  -0.000025   0.000435
     4  H   -0.003700   0.006803   0.000820   0.026885  -0.000396   0.001241
     5  C    0.000461  -0.000033  -0.000025  -0.000396  -0.004647   0.004653
     6  H   -0.004653   0.000018   0.000435   0.001241   0.004653  -0.000098
     7  H    0.000147  -0.000034  -0.000004  -0.000095   0.000297  -0.000674
     8  H    0.001187  -0.000113  -0.000059  -0.000188  -0.002129  -0.000589
     9  O    0.013061  -0.001191  -0.000450  -0.004369  -0.000652  -0.000572
    10  O   -0.082747   0.004804   0.003347   0.002455  -0.001217   0.003364
    11  H    0.039439   0.000669  -0.000511   0.000625   0.000875  -0.003263
    12  C   -0.020565   0.024548  -0.002351  -0.006949   0.000076  -0.000158
    13  C    0.003226   0.002233   0.000463   0.002080  -0.000002   0.000022
    14  H    0.002093  -0.000064   0.000768   0.000219  -0.000002   0.000016
    15  H   -0.000231   0.000377  -0.000026  -0.000111   0.000000  -0.000002
    16  H    0.000220  -0.000094   0.000027   0.000555  -0.000002   0.000011
               7          8          9         10         11         12
     1  C    0.000147   0.001187   0.013061  -0.082747   0.039439  -0.020565
     2  C   -0.000034  -0.000113  -0.001191   0.004804   0.000669   0.024548
     3  H   -0.000004  -0.000059  -0.000450   0.003347  -0.000511  -0.002351
     4  H   -0.000095  -0.000188  -0.004369   0.002455   0.000625  -0.006949
     5  C    0.000297  -0.002129  -0.000652  -0.001217   0.000875   0.000076
     6  H   -0.000674  -0.000589  -0.000572   0.003364  -0.003263  -0.000158
     7  H   -0.001066   0.000851   0.000141  -0.000192   0.000092   0.000008
     8  H    0.000851   0.002829  -0.000463  -0.000470   0.001231   0.000010
     9  O    0.000141  -0.000463   0.051871  -0.036814   0.008493   0.000148
    10  O   -0.000192  -0.000470  -0.036814   0.460323  -0.025487  -0.000285
    11  H    0.000092   0.001231   0.008493  -0.025487  -0.098561  -0.000017
    12  C    0.000008   0.000010   0.000148  -0.000285  -0.000017   0.150619
    13  C   -0.000003  -0.000001  -0.000011   0.000019  -0.000081  -0.006763
    14  H   -0.000000  -0.000001  -0.000009   0.000022  -0.000039  -0.002322
    15  H    0.000000   0.000000   0.000001  -0.000000   0.000001   0.001889
    16  H   -0.000002  -0.000001  -0.000014   0.000006  -0.000013  -0.001003
              13         14         15         16
     1  C    0.003226   0.002093  -0.000231   0.000220
     2  C    0.002233  -0.000064   0.000377  -0.000094
     3  H    0.000463   0.000768  -0.000026   0.000027
     4  H    0.002080   0.000219  -0.000111   0.000555
     5  C   -0.000002  -0.000002   0.000000  -0.000002
     6  H    0.000022   0.000016  -0.000002   0.000011
     7  H   -0.000003  -0.000000   0.000000  -0.000002
     8  H   -0.000001  -0.000001   0.000000  -0.000001
     9  O   -0.000011  -0.000009   0.000001  -0.000014
    10  O    0.000019   0.000022  -0.000000   0.000006
    11  H   -0.000081  -0.000039   0.000001  -0.000013
    12  C   -0.006763  -0.002322   0.001889  -0.001003
    13  C   -0.123445   0.002369  -0.003960  -0.000412
    14  H    0.002369  -0.007724  -0.000423   0.000070
    15  H   -0.003960  -0.000423   0.012048  -0.001380
    16  H   -0.000412   0.000070  -0.001380   0.007237
 Mulliken charges and spin densities:
               1          2
     1  C   -0.284456   0.838525
     2  C   -0.078906  -0.186228
     3  H    0.153833   0.022526
     4  H    0.168182   0.025875
     5  C   -0.073869  -0.002741
     6  H    0.076018  -0.000250
     7  H    0.095471  -0.000534
     8  H    0.100123   0.002094
     9  O   -0.184008   0.029170
    10  O   -0.216336   0.327130
    11  H    0.221114  -0.076546
    12  C   -0.063195   0.136883
    13  C   -0.302387  -0.124268
    14  H    0.132040  -0.005027
    15  H    0.130593   0.008183
    16  H    0.125784   0.005207
 Sum of Mulliken charges =  -0.00000   1.00000
 Mulliken charges and spin densities with hydrogens summed into heavy atoms:
               1          2
     1  C   -0.130623   0.861051
     2  C    0.089276  -0.160352
     5  C    0.197743  -0.001430
     9  O   -0.184008   0.029170
    10  O    0.004778   0.250583
    12  C    0.068844   0.131856
    13  C   -0.046010  -0.110878
 APT charges:
               1
     1  C    0.223851
     2  C   -0.122170
     3  H    0.014021
     4  H    0.069463
     5  C    0.424176
     6  H   -0.035112
     7  H   -0.001924
     8  H   -0.032379
     9  O   -0.348812
    10  O    0.077488
    11  H   -0.325152
    12  C    0.108433
    13  C   -0.147614
    14  H    0.019736
    15  H    0.035757
    16  H    0.040238
 Sum of APT charges =  -0.00000
 APT charges with hydrogens summed into heavy atoms:
               1
     1  C    0.237872
     2  C   -0.052707
     5  C    0.354760
     9  O   -0.348812
    10  O   -0.247664
    12  C    0.128170
    13  C   -0.071619
 Electronic spatial extent (au):  <R**2>=           1216.6294
 Charge=             -0.0000 electrons
 Dipole moment (field-independent basis, Debye):
    X=             -1.9169    Y=             -0.7958    Z=              1.8868  Tot=              2.8050
 Quadrupole moment (field-independent basis, Debye-Ang):
   XX=            -42.7848   YY=            -39.5834   ZZ=            -45.7268
   XY=             -3.1706   XZ=              2.9959   YZ=              2.2248
 Traceless Quadrupole moment (field-independent basis, Debye-Ang):
   XX=             -0.0865   YY=              3.1149   ZZ=             -3.0284
   XY=             -3.1706   XZ=              2.9959   YZ=              2.2248
 Octapole moment (field-independent basis, Debye-Ang**2):
  XXX=              0.5252  YYY=              1.4552  ZZZ=             -2.6632  XYY=              4.8375
  XXY=            -11.3138  XXZ=             10.4081  XZZ=              7.7062  YZZ=              0.1686
  YYZ=              2.2080  XYZ=             -5.9599
 Hexadecapole moment (field-independent basis, Debye-Ang**3):
 XXXX=          -1156.9195 YYYY=           -251.8080 ZZZZ=           -107.6150 XXXY=             -5.8249
 XXXZ=             -1.5506 YYYX=             -7.8997 YYYZ=             12.1973 ZZZX=             -6.1431
 ZZZY=              1.4807 XXYY=           -243.7476 XXZZ=           -236.1366 YYZZ=            -62.6176
 XXYZ=              7.6116 YYXZ=              0.2383 ZZXY=             -1.9086
 N-N= 2.818671859728D+02 E-N=-1.372254393903D+03  KE= 3.441685866836D+02
  Exact polarizability: 121.668   7.108  81.051   0.800   8.720  50.809
 Approx polarizability: 101.144  16.452  98.190   1.104  12.834  62.969
                          Isotropic Fermi Contact Couplings
        Atom                 a.u.       MegaHertz       Gauss      10(-4) cm-1
     1  C(13)              0.19585     220.17210      78.56288      73.44151
     2  C(13)              0.01336      15.01815       5.35885       5.00952
     3  H(1)               0.01362      60.86348      21.71760      20.30187
     4  H(1)               0.01334      59.60682      21.26919      19.88269
     5  C(13)             -0.00341      -3.83646      -1.36894      -1.27971
     6  H(1)               0.00257      11.47833       4.09576       3.82876
     7  H(1)              -0.00005      -0.20446      -0.07296      -0.06820
     8  H(1)               0.00072       3.20405       1.14328       1.06876
     9  O(17)              0.01556      -9.43355      -3.36612      -3.14669
    10  O(17)              0.01833     -11.11439      -3.96589      -3.70736
    11  H(1)              -0.02683    -119.90866     -42.78639     -39.99722
    12  C(13)              0.04242      47.68767      17.01615      15.90689
    13  C(13)              0.01136      12.77236       4.55750       4.26040
    14  H(1)               0.00057       2.56584       0.91555       0.85587
    15  H(1)              -0.00049      -2.19851      -0.78448      -0.73334
    16  H(1)              -0.00147      -6.57210      -2.34509      -2.19222
 --------------------------------------------------------
       Center         ----  Spin Dipole Couplings  ----
                      3XX-RR        3YY-RR        3ZZ-RR
 --------------------------------------------------------
     1   Atom        0.686539     -0.366509     -0.320030
     2   Atom        0.018199      0.000054     -0.018253
     3   Atom       -0.006535      0.028075     -0.021539
     4   Atom       -0.005794      0.011153     -0.005359
     5   Atom       -0.003945      0.003818      0.000127
     6   Atom       -0.002793      0.001850      0.000943
     7   Atom       -0.002098      0.004626     -0.002528
     8   Atom       -0.000106      0.000470     -0.000363
     9   Atom        0.317372     -0.187030     -0.130343
    10   Atom        1.325619     -0.750820     -0.574799
    11   Atom        0.189630     -0.097847     -0.091783
    12   Atom        0.090688     -0.014814     -0.075874
    13   Atom       -0.027794     -0.008279      0.036073
    14   Atom        0.010533     -0.004011     -0.006522
    15   Atom        0.006403     -0.004342     -0.002061
    16   Atom       -0.001497      0.002097     -0.000600
 --------------------------------------------------------
                        XY            XZ            YZ
 --------------------------------------------------------
     1   Atom       -0.062480     -0.286978      0.034544
     2   Atom        0.031871      0.007604      0.000962
     3   Atom       -0.000486     -0.009043      0.038687
     4   Atom        0.003682      0.001416      0.010812
     5   Atom       -0.005055     -0.000285     -0.004675
     6   Atom       -0.002915      0.000320     -0.006917
     7   Atom       -0.002064      0.000377     -0.002766
     8   Atom       -0.004303      0.003739     -0.004009
     9   Atom       -0.147556     -0.169260      0.025253
    10   Atom       -0.180381     -0.633628      0.058782
    11   Atom       -0.076179     -0.098369      0.024667
    12   Atom        0.036966     -0.024310      0.038802
    13   Atom       -0.001383      0.019706     -0.036214
    14   Atom        0.002665     -0.002790      0.001492
    15   Atom        0.000878     -0.001322     -0.001766
    16   Atom       -0.001211     -0.000770      0.002619
 --------------------------------------------------------


 ---------------------------------------------------------------------------------
              Anisotropic Spin Dipole Couplings in Principal Axis System
 ---------------------------------------------------------------------------------

       Atom             a.u.   MegaHertz   Gauss  10(-4) cm-1        Axes

              Baa    -0.4049   -54.335   -19.388   -18.124  0.2026 -0.4519  0.8688
     1 C(13)  Bbb    -0.3619   -48.568   -17.330   -16.200  0.1690  0.8900  0.4236
              Bcc     0.7668   102.903    36.718    34.325  0.9646 -0.0610 -0.2566
 
              Baa    -0.0260    -3.495    -1.247    -1.166 -0.5676  0.6757  0.4703
     2 C(13)  Bbb    -0.0169    -2.273    -0.811    -0.758  0.2062 -0.4364  0.8758
              Bcc     0.0430     5.769     2.058     1.924  0.7971  0.5941  0.1083
 
              Baa    -0.0443   -23.621    -8.429    -7.879  0.2012 -0.4609  0.8644
     3 H(1)   Bbb    -0.0054    -2.861    -1.021    -0.954  0.9758  0.1713 -0.1358
              Bcc     0.0496    26.482     9.450     8.834 -0.0855  0.8708  0.4842
 
              Baa    -0.0107    -5.729    -2.044    -1.911  0.0828 -0.4525  0.8879
     4 H(1)   Bbb    -0.0064    -3.434    -1.225    -1.145  0.9822 -0.1137 -0.1495
              Bcc     0.0172     9.163     3.269     3.056  0.1686  0.8845  0.4350
 
              Baa    -0.0073    -0.980    -0.350    -0.327  0.7897  0.5052  0.3481
     5 C(13)  Bbb    -0.0011    -0.147    -0.053    -0.049 -0.5184  0.2459  0.8190
              Bcc     0.0084     1.127     0.402     0.376 -0.3282  0.8272 -0.4561
 
              Baa    -0.0065    -3.453    -1.232    -1.152  0.4685  0.6560  0.5918
     6 H(1)   Bbb    -0.0023    -1.249    -0.446    -0.417  0.8601 -0.1857 -0.4750
              Bcc     0.0088     4.702     1.678     1.568 -0.2017  0.7315 -0.6513
 
              Baa    -0.0036    -1.904    -0.680    -0.635  0.2957  0.3715  0.8801
     7 H(1)   Bbb    -0.0025    -1.348    -0.481    -0.450  0.9231  0.1259 -0.3633
              Bcc     0.0061     3.253     1.161     1.085 -0.2457  0.9199 -0.3057
 
              Baa    -0.0041    -2.204    -0.787    -0.735  0.7176  0.6959  0.0284
     8 H(1)   Bbb    -0.0039    -2.097    -0.748    -0.699 -0.3969  0.3752  0.8377
              Bcc     0.0081     4.301     1.535     1.435 -0.5723  0.6124 -0.5454
 
              Baa    -0.2342    16.948     6.048     5.653  0.3387  0.8779  0.3385
     9 O(17)  Bbb    -0.1766    12.778     4.560     4.262  0.1819 -0.4140  0.8919
              Bcc     0.4108   -29.726   -10.607    -9.916  0.9231 -0.2405 -0.3000
 
              Baa    -0.7706    55.760    19.896    18.599 -0.1509  0.6996 -0.6984
    10 O(17)  Bbb    -0.7627    55.186    19.692    18.408  0.2600  0.7097  0.6548
              Bcc     1.5333  -110.945   -39.588   -37.007  0.9538 -0.0828 -0.2890
 
              Baa    -0.1228   -65.534   -23.384   -21.860  0.2760 -0.1020  0.9557
    11 H(1)   Bbb    -0.1168   -62.308   -22.233   -20.784  0.2505  0.9676  0.0309
              Bcc     0.2396   127.842    45.617    42.644  0.9279 -0.2309 -0.2926
 
              Baa    -0.1024   -13.740    -4.903    -4.583  0.1978 -0.4656  0.8626
    12 C(13)  Bbb    -0.0008    -0.103    -0.037    -0.034 -0.2065  0.8404  0.5010
              Bcc     0.1032    13.843     4.940     4.618  0.9582  0.2772 -0.0700
 
              Baa    -0.0384    -5.152    -1.838    -1.718  0.7514 -0.4930 -0.4386
    13 C(13)  Bbb    -0.0216    -2.904    -1.036    -0.969  0.6285  0.7372  0.2480
              Bcc     0.0600     8.055     2.874     2.687  0.2011 -0.4620  0.8638
 
              Baa    -0.0080    -4.243    -1.514    -1.415  0.1971 -0.4609  0.8653
    14 H(1)   Bbb    -0.0034    -1.817    -0.648    -0.606 -0.0707  0.8736  0.4814
              Bcc     0.0114     6.059     2.162     2.021  0.9778  0.1560 -0.1396
 
              Baa    -0.0053    -2.831    -1.010    -0.944 -0.0125  0.8804  0.4740
    15 H(1)   Bbb    -0.0014    -0.757    -0.270    -0.252  0.1980 -0.4625  0.8642
              Bcc     0.0067     3.588     1.280     1.197  0.9801  0.1047 -0.1685
 
              Baa    -0.0022    -1.173    -0.419    -0.391  0.0751 -0.5036  0.8607
    16 H(1)   Bbb    -0.0019    -0.995    -0.355    -0.332  0.9654  0.2529  0.0637
              Bcc     0.0041     2.168     0.774     0.723 -0.2498  0.8261  0.5051
 

 ---------------------------------------------------------------------------------

 Calling FoFJK, ICntrl=  10100127 FMM=F ISym2X=0 I1Cent= 0 IOpClX= 1 NMat=1 NMatS=1 NMatT=0.
 ***** Axes restored to original set *****
 -------------------------------------------------------------------
 Center     Atomic                   Forces (Hartrees/Bohr)
 Number     Number              X              Y              Z
 -------------------------------------------------------------------
      1        6           0.003252668    0.003077253    0.000274772
      2        6          -0.001872960   -0.001297170   -0.000492389
      3        1          -0.000100342   -0.001094225   -0.000514563
      4        1          -0.000550896    0.001015643    0.000666642
      5        6           0.001116163   -0.001590006    0.005028447
      6        1           0.000993899   -0.000697900   -0.000217861
      7        1          -0.000015716    0.000500254   -0.000169708
      8        1          -0.000547663   -0.000473545    0.000224534
      9        8          -0.001194394   -0.012219683   -0.006760615
     10        8           0.005146526    0.011946780    0.000400969
     11        1          -0.006492325    0.001594834    0.001958514
     12        6           0.002942261    0.003733262    0.001374661
     13        6          -0.003058187   -0.004324829   -0.001610458
     14        1           0.000212534   -0.000749299   -0.000433711
     15        1           0.000823671   -0.000044174   -0.000216155
     16        1          -0.000655242    0.000622805    0.000486922
 -------------------------------------------------------------------
 Cartesian Forces:  Max     0.012219683 RMS     0.003330137
 FormGI is forming the generalized inverse of G from B-inverse, IUseBI=4.

 GradGradGradGradGradGradGradGradGradGradGradGradGradGradGradGradGradGrad
 Berny optimization.
 Internal  Forces:  Max     0.014531840 RMS     0.002559664
 Search for a saddle point.
 Step number   1 out of a maximum of  100
 All quantities printed in internal units (Hartrees-Bohrs-Radians)
 Swapping is turned off.
 Second derivative matrix not updated -- analytic derivatives used.
 ITU=  0
     Eigenvalues ---   -0.05662   0.00478   0.00594   0.00718   0.01131
     Eigenvalues ---    0.01374   0.02002   0.02450   0.02730   0.03313
     Eigenvalues ---    0.04109   0.04664   0.04884   0.05622   0.08458
     Eigenvalues ---    0.08547   0.08753   0.10523   0.10905   0.11307
     Eigenvalues ---    0.12641   0.13410   0.13963   0.16788   0.17800
     Eigenvalues ---    0.18587   0.21778   0.23356   0.30098   0.32959
     Eigenvalues ---    0.33500   0.33764   0.34395   0.34573   0.35581
     Eigenvalues ---    0.35904   0.36025   0.36370   0.36527   0.44174
     Eigenvalues ---    0.64722   0.68256
 Eigenvectors required to have negative eigenvalues:
                          R3        R11       A1        R10       A2
   1                   -0.80508   0.53144  -0.15360  -0.14091   0.09919
                          A14       A3        D14       A13       R1
   1                    0.06619   0.05441   0.04938   0.03462   0.02877
 RFO step:  Lambda0=1.182408719D-04 Lambda=-1.06722672D-03.
 Linear search not attempted -- option 19 set.
 Iteration  1 RMS(Cart)=  0.04718258 RMS(Int)=  0.00036338
 Iteration  2 RMS(Cart)=  0.00082442 RMS(Int)=  0.00000916
 Iteration  3 RMS(Cart)=  0.00000061 RMS(Int)=  0.00000916
 Variable       Old X    -DE/DX   Delta X   Delta X   Delta X     New X
                                 (Linear)    (Quad)   (Total)
    R1        2.48371   0.00207   0.00000   0.00144   0.00144   2.48515
    R2        2.04454  -0.00115   0.00000  -0.00389  -0.00389   2.04065
    R3        2.73067  -0.00099   0.00000   0.03170   0.03170   2.76237
    R4        2.05855  -0.00133   0.00000  -0.00354  -0.00354   2.05501
    R5        2.76895  -0.00026   0.00000  -0.00172  -0.00172   2.76723
    R6        2.06517  -0.00102   0.00000  -0.00346  -0.00346   2.06171
    R7        2.05696  -0.00046   0.00000  -0.00056  -0.00056   2.05640
    R8        2.05896  -0.00055   0.00000  -0.00208  -0.00208   2.05688
    R9        2.67221   0.00555   0.00000   0.01275   0.01275   2.68496
   R10        2.62339   0.01453   0.00000   0.05141   0.05141   2.67481
   R11        2.06745   0.00619   0.00000  -0.01115  -0.01115   2.05630
   R12        2.50990   0.00490   0.00000   0.00732   0.00732   2.51722
   R13        2.04831  -0.00087   0.00000  -0.00255  -0.00255   2.04576
   R14        2.04234  -0.00084   0.00000  -0.00243  -0.00243   2.03991
   R15        2.04638  -0.00099   0.00000  -0.00292  -0.00292   2.04345
    A1        2.32086  -0.00069   0.00000   0.01301   0.01300   2.33386
    A2        1.95651   0.00061   0.00000  -0.00967  -0.00967   1.94683
    A3        2.00581   0.00008   0.00000  -0.00331  -0.00332   2.00249
    A4        2.07297  -0.00061   0.00000  -0.00465  -0.00465   2.06832
    A5        2.17084   0.00113   0.00000   0.00594   0.00594   2.17678
    A6        2.03937  -0.00051   0.00000  -0.00128  -0.00129   2.03808
    A7        1.92154  -0.00028   0.00000  -0.00105  -0.00104   1.92049
    A8        1.92044  -0.00049   0.00000   0.00010   0.00007   1.92051
    A9        1.92507   0.00108   0.00000   0.00763   0.00762   1.93269
   A10        1.92591  -0.00024   0.00000  -0.00196  -0.00196   1.92395
   A11        1.84413  -0.00078   0.00000  -0.00907  -0.00907   1.83506
   A12        1.92558   0.00071   0.00000   0.00410   0.00409   1.92967
   A13        1.88339   0.00116   0.00000  -0.00909  -0.00909   1.87431
   A14        1.80761   0.00482   0.00000  -0.00481  -0.00481   1.80280
   A15        2.14540   0.00063   0.00000   0.00116   0.00116   2.14656
   A16        2.03736  -0.00011   0.00000   0.00279   0.00279   2.04015
   A17        2.10043  -0.00052   0.00000  -0.00395  -0.00395   2.09648
   A18        2.12060  -0.00001   0.00000  -0.00178  -0.00178   2.11882
   A19        2.11383   0.00027   0.00000   0.00215   0.00215   2.11598
   A20        2.04875  -0.00026   0.00000  -0.00037  -0.00037   2.04838
   A21        3.00798   0.00259   0.00000   0.02646   0.02646   3.03444
   A22        2.99501   0.00187   0.00000   0.03220   0.03220   3.02721
    D1        3.13787   0.00008   0.00000   0.00141   0.00140   3.13927
    D2       -0.00076   0.00004   0.00000  -0.00088  -0.00089  -0.00165
    D3        0.00246  -0.00013   0.00000  -0.00567  -0.00566  -0.00320
    D4       -3.13617  -0.00017   0.00000  -0.00796  -0.00795   3.13907
    D5       -0.32498  -0.00046   0.00000   0.01834   0.01837  -0.30661
    D6        2.79874   0.00007   0.00000   0.01735   0.01732   2.81606
    D7        3.13801   0.00003   0.00000   0.00200   0.00200   3.14001
    D8       -0.00199   0.00001   0.00000   0.00118   0.00118  -0.00081
    D9       -0.00067  -0.00001   0.00000  -0.00025  -0.00025  -0.00092
   D10       -3.14067  -0.00003   0.00000  -0.00107  -0.00107   3.14145
   D11        1.12850   0.00029   0.00000   0.00536   0.00539   1.13388
   D12       -3.07848   0.00008   0.00000   0.00287   0.00286  -3.07562
   D13       -0.99681  -0.00028   0.00000  -0.00257  -0.00259  -0.99940
   D14       -1.54725  -0.00144   0.00000  -0.04243  -0.04243  -1.58968
   D15       -3.14000  -0.00000   0.00000  -0.00058  -0.00058  -3.14058
   D16       -0.00108  -0.00001   0.00000  -0.00046  -0.00046  -0.00154
   D17       -0.00006   0.00001   0.00000   0.00027   0.00027   0.00021
   D18        3.13886   0.00001   0.00000   0.00040   0.00040   3.13926
         Item               Value     Threshold  Converged?
 Maximum Force            0.014532     0.000450     NO 
 RMS     Force            0.002560     0.000300     NO 
 Maximum Displacement     0.147658     0.001800     NO 
 RMS     Displacement     0.047647     0.001200     NO 
 Predicted change in Energy=-4.780686D-04
 GradGradGradGradGradGradGradGradGradGradGradGradGradGradGradGradGradGrad

                          Input orientation:                          
 ---------------------------------------------------------------------
 Center     Atomic      Atomic             Coordinates (Angstroms)
 Number     Number       Type             X           Y           Z
 ---------------------------------------------------------------------
      1          6           0       -0.348460    1.355572    0.308614
      2          6           0       -1.075486    0.326643   -0.068458
      3          1           0       -0.569263    2.273196    0.833326
      4          1           0       -0.587242   -0.487001   -0.599668
      5          6           0        2.277839   -1.120520    0.646852
      6          1           0        1.540841   -0.875963    1.413225
      7          1           0        2.253477   -2.187234    0.433057
      8          1           0        3.271917   -0.825519    0.977779
      9          8           0        1.953235   -0.487966   -0.583286
     10          8           0        2.057529    0.909071   -0.381042
     11          1           0        1.052021    1.193720   -0.077743
     12          6           0       -2.513052    0.187787    0.173318
     13          6           0       -3.216805   -0.870320   -0.226070
     14          1           0       -3.001022    0.996620    0.702119
     15          1           0       -4.276521   -0.945702   -0.034808
     16          1           0       -2.748288   -1.687333   -0.757386
 ---------------------------------------------------------------------
                    Distance matrix (angstroms):
                    1          2          3          4          5
     1  C    0.000000
     2  C    1.315083   0.000000
     3  H    1.079866   2.204211   0.000000
     4  H    2.068108   1.087466   3.110062   0.000000
     5  C    3.625312   3.721657   4.433742   3.188079   0.000000
     6  H    3.125600   3.238335   3.834844   2.954957   1.091010
     7  H    4.397390   4.201558   5.293724   3.467996   1.088200
     8  H    4.279261   4.617575   4.937364   4.182827   1.088453
     9  O    3.080896   3.178330   3.999225   2.540530   1.420820
    10  O    2.542396   3.201986   3.199307   2.998605   2.285681
    11  H    1.461785   2.297431   2.150320   2.405080   2.717236
    12  C    2.463226   1.464354   2.926236   2.182107   4.988841
    13  C    3.669862   2.458213   4.244231   2.683489   5.569175
    14  H    2.705508   2.179529   2.749603   3.118031   5.687856
    15  H    4.565464   3.444796   4.985852   3.760353   6.592030
    16  H    4.019303   2.707210   4.792109   2.477053   5.249297
                    6          7          8          9         10
     6  H    0.000000
     7  H    1.785500   0.000000
     8  H    1.785716   1.785555   0.000000
     9  O    2.075251   2.002651   2.071181   0.000000
    10  O    2.583159   3.207531   2.515936   1.415447   0.000000
    11  H    2.597214   3.624260   3.181100   1.973785   1.088147
    12  C    4.370696   5.331791   5.927885   4.580045   4.660234
    13  C    5.032149   5.665042   6.599604   5.196452   5.568560
    14  H    4.963946   6.149722   6.538038   5.329251   5.173958
    15  H    5.995278   6.663421   7.617000   6.270583   6.609104
    16  H    4.875090   5.165725   6.324270   4.855215   5.475293
                   11         12         13         14         15
    11  H    0.000000
    12  C    3.712772   0.000000
    13  C    4.743958   1.332055   0.000000
    14  H    4.132093   1.082569   2.096082   0.000000
    15  H    5.742153   2.106641   1.079472   2.437739   0.000000
    16  H    4.817128   2.106566   1.081348   3.065555   1.845976
                   16
    16  H    0.000000
 Stoichiometry    C5H9O2(2)
 Framework group  C1[X(C5H9O2)]
 Deg. of freedom    42
 Full point group                 C1      NOp   1
 Largest Abelian subgroup         C1      NOp   1
 Largest concise Abelian subgroup C1      NOp   1
                         Standard orientation:                         
 ---------------------------------------------------------------------
 Center     Atomic      Atomic             Coordinates (Angstroms)
 Number     Number       Type             X           Y           Z
 ---------------------------------------------------------------------
      1          6           0       -0.355586    1.350682    0.306008
      2          6           0       -1.074659    0.314506   -0.066440
      3          1           0       -0.582450    2.266601    0.831113
      4          1           0       -0.581401   -0.494881   -0.599517
      5          6           0        2.296056   -1.099831    0.632604
      6          1           0        1.560736   -0.861687    1.402600
      7          1           0        2.280815   -2.166914    0.419810
      8          1           0        3.288965   -0.795030    0.958118
      9          8           0        1.959020   -0.471482   -0.596344
     10          8           0        2.050962    0.926665   -0.395784
     11          1           0        1.044358    1.201926   -0.087494
     12          6           0       -2.509554    0.162087    0.182921
     13          6           0       -3.205192   -0.903062   -0.211939
     14          1           0       -3.002505    0.966663    0.713593
     15          1           0       -4.263129   -0.988431   -0.015109
     16          1           0       -2.731627   -1.716006   -0.745018
 ---------------------------------------------------------------------
 Rotational constants (GHZ):           4.9078060           1.0493025           0.9285164
 Standard basis: CC-pVTZ (5D, 7F)
 There are   380 symmetry adapted cartesian basis functions of A   symmetry.
 There are   336 symmetry adapted basis functions of A   symmetry.
   336 basis functions,   517 primitive gaussians,   380 cartesian basis functions
    28 alpha electrons       27 beta electrons
       nuclear repulsion energy       279.7439915595 Hartrees.
 NAtoms=   16 NActive=   16 NUniq=   16 SFac= 1.00D+00 NAtFMM=   60 NAOKFM=F Big=F
 Integral buffers will be    131072 words long.
 Raffenetti 2 integral format.
 Two-electron integral symmetry is turned on.
 Nuclear repulsion after empirical dispersion term =      279.7355059417 Hartrees.
 One-electron integrals computed using PRISM.
 NBasis=   336 RedAO= T EigKep=  3.01D-04  NBF=   336
 NBsUse=   336 1.00D-06 EigRej= -1.00D+00 NBFU=   336
 Initial guess from the checkpoint file:  "/localscratch/341085/Gau-15118.chk"
 B after Tr=     0.000000   -0.000000   -0.000000
         Rot=    0.999989   -0.000438   -0.001361   -0.004569 Ang=  -0.55 deg.
 Initial guess <Sx>= 0.0000 <Sy>= 0.0000 <Sz>= 0.5000 <S**2>= 0.8008 S= 0.5251
 ExpMin= 1.03D-01 ExpMax= 1.53D+04 ExpMxC= 5.22D+02 IAcc=3 IRadAn=         5 AccDes= 0.00D+00
 Harris functional with IExCor=  419 and IRadAn=       5 diagonalized for initial guess.
 HarFok:  IExCor=  419 AccDes= 0.00D+00 IRadAn=         5 IDoV= 1 UseB2=F ITyADJ=14
 ICtDFT=  3500011 ScaDFX=  1.000000  1.000000  1.000000  1.000000
 FoFCou: FMM=F IPFlag=           0 FMFlag=      100000 FMFlg1=           0
         NFxFlg=           0 DoJE=T BraDBF=F KetDBF=T FulRan=T
         wScrn=  0.000000 ICntrl=       500 IOpCl=  0 I1Cent=   200000004 NGrid=           0
         NMat0=    1 NMatS0=      1 NMatT0=    0 NMatD0=    1 NMtDS0=    0 NMtDT0=    0
 Petite list used in FoFCou.
 Requested convergence on RMS density matrix=1.00D-08 within 128 cycles.
 Requested convergence on MAX density matrix=1.00D-06.
 Requested convergence on             energy=1.00D-06.
 No special actions if energy rises.
 Integral accuracy reduced to 1.0D-05 until final iterations.
 Initial convergence to 1.0D-05 achieved.  Increase integral accuracy.
 SCF Done:  E(UB2PLYPD3) =  -345.584078561     A.U. after   18 cycles
            NFock= 18  Conv=0.76D-08     -V/T= 2.0043
 <Sx>= 0.0000 <Sy>= 0.0000 <Sz>= 0.5000 <S**2>= 0.8034 S= 0.5264
 <L.S>=  0.00000000000    
 Annihilation of the first spin contaminant:
 S**2 before annihilation     0.8034,   after     0.7517
 DoSCS=T DFT=T ScalE2(SS,OS)=  0.270000  0.270000
 ExpMin= 1.03D-01 ExpMax= 1.53D+04 ExpMxC= 5.22D+02 IAcc=3 IRadAn=         5 AccDes= 0.00D+00
 HarFok:  IExCor=  205 AccDes= 0.00D+00 IRadAn=         5 IDoV=-2 UseB2=F ITyADJ=14
 ICtDFT= 12500011 ScaDFX=  1.000000  1.000000  1.000000  1.000000
 Range of M.O.s used for correlation:     8   336
 NBasis=   336 NAE=    28 NBE=    27 NFC=     7 NFV=     0
 NROrb=    329 NOA=    21 NOB=    20 NVA=   308 NVB=   309

 **** Warning!!: The largest alpha MO coefficient is  0.13812203D+02


 **** Warning!!: The largest beta MO coefficient is  0.13929466D+02

 DoSCS=T DFT=T ScalE2(SS,OS)=  0.270000  0.270000
 Disk-based method using ON**2 memory for 21 occupieds at a time.
 Estimated scratch disk usage=  1908647328 words.
 Actual    scratch disk usage=  1749229984 words.
 JobTyp=2 Pass  1:  I=   8 to  28 NPSUse= 40 ParTrn=T ParDer=T DoDerP=T.
 (rs|ai) integrals will be sorted in core.
 Actual    scratch disk usage=  1749229984 words.
 JobTyp=3 Pass  1:  I=   8 to  27 NPSUse= 40 ParTrn=T ParDer=T DoDerP=T.
 (rs|ai) integrals will be sorted in core.
 Spin components of T(2) and E(2):
     alpha-alpha T2 =       0.7636662147D-01 E2=     -0.5297121233D-01
     alpha-beta  T2 =       0.4650177146D+00 E2=     -0.3241203513D+00
     beta-beta   T2 =       0.8045758921D-01 E2=     -0.5147042296D-01
 (S**2,0)=  0.80343D+00           (S**2,1)=  0.76546D+00
 Scaling Projection term by:   0.270000
 E(PUHF)=      -0.34559142617D+03        E(PMP2)=      -0.34601393262D+03
 E2(B2PLYPD3) =    -0.4285619866D+00 E(B2PLYPD3) =    -0.34601264054756D+03
          IDoAtm=1111111111111111
          Differentiating once with respect to electric field.
                with respect to dipole field.
          Differentiating once with respect to nuclear coordinates.
 Keep R1 and R2 ints in memory in canonical form, NReq=3251778068.
          There are     1 degrees of freedom in the 1st order CPHF.  IDoFFX=0 NUNeed=     1.
 LinEq1:  Iter=  0 NonCon=     1 RMS=9.77D-04 Max=7.45D-02 NDo=     1
 AX will form     1 AO Fock derivatives at one time.
 LinEq1:  Iter=  1 NonCon=     1 RMS=3.54D-04 Max=2.15D-02 NDo=     1
 LinEq1:  Iter=  2 NonCon=     1 RMS=2.53D-04 Max=1.79D-02 NDo=     1
 LinEq1:  Iter=  3 NonCon=     1 RMS=1.32D-04 Max=7.80D-03 NDo=     1
 LinEq1:  Iter=  4 NonCon=     1 RMS=8.79D-05 Max=5.03D-03 NDo=     1
 LinEq1:  Iter=  5 NonCon=     1 RMS=3.28D-05 Max=1.13D-03 NDo=     1
 LinEq1:  Iter=  6 NonCon=     1 RMS=2.41D-05 Max=9.07D-04 NDo=     1
 LinEq1:  Iter=  7 NonCon=     1 RMS=1.12D-05 Max=4.85D-04 NDo=     1
 LinEq1:  Iter=  8 NonCon=     1 RMS=9.37D-06 Max=3.28D-04 NDo=     1
 LinEq1:  Iter=  9 NonCon=     1 RMS=3.70D-06 Max=1.72D-04 NDo=     1
 LinEq1:  Iter= 10 NonCon=     1 RMS=1.29D-06 Max=5.48D-05 NDo=     1
 LinEq1:  Iter= 11 NonCon=     1 RMS=9.52D-07 Max=4.30D-05 NDo=     1
 LinEq1:  Iter= 12 NonCon=     1 RMS=3.47D-07 Max=9.75D-06 NDo=     1
 LinEq1:  Iter= 13 NonCon=     1 RMS=1.23D-07 Max=3.11D-06 NDo=     1
 LinEq1:  Iter= 14 NonCon=     1 RMS=4.27D-08 Max=6.83D-07 NDo=     1
 LinEq1:  Iter= 15 NonCon=     1 RMS=1.78D-08 Max=3.96D-07 NDo=     1
 LinEq1:  Iter= 16 NonCon=     1 RMS=7.20D-09 Max=1.72D-07 NDo=     1
 LinEq1:  Iter= 17 NonCon=     1 RMS=2.96D-09 Max=5.93D-08 NDo=     1
 LinEq1:  Iter= 18 NonCon=     1 RMS=1.03D-09 Max=2.38D-08 NDo=     1
 LinEq1:  Iter= 19 NonCon=     1 RMS=4.05D-10 Max=1.24D-08 NDo=     1
 LinEq1:  Iter= 20 NonCon=     1 RMS=1.85D-10 Max=3.77D-09 NDo=     1
 LinEq1:  Iter= 21 NonCon=     1 RMS=5.86D-11 Max=1.61D-09 NDo=     1
[...]

 Dipole orientation:
     6         -0.45260083          2.67265725         -0.02197091
     6         -1.69283344          0.79751200          1.03719333
     1         -0.34848874          4.67807543          0.34095256
     1         -1.45242710         -1.09427760          0.27144547
     6          4.30963889         -2.13433283         -1.27828455
     1          4.16498936         -1.04801993          0.46791794
     1          4.27291727         -4.14762995         -0.86080946
     1          6.04340325         -1.64544580         -2.27113567
     8          2.17193081         -1.70498996         -2.84547157
     8          2.22639525          0.87011327         -3.58292152
     1          1.10134865          1.79882403         -2.13334962
     6         -3.39974506          1.05878785          3.19953933
     6         -4.62627097         -0.88787037          4.22075813
     1         -3.64218266          2.94041446          3.96494021
     1         -5.87508940         -0.63922014          5.81444995
     1         -4.41249839         -2.78085069          3.48140071

 Electric dipole moment (dipole orientation):
 (Debye = 10**-18 statcoulomb cm , SI units = C m)
                  (au)            (Debye)         (10**-30 SI)
   Tot        0.102748D+01      0.261159D+01      0.871133D+01
   x          0.000000D+00      0.000000D+00      0.000000D+00
   y          0.000000D+00      0.000000D+00      0.000000D+00
   z          0.102748D+01      0.261159D+01      0.871133D+01

 Dipole polarizability, Alpha (dipole orientation).
 (esu units = cm**3 , SI units = C**2 m**2 J**-1)
 Alpha(0;0):
               (au)            (10**-24 esu)      (10**-40 SI)
   iso        0.841447D+02      0.124690D+02      0.138736D+02
   aniso      0.638282D+02      0.945836D+01      0.105238D+02
   xx         0.885423D+02      0.131206D+02      0.145987D+02
   yx         0.199501D+00      0.295631D-01      0.328933D-01
   yy         0.820748D+02      0.121622D+02      0.135323D+02
   zx        -0.364222D+02     -0.539721D+01     -0.600521D+01
   zy        -0.410821D+01     -0.608774D+00     -0.677353D+00
   zz         0.818171D+02      0.121240D+02      0.134898D+02

 ----------------------------------------------------------------------
 1\1\GINC-N58\Freq\UB2PLYPD3-FC\CC-pVTZ\C5H9O2(2)\ROOT\05-Jun-2019\0\\#
 N Geom=AllCheck Guess=TCheck SCRF=Check GenChk UB2PLYPD3(FC)/CC-pVTZ F
 req\\Title Card Required\\0,2\C,-0.3540249009,1.355686533,0.3074890839
 \C,-1.0818368309,0.3267965372,-0.0682508021\H,-0.5747416395,2.27571936
 75,0.8280021289\H,-0.5937284498,-0.489553587,-0.5954057383\C,2.2919534
 079,-1.1236093255,0.6470108225\H,1.558952098,-0.884800449,1.4189323697
 \H,2.2710250068,-2.1897661733,0.4299578731\H,3.28690238,-0.8252388545,
 0.9722323283\O,1.9563998654,-0.4891019494,-0.5793119782\O,2.0562367154
 ,0.9099371945,-0.3725407718\H,1.0481192935,1.190091555,-0.0732228055\C
 ,-2.5202717641,0.1910983854,0.1701272271\C,-3.2247038289,-0.8673793643
 ,-0.2271962823\H,-3.008370882,1.0026254755,0.694664827\H,-4.2850420771
 ,-0.9403012813,-0.0384432383\H,-2.7561483939,-1.6871540637,-0.75421304
 39\\Version=ES64L-G16RevB.01\State=2-A\HF=-345.584064\MP2=-346.0126457
 \PUHF=-345.59141\PMP2-0=-346.0139386\S2=0.803534\S2-1=0.765542\S2A=0.7
 51724\RMSD=2.541e-09\RMSF=3.120e-06\ZeroPoint=0.1236306\Thermal=0.1329
 011\Dipole=-0.6689263,-0.3424267,0.7007102\DipoleDeriv=0.889519,-0.465
 2787,-0.1944926,-0.0075558,-0.1188287,0.0819313,-0.2438341,0.1613075,-
 0.1718966,-0.2074385,0.1655168,0.0292212,0.1170764,-0.0446801,0.029511
 8,0.0936043,-0.0182185,-0.0633959,-0.1642566,0.1481212,0.080615,-0.063
 145,0.0921183,-0.0557643,0.0456045,-0.091136,0.1478293,0.0767693,-0.01
 35953,0.0295221,-0.0077191,0.0326928,-0.056765,0.0285737,-0.0480929,0.
 1020844,0.4562038,-0.0746625,0.0341975,-0.2045416,0.3645556,-0.0748338
 ,0.3087,-0.1969428,0.4520713,-0.0663363,0.0304825,0.1074378,0.0596345,
 0.0113499,-0.0504137,-0.0037003,0.0501724,-0.0567356,0.0642606,-0.0042
 149,-0.0204492,0.0459681,-0.1051877,-0.0040212,-0.0403633,-0.0183635,0
 .0297849,-0.1459149,0.0097448,-0.0744817,-0.0702936,0.0396069,-0.01862
 73,-0.0705942,0.0562836,0.012074,-0.2102021,-0.0513429,-0.0260404,0.85
 5304,-0.4265975,-0.0271989,-0.0489797,0.0691846,-0.3953925,0.1965705,-
 0.1102335,-0.090996,-0.9461128,0.07237,0.1928004,-0.3371607,0.1239036,
 -0.2063991,-0.942631,0.3507197,0.1336956,0.3388138,0.0038078,-0.044735
 6,0.3441361,-0.1238576,0.117134,0.2991244,0.0522351,-0.0342917,-0.1214
 873,0.0691554,0.1001956,-0.165563,0.0923434,-0.0666598,-0.1813904,-0.0
 805276,-0.0937991,-0.0494537,-0.0601143,0.121694,-0.0417674,0.1310541,
 -0.1899408,-0.0105256,0.0000654,0.0282615,0.0563453,-0.0149793,-0.0871
 616,0.0616776,-0.0777432,0.0846995,-0.0738224,-0.025508,0.0279107,-0.0
 207844,0.0720672,-0.0355575,0.0352707,-0.0296195,0.1132378,0.0200701,0
 .0684779,0.0636892,0.0179514,0.0126638,-0.0710542,0.0343958,-0.0802752
 ,0.0915053\Polar=120.3293234,7.8048485,81.5315497,1.4075896,8.5744317,
 50.5733751\PG=C01 [X(C5H9O2)]\NImag=1\\0.28867875,0.19247702,0.7011141
 7,0.05091332,0.28711004,0.19921478,-0.22230090,-0.23937884,-0.08375846
 ,0.61633942,-0.21159635,-0.39524580,-0.13833383,0.15967750,0.68252534,
 -0.07066702,-0.13250324,-0.09270414,-0.02231357,0.25357902,0.26125239,
 -0.04287578,0.06380206,0.03725010,0.00899758,-0.01866727,-0.01138225,0
 .04080091,0.04372089,-0.26468719,-0.13309817,0.01344950,-0.00837364,-0
 .00735959,-0.05182947,0.27231998,0.02638895,-0.13789932,-0.10043188,0.
 00499624,-0.00050948,-0.00100402,-0.03203890,0.14342525,0.09579400,0.0
 1035391,-0.01237943,-0.00799139,-0.10413910,0.08758902,0.05867502,-0.0
 0185508,-0.00360269,0.00024148,0.11084354,0.00660423,-0.02113364,-0.01
 370324,0.09262827,-0.19801690,-0.10052076,-0.00222929,-0.00054458,-0.0
 0378391,-0.09299028,0.21563649,0.00172548,-0.00949890,-0.00261289,0.06
 137424,-0.09988770,-0.10716552,0.00086518,-0.00344961,0.00571821,-0.06
 682405,0.11903014,0.10023761,-0.00237940,-0.00004994,-0.00029774,0.000
 41841,0.00012396,-0.00007102,0.00060871,0.00026220,-0.00027552,-0.0003
 1289,0.00020041,-0.00078337,0.57927216,0.00553247,0.00043179,-0.000729
 38,-0.00112811,0.00046480,0.00061948,-0.00129270,-0.00020936,0.0000876
 1,0.00088729,0.00011784,-0.00011252,0.02244527,0.57850764,-0.00931490,
 -0.00064348,0.00107854,0.00266222,-0.00020610,-0.00067790,0.00204819,-
 0.00005064,0.00069003,-0.00107756,-0.00004297,0.00073857,-0.02075933,0
 .07853353,0.49092983,0.00032467,0.00015636,-0.00013516,-0.00045939,-0.
 00007320,0.00010742,-0.00006317,-0.00023785,0.00031908,-0.00004693,-0.
 00012622,0.00010846,-0.17915353,0.04331342,0.12288556,0.18381277,-0.00
 067073,-0.00014409,-0.00010521,0.00039284,0.00003665,0.00004231,0.0002
 1426,0.00006507,-0.00009441,-0.00007994,0.00010608,-0.00017150,0.04320
 588,-0.06776868,-0.04798967,-0.04683622,0.06472892,0.00292658,0.000250
 63,0.00000256,-0.00084435,-0.00014412,0.00029741,-0.00057162,-0.000063
 13,-0.00011516,0.00007298,-0.00000746,-0.00046198,0.11924215,-0.041927
 02,-0.16316899,-0.13176606,0.04196207,0.19420717,0.00021809,0.00001544
 ,-0.00019788,-0.00008677,0.00014288,0.00016426,-0.00007785,-0.00005554
 ,0.00003745,-0.00002582,0.00004529,-0.00004426,-0.05128775,-0.00858425
 ,-0.00209663,0.00159161,0.02175436,0.00401434,0.04712303,-0.00076919,-
 0.00000583,0.00017006,0.00035210,-0.00014533,-0.00018046,0.00021290,0.
 00007006,-0.00000292,-0.00000583,-0.00006509,0.00003990,-0.00584421,-0
 .30208340,-0.05541739,-0.00102146,-0.00453392,-0.00172477,0.00500178,0
 .33402733,0.00082252,-0.00000346,0.00007014,-0.00042423,-0.00006546,0.
 00002611,-0.00021324,-0.00000729,-0.00006736,-0.00002007,0.00001541,-0
 .00000182,-0.00191652,-0.06704275,-0.06576925,-0.00230923,-0.02104088,
 -0.00228522,0.00349502,0.05611807,0.06779556,0.00076628,-0.00001429,-0
 .00025533,-0.00011456,0.00020867,0.00010701,-0.00023222,-0.00007418,0.
 00007828,0.00018758,-0.00005430,0.00011344,-0.27522426,-0.07152455,-0.
 06225652,-0.01887100,-0.00790551,-0.00542104,0.00210596,0.00044631,0.0
 0166834,0.29389824,0.00019424,0.00002479,-0.00008172,-0.00012671,-0.00
 019654,-0.00009119,0.00001781,0.00000684,-0.00003281,-0.00012929,-0.00
 001319,0.00005135,-0.07585135,-0.07511994,-0.02629077,0.00859272,0.003
 50605,0.00109707,-0.02857279,-0.00604773,-0.00797058,0.07663234,0.0730
 1228,0.00134591,0.00014072,-0.00018278,-0.00032773,-0.00001657,0.00021
 420,-0.00027972,-0.00001814,-0.00004913,0.00032006,0.00002445,-0.00025
 125,-0.05763255,-0.01989671,-0.06528086,0.02027687,0.00614192,0.008199
 42,-0.00546852,-0.00234155,-0.00092993,0.07599767,0.01949299,0.0811819
 3,-0.00819178,0.00002072,0.00309835,0.00138913,0.00049760,-0.00096196,
 0.00098061,0.00038601,-0.00077608,0.00048829,0.00116278,0.00088523,-0.
 07482745,0.00463208,-0.04253378,0.01266726,-0.00877274,0.01542578,-0.0
 0027801,-0.00027095,0.00075791,-0.00294298,0.01771867,-0.03559253,0.10
 243706,-0.03687651,-0.00157711,0.00612437,0.00753992,-0.00303160,-0.00
 353712,0.00707089,0.00161713,-0.00009481,0.00000384,0.00123893,0.00105
 687,0.01457208,-0.07760253,0.05272870,-0.00189918,-0.00122523,0.004269
 88,0.00899969,-0.02097953,0.03190997,0.00369420,0.00001221,0.00046736,
 -0.02433034,0.33879011,-0.00068859,-0.00093764,-0.00024550,-0.00019729
 ,0.00012686,0.00042256,0.00021081,0.00027884,-0.00015329,0.00057774,0.
 00015256,-0.00060961,-0.04106481,0.01256110,-0.20685806,-0.00862537,0.
 02040031,-0.03956495,0.00140847,-0.00156458,0.00521211,-0.01170701,0.0
 1377800,-0.02495836,0.06523631,-0.02834203,0.32073492,-0.10605562,0.01
 009294,0.02617383,0.00880786,0.00320351,-0.00045366,0.00304272,0.00232
 087,0.00085224,-0.00017101,-0.00020176,-0.00046508,0.00082705,0.013787
 34,0.00233690,0.00075567,-0.00297564,-0.00003466,0.00068653,0.00180044
 ,-0.00196326,0.00190671,0.00143483,0.00268627,-0.04933692,-0.02996262,
 -0.00649960,0.20571037,0.07041033,0.00317995,-0.01552239,-0.01200646,0
 .00215809,0.00470321,-0.00929489,-0.00240496,0.00147546,-0.00016686,-0
 .00213035,-0.00043958,-0.00028034,-0.05711387,0.00356027,-0.00172645,0
 .00518184,-0.00501111,0.00155008,-0.00017521,0.00748565,-0.00165633,0.
 00508715,-0.00444178,-0.01757601,-0.20034493,-0.00611924,0.02648539,0.
 26353786,0.04160697,-0.00330332,-0.00476407,-0.00516536,0.00016573,-0.
 00010947,-0.00332460,-0.00015478,-0.00130382,0.00012910,0.00031275,-0.
 00102258,0.00601486,0.03394900,0.01007270,-0.00099534,0.00098958,0.002
 13980,-0.00156275,0.00467177,-0.00353185,0.00136180,0.00025663,0.00164
 763,-0.00742271,-0.04435710,-0.04971665,-0.03143690,0.00177238,0.05237
 846,0.11071768,-0.00443233,-0.02785191,-0.03111106,-0.00524043,0.00548
 288,-0.01134779,-0.00476219,0.00075831,-0.00016550,-0.00027868,0.00023
 373,0.00196398,-0.00794617,0.00789700,-0.00053697,0.00172009,-0.002979
 85,0.00005234,0.00008822,0.00009318,-0.00146471,0.00006714,-0.00125319
 ,0.01822939,0.05059064,0.00139111,-0.06517293,-0.05617935,-0.00001129,
 -0.02379883,-0.03731035,-0.01800001,0.00888223,-0.00019586,0.00139541,
 -0.00174196,0.01032103,0.00121368,-0.00349558,-0.00106255,-0.00083092,
 0.00000555,0.00121269,0.00074169,-0.00521260,-0.00020424,0.00008674,0.
 00161142,-0.00021828,-0.00020170,0.00070568,0.00027024,-0.00025518,0.0
 0057887,0.02543069,-0.04054271,-0.01034815,-0.02645909,-0.01313950,0.0
 0703960,0.03023140,0.06932242,-0.03756799,0.00244786,-0.00903517,0.005
 80774,-0.00064600,0.00265497,0.00742951,-0.00070806,0.00193714,-0.0007
 4362,-0.00047002,-0.00005789,-0.00278904,0.00416106,-0.00135715,0.0005
 0477,-0.00029673,0.00076363,0.00031793,0.00015930,-0.00050694,0.000411
 62,-0.00024204,0.00036722,0.00081845,-0.02189728,-0.00436048,0.0078942
 5,0.01527666,-0.00626883,0.01921937,0.00189590,0.01475620,-0.02399330,
 -0.00515084,0.00469237,-0.24539420,-0.00637086,0.03635901,0.00235515,0
 .00111400,-0.00041385,-0.01324050,-0.00355829,0.00282056,-0.00031865,0
 .00048815,-0.00071955,-0.00000684,-0.00003349,0.00007258,0.00004581,-0
 .00014832,0.00008717,0.00010572,0.00003666,0.00006165,-0.00069524,-0.0
 0150328,0.00015415,-0.00252880,0.00316593,0.00184667,0.00708783,-0.003
 19367,-0.00248289,0.62719541,-0.02601036,0.00245159,0.00106268,-0.0178
 8151,-0.09174283,-0.01184856,0.00126126,0.00032363,0.00103563,0.023210
 13,0.00369801,-0.00738754,-0.00002398,-0.00028388,0.00088597,0.0001004
 7,-0.00006495,-0.00026088,-0.00007645,0.00013430,-0.00009228,-0.000029
 82,-0.00001410,-0.00010332,0.00111926,0.00321329,0.00000685,-0.0008178
 0,-0.00295829,-0.00083753,-0.00148877,-0.00035167,-0.00055653,0.132171
 93,0.70167298,-0.00557983,-0.00323760,0.01069855,0.03005466,-0.0142209
 5,-0.07529139,-0.00042971,0.00109742,-0.00167197,0.01665961,-0.0017129
 8,0.00405515,0.00044719,-0.00027392,-0.00040910,-0.00040230,0.00017460
 ,0.00001764,-0.00007247,0.00009487,-0.00002145,-0.00013968,0.00003265,
 0.00005184,0.00107948,0.00187112,0.00010052,0.00062641,-0.00285501,0.0
 0052913,-0.00264679,-0.00022818,0.00136359,-0.03954092,0.27137877,0.27
 198400,-0.00657287,-0.00648692,-0.00169464,-0.02136001,-0.02738766,-0.
 00819293,-0.00005648,-0.00007674,0.00004252,0.00211197,-0.00065593,-0.
 00101357,0.00033906,-0.00049135,0.00072724,-0.00004705,0.00000213,-0.0
 0014045,-0.00006593,0.00014033,-0.00007180,-0.00009478,-0.00001288,-0.
 00010433,0.00038740,0.00222990,-0.00008834,0.00146145,-0.00288951,-0.0
 0093005,-0.00430093,0.00106477,0.00107119,-0.23515848,-0.19408501,-0.0
 6110885,0.70183301,-0.00461232,-0.00764571,-0.00347148,0.00000980,0.00
 743619,0.00040197,-0.00015028,0.00039875,0.00003851,0.00120631,0.00101
 004,0.00084226,-0.00002611,-0.00003688,0.00020325,-0.00000444,0.000016
 41,-0.00004736,0.00002576,-0.00001924,-0.00000515,0.00000693,-0.000015
 28,-0.00003261,-0.00003970,0.00026872,-0.00005649,0.00128123,-0.000624
 29,-0.00055091,-0.00208088,0.00048088,0.00079147,-0.19523107,-0.392187
 56,-0.13482945,0.13936318,0.67278378,-0.00079984,-0.00305347,-0.000362
 68,0.00600210,0.00628534,0.00850512,0.00004568,-0.00000059,0.00043610,
 -0.00005308,0.00121868,-0.00040699,-0.00002542,0.00014373,-0.00022733,
 -0.00000187,0.00005162,0.00005301,0.00005486,-0.00005995,0.00000854,0.
 00000993,-0.00001640,0.00003490,-0.00008083,-0.00046832,0.00006875,0.0
 0031225,0.00024517,0.00016941,-0.00017877,0.00022912,-0.00030472,-0.06
 178954,-0.13520333,-0.10784845,-0.05466341,0.26237191,0.25754031,0.001
 85486,0.00155474,0.00015327,-0.01358351,0.02168340,0.01474723,-0.00016
 107,-0.00065613,-0.00027101,-0.00448061,-0.00115743,0.00088549,0.00005
 836,-0.00008150,0.00012886,0.00002504,-0.00000963,0.00001985,0.0000071
 9,0.00000680,-0.00000271,-0.00002162,-0.00000248,-0.00002119,-0.000313
 46,-0.00032421,-0.00010210,-0.00002359,0.00035427,-0.00001623,0.000107
 88,0.00008145,0.00005357,-0.11317934,0.09489416,0.06452748,0.01050204,
 -0.01575216,-0.00912375,0.11907069,-0.00032478,0.00097149,0.00111737,-
 0.00355329,0.00382578,0.00130244,0.00034277,0.00011033,-0.00011358,-0.
 00123753,0.00085219,-0.00060619,-0.00001159,0.00002522,-0.00009912,0.0
 0000443,0.00000102,0.00001997,-0.00000017,-0.00000928,0.00000992,0.000
 00996,0.00000653,0.00001096,-0.00011899,-0.00028205,0.00003008,-0.0001
 9420,0.00034722,0.00011852,0.00051087,-0.00006414,-0.00009492,0.092352
 96,-0.20901368,-0.10657922,0.01312126,-0.01605530,-0.01424274,-0.09761
 733,0.21996500,-0.00075933,0.00071813,-0.00054719,0.00165831,-0.004105
 35,0.00034045,0.00024615,0.00009888,0.00018962,0.00086252,-0.00064842,
 0.00204108,-0.00005968,0.00002129,0.00000016,0.00000575,-0.00001414,-0
 .00001612,-0.00000733,0.00000004,0.00000410,0.00001480,0.00000681,-0.0
 0000477,0.00003549,-0.00002734,-0.00001849,-0.00009019,0.00008631,0.00
 002133,0.00020915,-0.00002732,-0.00005578,0.06317249,-0.10709509,-0.11
 026715,0.00582404,-0.00804313,0.00059467,-0.07026958,0.12084978,0.1044
 5046,-0.00034891,-0.00004058,-0.00003394,0.00085224,-0.00347480,0.0006
 7205,-0.00004050,-0.00001118,-0.00011763,0.00038028,0.00014510,-0.0001
 9423,0.00003904,-0.00006663,0.00012493,0.00001080,0.00000265,-0.000012
 79,0.00000376,0.00000920,-0.00000749,-0.00001808,-0.00000524,-0.000016
 57,-0.00002999,0.00023605,-0.00002332,0.00008538,-0.00024139,-0.000135
 67,-0.00034113,0.00005659,0.00009362,-0.01211341,0.00208446,0.00498088
 ,-0.33507170,-0.01901955,0.05426056,0.00079903,0.00048995,-0.00152520,
 0.35332773,-0.00062980,-0.00001595,0.00039648,-0.00238666,-0.00074840,
 -0.00634494,0.00015872,-0.00013482,0.00017972,-0.00013702,-0.00011321,
 0.00042834,0.00007477,-0.00008774,0.00005150,-0.00003558,0.00001074,-0
 .00001577,-0.00002278,0.00003056,-0.00001235,-0.00001956,0.00000627,-0
 .00000911,0.00010305,0.00037010,0.00000117,0.00016885,-0.00051560,-0.0
 0003546,-0.00067777,0.00013973,0.00013177,-0.02751383,0.00184606,0.003
 62809,-0.01408148,-0.05353250,-0.00658311,0.00095444,-0.00051873,0.003
 43371,0.02272584,0.04887582,-0.00037343,0.00022199,-0.00027175,0.00123
 261,-0.00614501,0.00902774,-0.00002128,0.00022036,-0.00043799,-0.00033
 208,0.00036984,-0.00062960,-0.00003448,-0.00003891,0.00017825,0.000043
 26,-0.00002453,-0.00003866,-0.00000877,0.00001559,-0.00001230,0.000010
 64,-0.00000292,-0.00002240,-0.00000107,0.00018540,-0.00001988,0.000010
 90,-0.00009693,-0.00025222,-0.00020087,0.00005123,0.00011586,-0.010328
 35,-0.00266139,0.00698413,0.05674692,-0.00552649,-0.05007683,-0.001288
 51,0.00352537,-0.00543159,-0.05873314,0.00838907,0.04026350,-0.0001956
 7,-0.00018611,-0.00006479,0.00174485,-0.00031596,-0.00227246,-0.000075
 74,0.00005251,0.00017843,0.00007186,0.00046611,0.00031276,-0.00002286,
 0.00002925,-0.00005263,-0.00000292,-0.00000831,-0.00000343,-0.00001219
 ,0.00000189,0.00000441,0.00001371,0.00000634,0.00000789,0.00003670,-0.
 00004106,0.00001783,0.00000513,0.00005158,0.00004148,0.00008077,-0.000
 02480,-0.00003849,0.00983884,-0.01442797,-0.00845517,-0.11390670,0.095
 02329,0.06603113,-0.00066188,-0.00377433,0.00068263,-0.00753454,0.0213
 1879,0.01327765,0.11062064,-0.00013878,0.00028154,0.00018219,0.0026075
 2,-0.00034122,0.00347940,0.00006219,0.00022909,-0.00021537,-0.00110518
 ,0.00018830,0.00009914,-0.00000973,0.00001729,-0.00001048,-0.00000256,
 -0.00000265,-0.00000943,-0.00000500,0.00000401,-0.00000450,0.00000990,
 -0.00000016,0.00000252,0.00003788,0.00007519,0.00003238,0.00003571,-0.
 00008512,-0.00003685,-0.00012180,0.00000526,0.00004754,0.01337402,-0.0
 1672289,-0.01434023,0.09024591,-0.21227802,-0.11091766,-0.00392838,-0.
 00016161,-0.00525415,-0.00289049,0.00438766,0.00151733,-0.09817121,0.2
 2440334,0.00002119,0.00019107,0.00009348,-0.00075715,0.00412362,-0.005
 78851,0.00016569,-0.00021075,0.00046954,-0.00049666,-0.00023407,0.0004
 2951,0.00000528,-0.00005559,0.00006055,-0.00001585,-0.00002532,-0.0000
 2956,-0.00003372,0.00002203,0.00000956,0.00000604,0.00001293,-0.000017
 68,0.00003197,0.00011033,-0.00003359,0.00005031,-0.00011907,0.00001103
 ,-0.00016207,0.00005420,-0.00001165,0.00600845,-0.00832346,-0.00027505
 ,0.06359647,-0.11208632,-0.10818381,0.00057933,-0.00524864,0.00869923,
 0.00066795,-0.00363911,0.00062375,-0.06966724,0.12542816,0.10394320\\0
 .00000380,0.00000287,0.00000173,-0.00000042,-0.00000222,0.00000102,-0.
 00000122,0.00000002,-0.00000025,0.00000032,-0.00000003,-0.00000024,-0.
 00000030,-0.00000115,0.00000153,-0.00000121,0.00000027,-0.00000032,0.0
 0000003,0.00000014,-0.00000039,-0.00000033,0.00000006,-0.00000024,-0.0
 0000267,-0.00000900,-0.00000484,0.00001091,0.00001017,0.00000157,-0.00
 000941,0.00000002,0.00000045,0.00000124,-0.00000028,0.00000038,-0.0000
 0074,-0.00000068,-0.00000024,-0.00000001,-0.00000022,0.00000019,0.0000
 0006,-0.00000012,-0.00000015,-0.00000004,0.00000014,-0.00000019\\\@


 WAR ES EIN GOTT DER DIESE ZEICHEN SCHRIEB?
          - LUDWIG BOLTZMANN, QUOTING GOETHE, ABOUT MAXWELL'S EQUATIONS.
 Job cpu time:       2 days  4 hours  5 minutes 13.4 seconds.
 Elapsed time:       0 days  1 hours 21 minutes  1.8 seconds.
 File lengths (MBytes):  RWF=  83473 Int=      0 D2E=      0 Chk=     18 Scr=      1
 Normal termination of Gaussian 16 at Wed Jun  5 20:31:32 2019.
