 Entering Gaussian System, Link 0=g16
 Initial command:
 /ichec/packages/gaussian/16b01/l1.exe "/localscratch/353442/Gau-69921.inp" -scrdir="/localscratch/353442/"
 Entering Link 1 = /ichec/packages/gaussian/16b01/l1.exe PID=     70145.
  
 Copyright (c) 1988-2017, Gaussian, Inc.  All Rights Reserved.
  
 This is part of the Gaussian(R) 16 program.  It is based on
 the Gaussian(R) 09 system (copyright 2009, Gaussian, Inc.),
 the Gaussian(R) 03 system (copyright 2003, Gaussian, Inc.),
 the Gaussian(R) 98 system (copyright 1998, Gaussian, Inc.),
 the Gaussian(R) 94 system (copyright 1995, Gaussian, Inc.),
 the Gaussian 92(TM) system (copyright 1992, Gaussian, Inc.),
 the Gaussian 90(TM) system (copyright 1990, Gaussian, Inc.),
 the Gaussian 88(TM) system (copyright 1988, Gaussian, Inc.),
 the Gaussian 86(TM) system (copyright 1986, Carnegie Mellon
 University), and the Gaussian 82(TM) system (copyright 1983,
 Carnegie Mellon University). Gaussian is a federally registered
 trademark of Gaussian, Inc.
  
 This software contains proprietary and confidential information,
 including trade secrets, belonging to Gaussian, Inc.
  
 This software is provided under written license and may be
 used, copied, transmitted, or stored only in accord with that
 written license.
  
 The following legend is applicable only to US Government
 contracts under FAR:
  
                    RESTRICTED RIGHTS LEGEND
  
 Use, reproduction and disclosure by the US Government is
 subject to restrictions as set forth in subparagraphs (a)
 and (c) of the Commercial Computer Software - Restricted
 Rights clause in FAR 52.227-19.
  
 Gaussian, Inc.
 340 Quinnipiac St., Bldg. 40, Wallingford CT 06492
  
  
 ---------------------------------------------------------------
 Warning -- This program may not be used in any manner that
 competes with the business of Gaussian, Inc. or will provide
 assistance to any competitor of Gaussian, Inc.  The licensee
 of this program is prohibited from giving any competitor of
 Gaussian, Inc. access to this program.  By using this program,
 the user acknowledges that Gaussian, Inc. is engaged in the
 business of creating and licensing software in the field of
 computational chemistry and represents and warrants to the
 licensee that it is not a competitor of Gaussian, Inc. and that
 it will not use this program in any manner prohibited above.
 ---------------------------------------------------------------
  

 Cite this work as:
 Gaussian 16, Revision B.01,
 M. J. Frisch, G. W. Trucks, H. B. Schlegel, G. E. Scuseria, 
 M. A. Robb, J. R. Cheeseman, G. Scalmani, V. Barone, 
 G. A. Petersson, H. Nakatsuji, X. Li, M. Caricato, A. V. Marenich, 
 J. Bloino, B. G. Janesko, R. Gomperts, B. Mennucci, H. P. Hratchian, 
 J. V. Ortiz, A. F. Izmaylov, J. L. Sonnenberg, D. Williams-Young, 
 F. Ding, F. Lipparini, F. Egidi, J. Goings, B. Peng, A. Petrone, 
 T. Henderson, D. Ranasinghe, V. G. Zakrzewski, J. Gao, N. Rega, 
 G. Zheng, W. Liang, M. Hada, M. Ehara, K. Toyota, R. Fukuda, 
 J. Hasegawa, M. Ishida, T. Nakajima, Y. Honda, O. Kitao, H. Nakai, 
 T. Vreven, K. Throssell, J. A. Montgomery, Jr., J. E. Peralta, 
 F. Ogliaro, M. J. Bearpark, J. J. Heyd, E. N. Brothers, K. N. Kudin, 
 V. N. Staroverov, T. A. Keith, R. Kobayashi, J. Normand, 
 K. Raghavachari, A. P. Rendell, J. C. Burant, S. S. Iyengar, 
 J. Tomasi, M. Cossi, J. M. Millam, M. Klene, C. Adamo, R. Cammi, 
 J. W. Ochterski, R. L. Martin, K. Morokuma, O. Farkas, 
 J. B. Foresman, and D. J. Fox, Gaussian, Inc., Wallingford CT, 2016.
 
 ******************************************
 Gaussian 16:  ES64L-G16RevB.01 20-Dec-2017
                24-Jun-2019 
 ******************************************
 %mem=80GB
 %nproc=40
 Will use up to   40 processors via shared memory.
 ----------------------------------------------------------------------
 # opt=(calcfc,ts,noeigentest,maxcyc=500) freq=noraman uB2PLYPD3/cc-pvt
 z
 ----------------------------------------------------------------------
 1/5=1,6=500,10=4,11=1,18=20,38=1/1,3;
 2/9=110,12=2,17=6,18=5,40=1/2;
 3/5=16,6=1,11=2,25=1,30=1,71=2,74=-60,116=2,140=1/1,2,3;
 4//1;
 5/5=2,38=5/2;
 8/6=3,8=1,10=1,19=11,30=-1/1;
 9/15=3,16=-3/6;
 11/6=1,8=1,15=11,17=12,24=-1,27=1,28=-2,29=300,32=6,42=3/1,2,10;
 10/6=2,21=1/2;
 8/6=4,8=1,10=1,19=11,30=-1/11,4;
 10/5=1,20=4/2;
 11/12=2,14=11,16=1,17=2,28=-2,42=3,76=2/2,10,12;
 6/7=2,8=2,9=2,10=2/1;
 7/10=1,12=2,25=1,44=2/1,2,3,16;
 1/5=1,6=500,10=4,11=1,18=20/3(2);
 2/9=110/2;
 99//99;
 2/9=110/2;
 3/5=16,6=1,11=2,25=1,30=1,71=1,74=-60,116=2/1,2,3;
 4/5=5,16=3,69=1/1;
 5/5=2,38=5/2;
 8/6=4,10=1/1;
 9/15=2,16=-3/6;
 10/5=1/2;
 7/12=2/1,2,3,16;
 1/5=1,6=500,11=1,18=20/3(-8);
 2/9=110/2;
 6/7=2,8=2,9=2,10=2/1;
 99/9=10/99;
 -------------------
 Title Card Required
 -------------------
 Symbolic Z-matrix:
 Charge =  0 Multiplicity = 2
 C                    -1.33065   0.26453   0.53124 
 H                    -1.46595   0.29463   1.61221 
 H                    -0.63302   1.06452   0.27883 
 C                    -0.7488   -1.06845   0.11802 
 H                    -1.21687  -1.9471    0.54842 
 H                    -0.52579  -1.17113  -0.93854 
 C                     2.78901  -0.05255  -0.48336 
 H                     2.18855  -0.54045  -1.25261 
 H                     3.18674   0.88613  -0.86317 
 H                     3.60022  -0.70956  -0.17533 
 O                     1.98656   0.30819   0.6327 
 O                     1.5085   -0.88093   1.22219 
 H                     0.49312  -1.05348   0.70821 
 C                    -2.61155   0.50298  -0.13191 
 C                    -3.66333   0.66185  -0.6993 
 H                    -4.59003   0.81478  -1.1903 
 
 Add virtual bond connecting atoms H13        and O12        Dist= 2.18D+00.
 Add virtual bond connecting atoms H13        and C4         Dist= 2.60D+00.

 GradGradGradGradGradGradGradGradGradGradGradGradGradGradGradGradGradGrad
 Berny optimization.
 Initialization pass.
                           ----------------------------
                           !    Initial Parameters    !
                           ! (Angstroms and Degrees)  !
 --------------------------                            --------------------------
 ! Name  Definition              Value          Derivative Info.                !
 --------------------------------------------------------------------------------
 ! R1    R(1,2)                  1.0898         calculate D2E/DX2 analytically  !
 ! R2    R(1,3)                  1.091          calculate D2E/DX2 analytically  !
 ! R3    R(1,4)                  1.512          calculate D2E/DX2 analytically  !
 ! R4    R(1,14)                 1.462          calculate D2E/DX2 analytically  !
 ! R5    R(4,5)                  1.0846         calculate D2E/DX2 analytically  !
 ! R6    R(4,6)                  1.0847         calculate D2E/DX2 analytically  !
 ! R7    R(4,13)                 1.3751         calculate D2E/DX2 analytically  !
 ! R8    R(7,8)                  1.091          calculate D2E/DX2 analytically  !
 ! R9    R(7,9)                  1.0879         calculate D2E/DX2 analytically  !
 ! R10   R(7,10)                 1.0884         calculate D2E/DX2 analytically  !
 ! R11   R(7,11)                 1.4211         calculate D2E/DX2 analytically  !
 ! R12   R(11,12)                1.4107         calculate D2E/DX2 analytically  !
 ! R13   R(12,13)                1.1511         calculate D2E/DX2 analytically  !
 ! R14   R(14,15)                1.2056         calculate D2E/DX2 analytically  !
 ! R15   R(15,16)                1.0598         calculate D2E/DX2 analytically  !
 ! A1    A(2,1,3)              106.7748         calculate D2E/DX2 analytically  !
 ! A2    A(2,1,4)              110.0719         calculate D2E/DX2 analytically  !
 ! A3    A(2,1,14)             109.672          calculate D2E/DX2 analytically  !
 ! A4    A(3,1,4)              109.7023         calculate D2E/DX2 analytically  !
 ! A5    A(3,1,14)             109.6146         calculate D2E/DX2 analytically  !
 ! A6    A(4,1,14)             110.915          calculate D2E/DX2 analytically  !
 ! A7    A(1,4,5)              116.0829         calculate D2E/DX2 analytically  !
 ! A8    A(1,4,6)              115.3895         calculate D2E/DX2 analytically  !
 ! A9    A(1,4,13)             102.7471         calculate D2E/DX2 analytically  !
 ! A10   A(5,4,6)              113.4893         calculate D2E/DX2 analytically  !
 ! A11   A(5,4,13)             103.1946         calculate D2E/DX2 analytically  !
 ! A12   A(6,4,13)             103.4982         calculate D2E/DX2 analytically  !
 ! A13   A(8,7,9)              109.9314         calculate D2E/DX2 analytically  !
 ! A14   A(8,7,10)             109.8648         calculate D2E/DX2 analytically  !
 ! A15   A(8,7,11)             110.883          calculate D2E/DX2 analytically  !
 ! A16   A(9,7,10)             110.3138         calculate D2E/DX2 analytically  !
 ! A17   A(9,7,11)             105.1636         calculate D2E/DX2 analytically  !
 ! A18   A(10,7,11)            110.5993         calculate D2E/DX2 analytically  !
 ! A19   A(7,11,12)            107.7907         calculate D2E/DX2 analytically  !
 ! A20   A(11,12,13)           103.8104         calculate D2E/DX2 analytically  !
 ! A21   L(4,13,12,8,-1)       179.9616         calculate D2E/DX2 analytically  !
 ! A22   L(1,14,15,6,-1)       178.0903         calculate D2E/DX2 analytically  !
 ! A23   L(14,15,16,6,-1)      180.7932         calculate D2E/DX2 analytically  !
 ! A24   L(4,13,12,8,-2)       171.5787         calculate D2E/DX2 analytically  !
 ! A25   L(1,14,15,6,-2)       179.0476         calculate D2E/DX2 analytically  !
 ! A26   L(14,15,16,6,-2)      180.4475         calculate D2E/DX2 analytically  !
 ! D1    D(2,1,4,5)             46.9649         calculate D2E/DX2 analytically  !
 ! D2    D(2,1,4,6)           -176.6867         calculate D2E/DX2 analytically  !
 ! D3    D(2,1,4,13)           -64.8313         calculate D2E/DX2 analytically  !
 ! D4    D(3,1,4,5)            164.1732         calculate D2E/DX2 analytically  !
 ! D5    D(3,1,4,6)            -59.4784         calculate D2E/DX2 analytically  !
 ! D6    D(3,1,4,13)            52.377          calculate D2E/DX2 analytically  !
 ! D7    D(14,1,4,5)           -74.5906         calculate D2E/DX2 analytically  !
 ! D8    D(14,1,4,6)            61.7578         calculate D2E/DX2 analytically  !
 ! D9    D(14,1,4,13)          173.6132         calculate D2E/DX2 analytically  !
 ! D10   D(1,4,12,11)          -57.0605         calculate D2E/DX2 analytically  !
 ! D11   D(5,4,12,11)         -177.6413         calculate D2E/DX2 analytically  !
 ! D12   D(6,4,12,11)           62.2899         calculate D2E/DX2 analytically  !
 ! D13   D(8,7,11,12)           64.8741         calculate D2E/DX2 analytically  !
 ! D14   D(9,7,11,12)         -176.3475         calculate D2E/DX2 analytically  !
 ! D15   D(10,7,11,12)         -57.262          calculate D2E/DX2 analytically  !
 ! D16   D(7,11,12,13)         -92.2586         calculate D2E/DX2 analytically  !
 --------------------------------------------------------------------------------
 Trust Radius=3.00D-01 FncErr=1.00D-07 GrdErr=1.00D-07 EigMax=2.50D+02 EigMin=1.00D-04
 Number of steps in this run=    100 maximum allowed number of steps=    100.
 Search for a saddle point of order  1.
 GradGradGradGradGradGradGradGradGradGradGradGradGradGradGradGradGradGrad

                          Input orientation:                          
 ---------------------------------------------------------------------
 Center     Atomic      Atomic             Coordinates (Angstroms)
 Number     Number       Type             X           Y           Z
 ---------------------------------------------------------------------
      1          6           0       -1.330645    0.264533    0.531239
      2          1           0       -1.465953    0.294628    1.612209
      3          1           0       -0.633021    1.064515    0.278828
      4          6           0       -0.748798   -1.068454    0.118015
      5          1           0       -1.216869   -1.947103    0.548424
      6          1           0       -0.525794   -1.171129   -0.938536
      7          6           0        2.789009   -0.052554   -0.483356
      8          1           0        2.188548   -0.540451   -1.252612
      9          1           0        3.186737    0.886133   -0.863169
     10          1           0        3.600223   -0.709556   -0.175329
     11          8           0        1.986555    0.308193    0.632700
     12          8           0        1.508496   -0.880930    1.222185
     13          1           0        0.493122   -1.053481    0.708210
     14          6           0       -2.611545    0.502982   -0.131912
     15          6           0       -3.663325    0.661852   -0.699298
     16          1           0       -4.590027    0.814780   -1.190304
 ---------------------------------------------------------------------
                    Distance matrix (angstroms):
                    1          2          3          4          5
     1  C    0.000000
     2  H    1.089821   0.000000
     3  H    1.091037   1.750545   0.000000
     4  C    1.512003   2.145908   2.142154   0.000000
     5  H    2.214627   2.493800   3.079514   1.084604   0.000000
     6  H    2.206615   3.088469   2.547857   1.084699   1.814048
     7  C    4.254585   4.755694   3.679546   3.729582   4.549829
     8  H    4.026766   4.718043   3.589217   3.284114   4.101130
     9  H    4.768386   5.303291   3.990805   4.502396   5.423243
    10  H    5.075583   5.465329   4.612368   4.373653   5.025905
    11  O    3.319038   3.588793   2.749441   3.105191   3.918595
    12  O    3.138505   3.222018   3.043152   2.519868   3.003047
    13  H    2.257123   2.544128   2.436898   1.375107   1.936017
    14  C    1.461962   2.097081   2.097280   2.449837   2.900154
    15  C    2.667111   3.210352   3.209612   3.486607   3.787955
    16  H    3.726936   4.229004   4.228311   4.473624   4.693545
                    6          7          8          9         10
     6  H    0.000000
     7  C    3.527934   0.000000
     8  H    2.804292   1.091032   0.000000
     9  H    4.245102   1.087924   1.784149   0.000000
    10  H    4.221321   1.088394   1.783805   1.786146   0.000000
    11  O    3.311959   1.421145   2.077354   2.003017   2.071871
    12  O    2.981823   2.287966   2.589019   3.207445   2.521455
    13  H    1.940052   2.773586   2.642441   3.672451   3.248538
    14  C    2.793501   5.440415   5.038414   5.856758   6.329154
    15  C    3.641587   6.495354   5.999676   6.855691   7.410427
    16  H    4.530476   7.463392   6.913003   7.783969   8.392495
                   11         12         13         14         15
    11  O    0.000000
    12  O    1.410690   0.000000
    13  H    2.022424   1.151055   0.000000
    14  C    4.665308   4.552310   3.573141   0.000000
    15  C    5.815534   5.728875   4.711634   1.205574   0.000000
    16  H    6.843347   6.774033   5.738742   2.265348   1.059835
                   16
    16  H    0.000000
 Stoichiometry    C5H9O2(2)
 Framework group  C1[X(C5H9O2)]
 Deg. of freedom    42
 Full point group                 C1      NOp   1
 Largest Abelian subgroup         C1      NOp   1
 Largest concise Abelian subgroup C1      NOp   1
                         Standard orientation:                         
 ---------------------------------------------------------------------
 Center     Atomic      Atomic             Coordinates (Angstroms)
 Number     Number       Type             X           Y           Z
 ---------------------------------------------------------------------
      1          6           0       -1.238889    0.211485   -0.489794
      2          1           0       -1.261447    0.989702   -1.252408
      3          1           0       -0.669917   -0.621098   -0.906253
      4          6           0       -0.552813    0.725282    0.755785
      5          1           0       -0.867067    1.703069    1.104414
      6          1           0       -0.432611   -0.000015    1.553324
      7          6           0        2.758758   -0.950405    0.387887
      8          1           0        2.141098   -1.079030    1.278001
      9          1           0        3.001916   -1.921402   -0.038278
     10          1           0        3.669032   -0.411550    0.644085
     11          8           0        2.042580   -0.266017   -0.631109
     12          8           0        1.771491    1.037898   -0.165960
     13          1           0        0.734416    0.944541    0.324640
     14          6           0       -2.601866   -0.225662   -0.192259
     15          6           0       -3.719163   -0.576055    0.094588
     16          1           0       -4.704154   -0.887140    0.331795
 ---------------------------------------------------------------------
 Rotational constants (GHZ):           6.4207627           0.9058376           0.8677765
 Standard basis: CC-pVTZ (5D, 7F)
 There are   380 symmetry adapted cartesian basis functions of A   symmetry.
 There are   336 symmetry adapted basis functions of A   symmetry.
   336 basis functions,   517 primitive gaussians,   380 cartesian basis functions
    28 alpha electrons       27 beta electrons
       nuclear repulsion energy       277.7982670029 Hartrees.
 NAtoms=   16 NActive=   16 NUniq=   16 SFac= 1.00D+00 NAtFMM=   60 NAOKFM=F Big=F
 Integral buffers will be    131072 words long.
 Raffenetti 2 integral format.
 Two-electron integral symmetry is turned on.
 Nuclear repulsion after empirical dispersion term =      277.7902256505 Hartrees.
 One-electron integrals computed using PRISM.
 NBasis=   336 RedAO= T EigKep=  4.22D-05  NBF=   336
 NBsUse=   336 1.00D-06 EigRej= -1.00D+00 NBFU=   336
 ExpMin= 1.03D-01 ExpMax= 1.53D+04 ExpMxC= 5.22D+02 IAcc=3 IRadAn=         5 AccDes= 0.00D+00
 Harris functional with IExCor=  419 and IRadAn=       5 diagonalized for initial guess.
 HarFok:  IExCor=  419 AccDes= 0.00D+00 IRadAn=         5 IDoV= 1 UseB2=F ITyADJ=14
 ICtDFT=  3500011 ScaDFX=  1.000000  1.000000  1.000000  1.000000
 FoFCou: FMM=F IPFlag=           0 FMFlag=      100000 FMFlg1=           0
         NFxFlg=           0 DoJE=T BraDBF=F KetDBF=T FulRan=T
         wScrn=  0.000000 ICntrl=       500 IOpCl=  0 I1Cent=   200000004 NGrid=           0
         NMat0=    1 NMatS0=      1 NMatT0=    0 NMatD0=    1 NMtDS0=    0 NMtDT0=    0
 Petite list used in FoFCou.
 Initial guess <Sx>= 0.0000 <Sy>= 0.0000 <Sz>= 0.5000 <S**2>= 0.7500 S= 0.5000
 Requested convergence on RMS density matrix=1.00D-08 within 128 cycles.
 Requested convergence on MAX density matrix=1.00D-06.
 Requested convergence on             energy=1.00D-06.
 No special actions if energy rises.
 Integral accuracy reduced to 1.0D-05 until final iterations.
 Initial convergence to 1.0D-05 achieved.  Increase integral accuracy.
 SCF Done:  E(UB2PLYPD3) =  -345.567263351     A.U. after   21 cycles
            NFock= 21  Conv=0.98D-08     -V/T= 2.0044
 <Sx>= 0.0000 <Sy>= 0.0000 <Sz>= 0.5000 <S**2>= 0.7683 S= 0.5091
 <L.S>=  0.00000000000    
 Annihilation of the first spin contaminant:
 S**2 before annihilation     0.7683,   after     0.7502
 DoSCS=T DFT=T ScalE2(SS,OS)=  0.270000  0.270000
 ExpMin= 1.03D-01 ExpMax= 1.53D+04 ExpMxC= 5.22D+02 IAcc=3 IRadAn=         5 AccDes= 0.00D+00
 HarFok:  IExCor=  205 AccDes= 0.00D+00 IRadAn=         5 IDoV=-2 UseB2=F ITyADJ=14
 ICtDFT= 12500011 ScaDFX=  1.000000  1.000000  1.000000  1.000000
 Range of M.O.s used for correlation:     8   336
 NBasis=   336 NAE=    28 NBE=    27 NFC=     7 NFV=     0
 NROrb=    329 NOA=    21 NOB=    20 NVA=   308 NVB=   309

 **** Warning!!: The largest alpha MO coefficient is  0.37763541D+02


 **** Warning!!: The largest beta MO coefficient is  0.37960013D+02

 DoSCS=T DFT=T ScalE2(SS,OS)=  0.270000  0.270000
 Disk-based method using ON**2 memory for 21 occupieds at a time.
 Permanent disk used for amplitudes=   106523802 words.
 Estimated scratch disk usage=  1898475128 words.
 Actual    scratch disk usage=  1835773560 words.
 JobTyp=2 Pass  1:  I=   8 to  28 NPSUse= 40 ParTrn=T ParDer=T DoDerP=T.
 (rs|ai) integrals will be sorted in core.
 Actual    scratch disk usage=  1835773560 words.
 JobTyp=3 Pass  1:  I=   8 to  27 NPSUse= 40 ParTrn=T ParDer=T DoDerP=T.
 (rs|ai) integrals will be sorted in core.
 Spin components of T(2) and E(2):
     alpha-alpha T2 =       0.7934479618D-01 E2=     -0.5369070720D-01
     alpha-beta  T2 =       0.4678785795D+00 E2=     -0.3263821622D+00
     beta-beta   T2 =       0.8335365427D-01 E2=     -0.5190734444D-01
 (S**2,0)=  0.76829D+00           (S**2,1)=  0.74290D+00
 Scaling Projection term by:   0.270000
 E(PUHF)=      -0.34557337152D+03        E(PMP2)=      -0.34599975360D+03
 E2(B2PLYPD3) =    -0.4319802139D+00 E(B2PLYPD3) =    -0.34599924356453D+03
 G2DrvN: will do    17 centers at a time, making    1 passes.
 Calling FoFCou, ICntrl=  3107 FMM=F I1Cent=   0 AccDes= 0.00D+00.
 End of G2Drv F.D. properties file   721 does not exist.
 End of G2Drv F.D. properties file   722 does not exist.
 End of G2Drv F.D. properties file   788 does not exist.
          IDoAtm=1111111111111111
          Differentiating once with respect to electric field.
                with respect to dipole field.
          Differentiating once with respect to nuclear coordinates.
 Keep R1 and R2 ints in memory in canonical form, NReq=3251642446.
          There are    51 degrees of freedom in the 1st order CPHF.  IDoFFX=6 NUNeed=    51.
     48 vectors produced by pass  0 Test12= 3.33D-14 1.96D-09 XBig12= 1.10D+02 4.05D+00.
 AX will form    48 AO Fock derivatives at one time.
     48 vectors produced by pass  1 Test12= 3.33D-14 1.96D-09 XBig12= 1.40D+01 5.64D-01.
     48 vectors produced by pass  2 Test12= 3.33D-14 1.96D-09 XBig12= 6.25D-01 1.30D-01.
     48 vectors produced by pass  3 Test12= 3.33D-14 1.96D-09 XBig12= 1.16D-02 1.09D-02.
     48 vectors produced by pass  4 Test12= 3.33D-14 1.96D-09 XBig12= 1.25D-04 1.20D-03.
     48 vectors produced by pass  5 Test12= 3.33D-14 1.96D-09 XBig12= 1.36D-06 1.19D-04.
     48 vectors produced by pass  6 Test12= 3.33D-14 1.96D-09 XBig12= 1.31D-08 9.85D-06.
     23 vectors produced by pass  7 Test12= 3.33D-14 1.96D-09 XBig12= 1.18D-10 1.03D-06.
      4 vectors produced by pass  8 Test12= 3.33D-14 1.96D-09 XBig12= 8.64D-13 7.38D-08.
      2 vectors produced by pass  9 Test12= 3.33D-14 1.96D-09 XBig12= 7.27D-15 8.19D-09.
 InvSVY:  IOpt=1 It=  1 EMax= 2.83D-15
 Solved reduced A of dimension   365 with    51 vectors.
 End of Minotr F.D. properties file   721 does not exist.
 End of Minotr F.D. properties file   722 does not exist.
 End of Minotr F.D. properties file   788 does not exist.
 MDV= 10737418240.
 DoSCS=T DFT=T ScalE2(SS,OS)=  0.270000  0.270000
 Form MO integral derivatives with frozen-active canonical formalism.
 Discarding MO integrals.
 Reordered first order wavefunction length =    428928697
 In DefCFB: NBatch=  1 ICI= 28 ICA=309 LFMax= 78
            Large arrays: LIAPS=  8665386240 LIARS=  1611002400 words.
 In DefCFB: NBatch=  1 ICI= 28 ICA=309 LFMax= 78
            Large arrays: LIAPS=  8665386240 LIARS=  1611002400 words.
 Semi-Direct transformation.
 ModeAB=           4 MOrb=            28 LenV=   10734109701
 LASXX=    503301435 LTotXX=   503301435 LenRXX=  1014543915
 LTotAB=   511242480 MaxLAS=   587078016 LenRXY=           0
 NonZer=  1517845350 LenScr=  2285697024 LnRSAI=   587078016
 LnScr1=   884071424 LExtra=           0 Total=   4771390379
 MaxDsk=          -1 SrtSym=           T ITran=            4
 JobTyp=1 Pass  1:  I=   1 to  28.
 (rs|ai) integrals will be sorted in core.
 ModeAB=           4 MOrb=            27 LenV=   10734109701
 LASXX=    486308502 LTotXX=   486308502 LenRXX=   901306008
 LTotAB=   414997506 MaxLAS=   566110944 LenRXY=           0
 NonZer=  1387614510 LenScr=  2089584640 LnRSAI=   566110944
 LnScr1=   852497408 LExtra=           0 Total=   4409499000
 MaxDsk=          -1 SrtSym=           T ITran=            4
 JobTyp=2 Pass  1:  I=   1 to  27.
 (rs|ai) integrals will be sorted in core.
 SymMOI:  orbitals are not symmetric.
 DoSCS=T DFT=T ScalE2(SS,OS)=  0.270000  0.270000
 Spin components of T(2) and E(2):
     alpha-alpha T2 =       0.7934479618D-01 E2=     -0.5369070720D-01
     alpha-beta  T2 =       0.4678785795D+00 E2=     -0.3263821622D+00
     beta-beta   T2 =       0.8335365427D-01 E2=     -0.5190734444D-01
 E2(B2PLYPD3) =    -0.4319802139D+00 E(B2PLYPD3) =    -0.34599924356453D+03
 (S**2,0)=  0.76829D+00           (S**2,1)=  0.74290D+00
 Scaling Projection term by:   0.270000
 E(PUHF)=      -0.34557337152D+03        E(PMP2)=      -0.34599975360D+03
          IDoAtm=1111111111111111
          Differentiating once with respect to electric field.
                with respect to dipole field.
          Differentiating once with respect to nuclear coordinates.
 Keep R1 and R2 ints in memory in canonical form, NReq=3251778068.
          There are     1 degrees of freedom in the 1st order CPHF.  IDoFFX=0 NUNeed=     1.
 LinEq1:  Iter=  0 NonCon=     1 RMS=8.96D-04 Max=6.94D-02 NDo=     1
 AX will form     1 AO Fock derivatives at one time.
 LinEq1:  Iter=  1 NonCon=     1 RMS=2.95D-04 Max=1.03D-02 NDo=     1
 LinEq1:  Iter=  2 NonCon=     1 RMS=1.74D-04 Max=1.00D-02 NDo=     1
 LinEq1:  Iter=  3 NonCon=     1 RMS=1.09D-04 Max=3.12D-03 NDo=     1
 LinEq1:  Iter=  4 NonCon=     1 RMS=5.05D-05 Max=1.08D-03 NDo=     1
 LinEq1:  Iter=  5 NonCon=     1 RMS=4.09D-05 Max=1.07D-03 NDo=     1
 LinEq1:  Iter=  6 NonCon=     1 RMS=1.87D-05 Max=4.34D-04 NDo=     1
 LinEq1:  Iter=  7 NonCon=     1 RMS=8.14D-06 Max=2.08D-04 NDo=     1
 LinEq1:  Iter=  8 NonCon=     1 RMS=5.91D-06 Max=1.16D-04 NDo=     1
 LinEq1:  Iter=  9 NonCon=     1 RMS=2.95D-06 Max=7.27D-05 NDo=     1
 LinEq1:  Iter= 10 NonCon=     1 RMS=1.25D-06 Max=2.82D-05 NDo=     1
 LinEq1:  Iter= 11 NonCon=     1 RMS=5.59D-07 Max=9.34D-06 NDo=     1
 LinEq1:  Iter= 12 NonCon=     1 RMS=2.37D-07 Max=4.06D-06 NDo=     1
 LinEq1:  Iter= 13 NonCon=     1 RMS=9.86D-08 Max=1.54D-06 NDo=     1
 LinEq1:  Iter= 14 NonCon=     1 RMS=3.27D-08 Max=7.79D-07 NDo=     1
 LinEq1:  Iter= 15 NonCon=     1 RMS=1.08D-08 Max=2.48D-07 NDo=     1
 LinEq1:  Iter= 16 NonCon=     1 RMS=4.84D-09 Max=9.04D-08 NDo=     1
 LinEq1:  Iter= 17 NonCon=     1 RMS=2.01D-09 Max=4.15D-08 NDo=     1
 LinEq1:  Iter= 18 NonCon=     1 RMS=6.43D-10 Max=1.11D-08 NDo=     1
 LinEq1:  Iter= 19 NonCon=     1 RMS=2.75D-10 Max=5.01D-09 NDo=     1
 LinEq1:  Iter= 20 NonCon=     1 RMS=1.28D-10 Max=2.96D-09 NDo=     1
 LinEq1:  Iter= 21 NonCon=     0 RMS=5.42D-11 Max=8.55D-10 NDo=     1
 Linear equations converged to 1.000D-10 1.000D-09 after    21 iterations.
 End of Minotr F.D. properties file   721 does not exist.
 End of Minotr F.D. properties file   722 does not exist.
 End of Minotr F.D. properties file   788 does not exist.
 Symmetrizing basis deriv contribution to polar:
 IMax=3 JMax=2 DiffMx= 0.00D+00
 G2DrvN: will do    17 centers at a time, making    1 passes.
 Calling FoFCou, ICntrl=  3107 FMM=F I1Cent=   0 AccDes= 0.00D+00.
 End of G2Drv F.D. properties file   721 does not exist.
 End of G2Drv F.D. properties file   722 does not exist.
 End of G2Drv F.D. properties file   788 does not exist.
 DoSCS=T DFT=T ScalE2(SS,OS)=  0.270000  0.270000
 R2 and R3 integrals will be kept in memory, NReq=  5268037470.
 DD1Dir will call FoFMem   1 times, MxPair=      2242
 NAB=   756 NAA=   378 NBB=   351.
 Discarding MO integrals.

 **********************************************************************

            Population analysis using the SCF Density.

 **********************************************************************

 Orbital symmetries:
 Alpha Orbitals:
       Occupied  (A) (A) (A) (A) (A) (A) (A) (A) (A) (A) (A) (A)
                 (A) (A) (A) (A) (A) (A) (A) (A) (A) (A) (A) (A)
                 (A) (A) (A) (A)
       Virtual   (A) (A) (A) (A) (A) (A) (A) (A) (A) (A) (A) (A)
                 (A) (A) (A) (A) (A) (A) (A) (A) (A) (A) (A) (A)
                 (A) (A) (A) (A) (A) (A) (A) (A) (A) (A) (A) (A)
                 (A) (A) (A) (A) (A) (A) (A) (A) (A) (A) (A) (A)
                 (A) (A) (A) (A) (A) (A) (A) (A) (A) (A) (A) (A)
                 (A) (A) (A) (A) (A) (A) (A) (A) (A) (A) (A) (A)
                 (A) (A) (A) (A) (A) (A) (A) (A) (A) (A) (A) (A)
                 (A) (A) (A) (A) (A) (A) (A) (A) (A) (A) (A) (A)
                 (A) (A) (A) (A) (A) (A) (A) (A) (A) (A) (A) (A)
                 (A) (A) (A) (A) (A) (A) (A) (A) (A) (A) (A) (A)
                 (A) (A) (A) (A) (A) (A) (A) (A) (A) (A) (A) (A)
                 (A) (A) (A) (A) (A) (A) (A) (A) (A) (A) (A) (A)
                 (A) (A) (A) (A) (A) (A) (A) (A) (A) (A) (A) (A)
                 (A) (A) (A) (A) (A) (A) (A) (A) (A) (A) (A) (A)
                 (A) (A) (A) (A) (A) (A) (A) (A) (A) (A) (A) (A)
                 (A) (A) (A) (A) (A) (A) (A) (A) (A) (A) (A) (A)
                 (A) (A) (A) (A) (A) (A) (A) (A) (A) (A) (A) (A)
                 (A) (A) (A) (A) (A) (A) (A) (A) (A) (A) (A) (A)
                 (A) (A) (A) (A) (A) (A) (A) (A) (A) (A) (A) (A)
                 (A) (A) (A) (A) (A) (A) (A) (A) (A) (A) (A) (A)
                 (A) (A) (A) (A) (A) (A) (A) (A) (A) (A) (A) (A)
                 (A) (A) (A) (A) (A) (A) (A) (A) (A) (A) (A) (A)
                 (A) (A) (A) (A) (A) (A) (A) (A) (A) (A) (A) (A)
                 (A) (A) (A) (A) (A) (A) (A) (A) (A) (A) (A) (A)
                 (A) (A) (A) (A) (A) (A) (A) (A) (A) (A) (A) (A)
                 (A) (A) (A) (A) (A) (A) (A) (A)
 Beta  Orbitals:
       Occupied  (A) (A) (A) (A) (A) (A) (A) (A) (A) (A) (A) (A)
                 (A) (A) (A) (A) (A) (A) (A) (A) (A) (A) (A) (A)
                 (A) (A) (A)
       Virtual   (A) (A) (A) (A) (A) (A) (A) (A) (A) (A) (A) (A)
                 (A) (A) (A) (A) (A) (A) (A) (A) (A) (A) (A) (A)
                 (A) (A) (A) (A) (A) (A) (A) (A) (A) (A) (A) (A)
                 (A) (A) (A) (A) (A) (A) (A) (A) (A) (A) (A) (A)
                 (A) (A) (A) (A) (A) (A) (A) (A) (A) (A) (A) (A)
                 (A) (A) (A) (A) (A) (A) (A) (A) (A) (A) (A) (A)
                 (A) (A) (A) (A) (A) (A) (A) (A) (A) (A) (A) (A)
                 (A) (A) (A) (A) (A) (A) (A) (A) (A) (A) (A) (A)
                 (A) (A) (A) (A) (A) (A) (A) (A) (A) (A) (A) (A)
                 (A) (A) (A) (A) (A) (A) (A) (A) (A) (A) (A) (A)
                 (A) (A) (A) (A) (A) (A) (A) (A) (A) (A) (A) (A)
                 (A) (A) (A) (A) (A) (A) (A) (A) (A) (A) (A) (A)
                 (A) (A) (A) (A) (A) (A) (A) (A) (A) (A) (A) (A)
                 (A) (A) (A) (A) (A) (A) (A) (A) (A) (A) (A) (A)
                 (A) (A) (A) (A) (A) (A) (A) (A) (A) (A) (A) (A)
                 (A) (A) (A) (A) (A) (A) (A) (A) (A) (A) (A) (A)
                 (A) (A) (A) (A) (A) (A) (A) (A) (A) (A) (A) (A)
                 (A) (A) (A) (A) (A) (A) (A) (A) (A) (A) (A) (A)
                 (A) (A) (A) (A) (A) (A) (A) (A) (A) (A) (A) (A)
                 (A) (A) (A) (A) (A) (A) (A) (A) (A) (A) (A) (A)
                 (A) (A) (A) (A) (A) (A) (A) (A) (A) (A) (A) (A)
                 (A) (A) (A) (A) (A) (A) (A) (A) (A) (A) (A) (A)
                 (A) (A) (A) (A) (A) (A) (A) (A) (A) (A) (A) (A)
                 (A) (A) (A) (A) (A) (A) (A) (A) (A) (A) (A) (A)
                 (A) (A) (A) (A) (A) (A) (A) (A) (A) (A) (A) (A)
                 (A) (A) (A) (A) (A) (A) (A) (A) (A)
 The electronic state is 2-A.
 Alpha  occ. eigenvalues --  -19.79228 -19.79148 -10.66510 -10.65153 -10.65062
 Alpha  occ. eigenvalues --  -10.62702 -10.61269  -1.27972  -1.02826  -0.93648
 Alpha  occ. eigenvalues --   -0.85210  -0.78398  -0.75368  -0.62403  -0.61211
 Alpha  occ. eigenvalues --   -0.56669  -0.55435  -0.55092  -0.54111  -0.50102
 Alpha  occ. eigenvalues --   -0.48751  -0.45616  -0.44565  -0.38272  -0.37356
 Alpha  occ. eigenvalues --   -0.33574  -0.32620  -0.30557
 Alpha virt. eigenvalues --    0.07180   0.09087   0.10114   0.10321   0.11177
 Alpha virt. eigenvalues --    0.11386   0.12177   0.13853   0.15089   0.17124
 Alpha virt. eigenvalues --    0.18648   0.20094   0.23164   0.24209   0.25761
 Alpha virt. eigenvalues --    0.29609   0.30507   0.30971   0.33239   0.33638
 Alpha virt. eigenvalues --    0.34287   0.36266   0.37490   0.41328   0.43987
 Alpha virt. eigenvalues --    0.45491   0.45614   0.48436   0.48527   0.48877
 Alpha virt. eigenvalues --    0.50730   0.51608   0.52228   0.53206   0.53552
 Alpha virt. eigenvalues --    0.54208   0.54834   0.55613   0.57255   0.59024
 Alpha virt. eigenvalues --    0.61456   0.64274   0.65620   0.66524   0.69363
 Alpha virt. eigenvalues --    0.70092   0.70777   0.72200   0.74738   0.79301
 Alpha virt. eigenvalues --    0.80383   0.83115   0.85120   0.86877   0.88679
 Alpha virt. eigenvalues --    0.89723   0.91068   0.93570   0.94648   0.95570
 Alpha virt. eigenvalues --    0.96567   0.97608   0.99665   1.02298   1.03865
 Alpha virt. eigenvalues --    1.04464   1.06411   1.08226   1.10044   1.11293
 Alpha virt. eigenvalues --    1.13232   1.15920   1.16366   1.18049   1.20689
 Alpha virt. eigenvalues --    1.21263   1.22924   1.23886   1.24852   1.25148
 Alpha virt. eigenvalues --    1.27289   1.29139   1.33030   1.35117   1.35644
 Alpha virt. eigenvalues --    1.36807   1.37547   1.38445   1.38980   1.42435
 Alpha virt. eigenvalues --    1.43720   1.46989   1.48414   1.50949   1.52105
 Alpha virt. eigenvalues --    1.55399   1.58713   1.60606   1.61840   1.62603
 Alpha virt. eigenvalues --    1.66190   1.70233   1.75207   1.77866   1.78871
 Alpha virt. eigenvalues --    1.86274   1.93690   1.98134   2.04184   2.11449
 Alpha virt. eigenvalues --    2.12927   2.17070   2.18917   2.19932   2.23582
 Alpha virt. eigenvalues --    2.27158   2.33630   2.37555   2.40557   2.42665
 Alpha virt. eigenvalues --    2.43748   2.45007   2.48245   2.50309   2.54114
 Alpha virt. eigenvalues --    2.55400   2.57154   2.57993   2.61290   2.61773
 Alpha virt. eigenvalues --    2.65164   2.65866   2.67870   2.69031   2.69806
 Alpha virt. eigenvalues --    2.73896   2.76640   2.77164   2.82480   2.83728
 Alpha virt. eigenvalues --    2.85602   2.88203   2.89975   2.91046   2.92070
 Alpha virt. eigenvalues --    2.93018   2.93670   2.95167   3.00598   3.01728
 Alpha virt. eigenvalues --    3.02133   3.04228   3.04599   3.05711   3.06204
 Alpha virt. eigenvalues --    3.07488   3.08659   3.09580   3.10195   3.12317
 Alpha virt. eigenvalues --    3.13623   3.14356   3.15561   3.16618   3.17162
 Alpha virt. eigenvalues --    3.18951   3.20513   3.20955   3.24482   3.26290
 Alpha virt. eigenvalues --    3.27481   3.27908   3.28801   3.34564   3.36553
 Alpha virt. eigenvalues --    3.40705   3.41648   3.42376   3.43868   3.45508
 Alpha virt. eigenvalues --    3.46978   3.48407   3.50097   3.50717   3.53601
 Alpha virt. eigenvalues --    3.54061   3.57383   3.59257   3.61046   3.63791
 Alpha virt. eigenvalues --    3.64718   3.66901   3.72209   3.72797   3.75323
 Alpha virt. eigenvalues --    3.81223   3.82988   3.85319   3.85675   3.86669
 Alpha virt. eigenvalues --    3.88888   3.89522   3.90879   3.93496   3.95165
 Alpha virt. eigenvalues --    3.95656   3.96798   3.99437   4.01326   4.03439
 Alpha virt. eigenvalues --    4.05389   4.06033   4.09729   4.10730   4.11733
 Alpha virt. eigenvalues --    4.14093   4.15256   4.17951   4.18258   4.18942
 Alpha virt. eigenvalues --    4.21197   4.24085   4.25265   4.29682   4.30427
 Alpha virt. eigenvalues --    4.34666   4.35061   4.36179   4.38469   4.40900
 Alpha virt. eigenvalues --    4.43712   4.45259   4.47860   4.51324   4.55897
 Alpha virt. eigenvalues --    4.59585   4.60519   4.64886   4.66869   4.74675
 Alpha virt. eigenvalues --    4.79319   4.80699   4.81694   4.86400   4.93222
 Alpha virt. eigenvalues --    4.93940   4.98532   5.00556   5.02571   5.03393
 Alpha virt. eigenvalues --    5.05873   5.06403   5.15194   5.18956   5.24788
 Alpha virt. eigenvalues --    5.25919   5.28969   5.29665   5.30495   5.33623
 Alpha virt. eigenvalues --    5.34808   5.35625   5.36736   5.39575   5.40081
 Alpha virt. eigenvalues --    5.42740   5.45448   5.46456   5.54568   5.62415
 Alpha virt. eigenvalues --    5.65628   5.67101   5.75112   5.77724   5.84356
 Alpha virt. eigenvalues --    5.92188   5.95873   5.98634   6.00927   6.03489
 Alpha virt. eigenvalues --    6.04956   6.07720   6.09048   6.14511   6.25293
 Alpha virt. eigenvalues --    6.31920   6.33475   6.36973   6.40828   6.63901
 Alpha virt. eigenvalues --    6.75083   6.76464   6.82617   6.95870   7.04934
 Alpha virt. eigenvalues --    7.07010   7.18169   7.40853   7.42522   7.58574
 Alpha virt. eigenvalues --    7.74894   8.36687   9.89690  10.62155  12.57423
 Alpha virt. eigenvalues --   13.41618  13.52457  16.96425
  Beta  occ. eigenvalues --  -19.79100 -19.77579 -10.66518 -10.65117 -10.63844
  Beta  occ. eigenvalues --  -10.62622 -10.61209  -1.26148  -1.00026  -0.92562
  Beta  occ. eigenvalues --   -0.84142  -0.77948  -0.72995  -0.61606  -0.58402
  Beta  occ. eigenvalues --   -0.55810  -0.54901  -0.54572  -0.53261  -0.48226
  Beta  occ. eigenvalues --   -0.46641  -0.45116  -0.43794  -0.36194  -0.34773
  Beta  occ. eigenvalues --   -0.32601  -0.32377
  Beta virt. eigenvalues --   -0.05414   0.07394   0.09265   0.10270   0.10598
  Beta virt. eigenvalues --    0.11282   0.11670   0.12622   0.14311   0.15132
  Beta virt. eigenvalues --    0.17211   0.18925   0.20830   0.23895   0.24505
  Beta virt. eigenvalues --    0.25972   0.29833   0.30776   0.31229   0.33828
  Beta virt. eigenvalues --    0.34055   0.34476   0.36537   0.38192   0.41885
  Beta virt. eigenvalues --    0.44152   0.45746   0.45915   0.48783   0.49135
  Beta virt. eigenvalues --    0.49782   0.51055   0.51743   0.52374   0.53933
  Beta virt. eigenvalues --    0.54143   0.55021   0.56106   0.56775   0.57647
  Beta virt. eigenvalues --    0.59329   0.61617   0.64472   0.65862   0.67046
  Beta virt. eigenvalues --    0.69518   0.70538   0.71230   0.72606   0.75729
  Beta virt. eigenvalues --    0.79550   0.80694   0.83423   0.85313   0.87072
  Beta virt. eigenvalues --    0.88924   0.89865   0.91412   0.93690   0.94695
  Beta virt. eigenvalues --    0.96078   0.96829   0.97776   0.99836   1.02558
  Beta virt. eigenvalues --    1.03979   1.04641   1.06542   1.08616   1.10196
  Beta virt. eigenvalues --    1.11488   1.13548   1.15999   1.16632   1.18794
  Beta virt. eigenvalues --    1.20799   1.21459   1.23402   1.24325   1.25057
  Beta virt. eigenvalues --    1.25796   1.27818   1.29587   1.33732   1.35411
  Beta virt. eigenvalues --    1.35864   1.37049   1.37805   1.38513   1.39094
  Beta virt. eigenvalues --    1.42723   1.44030   1.47547   1.48548   1.51301
  Beta virt. eigenvalues --    1.52673   1.55772   1.59240   1.60965   1.62095
  Beta virt. eigenvalues --    1.62877   1.66848   1.70809   1.75721   1.78142
  Beta virt. eigenvalues --    1.79313   1.88911   1.94541   1.98670   2.05257
  Beta virt. eigenvalues --    2.11747   2.13072   2.18173   2.19265   2.21107
  Beta virt. eigenvalues --    2.23718   2.27845   2.33869   2.37686   2.41114
  Beta virt. eigenvalues --    2.43365   2.44004   2.45733   2.48531   2.50493
  Beta virt. eigenvalues --    2.54540   2.55624   2.57397   2.58596   2.61943
  Beta virt. eigenvalues --    2.62090   2.65422   2.66141   2.67971   2.69475
  Beta virt. eigenvalues --    2.70223   2.74783   2.76972   2.77790   2.82713
  Beta virt. eigenvalues --    2.83785   2.85927   2.88892   2.90084   2.91323
  Beta virt. eigenvalues --    2.92260   2.93694   2.94169   2.95477   3.00829
  Beta virt. eigenvalues --    3.02132   3.02725   3.04539   3.04879   3.05892
  Beta virt. eigenvalues --    3.06414   3.07588   3.08965   3.09987   3.10620
  Beta virt. eigenvalues --    3.12416   3.13934   3.14946   3.16132   3.16935
  Beta virt. eigenvalues --    3.17700   3.19349   3.20686   3.21372   3.25184
  Beta virt. eigenvalues --    3.26502   3.28220   3.28639   3.29612   3.34857
  Beta virt. eigenvalues --    3.36895   3.40761   3.41895   3.42706   3.44357
  Beta virt. eigenvalues --    3.46593   3.47132   3.49631   3.50195   3.50768
  Beta virt. eigenvalues --    3.53743   3.54566   3.57846   3.59412   3.61149
  Beta virt. eigenvalues --    3.63875   3.64804   3.67022   3.72706   3.73405
  Beta virt. eigenvalues --    3.75755   3.81346   3.83092   3.85479   3.85816
  Beta virt. eigenvalues --    3.86757   3.89072   3.89902   3.91110   3.93774
  Beta virt. eigenvalues --    3.95283   3.95687   3.96862   3.99519   4.01442
  Beta virt. eigenvalues --    4.03574   4.05175   4.06212   4.09982   4.11185
  Beta virt. eigenvalues --    4.11839   4.14491   4.15428   4.18020   4.18390
  Beta virt. eigenvalues --    4.18988   4.21365   4.24234   4.25621   4.30029
  Beta virt. eigenvalues --    4.30477   4.34745   4.35191   4.36268   4.38544
  Beta virt. eigenvalues --    4.41193   4.43867   4.45620   4.48175   4.52064
  Beta virt. eigenvalues --    4.56580   4.60006   4.61162   4.65603   4.67192
  Beta virt. eigenvalues --    4.75082   4.79840   4.81204   4.81877   4.87138
  Beta virt. eigenvalues --    4.93557   4.94109   4.98872   5.01072   5.02781
  Beta virt. eigenvalues --    5.03657   5.06207   5.06661   5.16014   5.19656
  Beta virt. eigenvalues --    5.25276   5.26609   5.29340   5.29975   5.30634
  Beta virt. eigenvalues --    5.33861   5.35100   5.35854   5.37092   5.39673
  Beta virt. eigenvalues --    5.40654   5.43239   5.45852   5.46807   5.54886
  Beta virt. eigenvalues --    5.63016   5.65954   5.67761   5.75981   5.77819
  Beta virt. eigenvalues --    5.85623   5.92233   5.96158   5.98786   6.01291
  Beta virt. eigenvalues --    6.04342   6.05259   6.08115   6.09656   6.14578
  Beta virt. eigenvalues --    6.25603   6.32056   6.35371   6.37705   6.42295
  Beta virt. eigenvalues --    6.64900   6.76700   6.79054   6.83889   6.97517
  Beta virt. eigenvalues --    7.06053   7.08127   7.20368   7.41914   7.43780
  Beta virt. eigenvalues --    7.60466   7.75429   8.36765   9.90481  10.63217
  Beta virt. eigenvalues --   12.58416  13.41625  13.52571  16.96479
          Condensed to atoms (all electrons):
               1          2          3          4          5          6
     1  C    4.990700   0.402909   0.435735   0.290918  -0.027909  -0.045611
     2  H    0.402909   0.559655  -0.028170  -0.029920  -0.004934   0.006266
     3  H    0.435735  -0.028170   0.550976  -0.035469   0.005758  -0.004460
     4  C    0.290918  -0.029920  -0.035469   5.152444   0.401033   0.399813
     5  H   -0.027909  -0.004934   0.005758   0.401033   0.526752  -0.026623
     6  H   -0.045611   0.006266  -0.004460   0.399813  -0.026623   0.543542
     7  C    0.000691   0.000042  -0.000872  -0.003950   0.000081   0.000386
     8  H    0.000062  -0.000037  -0.000801   0.000053  -0.000257  -0.000843
     9  H   -0.000085  -0.000015   0.000011   0.000277   0.000001  -0.000098
    10  H   -0.000015  -0.000004   0.000321  -0.000176   0.000039  -0.000026
    11  O   -0.005931  -0.000386   0.014078   0.004766   0.000555   0.000122
    12  O    0.002258   0.002957  -0.003361  -0.074581   0.000168  -0.000499
    13  H   -0.004806  -0.001737  -0.001419   0.208184  -0.006797  -0.008308
    14  C    0.270890  -0.034156  -0.057604  -0.039784  -0.001000   0.006624
    15  C   -0.158541   0.000981  -0.006117   0.009307   0.001397   0.004996
    16  H   -0.000435  -0.000014  -0.000110   0.000053   0.000008   0.000053
               7          8          9         10         11         12
     1  C    0.000691   0.000062  -0.000085  -0.000015  -0.005931   0.002258
     2  H    0.000042  -0.000037  -0.000015  -0.000004  -0.000386   0.002957
     3  H   -0.000872  -0.000801   0.000011   0.000321   0.014078  -0.003361
     4  C   -0.003950   0.000053   0.000277  -0.000176   0.004766  -0.074581
     5  H    0.000081  -0.000257   0.000001   0.000039   0.000555   0.000168
     6  H    0.000386  -0.000843  -0.000098  -0.000026   0.000122  -0.000499
     7  C    4.597598   0.391900   0.396552   0.410817   0.303751  -0.048112
     8  H    0.391900   0.681988  -0.033279  -0.059441  -0.050173  -0.001730
     9  H    0.396552  -0.033279   0.589101  -0.029122  -0.026526   0.006634
    10  H    0.410817  -0.059441  -0.029122   0.618881  -0.038189   0.003934
    11  O    0.303751  -0.050173  -0.026526  -0.038189   7.949904   0.070578
    12  O   -0.048112  -0.001730   0.006634   0.003934   0.070578   8.052406
    13  H    0.000666   0.005062  -0.000223   0.000241  -0.029237   0.208273
    14  C   -0.000009   0.000015  -0.000086  -0.000017  -0.001165   0.003102
    15  C    0.000000  -0.000007  -0.000005  -0.000001  -0.000043   0.000082
    16  H    0.000000  -0.000000  -0.000000  -0.000000  -0.000000   0.000000
              13         14         15         16
     1  C   -0.004806   0.270890  -0.158541  -0.000435
     2  H   -0.001737  -0.034156   0.000981  -0.000014
     3  H   -0.001419  -0.057604  -0.006117  -0.000110
     4  C    0.208184  -0.039784   0.009307   0.000053
     5  H   -0.006797  -0.001000   0.001397   0.000008
     6  H   -0.008308   0.006624   0.004996   0.000053
     7  C    0.000666  -0.000009   0.000000   0.000000
     8  H    0.005062   0.000015  -0.000007  -0.000000
     9  H   -0.000223  -0.000086  -0.000005  -0.000000
    10  H    0.000241  -0.000017  -0.000001  -0.000000
    11  O   -0.029237  -0.001165  -0.000043  -0.000000
    12  O    0.208273   0.003102   0.000082   0.000000
    13  H    0.422071  -0.001193  -0.000545  -0.000005
    14  C   -0.001193   5.189179   0.767587  -0.063164
    15  C   -0.000545   0.767587   5.179968   0.414526
    16  H   -0.000005  -0.063164   0.414526   0.480072
          Atomic-Atomic Spin Densities.
               1          2          3          4          5          6
     1  C   -0.048005   0.001952  -0.000182  -0.025681   0.000070   0.000816
     2  H    0.001952   0.001956   0.000402  -0.002336   0.000551  -0.000109
     3  H   -0.000182   0.000402   0.006641  -0.003171  -0.000080   0.000567
     4  C   -0.025681  -0.002336  -0.003171   0.717692   0.004783   0.004228
     5  H    0.000070   0.000551  -0.000080   0.004783  -0.023553   0.003019
     6  H    0.000816  -0.000109   0.000567   0.004228   0.003019  -0.024663
     7  C   -0.000229  -0.000012  -0.000119   0.000886  -0.000030  -0.000240
     8  H    0.000317   0.000017   0.000223  -0.004119   0.000132   0.000983
     9  H   -0.000008   0.000001  -0.000023   0.000107  -0.000002  -0.000005
    10  H   -0.000066  -0.000004  -0.000041   0.001060  -0.000022  -0.000116
    11  O   -0.001656  -0.000108  -0.001224   0.012088  -0.000207  -0.000847
    12  O    0.006441   0.000460   0.001072  -0.086602   0.001922   0.002669
    13  H   -0.000105  -0.000100   0.000332   0.061140   0.001679   0.001539
    14  C    0.033245  -0.001495   0.000274  -0.020203  -0.000772  -0.001114
    15  C    0.004231   0.000218   0.001488   0.004964   0.000380   0.000173
    16  H    0.000142  -0.000001   0.000012   0.000035   0.000004  -0.000001
               7          8          9         10         11         12
     1  C   -0.000229   0.000317  -0.000008  -0.000066  -0.001656   0.006441
     2  H   -0.000012   0.000017   0.000001  -0.000004  -0.000108   0.000460
     3  H   -0.000119   0.000223  -0.000023  -0.000041  -0.001224   0.001072
     4  C    0.000886  -0.004119   0.000107   0.001060   0.012088  -0.086602
     5  H   -0.000030   0.000132  -0.000002  -0.000022  -0.000207   0.001922
     6  H   -0.000240   0.000983  -0.000005  -0.000116  -0.000847   0.002669
     7  C   -0.005219   0.003836   0.000534  -0.002741   0.000862  -0.001830
     8  H    0.003836   0.002029  -0.000749  -0.001328  -0.000870   0.003459
     9  H    0.000534  -0.000749  -0.001744   0.001010   0.000134  -0.000180
    10  H   -0.002741  -0.001328   0.001010   0.004113  -0.000617  -0.000236
    11  O    0.000862  -0.000870   0.000134  -0.000617   0.043821  -0.038905
    12  O   -0.001830   0.003459  -0.000180  -0.000236  -0.038905   0.560617
    13  H    0.001195  -0.003421   0.000042   0.001343   0.009857  -0.046873
    14  C    0.000031  -0.000023   0.000007   0.000003   0.000038  -0.000173
    15  C   -0.000001   0.000006   0.000000  -0.000000  -0.000007   0.000019
    16  H    0.000000   0.000000   0.000000  -0.000000  -0.000000   0.000000
              13         14         15         16
     1  C   -0.000105   0.033245   0.004231   0.000142
     2  H   -0.000100  -0.001495   0.000218  -0.000001
     3  H    0.000332   0.000274   0.001488   0.000012
     4  C    0.061140  -0.020203   0.004964   0.000035
     5  H    0.001679  -0.000772   0.000380   0.000004
     6  H    0.001539  -0.001114   0.000173  -0.000001
     7  C    0.001195   0.000031  -0.000001   0.000000
     8  H   -0.003421  -0.000023   0.000006   0.000000
     9  H    0.000042   0.000007   0.000000   0.000000
    10  H    0.001343   0.000003  -0.000000  -0.000000
    11  O    0.009857   0.000038  -0.000007  -0.000000
    12  O   -0.046873  -0.000173   0.000019   0.000000
    13  H   -0.100589  -0.000791  -0.000090  -0.000000
    14  C   -0.000791   0.012966  -0.016596   0.000690
    15  C   -0.000090  -0.016596   0.033965  -0.000857
    16  H   -0.000000   0.000690  -0.000857  -0.000773
 Mulliken charges and spin densities:
               1          2
     1  C   -0.150830  -0.028719
     2  H    0.126563   0.001392
     3  H    0.131504   0.006173
     4  C   -0.282969   0.664873
     5  H    0.131727  -0.012128
     6  H    0.124668  -0.013098
     7  C   -0.049541  -0.003075
     8  H    0.067486   0.000494
     9  H    0.096862  -0.000876
    10  H    0.092758   0.002357
    11  O   -0.192105   0.022361
    12  O   -0.222109   0.401860
    13  H    0.209776  -0.074844
    14  C   -0.039219   0.006087
    15  C   -0.213586   0.027892
    16  H    0.169016  -0.000749
 Sum of Mulliken charges =  -0.00000   1.00000
 Mulliken charges and spin densities with hydrogens summed into heavy atoms:
               1          2
     1  C    0.107237  -0.021154
     4  C   -0.026574   0.639647
     7  C    0.207565  -0.001100
    11  O   -0.192105   0.022361
    12  O   -0.012333   0.327016
    14  C   -0.039219   0.006087
    15  C   -0.044571   0.027143
 APT charges:
               1
     1  C    0.054478
     2  H    0.000307
     3  H    0.019269
     4  C    0.434019
     5  H   -0.033516
     6  H   -0.045641
     7  C    0.447675
     8  H   -0.041553
     9  H   -0.004736
    10  H   -0.032382
    11  O   -0.413398
    12  O    0.122443
    13  H   -0.344299
    14  C   -0.047391
    15  C   -0.332217
    16  H    0.216941
 Sum of APT charges =  -0.00000
 APT charges with hydrogens summed into heavy atoms:
               1
     1  C    0.074054
     4  C    0.354862
     7  C    0.369004
    11  O   -0.413398
    12  O   -0.221856
    14  C   -0.047391
    15  C   -0.115276
 Electronic spatial extent (au):  <R**2>=           1310.7358
 Charge=             -0.0000 electrons
 Dipole moment (field-independent basis, Debye):
    X=             -0.3384    Y=             -1.0245    Z=              1.6365  Tot=              1.9602
 Quadrupole moment (field-independent basis, Debye-Ang):
   XX=            -40.4164   YY=            -42.7841   ZZ=            -44.1003
   XY=             -3.8556   XZ=              1.7875   YZ=             -0.2997
 Traceless Quadrupole moment (field-independent basis, Debye-Ang):
   XX=              2.0172   YY=             -0.3505   ZZ=             -1.6667
   XY=             -3.8556   XZ=              1.7875   YZ=             -0.2997
 Octapole moment (field-independent basis, Debye-Ang**2):
  XXX=              5.7491  YYY=              3.0198  ZZZ=             -1.9133  XYY=              8.7445
  XXY=            -20.6202  XXZ=             12.5674  XZZ=              8.2713  YZZ=              1.8334
  YYZ=             -0.0475  XYZ=              1.4451
 Hexadecapole moment (field-independent basis, Debye-Ang**3):
 XXXX=          -1189.7105 YYYY=           -181.2272 ZZZZ=           -126.4299 XXXY=             41.4137
 XXXZ=            -32.1102 YYYX=            -15.7124 YYYZ=              3.6653 ZZZX=             -3.4302
 ZZZY=             -2.6733 XXYY=           -268.2109 XXZZ=           -280.5689 YYZZ=            -50.7898
 XXYZ=             -9.8594 YYXZ=             -4.2743 ZZXY=             -2.9407
 N-N= 2.777902256505D+02 E-N=-1.364013867406D+03  KE= 3.440393667785D+02
  Exact polarizability: 124.206   0.352  61.171  -9.113   0.749  56.296
 Approx polarizability: 107.331   5.918  72.288 -12.145   0.086  66.893
                          Isotropic Fermi Contact Couplings
        Atom                 a.u.       MegaHertz       Gauss      10(-4) cm-1
     1  C(13)             -0.00599      -6.73697      -2.40392      -2.24721
     2  H(1)               0.00113       5.06808       1.80842       1.69053
     3  H(1)               0.00434      19.41576       6.92802       6.47640
     4  C(13)              0.09688     108.91258      38.86272      36.32933
     5  H(1)              -0.00383     -17.14167      -6.11657      -5.71785
     6  H(1)              -0.00428     -19.14998      -6.83319      -6.38775
     7  C(13)             -0.00316      -3.54745      -1.26582      -1.18330
     8  H(1)               0.00222       9.91513       3.53797       3.30733
     9  H(1)              -0.00012      -0.52730      -0.18815      -0.17589
    10  H(1)               0.00058       2.60269       0.92870       0.86816
    11  O(17)              0.01429      -8.66331      -3.09128      -2.88977
    12  O(17)              0.03870     -23.46032      -8.37122      -7.82552
    13  H(1)              -0.02464    -110.12105     -39.29393     -36.73243
    14  C(13)              0.04915      55.25657      19.71692      18.43161
    15  C(13)              0.00362       4.06822       1.45164       1.35701
    16  H(1)              -0.00017      -0.77432      -0.27630      -0.25829
 --------------------------------------------------------
       Center         ----  Spin Dipole Couplings  ----
                      3XX-RR        3YY-RR        3ZZ-RR
 --------------------------------------------------------
     1   Atom        0.016033     -0.013835     -0.002198
     2   Atom       -0.000038     -0.008080      0.008118
     3   Atom       -0.004117      0.001531      0.002586
     4   Atom        0.625764     -0.351221     -0.274543
     5   Atom       -0.002975      0.037842     -0.034867
     6   Atom       -0.002275     -0.003602      0.005876
     7   Atom       -0.000519      0.002615     -0.002096
     8   Atom       -0.000930      0.002156     -0.001226
     9   Atom       -0.000123      0.003394     -0.003271
    10   Atom        0.003995     -0.001148     -0.002847
    11   Atom        0.263640     -0.213947     -0.049693
    12   Atom        1.165485     -0.673357     -0.492127
    13   Atom        0.187390     -0.117402     -0.069988
    14   Atom        0.032399     -0.008768     -0.023631
    15   Atom       -0.008640     -0.019342      0.027982
    16   Atom        0.003263     -0.002262     -0.001001
 --------------------------------------------------------
                        XY            XZ            YZ
 --------------------------------------------------------
     1   Atom        0.007333      0.010921      0.005654
     2   Atom       -0.001215      0.007952     -0.002325
     3   Atom        0.003762      0.002309      0.010736
     4   Atom        0.166425     -0.326964     -0.054718
     5   Atom       -0.010458     -0.019253      0.023359
     6   Atom       -0.007023     -0.000302     -0.047382
     7   Atom       -0.007460      0.001194     -0.003156
     8   Atom       -0.004441      0.001869     -0.005749
     9   Atom       -0.004087      0.000164     -0.000879
    10   Atom       -0.005247      0.003377     -0.002111
    11   Atom        0.035439     -0.236182     -0.051541
    12   Atom        0.647617     -0.890493     -0.277410
    13   Atom        0.031496     -0.130053     -0.011475
    14   Atom        0.019642      0.005011      0.001594
    15   Atom        0.003932     -0.003387      0.004871
    16   Atom        0.002194     -0.000181      0.000187
 --------------------------------------------------------


 ---------------------------------------------------------------------------------
              Anisotropic Spin Dipole Couplings in Principal Axis System
 ---------------------------------------------------------------------------------

       Atom             a.u.   MegaHertz   Gauss  10(-4) cm-1        Axes

              Baa    -0.0165    -2.208    -0.788    -0.736 -0.1183  0.9508 -0.2865
     1 C(13)  Bbb    -0.0069    -0.925    -0.330    -0.309 -0.4727  0.1998  0.8583
              Bcc     0.0233     3.133     1.118     1.045  0.8733  0.2370  0.4258
 
              Baa    -0.0084    -4.487    -1.601    -1.497  0.0211  0.9914  0.1293
     2 H(1)   Bbb    -0.0049    -2.608    -0.931    -0.870  0.8560  0.0489 -0.5146
              Bcc     0.0133     7.095     2.532     2.367  0.5165 -0.1215  0.8476
 
              Baa    -0.0090    -4.805    -1.715    -1.603 -0.2687  0.7328 -0.6251
     3 H(1)   Bbb    -0.0048    -2.571    -0.917    -0.858  0.9349  0.0420 -0.3525
              Bcc     0.0138     7.376     2.632     2.461  0.2320  0.6791  0.6964
 
              Baa    -0.3809   -51.118   -18.240   -17.051  0.2545  0.2795  0.9258
     4 C(13)  Bbb    -0.3787   -50.814   -18.132   -16.950 -0.2295  0.9474 -0.2229
              Bcc     0.7596   101.932    36.372    34.001  0.9394  0.1558 -0.3053
 
              Baa    -0.0475   -25.332    -9.039    -8.450  0.3468 -0.2079  0.9146
     5 H(1)   Bbb    -0.0020    -1.077    -0.384    -0.359  0.8900  0.3806 -0.2510
              Bcc     0.0495    26.408     9.423     8.809 -0.2959  0.9011  0.3170
 
              Baa    -0.0471   -25.150    -8.974    -8.389  0.1203  0.7398  0.6619
     6 H(1)   Bbb    -0.0020    -1.074    -0.383    -0.358  0.9889 -0.0305 -0.1455
              Bcc     0.0491    26.224     9.357     8.747  0.0875 -0.6721  0.7353
 
              Baa    -0.0069    -0.919    -0.328    -0.307  0.7179  0.6494  0.2509
     7 C(13)  Bbb    -0.0027    -0.363    -0.130    -0.121 -0.3635  0.0424  0.9306
              Bcc     0.0096     1.282     0.458     0.428 -0.5937  0.7593 -0.2665
 
              Baa    -0.0059    -3.172    -1.132    -1.058  0.3343  0.6605  0.6723
     8 H(1)   Bbb    -0.0028    -1.492    -0.532    -0.498  0.8342  0.1245 -0.5372
              Bcc     0.0087     4.664     1.664     1.556 -0.4385  0.7405 -0.5094
 
              Baa    -0.0035    -1.874    -0.669    -0.625  0.3274  0.3074  0.8935
     9 H(1)   Bbb    -0.0026    -1.411    -0.503    -0.471  0.7719  0.4584 -0.4406
              Bcc     0.0062     3.285     1.172     1.096 -0.5449  0.8339 -0.0872
 
              Baa    -0.0044    -2.358    -0.841    -0.787  0.5231  0.8520  0.0203
    10 H(1)   Bbb    -0.0042    -2.255    -0.805    -0.752 -0.2891  0.1550  0.9447
              Bcc     0.0086     4.613     1.646     1.539  0.8017 -0.5000  0.3274
 
              Baa    -0.2333    16.884     6.025     5.632  0.1421  0.8903  0.4327
    11 O(17)  Bbb    -0.1621    11.732     4.186     3.913  0.4622 -0.4462  0.7663
              Bcc     0.3955   -28.616   -10.211    -9.545  0.8753  0.0911 -0.4749
 
              Baa    -0.8829    63.883    22.795    21.309  0.4721 -0.5789  0.6648
    12 O(17)  Bbb    -0.8745    63.280    22.580    21.108  0.0367  0.7664  0.6413
              Bcc     1.7574  -127.163   -45.375   -42.417  0.8808  0.2784 -0.3830
 
              Baa    -0.1248   -66.590   -23.761   -22.212  0.3910 -0.3339  0.8577
    13 H(1)   Bbb    -0.1200   -64.001   -22.837   -21.348  0.0490  0.9381  0.3429
              Bcc     0.2448   130.591    46.598    43.560  0.9191  0.0921 -0.3831
 
              Baa    -0.0241    -3.231    -1.153    -1.078 -0.0944  0.0174  0.9954
    14 C(13)  Bbb    -0.0166    -2.230    -0.796    -0.744 -0.3670  0.9288 -0.0511
              Bcc     0.0407     5.461     1.949     1.822  0.9254  0.3701  0.0813
 
              Baa    -0.0213    -2.857    -1.019    -0.953 -0.3228  0.9394 -0.1151
    15 C(13)  Bbb    -0.0074    -0.997    -0.356    -0.332  0.9431  0.3296  0.0449
              Bcc     0.0287     3.853     1.375     1.285 -0.0801  0.0940  0.9923
 
              Baa    -0.0031    -1.630    -0.581    -0.544 -0.3288  0.9375 -0.1144
    16 H(1)   Bbb    -0.0010    -0.521    -0.186    -0.174 -0.0171  0.1152  0.9932
              Bcc     0.0040     2.151     0.767     0.717  0.9442  0.3285 -0.0218
 

 ---------------------------------------------------------------------------------

 Calling FoFJK, ICntrl=  10100127 FMM=F ISym2X=0 I1Cent= 0 IOpClX= 1 NMat=1 NMatS=1 NMatT=0.
 ***** Axes restored to original set *****
 -------------------------------------------------------------------
 Center     Atomic                   Forces (Hartrees/Bohr)
 Number     Number              X              Y              Z
 -------------------------------------------------------------------
      1        6           0.000076049    0.000082677   -0.000174293
      2        1           0.000004013   -0.000002052   -0.000003657
      3        1           0.000004689   -0.000003225    0.000001901
      4        6          -0.000100978   -0.000078710    0.000220151
      5        1           0.000004662    0.000004013    0.000001067
      6        1          -0.000000305    0.000004325   -0.000007445
      7        6           0.000000128    0.000001755    0.000002253
      8        1           0.000000804   -0.000002358   -0.000002114
      9        1           0.000002564    0.000000083    0.000000577
     10        1          -0.000001814   -0.000001340   -0.000000669
     11        8          -0.000096835    0.000120268    0.000163277
     12        8           0.000114595   -0.000113603   -0.000189011
     13        1          -0.000006186   -0.000013002   -0.000008184
     14        6           0.000000247    0.000002660   -0.000003698
     15        6          -0.000001152   -0.000000970   -0.000000365
     16        1          -0.000000481   -0.000000520    0.000000208
 -------------------------------------------------------------------
 Cartesian Forces:  Max     0.000220151 RMS     0.000067797
 FormGI is forming the generalized inverse of G from B-inverse, IUseBI=4.

 GradGradGradGradGradGradGradGradGradGradGradGradGradGradGradGradGradGrad
 Berny optimization.
 Internal  Forces:  Max     0.000295047 RMS     0.000055441
 Search for a saddle point.
 Step number   1 out of a maximum of  100
 All quantities printed in internal units (Hartrees-Bohrs-Radians)
 Swapping is turned off.
 Second derivative matrix not updated -- analytic derivatives used.
 ITU=  0
     Eigenvalues ---   -0.07276   0.00101   0.00171   0.00612   0.01585
     Eigenvalues ---    0.01600   0.02290   0.03042   0.03241   0.03540
     Eigenvalues ---    0.03987   0.04675   0.04833   0.06088   0.06502
     Eigenvalues ---    0.08486   0.08511   0.08895   0.09394   0.09801
     Eigenvalues ---    0.13036   0.13343   0.15917   0.16534   0.16579
     Eigenvalues ---    0.17110   0.18155   0.18857   0.25968   0.30482
     Eigenvalues ---    0.31984   0.32778   0.33468   0.33587   0.34502
     Eigenvalues ---    0.35220   0.35390   0.35530   0.35723   0.40331
     Eigenvalues ---    0.41654   1.04754
 Eigenvectors required to have negative eigenvalues:
                          R7        R13       R12       A20       D1
   1                   -0.70788   0.64480  -0.15315   0.08773   0.07735
                          D5        D8        D7        A9        D4
   1                   -0.07712  -0.07092   0.06982   0.06423   0.06362
 RFO step:  Lambda0=8.746895014D-10 Lambda=-8.58839908D-05.
 Linear search not attempted -- option 19 set.
 Iteration  1 RMS(Cart)=  0.09871331 RMS(Int)=  0.00277324
 Iteration  2 RMS(Cart)=  0.00396272 RMS(Int)=  0.00001341
 Iteration  3 RMS(Cart)=  0.00000747 RMS(Int)=  0.00001265
 Iteration  4 RMS(Cart)=  0.00000000 RMS(Int)=  0.00001265
 Variable       Old X    -DE/DX   Delta X   Delta X   Delta X     New X
                                 (Linear)    (Quad)   (Total)
    R1        2.05946  -0.00000   0.00000   0.00001   0.00001   2.05948
    R2        2.06176   0.00000   0.00000   0.00010   0.00010   2.06186
    R3        2.85727  -0.00001   0.00000  -0.00023  -0.00023   2.85705
    R4        2.76271   0.00000   0.00000  -0.00008  -0.00008   2.76263
    R5        2.04961  -0.00000   0.00000  -0.00006  -0.00006   2.04955
    R6        2.04978   0.00001   0.00000  -0.00008  -0.00008   2.04971
    R7        2.59858  -0.00000   0.00000   0.00262   0.00262   2.60120
    R8        2.06175   0.00000   0.00000   0.00005   0.00005   2.06180
    R9        2.05588   0.00000   0.00000   0.00001   0.00001   2.05589
   R10        2.05677  -0.00000   0.00000  -0.00009  -0.00009   2.05668
   R11        2.68557   0.00000   0.00000   0.00038   0.00038   2.68595
   R12        2.66582  -0.00000   0.00000  -0.00002  -0.00002   2.66579
   R13        2.17518   0.00001   0.00000  -0.00044  -0.00044   2.17474
   R14        2.27820   0.00000   0.00000  -0.00001  -0.00001   2.27819
   R15        2.00280   0.00000   0.00000  -0.00000  -0.00000   2.00280
    A1        1.86357   0.00000   0.00000  -0.00201  -0.00201   1.86156
    A2        1.92112  -0.00001   0.00000  -0.00054  -0.00054   1.92058
    A3        1.91414   0.00000   0.00000   0.00036   0.00036   1.91450
    A4        1.91467  -0.00001   0.00000   0.00106   0.00106   1.91572
    A5        1.91313   0.00000   0.00000   0.00035   0.00035   1.91348
    A6        1.93583   0.00000   0.00000   0.00069   0.00069   1.93652
    A7        2.02603   0.00014   0.00000   0.00038   0.00034   2.02637
    A8        2.01393  -0.00014   0.00000   0.00020   0.00021   2.01414
    A9        1.79328  -0.00001   0.00000   0.00106   0.00105   1.79433
   A10        1.98076   0.00000   0.00000  -0.00058  -0.00056   1.98020
   A11        1.80109  -0.00001   0.00000  -0.00571  -0.00570   1.79539
   A12        1.80638   0.00001   0.00000   0.00466   0.00466   1.81104
   A13        1.91867   0.00000   0.00000   0.00011   0.00011   1.91878
   A14        1.91750  -0.00000   0.00000   0.00009   0.00009   1.91759
   A15        1.93527   0.00000   0.00000  -0.00005  -0.00005   1.93522
   A16        1.92534  -0.00000   0.00000   0.00006   0.00006   1.92540
   A17        1.83545   0.00000   0.00000   0.00013   0.00013   1.83558
   A18        1.93032  -0.00000   0.00000  -0.00034  -0.00034   1.92998
   A19        1.88130  -0.00000   0.00000  -0.00016  -0.00016   1.88115
   A20        1.81183  -0.00001   0.00000   0.00211   0.00211   1.81395
   A21        3.14092  -0.00003   0.00000  -0.01123  -0.01122   3.12970
   A22        3.10826   0.00000   0.00000  -0.00002  -0.00002   3.10824
   A23        3.15544   0.00000   0.00000   0.00011   0.00011   3.15555
   A24        2.99461  -0.00003   0.00000   0.00783   0.00782   3.00244
   A25        3.12497  -0.00000   0.00000   0.00085   0.00085   3.12582
   A26        3.14940  -0.00000   0.00000  -0.00079  -0.00079   3.14861
    D1        0.81969   0.00002   0.00000  -0.02044  -0.02045   0.79924
    D2       -3.08376   0.00002   0.00000  -0.02070  -0.02070  -3.10447
    D3       -1.13152  -0.00003   0.00000  -0.01443  -0.01443  -1.14595
    D4        2.86536   0.00001   0.00000  -0.02258  -0.02259   2.84278
    D5       -1.03809   0.00001   0.00000  -0.02284  -0.02284  -1.06094
    D6        0.91415  -0.00003   0.00000  -0.01657  -0.01657   0.89759
    D7       -1.30185   0.00002   0.00000  -0.02099  -0.02100  -1.32285
    D8        1.07788   0.00002   0.00000  -0.02125  -0.02125   1.05662
    D9        3.03012  -0.00003   0.00000  -0.01498  -0.01498   3.01515
   D10       -0.99589   0.00030   0.00000   0.14737   0.14743  -0.84847
   D11       -3.10043   0.00015   0.00000   0.14965   0.14959  -2.95083
   D12        1.08716   0.00014   0.00000   0.15157   0.15157   1.23873
   D13        1.13227   0.00000   0.00000   0.00269   0.00269   1.13496
   D14       -3.07785   0.00000   0.00000   0.00287   0.00287  -3.07497
   D15       -0.99941   0.00000   0.00000   0.00284   0.00284  -0.99657
   D16       -1.61022  -0.00000   0.00000   0.00115   0.00115  -1.60906
         Item               Value     Threshold  Converged?
 Maximum Force            0.000295     0.000450     YES
 RMS     Force            0.000055     0.000300     YES
 Maximum Displacement     0.243634     0.001800     NO 
 RMS     Displacement     0.098968     0.001200     NO 
 Predicted change in Energy=-4.598524D-05
 GradGradGradGradGradGradGradGradGradGradGradGradGradGradGradGradGradGrad

                          Input orientation:                          
 ---------------------------------------------------------------------
 Center     Atomic      Atomic             Coordinates (Angstroms)
 Number     Number       Type             X           Y           Z
 ---------------------------------------------------------------------
      1          6           0       -1.280317    0.257117    0.500560
      2          1           0       -1.400475    0.353510    1.579446
      3          1           0       -0.551262    1.010576    0.198470
      4          6           0       -0.762612   -1.121448    0.158021
      5          1           0       -1.250021   -1.951850    0.657184
      6          1           0       -0.576514   -1.300054   -0.895522
      7          6           0        2.729912    0.005487   -0.477907
      8          1           0        2.106186   -0.429003   -1.260588
      9          1           0        3.103153    0.976258   -0.797096
     10          1           0        3.558942   -0.662504   -0.252085
     11          8           0        1.966041    0.266938    0.691863
     12          8           0        1.526443   -0.971376    1.205032
     13          1           0        0.495004   -1.122852    0.717607
     14          6           0       -2.557371    0.515643   -0.162397
     15          6           0       -3.607718    0.690245   -0.727799
     16          1           0       -4.532678    0.857270   -1.217495
 ---------------------------------------------------------------------
                    Distance matrix (angstroms):
                    1          2          3          4          5
     1  C    0.000000
     2  H    1.089828   0.000000
     3  H    1.091091   1.749284   0.000000
     4  C    1.511884   2.145418   2.142855   0.000000
     5  H    2.214720   2.487547   3.078092   1.084573   0.000000
     6  H    2.206619   3.088471   2.556651   1.084659   1.813655
     7  C    4.135535   4.627518   3.497683   3.724528   4.578151
     8  H    3.878248   4.579825   3.356079   3.274437   4.154641
     9  H    4.627730   5.130150   3.787753   4.500751   5.444159
    10  H    4.983032   5.383550   4.460490   4.365163   5.061157
    11  O    3.252005   3.482633   2.670814   3.107757   3.907337
    12  O    3.143784   3.234557   3.042722   2.521613   2.995033
    13  H    2.259024   2.552500   2.432219   1.376495   1.932874
    14  C    1.461922   2.097311   2.097536   2.450284   2.910223
    15  C    2.667070   3.210715   3.209752   3.487339   3.802312
    16  H    3.726895   4.229344   4.228490   4.474457   4.709715
                    6          7          8          9         10
     6  H    0.000000
     7  C    3.579286   0.000000
     8  H    2.844096   1.091057   0.000000
     9  H    4.327959   1.087928   1.784244   0.000000
    10  H    4.233495   1.088347   1.783845   1.786147   0.000000
    11  O    3.382283   1.421343   2.077508   2.003286   2.071770
    12  O    2.990449   2.287986   2.590281   3.207462   2.519850
    13  H    1.944669   2.774386   2.643973   3.674647   3.246527
    14  C    2.785323   5.321199   4.883353   5.714590   6.229395
    15  C    3.630100   6.379412   5.846818   6.717320   7.308711
    16  H    4.517627   7.349676   6.762460   7.648320   8.289514
                   11         12         13         14         15
    11  O    0.000000
    12  O    1.410677   0.000000
    13  H    2.023890   1.150824   0.000000
    14  C    4.610084   4.556163   3.574362   0.000000
    15  C    5.767272   5.732053   4.712627   1.205568   0.000000
    16  H    6.799080   6.776838   5.739607   2.265343   1.059835
                   16
    16  H    0.000000
 Stoichiometry    C5H9O2(2)
 Framework group  C1[X(C5H9O2)]
 Deg. of freedom    42
 Full point group                 C1      NOp   1
 Largest Abelian subgroup         C1      NOp   1
 Largest concise Abelian subgroup C1      NOp   1
                         Standard orientation:                         
 ---------------------------------------------------------------------
 Center     Atomic      Atomic             Coordinates (Angstroms)
 Number     Number       Type             X           Y           Z
 ---------------------------------------------------------------------
      1          6           0       -1.196162    0.155409   -0.491750
      2          1           0       -1.198012    0.816871   -1.357886
      3          1           0       -0.606560   -0.720097   -0.768046
      4          6           0       -0.557190    0.850084    0.689323
      5          1           0       -0.875789    1.870526    0.872332
      6          1           0       -0.477237    0.254235    1.592128
      7          6           0        2.669379   -0.991806    0.427020
      8          1           0        2.015194   -1.083160    1.295411
      9          1           0        2.879638   -1.976784    0.015684
     10          1           0        3.595262   -0.495756    0.711932
     11          8           0        2.023821   -0.281097   -0.621008
     12          8           0        1.804201    1.039002   -0.174782
     13          1           0        0.748627    1.004942    0.282382
     14          6           0       -2.565078   -0.252509   -0.180484
     15          6           0       -3.688695   -0.573452    0.115951
     16          1           0       -4.678834   -0.860379    0.362017
 ---------------------------------------------------------------------
 Rotational constants (GHZ):           6.1731347           0.9301592           0.8818721
 Standard basis: CC-pVTZ (5D, 7F)
 There are   380 symmetry adapted cartesian basis functions of A   symmetry.
 There are   336 symmetry adapted basis functions of A   symmetry.
   336 basis functions,   517 primitive gaussians,   380 cartesian basis functions
    28 alpha electrons       27 beta electrons
       nuclear repulsion energy       278.5517721160 Hartrees.
 NAtoms=   16 NActive=   16 NUniq=   16 SFac= 1.00D+00 NAtFMM=   60 NAOKFM=F Big=F
 Integral buffers will be    131072 words long.
 Raffenetti 2 integral format.
 Two-electron integral symmetry is turned on.
 Nuclear repulsion after empirical dispersion term =      278.5436755989 Hartrees.
 One-electron integrals computed using PRISM.
 NBasis=   336 RedAO= T EigKep=  4.20D-05  NBF=   336
 NBsUse=   336 1.00D-06 EigRej= -1.00D+00 NBFU=   336
 Initial guess from the checkpoint file:  "/localscratch/353442/Gau-70145.chk"
 B after Tr=     0.000000    0.000000   -0.000000
         Rot=    0.999508    0.031089    0.002453    0.003423 Ang=   3.60 deg.
 Initial guess <Sx>= 0.0000 <Sy>= 0.0000 <Sz>= 0.5000 <S**2>= 0.7683 S= 0.5091
 ExpMin= 1.03D-01 ExpMax= 1.53D+04 ExpMxC= 5.22D+02 IAcc=3 IRadAn=         5 AccDes= 0.00D+00
 Harris functional with IExCor=  419 and IRadAn=       5 diagonalized for initial guess.
 HarFok:  IExCor=  419 AccDes= 0.00D+00 IRadAn=         5 IDoV= 1 UseB2=F ITyADJ=14
 ICtDFT=  3500011 ScaDFX=  1.000000  1.000000  1.000000  1.000000
 FoFCou: FMM=F IPFlag=           0 FMFlag=      100000 FMFlg1=           0
         NFxFlg=           0 DoJE=T BraDBF=F KetDBF=T FulRan=T
         wScrn=  0.000000 ICntrl=       500 IOpCl=  0 I1Cent=   200000004 NGrid=           0
         NMat0=    1 NMatS0=      1 NMatT0=    0 NMatD0=    1 NMtDS0=    0 NMtDT0=    0
 Petite list used in FoFCou.
 Requested convergence on RMS density matrix=1.00D-08 within 128 cycles.
 Requested convergence on MAX density matrix=1.00D-06.
 Requested convergence on             energy=1.00D-06.
 No special actions if energy rises.
 Integral accuracy reduced to 1.0D-05 until final iterations.
 Initial convergence to 1.0D-05 achieved.  Increase integral accuracy.
 SCF Done:  E(UB2PLYPD3) =  -345.567221966     A.U. after   15 cycles
            NFock= 15  Conv=0.89D-08     -V/T= 2.0044
 <Sx>= 0.0000 <Sy>= 0.0000 <Sz>= 0.5000 <S**2>= 0.7683 S= 0.5091
 <L.S>=  0.00000000000    
 Annihilation of the first spin contaminant:
 S**2 before annihilation     0.7683,   after     0.7502
 DoSCS=T DFT=T ScalE2(SS,OS)=  0.270000  0.270000
 ExpMin= 1.03D-01 ExpMax= 1.53D+04 ExpMxC= 5.22D+02 IAcc=3 IRadAn=         5 AccDes= 0.00D+00
 HarFok:  IExCor=  205 AccDes= 0.00D+00 IRadAn=         5 IDoV=-2 UseB2=F ITyADJ=14
 ICtDFT= 12500011 ScaDFX=  1.000000  1.000000  1.000000  1.000000
 Range of M.O.s used for correlation:     8   336
 NBasis=   336 NAE=    28 NBE=    27 NFC=     7 NFV=     0
 NROrb=    329 NOA=    21 NOB=    20 NVA=   308 NVB=   309

 **** Warning!!: The largest alpha MO coefficient is  0.38925966D+02


 **** Warning!!: The largest beta MO coefficient is  0.39343959D+02

 DoSCS=T DFT=T ScalE2(SS,OS)=  0.270000  0.270000
 Disk-based method using ON**2 memory for 21 occupieds at a time.
 Estimated scratch disk usage=  1919354824 words.
 Actual    scratch disk usage=  1759097288 words.
 JobTyp=2 Pass  1:  I=   8 to  28 NPSUse= 40 ParTrn=T ParDer=T DoDerP=T.
 (rs|ai) integrals will be sorted in core.
 Actual    scratch disk usage=  1759097288 words.
 JobTyp=3 Pass  1:  I=   8 to  27 NPSUse= 40 ParTrn=T ParDer=T DoDerP=T.
 (rs|ai) integrals will be sorted in core.
 Spin components of T(2) and E(2):
     alpha-alpha T2 =       0.7936230470D-01 E2=     -0.5370196497D-01
     alpha-beta  T2 =       0.4679568302D+00 E2=     -0.3264248448D+00
     beta-beta   T2 =       0.8342071313D-01 E2=     -0.5193796693D-01
 (S**2,0)=  0.76827D+00           (S**2,1)=  0.74289D+00
 Scaling Projection term by:   0.270000
 E(PUHF)=      -0.34557332242D+03        E(PMP2)=      -0.34599979562D+03
 E2(B2PLYPD3) =    -0.4320647767D+00 E(B2PLYPD3) =    -0.34599928674279D+03
          IDoAtm=1111111111111111
          Differentiating once with respect to electric field.
                with respect to dipole field.
          Differentiating once with respect to nuclear coordinates.
 Keep R1 and R2 ints in memory in canonical form, NReq=3251778068.
          There are     1 degrees of freedom in the 1st order CPHF.  IDoFFX=0 NUNeed=     1.
 LinEq1:  Iter=  0 NonCon=     1 RMS=8.99D-04 Max=6.96D-02 NDo=     1
 AX will form     1 AO Fock derivatives at one time.
 LinEq1:  Iter=  1 NonCon=     1 RMS=2.97D-04 Max=1.02D-02 NDo=     1
 LinEq1:  Iter=  2 NonCon=     1 RMS=1.74D-04 Max=1.00D-02 NDo=     1
 LinEq1:  Iter=  3 NonCon=     1 RMS=1.09D-04 Max=3.29D-03 NDo=     1
 LinEq1:  Iter=  4 NonCon=     1 RMS=5.05D-05 Max=1.20D-03 NDo=     1
 LinEq1:  Iter=  5 NonCon=     1 RMS=4.10D-05 Max=1.08D-03 NDo=     1
 LinEq1:  Iter=  6 NonCon=     1 RMS=1.86D-05 Max=4.17D-04 NDo=     1
 LinEq1:  Iter=  7 NonCon=     1 RMS=8.31D-06 Max=2.14D-04 NDo=     1
 LinEq1:  Iter=  8 NonCon=     1 RMS=6.03D-06 Max=1.18D-04 NDo=     1
 LinEq1:  Iter=  9 NonCon=     1 RMS=2.95D-06 Max=7.23D-05 NDo=     1
 LinEq1:  Iter= 10 NonCon=     1 RMS=1.24D-06 Max=2.97D-05 NDo=     1
 LinEq1:  Iter= 11 NonCon=     1 RMS=5.59D-07 Max=9.46D-06 NDo=     1
 LinEq1:  Iter= 12 NonCon=     1 RMS=2.36D-07 Max=4.13D-06 NDo=     1
 LinEq1:  Iter= 13 NonCon=     1 RMS=9.88D-08 Max=1.54D-06 NDo=     1
 LinEq1:  Iter= 14 NonCon=     1 RMS=3.27D-08 Max=8.00D-07 NDo=     1
 LinEq1:  Iter= 15 NonCon=     1 RMS=1.04D-08 Max=2.40D-07 NDo=     1
[...]
   zz         0.598823D+02      0.887364D+01      0.987325D+01

 ----------------------------------------------------------------------

 Dipole orientation:
     6         -2.43499190         -0.39383771         -0.95920072
     1         -2.68090964         -0.36531725         -3.00377040
     1         -1.05778436         -1.87277795         -0.55059624
     6         -1.44296960          2.12893458         -0.05686194
     1         -2.37384104          3.78784515         -0.81984028
     1         -1.06538328          2.25738070          1.95365696
     6          5.17856254         -0.09446631          0.83420351
     1          4.01317881          0.55616712          2.40578985
     1          5.90016209         -1.97852369          1.22958492
     1          6.73369136          1.21611058          0.52783087
     8          3.71161956         -0.35803586         -1.40019958
     8          2.85991065          2.06763042         -2.10525678
     1          0.92103852          2.24434820         -1.13713082
     6         -4.83882852         -1.00239552          0.25888762
     6         -6.81523726         -1.43519859          1.30608255
     1         -8.55594489         -1.83962678          2.21029010

 Electric dipole moment (dipole orientation):
 (Debye = 10**-18 statcoulomb cm , SI units = C m)
                  (au)            (Debye)         (10**-30 SI)
   Tot        0.717659D+00      0.182411D+01      0.608457D+01
   x          0.000000D+00      0.000000D+00      0.000000D+00
   y          0.000000D+00      0.000000D+00      0.000000D+00
   z          0.717659D+00      0.182411D+01      0.608457D+01

 Dipole polarizability, Alpha (dipole orientation).
 (esu units = cm**3 , SI units = C**2 m**2 J**-1)
 Alpha(0;0):
               (au)            (10**-24 esu)      (10**-40 SI)
   iso        0.803155D+02      0.119015D+02      0.132422D+02
   aniso      0.663375D+02      0.983020D+01      0.109376D+02
   xx         0.121251D+03      0.179675D+02      0.199916D+02
   yx         0.233845D+01      0.346522D+00      0.385558D+00
   yy         0.603046D+02      0.893622D+01      0.994288D+01
   zx        -0.137713D+02     -0.204070D+01     -0.227058D+01
   zy        -0.384340D+01     -0.569533D+00     -0.633691D+00
   zz         0.593908D+02      0.880080D+01      0.979221D+01

 ----------------------------------------------------------------------
 1\1\GINC-N142\Freq\UB2PLYPD3-FC\CC-pVTZ\C5H9O2(2)\ROOT\24-Jun-2019\0\\
 #N Geom=AllCheck Guess=TCheck SCRF=Check GenChk UB2PLYPD3(FC)/CC-pVTZ 
 Freq\\Title Card Required\\0,2\C,-1.2827408576,0.2607888157,0.49798150
 33\H,-1.4004074917,0.3582612878,1.5770597228\H,-0.5569595459,1.0162741
 909,0.1932474177\C,-0.7625144445,-1.1169032129,0.1557550467\H,-1.24990
 56162,-1.9477684107,0.6541649181\H,-0.5749192969,-1.295159056,-0.89757
 51194\C,2.7350857872,0.0022140053,-0.4757499576\H,2.1090689164,-0.4262
 552911,-1.2599754819\H,3.1139093439,0.9718529168,-0.7918052139\H,3.560
 2511289,-0.6712099813,-0.2519299696\O,1.9723865994,0.2642412311,0.6946
 101619\O,1.5267741574,-0.973387308,1.2042096101\H,0.4949962868,-1.1190
 063709,0.7162274795\C,-2.5623221429,0.5148760891,-0.1618916039\C,-3.61
 46370061,0.6857209846,-0.7247673451\H,-4.5413528183,0.8494181096,-1.21
 22671687\\Version=ES64L-G16RevB.01\State=2-A\HF=-345.5672437\MP2=-345.
 9992877\PUHF=-345.5733429\PMP2-0=-345.9997966\S2=0.768266\S2-1=0.74289
 6\S2A=0.750152\RMSD=2.306e-09\RMSF=1.503e-06\ZeroPoint=0.1229549\Therm
 al=0.1325551\Dipole=-0.008258,-0.0745593,-0.7137281\DipoleDeriv=-0.066
 0334,-0.0082394,-0.0281506,-0.1812184,0.107233,-0.0253899,-0.1718568,0
 .011798,0.1132963,0.0072561,0.0330227,-0.013995,0.0459839,0.0551846,0.
 0028783,-0.0060889,-0.022384,-0.0621679,0.0100381,-0.0430244,-0.010407
 6,0.0007987,0.0035195,0.0351161,0.0094431,0.0308184,0.047777,1.0556219
 ,0.1392864,0.1129543,-0.1682804,0.085917,-0.0525611,0.3619865,0.042841
 8,0.1470847,-0.0900959,-0.0947845,0.0323696,0.0361229,-0.0373177,0.032
 5019,-0.0403886,0.0174312,0.0304469,-0.083106,-0.033086,-0.0070219,0.0
 323414,0.0181548,0.0036941,0.0269873,-0.0527848,-0.0695347,0.6283921,0
 .0169055,-0.0626275,-0.0872928,0.2714788,0.0528541,-0.4103788,-0.00294
 62,0.431605,-0.0807249,-0.0677478,-0.1048111,0.0063915,0.0279193,-0.07
 69923,0.0388131,-0.0175088,-0.0698997,0.0159244,-0.0398392,0.0423689,-
 0.0658068,-0.0631974,0.041541,0.0809316,0.0265698,0.0354392,-0.1115446
 ,0.0514536,0.0127495,0.1553396,0.0065074,-0.0091987,-0.0129521,0.05478
 35,0.0115785,-0.5959605,0.02786,-0.0161182,-0.7609364,-0.3561789,-0.18
 19696,0.5709832,0.0337322,-0.2859445,0.6064997,0.1640811,0.2184989,0.9
 965671,-0.0088591,0.1751336,0.0271015,-0.0440148,-0.2359579,-1.1351624
 ,-0.1796462,-0.2258285,-0.2187972,0.0895715,-0.0159078,-0.5678772,-0.0
 64191,0.0221582,0.0794205,-0.0123447,0.1250428,0.1637698,-0.164032,0.0
 010052,0.2049409,-0.0411554,-0.0460593,-0.4671024,0.0502614,-0.0755122
 ,0.0619419,-0.2491889,0.0197669,-0.1138779,0.0277954,-0.2801012,0.2265
 772,-0.0041584,0.0004885,-0.0169249,0.213288,-0.0024718,0.0022329,-0.0
 007853,0.2102793\Polar=121.5625753,-0.9764654,59.501543,13.2312229,-3.
 8522291,59.8822597\PG=C01 [X(C5H9O2)]\NImag=1\\0.50241737,0.04313824,0
 .47471729,-0.01665751,-0.01311803,0.55904198,-0.04942177,0.00073799,0.
 03023616,0.05642377,0.00102229,-0.04783340,-0.01823568,-0.00578757,0.0
 5399146,0.03271641,-0.02093887,-0.30516518,-0.03076324,0.02320430,0.33
 272952,-0.15852329,-0.12087076,0.05318229,-0.00215856,-0.00191155,0.00
 155037,0.17877635,-0.11916883,-0.16831865,0.05216654,0.00228227,0.0018
 6586,-0.00031519,0.12833671,0.18892336,0.05115592,0.05082352,-0.070684
 65,0.02171584,0.02250872,-0.00912186,-0.05358163,-0.05697157,0.0731242
 8,-0.06532777,0.03581985,0.02448673,-0.00234395,0.00577177,0.00180458,
 0.00962059,-0.01755204,-0.00503623,0.21481295,0.04049376,-0.18284686,-
 0.02707671,0.00151782,-0.00435331,-0.00166304,0.00845120,-0.02485198,-
 0.00474174,0.04323573,0.51209873,0.02513975,-0.02552567,-0.08346780,0.
 01273253,-0.03273773,-0.00614231,-0.00467961,0.01077334,0.00304678,-0.
 15085622,-0.02244950,0.52705457,0.00784980,0.01347990,-0.00595344,0.00
 016200,-0.00085049,-0.00016703,-0.00120949,0.00226534,0.00056315,-0.09
 118784,-0.10755031,0.07716057,0.09296761,-0.01491362,-0.01830945,0.011
 87271,-0.00023573,0.00138438,-0.00011936,0.00306635,-0.00436116,-0.001
 28314,-0.09534707,-0.21162620,0.09895653,0.10545963,0.22642805,-0.0026
 6928,-0.00577733,0.00526614,-0.00091774,0.00043497,0.00077638,-0.00009
 144,-0.00240668,0.00073568,0.06868621,0.09524590,-0.10745347,-0.074589
 87,-0.10576965,0.10964644,-0.00152922,0.00261571,0.01232238,0.00022838
 ,0.00254083,-0.00023169,0.00039984,0.00048660,-0.00061321,-0.03323594,
 0.00364831,0.04419438,0.00094983,0.00228331,0.01482431,0.03701885,0.00
 492569,-0.00247804,-0.02918347,0.00253977,-0.00537767,-0.00099899,-0.0
 0077511,0.00125802,0.00027048,0.00675047,-0.05954937,-0.03907954,-0.00
 289383,0.00611208,0.02246191,-0.00919846,0.05912498,-0.00125339,0.0010
 8273,-0.00341612,0.00022761,-0.00098930,0.00128658,0.00003401,-0.00030
 975,0.00022505,0.05955797,-0.04175489,-0.31725963,-0.00006234,-0.00398
 754,-0.00944742,-0.05796789,0.04647008,0.33372875,0.00037287,0.0005183
 6,0.00046805,0.00011127,-0.00002347,-0.00008564,-0.00038221,0.00031604
 ,0.00010210,-0.00551181,0.00119328,-0.00149422,0.00087790,-0.00010014,
 0.00041536,0.00092262,-0.00017080,0.00013485,0.54244341,-0.00043589,-0
 .00009093,-0.00023751,0.00002318,-0.00010982,-0.00000265,-0.00001396,0
 .00006737,-0.00012055,0.00100041,0.00022635,0.00106247,-0.00011016,0.0
 0013797,-0.00021693,-0.00003235,-0.00007030,-0.00026623,0.01278089,0.6
 2457266,-0.00146226,-0.00104452,-0.00145923,0.00018844,-0.00011353,-0.
 00005489,0.00071400,-0.00013902,0.00049677,0.00862440,-0.00042590,0.00
 630337,-0.00135648,0.00034178,-0.00112106,-0.00105912,-0.00016613,-0.0
 0094099,0.06393694,-0.01885091,0.48032906,-0.00009952,-0.00002985,-0.0
 0013832,0.00003273,0.00002295,-0.00000046,-0.00001248,0.00009457,0.000
 01470,0.00062667,-0.00003282,-0.00028251,0.00009073,-0.00008697,-0.000
 09036,-0.00085529,-0.00013393,0.00004502,-0.14969236,-0.06289989,-0.11
 261665,0.15353355,0.00026480,0.00020251,0.00011024,-0.00006155,-0.0000
 4061,0.00002736,0.00000827,-0.00010260,-0.00013520,-0.00105252,0.00008
 485,-0.00066692,0.00015993,-0.00008640,0.00016061,-0.00007763,0.000153
 72,0.00010841,-0.05956945,-0.09125102,-0.06839493,0.06422045,0.0919119
 0,0.00030749,0.00016758,0.00028697,-0.00007314,0.00001604,0.00002661,-
 0.00006251,-0.00006769,-0.00013664,-0.00222742,0.00019895,-0.00115934,
 0.00022836,-0.00004894,0.00032496,0.00055232,0.00010383,0.00043547,-0.
 10904615,-0.06441238,-0.16806072,0.11400777,0.08125992,0.19581479,-0.0
 0018724,-0.00019636,-0.00006492,0.00002534,0.00001885,-0.00000240,-0.0
 0001945,-0.00000117,0.00003138,0.00047627,-0.00008051,0.00019079,-0.00
 009384,0.00006081,-0.00002621,-0.00002739,0.00001628,0.00001738,-0.080
 42455,-0.07669212,0.02380655,-0.00544855,-0.01679761,0.00533621,0.0851
 3746,-0.00005505,-0.00007959,-0.00003145,0.00000437,0.00001682,-0.0000
 0264,0.00000889,-0.00000567,0.00002862,0.00016321,-0.00003954,0.000082
 47,-0.00004637,0.00001784,0.00000274,0.00006006,0.00000217,0.00004313,
 -0.08337883,-0.27118171,0.06805927,-0.00222894,-0.00891230,0.00358873,
 0.09109879,0.28633806,0.00020094,0.00010877,0.00020381,-0.00002796,0.0
 0004209,-0.00000197,-0.00000520,0.00001111,0.00000290,-0.00073962,-0.0
 0003045,-0.00033717,0.00005786,-0.00005258,0.00010571,0.00026825,-0.00
 000377,0.00012827,0.02220474,0.05805523,-0.06865620,-0.00729589,-0.020
 07749,0.00892796,-0.03413643,-0.07412629,0.07846419,-0.00004356,-0.000
 10803,-0.00013164,-0.00000248,0.00001247,0.00000578,0.00011946,-0.0000
 6817,0.00003387,0.00097564,-0.00019410,0.00032448,-0.00016930,0.000016
 05,-0.00004483,-0.00020221,0.00006582,0.00000206,-0.19718652,0.1187332
 2,-0.05124802,-0.01308345,0.01247609,-0.00636164,0.01114617,-0.0077585
 3,0.00189410,0.21526466,0.00020141,0.00008464,0.00018701,-0.00001402,0
 .00000938,0.00000725,-0.00006893,0.00000649,-0.00005078,-0.00104453,-0
 .00005800,-0.00075113,0.00013913,-0.00002495,0.00012852,0.00010821,0.0
 0002920,0.00008735,0.12240629,-0.15330438,0.03899410,-0.01101794,0.008
 85992,-0.00345776,0.02121656,-0.01461660,0.00640808,-0.13773036,0.1605
 7628,0.00010397,0.00009086,0.00011752,-0.00006262,-0.00001289,0.000028
 70,-0.00013307,0.00003017,-0.00017105,-0.00053998,-0.00000010,-0.00054
 657,0.00008257,-0.00000299,0.00013226,0.00008874,0.00009971,0.00012676
 ,-0.05576697,0.04581966,-0.06562881,-0.01643608,0.01431495,-0.00323906
 ,-0.00709787,0.00378524,-0.00119443,0.04635817,-0.03846625,0.07259792,
 -0.00080530,-0.00053913,-0.00080545,-0.00027902,-0.00001320,0.00025587
 ,-0.00025284,-0.00067936,0.00013788,0.00801748,-0.00249327,0.00340011,
 -0.00140139,0.00049413,-0.00106846,-0.00129219,0.00009556,-0.00067425,
 -0.10238722,0.04178425,0.06381055,0.01261054,-0.00232956,-0.00240544,-
 0.00846486,0.00109530,0.01186366,-0.01874021,0.00717866,0.03582854,0.1
 8426329,-0.00388295,-0.00297793,-0.00274090,-0.00030122,0.00022352,0.0
 0027778,-0.00011448,0.00146304,-0.00033231,0.03250372,-0.00367006,0.01
 345394,-0.00390156,0.00082501,-0.00256202,-0.00498504,-0.00003367,-0.0
 0147752,0.02035909,-0.09663303,-0.03472407,0.00837982,-0.00232970,-0.0
 1395827,-0.01885621,0.00403157,0.02840504,0.01230891,-0.00381262,-0.02
 221886,0.03120386,0.29939134,0.00296462,0.00243822,0.00243949,-0.00011
 521,-0.00009203,-0.00010927,-0.00014210,-0.00100842,-0.00025620,-0.019
 45024,0.00096527,-0.00886674,0.00215312,-0.00055922,0.00122267,0.00290
 444,-0.00011316,0.00092116,0.05935084,-0.06724635,-0.15890014,0.024449
 53,-0.00845610,-0.03779048,0.00768761,-0.00010265,-0.01144948,0.012533
 68,-0.00313100,-0.00525773,-0.13810933,0.01201948,0.27081382,0.0074558
 8,-0.00000929,0.00366788,0.00034055,-0.00004364,-0.00009021,0.00028333
 ,-0.00048759,0.00043053,-0.12606077,0.00410320,-0.05692034,0.00756578,
 -0.00152206,0.00494397,0.00804433,-0.00010386,0.00163863,-0.01540658,-
 0.03414873,0.01956935,0.00323076,0.00164713,-0.00393843,-0.00215557,0.
 00115749,0.00531488,0.00368120,-0.00276131,-0.00328810,-0.05253755,-0.
 01321409,0.01467379,0.11738785,0.00654822,0.00407335,0.00439692,0.0000
 2540,-0.00001678,-0.00017811,-0.00013994,-0.00144302,0.00034912,-0.051
 78684,0.00717232,-0.02268622,0.00563273,-0.00069404,0.00294058,0.00656
 831,-0.00011667,0.00201428,-0.01473833,-0.01196775,0.01804280,0.003563
 05,0.00094188,-0.00381289,0.00010091,0.00428865,0.00127060,0.00241492,
 0.00237581,-0.00378293,-0.04789196,-0.17860578,0.06928898,0.02212263,0
 .19358502,0.00134976,-0.00186270,-0.00015633,-0.00052869,0.00037453,0.
 00036109,-0.00004735,0.00085535,-0.00024137,-0.04172596,-0.00063426,-0
 .01646527,0.00101811,-0.00073633,0.00117022,0.00063060,0.00030761,0.00
 103077,0.01436299,0.04371694,-0.01974091,-0.00064889,0.00160208,0.0036
 8576,0.00432093,-0.00109351,-0.00540630,-0.00257118,-0.00035363,0.0028
 7513,0.02090584,0.04278437,-0.06769062,0.00550985,-0.10481373,0.126935
 39,-0.02192220,0.00166111,-0.01022976,0.00023097,-0.00051559,0.0001368
 5,0.00022993,-0.00025906,-0.00040009,0.10786692,-0.00586618,0.05568985
 ,-0.01799658,0.00135451,-0.00954112,-0.01210354,-0.00002930,-0.0021638
 3,0.00591546,0.00013763,-0.01228281,-0.00092710,0.00104373,0.00357928,
 0.00008838,-0.00009614,0.00032001,-0.00167752,0.00129855,0.00080670,-0
 .01830242,-0.05863114,0.03029486,0.04707363,0.06644837,-0.00248808,-0.
 08682449,0.00981267,-0.00484445,0.00287704,0.00009360,0.00017415,-0.00
 003928,0.00065650,-0.00047538,0.00024226,0.01642813,-0.02106124,0.0091
 9357,-0.01068072,-0.00051661,-0.00403139,-0.00302916,-0.00007680,-0.00
 117926,0.00101590,-0.00063993,-0.00258687,0.00004742,0.00072201,0.0006
 1684,-0.00004530,0.00008859,0.00014803,-0.00025940,0.00000491,0.000376
 10,-0.02839984,-0.02138592,-0.00168262,0.02642877,-0.01522521,0.019167
 11,-0.01280500,0.06411917,-0.00495739,-0.00051309,-0.00256736,0.000741
 19,-0.00054597,-0.00010148,-0.00028504,0.00010518,-0.00000781,0.056815
 84,-0.00068683,0.00326370,0.00050571,0.00160281,-0.00134370,-0.0165275
 8,-0.00002160,-0.00774487,0.00555830,0.00269762,-0.00257467,-0.0010346
 8,0.00014016,0.00089658,-0.00006093,-0.00023647,-0.00075881,-0.0008032
 4,0.00040972,0.00012778,0.00680849,-0.01947007,0.01516580,0.00909358,0
 .03762360,-0.02660047,-0.05536310,-0.02292265,0.02138700,-0.22155452,0
 .02283127,-0.08458186,-0.00093547,-0.00120458,-0.00571291,-0.02771631,
 0.00332287,-0.01399949,-0.01926261,0.01678429,-0.00282455,0.00224979,-
 0.00118341,0.00020206,0.00208281,-0.00148327,0.00032284,-0.00002627,-0
 .00009324,-0.00016333,0.00000626,0.00003594,0.00005483,-0.00001420,0.0
 0000056,0.00003927,0.00000099,0.00002066,0.00000768,-0.00000613,-0.000
 29612,0.00042540,0.00061875,0.00042907,-0.00021662,-0.00084349,0.00028
 567,-0.00029596,1.06664161,0.02940857,-0.06142594,0.01795583,-0.001419
 82,-0.00040286,0.00091587,-0.01810723,0.00660924,-0.01196456,0.0268009
 7,-0.01261197,0.01125038,-0.00088419,0.00051772,-0.00063194,-0.0009138
 6,0.00098613,0.00013277,-0.00050819,0.00024802,0.00086700,0.00009819,-
 0.00014381,-0.00017353,0.00013986,0.00004390,-0.00014554,0.00006978,-0
 .00011332,-0.00001395,0.00036313,0.00337125,-0.00221202,-0.00308393,-0
 .00414425,0.00071660,0.00603022,-0.00116043,0.00158098,-0.16686511,0.1
 1800431,-0.08213970,0.01392790,-0.10841163,-0.03471876,0.00645143,-0.0
 1581925,0.00483525,-0.00408428,0.00369987,0.00137734,0.00486117,0.0027
 6864,0.00063069,-0.00047171,0.00005263,0.00100349,-0.00074334,0.000884
 92,-0.00033240,0.00002222,0.00030960,0.00003179,-0.00002899,-0.0000525
 4,0.00002277,0.00001625,-0.00004857,0.00004843,-0.00004669,-0.00000676
 ,0.00028982,0.00083247,-0.00045664,-0.00089929,-0.00095785,0.00015350,
 0.00207951,-0.00057424,0.00089492,0.51923026,-0.08697711,0.36367453,-0
 .00065925,0.00025986,-0.00362560,-0.00191881,0.00087896,0.00081162,0.0
 0041028,0.00131228,-0.00080231,0.00063111,-0.00336921,-0.00175486,-0.0
 0064460,0.00067701,-0.00003482,-0.00037538,0.00038181,0.00013743,0.000
 47705,-0.00004201,-0.00054344,-0.00001701,0.00003021,0.00005627,-0.000
 04140,-0.00002984,0.00005435,-0.00010438,0.00008475,0.00004905,-0.0005
 4094,-0.00071976,0.00047583,0.00056584,0.00091817,0.00009769,-0.001014
 10,0.00039869,-0.00029793,-0.80671575,0.12954535,-0.41419332,1.1390502
 9,0.00182085,0.00472691,0.00078594,0.00041140,0.00037364,-0.00020324,0
 .00064127,-0.00041872,0.00078465,-0.00091001,0.00077118,-0.00048760,-0
 .00026330,0.00022522,-0.00002429,-0.00011712,0.00006361,0.00003666,-0.
 00016720,0.00000318,0.00022360,0.00001584,-0.00002398,-0.00003411,0.00
 003619,0.00001527,-0.00002633,0.00002961,-0.00002767,-0.00002327,0.000
 17183,0.00044681,-0.00029346,-0.00029946,-0.00056531,0.00003987,0.0006
 3808,0.00023856,0.00037328,0.12950474,-0.05088307,0.06872199,-0.185844
 97,0.07490711,-0.00279871,-0.00005555,0.00308419,0.00027905,-0.0000725
 4,0.00091219,-0.00071552,0.00119815,-0.00045803,-0.00025696,-0.0020070
 6,-0.00058312,-0.00027990,0.00026080,-0.00007686,-0.00042975,0.0006239
 5,0.00006771,0.00022112,-0.00002379,-0.00035709,-0.00000153,0.00004362
 ,0.00004683,-0.00003008,-0.00001718,0.00002060,-0.00004674,0.00004042,
 0.00004490,-0.00027057,-0.00030324,0.00024993,0.00028173,0.00034157,0.
 00011458,-0.00042476,0.00032962,-0.00005015,-0.41442415,0.06877620,-0.
 24934819,0.58175888,-0.09811175,0.35177868,0.00197771,0.00069112,-0.00
 217499,-0.00049494,0.00008197,-0.00022790,0.00043485,-0.00020046,0.000
 24758,-0.00009693,0.00015880,-0.00002016,-0.00001038,-0.00002281,0.000
 00223,-0.00002549,0.00001318,0.00000391,-0.00010307,0.00000879,0.00008
 188,0.00000453,0.00000175,-0.00000781,0.00000343,0.00000501,-0.0000129
 7,0.00002151,-0.00001714,-0.00000073,0.00011877,0.00014715,-0.00009685
 ,-0.00008740,-0.00021470,0.00003099,0.00020615,0.00005204,0.00010274,0
 .00547455,-0.00067376,0.00273410,-0.32910295,0.05433227,-0.16286210,0.
 32167965,0.00081983,0.00540054,0.00027155,0.00018411,0.00009526,0.0000
 2879,0.00083278,-0.00021620,0.00059248,-0.00078125,0.00031511,-0.00038
 839,0.00004427,-0.00002946,0.00004502,0.00004230,-0.00002741,-0.000010
 92,0.00006655,-0.00000668,-0.00008267,-0.00001196,0.00001363,0.0000136
 7,-0.00001898,-0.00000746,0.00001351,-0.00000828,0.00001092,0.00000454
 ,-0.00004041,-0.00030382,0.00018508,0.00021472,0.00034177,-0.00007030,
 -0.00040981,0.00003860,-0.00013666,-0.00208934,0.00110506,-0.00094922,
 0.05551869,-0.02985272,0.02897679,-0.05436322,0.02312287,-0.00200064,0
 .00019617,0.00488819,0.00108654,-0.00023241,0.00039514,-0.00057246,0.0
 0016278,-0.00025371,-0.00052043,0.00019919,-0.00015563,0.00000891,-0.0
 0000317,0.00000943,0.00004033,-0.00002757,-0.00002641,-0.00002991,0.00
 000316,0.00005591,-0.00000345,-0.00000773,-0.00000715,0.00000523,0.000
 00375,-0.00000050,0.00000671,-0.00000522,-0.00000657,0.00003275,0.0000
 1418,-0.00003556,0.00001216,-0.00003672,-0.00002517,-0.00001351,0.0000
 6577,0.00001355,0.00193654,-0.00007699,0.00170498,-0.16218882,0.028238
 06,-0.10544617,0.16220007,-0.02849326,0.09888967\\-0.00000292,0.000002
 25,0.00000076,0.00000093,0.00000039,0.00000030,0.00000146,0.00000134,-
 0.00000119,-0.00000120,-0.00000274,-0.00000329,0.00000147,-0.00000134,
 -0.00000194,0.00000219,-0.00000045,0.00000099,-0.00000018,0.00000052,-
 0.00000097,0.00000068,0.00000077,0.00000048,0.,0.00000009,0.00000034,0
 .00000001,0.00000006,0.00000037,-0.00000277,0.00000126,-0.00000190,-0.
 00000235,-0.00000184,0.00000036,0.00000234,-0.00000201,0.00000388,0.00
 000013,0.00000141,0.00000172,0.00000019,0.00000016,0.00000009,0.000000
 03,0.00000010,0.\\\@


 Mondays are the potholes in the road of life.
                                -- Tom Wilson
 Job cpu time:       2 days  6 hours 12 minutes 39.5 seconds.
 Elapsed time:       0 days  1 hours 24 minutes 26.9 seconds.
 File lengths (MBytes):  RWF=  83473 Int=      0 D2E=      0 Chk=     18 Scr=      1
 Normal termination of Gaussian 16 at Mon Jun 24 17:02:16 2019.
