 Entering Gaussian System, Link 0=g16
 Initial command:
 /ichec/packages/gaussian/16b01/l1.exe "/localscratch/347861/Gau-5500.inp" -scrdir="/localscratch/347861/"
 Entering Link 1 = /ichec/packages/gaussian/16b01/l1.exe PID=      5748.
  
 Copyright (c) 1988-2017, Gaussian, Inc.  All Rights Reserved.
  
 This is part of the Gaussian(R) 16 program.  It is based on
 the Gaussian(R) 09 system (copyright 2009, Gaussian, Inc.),
 the Gaussian(R) 03 system (copyright 2003, Gaussian, Inc.),
 the Gaussian(R) 98 system (copyright 1998, Gaussian, Inc.),
 the Gaussian(R) 94 system (copyright 1995, Gaussian, Inc.),
 the Gaussian 92(TM) system (copyright 1992, Gaussian, Inc.),
 the Gaussian 90(TM) system (copyright 1990, Gaussian, Inc.),
 the Gaussian 88(TM) system (copyright 1988, Gaussian, Inc.),
 the Gaussian 86(TM) system (copyright 1986, Carnegie Mellon
 University), and the Gaussian 82(TM) system (copyright 1983,
 Carnegie Mellon University). Gaussian is a federally registered
 trademark of Gaussian, Inc.
  
 This software contains proprietary and confidential information,
 including trade secrets, belonging to Gaussian, Inc.
  
 This software is provided under written license and may be
 used, copied, transmitted, or stored only in accord with that
 written license.
  
 The following legend is applicable only to US Government
 contracts under FAR:
  
                    RESTRICTED RIGHTS LEGEND
  
 Use, reproduction and disclosure by the US Government is
 subject to restrictions as set forth in subparagraphs (a)
 and (c) of the Commercial Computer Software - Restricted
 Rights clause in FAR 52.227-19.
  
 Gaussian, Inc.
 340 Quinnipiac St., Bldg. 40, Wallingford CT 06492
  
  
 ---------------------------------------------------------------
 Warning -- This program may not be used in any manner that
 competes with the business of Gaussian, Inc. or will provide
 assistance to any competitor of Gaussian, Inc.  The licensee
 of this program is prohibited from giving any competitor of
 Gaussian, Inc. access to this program.  By using this program,
 the user acknowledges that Gaussian, Inc. is engaged in the
 business of creating and licensing software in the field of
 computational chemistry and represents and warrants to the
 licensee that it is not a competitor of Gaussian, Inc. and that
 it will not use this program in any manner prohibited above.
 ---------------------------------------------------------------
  

 Cite this work as:
 Gaussian 16, Revision B.01,
 M. J. Frisch, G. W. Trucks, H. B. Schlegel, G. E. Scuseria, 
 M. A. Robb, J. R. Cheeseman, G. Scalmani, V. Barone, 
 G. A. Petersson, H. Nakatsuji, X. Li, M. Caricato, A. V. Marenich, 
 J. Bloino, B. G. Janesko, R. Gomperts, B. Mennucci, H. P. Hratchian, 
 J. V. Ortiz, A. F. Izmaylov, J. L. Sonnenberg, D. Williams-Young, 
 F. Ding, F. Lipparini, F. Egidi, J. Goings, B. Peng, A. Petrone, 
 T. Henderson, D. Ranasinghe, V. G. Zakrzewski, J. Gao, N. Rega, 
 G. Zheng, W. Liang, M. Hada, M. Ehara, K. Toyota, R. Fukuda, 
 J. Hasegawa, M. Ishida, T. Nakajima, Y. Honda, O. Kitao, H. Nakai, 
 T. Vreven, K. Throssell, J. A. Montgomery, Jr., J. E. Peralta, 
 F. Ogliaro, M. J. Bearpark, J. J. Heyd, E. N. Brothers, K. N. Kudin, 
 V. N. Staroverov, T. A. Keith, R. Kobayashi, J. Normand, 
 K. Raghavachari, A. P. Rendell, J. C. Burant, S. S. Iyengar, 
 J. Tomasi, M. Cossi, J. M. Millam, M. Klene, C. Adamo, R. Cammi, 
 J. W. Ochterski, R. L. Martin, K. Morokuma, O. Farkas, 
 J. B. Foresman, and D. J. Fox, Gaussian, Inc., Wallingford CT, 2016.
 
 ******************************************
 Gaussian 16:  ES64L-G16RevB.01 20-Dec-2017
                13-Jun-2019 
 ******************************************
 %mem=80GB
 %nproc=40
 Will use up to   40 processors via shared memory.
 ----------------------------------------------------------------------
 # opt=(calcfc,ts,noeigentest,maxcyc=500,modredundant) uB2PLYPD3/cc-pvt
 z scf=maxcyc=500 nosymm
 ----------------------------------------------------------------------
 1/5=1,6=500,10=4,11=1,18=120,38=1/1,3;
 2/9=110,12=2,15=1,17=6,18=5,40=1/2;
 3/5=16,6=1,11=2,25=1,30=1,71=2,74=-60,116=2,140=1/1,2,3;
 4//1;
 5/5=2,7=500,38=5/2;
 8/6=3,8=1,10=1,19=11,30=-1/1;
 9/15=3,16=-3/6;
 11/6=1,8=1,15=11,17=12,24=-1,27=1,28=-2,29=300,31=1,32=6,42=3/1,2,10;
 10/6=2,21=1,31=1/2;
 8/6=4,8=1,10=1,19=11,30=-1/11,4;
 10/5=1,20=4,31=1/2;
 11/12=2,14=11,16=1,17=2,28=-2,31=1,42=3,76=2/2,10,12;
 6/7=2,8=2,9=2,10=2/1;
 7/10=1,12=2,25=1,30=1,44=2/1,2,3,16;
 1/5=1,6=500,10=4,11=1,18=20/3(2);
 2/9=110,15=1/2;
 99//99;
 2/9=110,15=1/2;
 3/5=16,6=1,11=2,25=1,30=1,71=1,74=-60,116=2/1,2,3;
 4/5=5,16=3,69=1/1;
 5/5=2,7=500,38=5/2;
 8/6=4,10=1/1;
 9/15=2,16=-3/6;
 10/5=1,31=1/2;
 7/12=2,30=1/1,2,3,16;
 1/5=1,6=500,11=1,18=20/3(-8);
 2/9=110,15=1/2;
 6/7=2,8=2,9=2,10=2/1;
 99/9=10/99;
 -------------------
 Title Card Required
 -------------------
 Symbolic Z-matrix:
 Charge =  0 Multiplicity = 2
 C                    -0.36242   1.3499    0.30369 
 C                    -1.08079   0.31217  -0.06584 
 H                    -0.59027   2.26803   0.82451 
 H                    -0.58683  -0.4992   -0.59523 
 C                     2.31426  -1.0982    0.62858 
 H                     1.58373  -0.86684   1.4051 
 H                     2.3042   -2.16482   0.41302 
 H                     3.30785  -0.78792   0.94673 
 O                     1.96318  -0.46927  -0.59627 
 O                     2.04822   0.93111  -0.39195 
 H                     1.03896   1.2      -0.08622 
 C                    -2.51594   0.16019   0.18237 
 C                    -3.21073  -0.90689  -0.20887 
 H                    -3.00985   0.96673   0.70914 
 H                    -4.26887  -0.9918   -0.0129 
 H                    -2.73628  -1.72191  -0.73798 
 
 Add virtual bond connecting atoms H11        and C1         Dist= 2.76D+00.
 The following ModRedundant input section has been read:
 D    *          1      10    *    R                                           
 D       3       1      10       9 S  36 10.000                                
 

 GradGradGradGradGradGradGradGradGradGradGradGradGradGradGradGradGradGrad
 Berny optimization.
 Initialization pass.
                           ----------------------------
                           !    Initial Parameters    !
                           ! (Angstroms and Degrees)  !
 --------------------------                            --------------------------
 ! Name  Definition              Value          Derivative Info.                !
 --------------------------------------------------------------------------------
 ! R1    R(1,2)                  1.3151         calculate D2E/DX2 analytically  !
 ! R2    R(1,3)                  1.0799         calculate D2E/DX2 analytically  !
 ! R3    R(1,11)                 1.4623         calculate D2E/DX2 analytically  !
 ! R4    R(2,4)                  1.0875         calculate D2E/DX2 analytically  !
 ! R5    R(2,12)                 1.4644         calculate D2E/DX2 analytically  !
 ! R6    R(5,6)                  1.091          calculate D2E/DX2 analytically  !
 ! R7    R(5,7)                  1.0882         calculate D2E/DX2 analytically  !
 ! R8    R(5,8)                  1.0884         calculate D2E/DX2 analytically  !
 ! R9    R(5,9)                  1.4209         calculate D2E/DX2 analytically  !
 ! R10   R(9,10)                 1.4178         calculate D2E/DX2 analytically  !
 ! R11   R(10,11)                1.0883         calculate D2E/DX2 analytically  !
 ! R12   R(12,13)                1.3321         calculate D2E/DX2 analytically  !
 ! R13   R(12,14)                1.0826         calculate D2E/DX2 analytically  !
 ! R14   R(13,15)                1.0795         calculate D2E/DX2 analytically  !
 ! R15   R(13,16)                1.0814         calculate D2E/DX2 analytically  !
 ! A1    A(2,1,3)              133.7224         calculate D2E/DX2 analytically  !
 ! A2    A(2,1,11)             111.5721         calculate D2E/DX2 analytically  !
 ! A3    A(3,1,11)             114.7055         calculate D2E/DX2 analytically  !
 ! A4    A(1,2,4)              118.5164         calculate D2E/DX2 analytically  !
 ! A5    A(1,2,12)             124.7236         calculate D2E/DX2 analytically  !
 ! A6    A(4,2,12)             116.76           calculate D2E/DX2 analytically  !
 ! A7    A(6,5,7)              110.0393         calculate D2E/DX2 analytically  !
 ! A8    A(6,5,8)              110.0446         calculate D2E/DX2 analytically  !
 ! A9    A(6,5,9)              110.7469         calculate D2E/DX2 analytically  !
 ! A10   A(7,5,8)              110.227          calculate D2E/DX2 analytically  !
 ! A11   A(7,5,9)              105.1179         calculate D2E/DX2 analytically  !
 ! A12   A(8,5,9)              110.5685         calculate D2E/DX2 analytically  !
 ! A13   A(5,9,10)             107.3464         calculate D2E/DX2 analytically  !
 ! A14   A(9,10,11)            103.2327         calculate D2E/DX2 analytically  !
 ! A15   A(2,12,13)            122.993          calculate D2E/DX2 analytically  !
 ! A16   A(2,12,14)            116.8913         calculate D2E/DX2 analytically  !
 ! A17   A(13,12,14)           120.1158         calculate D2E/DX2 analytically  !
 ! A18   A(12,13,15)           121.3971         calculate D2E/DX2 analytically  !
 ! A19   A(12,13,16)           121.2394         calculate D2E/DX2 analytically  !
 ! A20   A(15,13,16)           117.3633         calculate D2E/DX2 analytically  !
 ! A21   L(1,11,10,6,-1)       174.1733         calculate D2E/DX2 analytically  !
 ! A22   L(1,11,10,6,-2)       173.6809         calculate D2E/DX2 analytically  !
 ! D1    D(3,1,2,4)            179.8208         calculate D2E/DX2 analytically  !
 ! D2    D(3,1,2,12)            -0.154          calculate D2E/DX2 analytically  !
 ! D3    D(11,1,2,4)            -0.232          calculate D2E/DX2 analytically  !
 ! D4    D(11,1,2,12)          179.7932         calculate D2E/DX2 analytically  !
 ! D5    D(3,1,10,9)           161.6819         Scan                            !
 ! D6    D(1,2,12,13)          179.943          calculate D2E/DX2 analytically  !
 ! D7    D(1,2,12,14)           -0.0187         calculate D2E/DX2 analytically  !
 ! D8    D(4,2,12,13)           -0.0322         calculate D2E/DX2 analytically  !
 ! D9    D(4,2,12,14)         -179.9938         calculate D2E/DX2 analytically  !
 ! D10   D(6,5,9,10)            64.9812         calculate D2E/DX2 analytically  !
 ! D11   D(7,5,9,10)          -176.2094         calculate D2E/DX2 analytically  !
 ! D12   D(8,5,9,10)           -57.2692         calculate D2E/DX2 analytically  !
 ! D13   D(5,9,10,11)          -91.7324         calculate D2E/DX2 analytically  !
 ! D14   D(2,12,13,15)        -179.945          calculate D2E/DX2 analytically  !
 ! D15   D(2,12,13,16)          -0.0896         calculate D2E/DX2 analytically  !
 ! D16   D(14,12,13,15)          0.0154         calculate D2E/DX2 analytically  !
 ! D17   D(14,12,13,16)        179.8708         calculate D2E/DX2 analytically  !
 --------------------------------------------------------------------------------
 Trust Radius=3.00D-01 FncErr=1.00D-07 GrdErr=1.00D-07 EigMax=2.50D+02 EigMin=1.00D-04
 Number of optimizations in scan=  37
 Number of steps in this run=    100 maximum allowed number of steps=    100.
 Search for a saddle point of order  1.
 GradGradGradGradGradGradGradGradGradGradGradGradGradGradGradGradGradGrad

                          Input orientation:                          
 ---------------------------------------------------------------------
 Center     Atomic      Atomic             Coordinates (Angstroms)
 Number     Number       Type             X           Y           Z
 ---------------------------------------------------------------------
      1          6           0       -0.362423    1.349903    0.303694
      2          6           0       -1.080795    0.312170   -0.065841
      3          1           0       -0.590266    2.268026    0.824510
      4          1           0       -0.586828   -0.499197   -0.595227
      5          6           0        2.314256   -1.098203    0.628575
      6          1           0        1.583734   -0.866838    1.405101
      7          1           0        2.304199   -2.164822    0.413021
      8          1           0        3.307847   -0.787922    0.946725
      9          8           0        1.963175   -0.469266   -0.596269
     10          8           0        2.048217    0.931110   -0.391950
     11          1           0        1.038957    1.200003   -0.086220
     12          6           0       -2.515935    0.160186    0.182369
     13          6           0       -3.210732   -0.906892   -0.208868
     14          1           0       -3.009855    0.966727    0.709144
     15          1           0       -4.268867   -0.991803   -0.012902
     16          1           0       -2.736275   -1.721909   -0.737980
 ---------------------------------------------------------------------
                    Distance matrix (angstroms):
                    1          2          3          4          5
     1  C    0.000000
     2  C    1.315106   0.000000
     3  H    1.079866   2.204250   0.000000
     4  H    2.068233   1.087460   3.110175   0.000000
     5  C    3.641893   3.741355   4.450409   3.205119   0.000000
     6  H    3.148740   3.263962   3.858851   2.974527   1.090956
     7  H    4.413175   4.221727   5.310122   3.485528   1.088228
     8  H    4.295889   4.636342   4.954699   4.198746   1.088447
     9  O    3.086700   3.187122   4.003928   2.550179   1.420937
    10  O    2.543716   3.206267   3.198236   3.005089   2.286998
    11  H    1.462316   2.298263   2.150458   2.406147   2.723797
    12  C    2.463282   1.464355   2.926352   2.181948   5.011326
    13  C    3.669974   2.458292   4.244386   2.683349   5.591369
    14  H    2.705570   2.179523   2.749745   3.117912   5.711093
    15  H    4.565537   3.444844   4.985965   3.760209   6.615159
    16  H    4.019488   2.707372   4.792318   2.476999   5.269188
                    6          7          8          9         10
     6  H    0.000000
     7  H    1.785513   0.000000
     8  H    1.785750   1.785498   0.000000
     9  O    2.075457   2.002467   2.071356   0.000000
    10  O    2.584135   3.209096   2.516702   1.417756   0.000000
    11  H    2.606272   3.629342   3.188524   1.975041   1.088292
    12  C    4.399675   5.356543   5.949755   4.589653   4.664295
    13  C    5.058992   5.690659   6.621285   5.206814   5.573896
    14  H    4.994735   6.175229   6.561143   5.338277   5.176656
    15  H    6.023229   6.690484   7.639964   6.281060   6.614138
    16  H    4.897593   5.189157   6.343656   4.865596   5.481752
                   11         12         13         14         15
    11  H    0.000000
    12  C    3.713572   0.000000
    13  C    4.744882   1.332090   0.000000
    14  H    4.132784   1.082570   2.096079   0.000000
    15  H    5.743029   2.106651   1.079473   2.437684   0.000000
    16  H    4.818167   2.106626   1.081352   3.065579   1.845977
                   16
    16  H    0.000000
 Symmetry turned off by external request.
 Stoichiometry    C5H9O2(2)
 Framework group  C1[X(C5H9O2)]
 Deg. of freedom    42
 Full point group                 C1      NOp   1
 Rotational constants (GHZ):           4.9120678           1.0442086           0.9240042
 Standard basis: CC-pVTZ (5D, 7F)
   336 basis functions,   517 primitive gaussians,   380 cartesian basis functions
    28 alpha electrons       27 beta electrons
       nuclear repulsion energy       279.4388060467 Hartrees.
 NAtoms=   16 NActive=   16 NUniq=   16 SFac= 1.00D+00 NAtFMM=   60 NAOKFM=F Big=F
 Integral buffers will be    131072 words long.
 Raffenetti 2 integral format.
 Two-electron integral symmetry is turned off.
 Nuclear repulsion after empirical dispersion term =      279.4303414153 Hartrees.
 One-electron integrals computed using PRISM.
 NBasis=   336 RedAO= T EigKep=  3.01D-04  NBF=   336
 NBsUse=   336 1.00D-06 EigRej= -1.00D+00 NBFU=   336
 ExpMin= 1.03D-01 ExpMax= 1.53D+04 ExpMxC= 5.22D+02 IAcc=3 IRadAn=         5 AccDes= 0.00D+00
 Harris functional with IExCor=  419 and IRadAn=       5 diagonalized for initial guess.
 HarFok:  IExCor=  419 AccDes= 0.00D+00 IRadAn=         5 IDoV= 1 UseB2=F ITyADJ=14
 ICtDFT=  3500011 ScaDFX=  1.000000  1.000000  1.000000  1.000000
 FoFCou: FMM=F IPFlag=           0 FMFlag=      100000 FMFlg1=           0
         NFxFlg=           0 DoJE=T BraDBF=F KetDBF=T FulRan=T
         wScrn=  0.000000 ICntrl=       500 IOpCl=  0 I1Cent=   200000004 NGrid=           0
         NMat0=    1 NMatS0=      1 NMatT0=    0 NMatD0=    1 NMtDS0=    0 NMtDT0=    0
 Symmetry not used in FoFCou.
 Initial guess <Sx>= 0.0000 <Sy>= 0.0000 <Sz>= 0.5000 <S**2>= 0.7500 S= 0.5000
 Requested convergence on RMS density matrix=1.00D-08 within 500 cycles.
 Requested convergence on MAX density matrix=1.00D-06.
 Requested convergence on             energy=1.00D-06.
 No special actions if energy rises.
 Integral accuracy reduced to 1.0D-05 until final iterations.
 Initial convergence to 1.0D-05 achieved.  Increase integral accuracy.
 SCF Done:  E(UB2PLYPD3) =  -345.584063947     A.U. after   25 cycles
            NFock= 25  Conv=0.53D-08     -V/T= 2.0043
 <Sx>= 0.0000 <Sy>= 0.0000 <Sz>= 0.5000 <S**2>= 0.8035 S= 0.5264
 <L.S>=  0.00000000000    
 Annihilation of the first spin contaminant:
 S**2 before annihilation     0.8035,   after     0.7517
 DoSCS=T DFT=T ScalE2(SS,OS)=  0.270000  0.270000
 ExpMin= 1.03D-01 ExpMax= 1.53D+04 ExpMxC= 5.22D+02 IAcc=3 IRadAn=         5 AccDes= 0.00D+00
 HarFok:  IExCor=  205 AccDes= 0.00D+00 IRadAn=         5 IDoV=-2 UseB2=F ITyADJ=14
 ICtDFT= 12500011 ScaDFX=  1.000000  1.000000  1.000000  1.000000
 Range of M.O.s used for correlation:     8   336
 NBasis=   336 NAE=    28 NBE=    27 NFC=     7 NFV=     0
 NROrb=    329 NOA=    21 NOB=    20 NVA=   308 NVB=   309

 **** Warning!!: The largest alpha MO coefficient is  0.14371953D+02


 **** Warning!!: The largest beta MO coefficient is  0.13027259D+02

 DoSCS=T DFT=T ScalE2(SS,OS)=  0.270000  0.270000
 Disk-based method using ON**2 memory for 21 occupieds at a time.
 Permanent disk used for amplitudes=   106523802 words.
 Estimated scratch disk usage=  1886093096 words.
 Actual    scratch disk usage=  1823998760 words.
 JobTyp=2 Pass  1:  I=   8 to  28 NPSUse= 40 ParTrn=T ParDer=T DoDerP=T.
 (rs|ai) integrals will be sorted in core.
 Actual    scratch disk usage=  1823998760 words.
 JobTyp=3 Pass  1:  I=   8 to  27 NPSUse= 40 ParTrn=T ParDer=T DoDerP=T.
 (rs|ai) integrals will be sorted in core.
 Spin components of T(2) and E(2):
     alpha-alpha T2 =       0.7639939275D-01 E2=     -0.5297269579D-01
     alpha-beta  T2 =       0.4652582960D+00 E2=     -0.3241560993D+00
     beta-beta   T2 =       0.8043158943D-01 E2=     -0.5145313594D-01
 (S**2,0)=  0.80353D+00           (S**2,1)=  0.76554D+00
 Scaling Projection term by:   0.270000
 E(PUHF)=      -0.34559140977D+03        E(PMP2)=      -0.34601393866D+03
 E2(B2PLYPD3) =    -0.4285819310D+00 E(B2PLYPD3) =    -0.34601264587798D+03
 G2DrvN: will do    17 centers at a time, making    1 passes.
 Calling FoFCou, ICntrl=  3107 FMM=F I1Cent=   0 AccDes= 0.00D+00.
 End of G2Drv F.D. properties file   721 does not exist.
 End of G2Drv F.D. properties file   722 does not exist.
 End of G2Drv F.D. properties file   788 does not exist.
          IDoAtm=1111111111111111
          Differentiating once with respect to electric field.
                with respect to dipole field.
          Differentiating once with respect to nuclear coordinates.
 Keep R1 and R2 ints in memory in canonical form, NReq=3251641620.
          There are    51 degrees of freedom in the 1st order CPHF.  IDoFFX=6 NUNeed=    51.
     48 vectors produced by pass  0 Test12= 3.33D-14 1.96D-09 XBig12= 1.05D+02 4.65D+00.
 AX will form    48 AO Fock derivatives at one time.
     48 vectors produced by pass  1 Test12= 3.33D-14 1.96D-09 XBig12= 7.20D+00 5.93D-01.
     48 vectors produced by pass  2 Test12= 3.33D-14 1.96D-09 XBig12= 4.69D-01 1.03D-01.
     48 vectors produced by pass  3 Test12= 3.33D-14 1.96D-09 XBig12= 7.14D-03 1.01D-02.
     48 vectors produced by pass  4 Test12= 3.33D-14 1.96D-09 XBig12= 9.11D-05 1.06D-03.
     48 vectors produced by pass  5 Test12= 3.33D-14 1.96D-09 XBig12= 8.61D-07 8.68D-05.
     48 vectors produced by pass  6 Test12= 3.33D-14 1.96D-09 XBig12= 7.92D-09 8.50D-06.
     29 vectors produced by pass  7 Test12= 3.33D-14 1.96D-09 XBig12= 5.29D-11 7.96D-07.
      3 vectors produced by pass  8 Test12= 3.33D-14 1.96D-09 XBig12= 4.02D-13 8.57D-08.
      2 vectors produced by pass  9 Test12= 3.33D-14 1.96D-09 XBig12= 3.26D-15 6.05D-09.
 InvSVY:  IOpt=1 It=  1 EMax= 2.66D-15
 Solved reduced A of dimension   370 with    51 vectors.
 End of Minotr F.D. properties file   721 does not exist.
 End of Minotr F.D. properties file   722 does not exist.
 End of Minotr F.D. properties file   788 does not exist.
 MDV= 10737418240.
 DoSCS=T DFT=T ScalE2(SS,OS)=  0.270000  0.270000
 Form MO integral derivatives with frozen-active canonical formalism.
 Discarding MO integrals.
 Reordered first order wavefunction length =    428928697
 In DefCFB: NBatch=  1 ICI= 28 ICA=309 LFMax= 78
            Large arrays: LIAPS=  8665386240 LIARS=  1611002400 words.
 In DefCFB: NBatch=  1 ICI= 28 ICA=309 LFMax= 78
            Large arrays: LIAPS=  8665386240 LIARS=  1611002400 words.
 Semi-Direct transformation.
 ModeAB=           4 MOrb=            28 LenV=   10734110989
 LASXX=    503301435 LTotXX=   503301435 LenRXX=  1014543915
 LTotAB=   511242480 MaxLAS=   584782464 LenRXY=           0
 NonZer=  1517845350 LenScr=  2285697024 LnRSAI=   584782464
 LnScr1=   880614400 LExtra=           0 Total=   4765637803
 MaxDsk=          -1 SrtSym=           T ITran=            4
 JobTyp=1 Pass  1:  I=   1 to  28.
 (rs|ai) integrals will be sorted in core.
 ModeAB=           4 MOrb=            27 LenV=   10734110989
 LASXX=    486308502 LTotXX=   486308502 LenRXX=   901306008
 LTotAB=   414997506 MaxLAS=   563897376 LenRXY=           0
 NonZer=  1387614510 LenScr=  2089584640 LnRSAI=   563897376
 LnScr1=   849163264 LExtra=           0 Total=   4403951288
 MaxDsk=          -1 SrtSym=           T ITran=            4
 JobTyp=2 Pass  1:  I=   1 to  27.
 (rs|ai) integrals will be sorted in core.
 DoSCS=T DFT=T ScalE2(SS,OS)=  0.270000  0.270000
 Spin components of T(2) and E(2):
     alpha-alpha T2 =       0.7639939275D-01 E2=     -0.5297269579D-01
     alpha-beta  T2 =       0.4652582960D+00 E2=     -0.3241560993D+00
     beta-beta   T2 =       0.8043158943D-01 E2=     -0.5145313594D-01
 E2(B2PLYPD3) =    -0.4285819310D+00 E(B2PLYPD3) =    -0.34601264587798D+03
 (S**2,0)=  0.80353D+00           (S**2,1)=  0.76554D+00
 Scaling Projection term by:   0.270000
 E(PUHF)=      -0.34559140977D+03        E(PMP2)=      -0.34601393866D+03
          IDoAtm=1111111111111111
          Differentiating once with respect to electric field.
                with respect to dipole field.
          Differentiating once with respect to nuclear coordinates.
 Keep R1 and R2 ints in memory in canonical form, NReq=3251777228.
          There are     1 degrees of freedom in the 1st order CPHF.  IDoFFX=0 NUNeed=     1.
 LinEq1:  Iter=  0 NonCon=     1 RMS=9.76D-04 Max=7.42D-02 NDo=     1
 AX will form     1 AO Fock derivatives at one time.
 LinEq1:  Iter=  1 NonCon=     1 RMS=3.53D-04 Max=2.15D-02 NDo=     1
 LinEq1:  Iter=  2 NonCon=     1 RMS=2.52D-04 Max=1.78D-02 NDo=     1
 LinEq1:  Iter=  3 NonCon=     1 RMS=1.31D-04 Max=7.74D-03 NDo=     1
 LinEq1:  Iter=  4 NonCon=     1 RMS=8.75D-05 Max=5.00D-03 NDo=     1
 LinEq1:  Iter=  5 NonCon=     1 RMS=3.26D-05 Max=1.13D-03 NDo=     1
 LinEq1:  Iter=  6 NonCon=     1 RMS=2.40D-05 Max=8.94D-04 NDo=     1
 LinEq1:  Iter=  7 NonCon=     1 RMS=1.12D-05 Max=4.84D-04 NDo=     1
 LinEq1:  Iter=  8 NonCon=     1 RMS=9.39D-06 Max=3.29D-04 NDo=     1
 LinEq1:  Iter=  9 NonCon=     1 RMS=3.70D-06 Max=1.71D-04 NDo=     1
 LinEq1:  Iter= 10 NonCon=     1 RMS=1.29D-06 Max=5.43D-05 NDo=     1
 LinEq1:  Iter= 11 NonCon=     1 RMS=9.48D-07 Max=4.27D-05 NDo=     1
 LinEq1:  Iter= 12 NonCon=     1 RMS=3.46D-07 Max=9.69D-06 NDo=     1
 LinEq1:  Iter= 13 NonCon=     1 RMS=1.25D-07 Max=3.16D-06 NDo=     1
 LinEq1:  Iter= 14 NonCon=     1 RMS=4.35D-08 Max=6.94D-07 NDo=     1
 LinEq1:  Iter= 15 NonCon=     1 RMS=1.80D-08 Max=3.95D-07 NDo=     1
 LinEq1:  Iter= 16 NonCon=     1 RMS=7.15D-09 Max=1.81D-07 NDo=     1
 LinEq1:  Iter= 17 NonCon=     1 RMS=2.91D-09 Max=5.56D-08 NDo=     1
 LinEq1:  Iter= 18 NonCon=     1 RMS=1.01D-09 Max=2.34D-08 NDo=     1
 LinEq1:  Iter= 19 NonCon=     1 RMS=3.82D-10 Max=1.18D-08 NDo=     1
 LinEq1:  Iter= 20 NonCon=     1 RMS=1.81D-10 Max=4.08D-09 NDo=     1
 LinEq1:  Iter= 21 NonCon=     1 RMS=6.05D-11 Max=2.15D-09 NDo=     1
 LinEq1:  Iter= 22 NonCon=     0 RMS=1.78D-11 Max=9.18D-10 NDo=     1
 Linear equations converged to 1.000D-10 1.000D-09 after    22 iterations.
 End of Minotr F.D. properties file   721 does not exist.
 End of Minotr F.D. properties file   722 does not exist.
 End of Minotr F.D. properties file   788 does not exist.
 Symmetrizing basis deriv contribution to polar:
 IMax=3 JMax=2 DiffMx= 0.00D+00
 G2DrvN: will do    17 centers at a time, making    1 passes.
 Calling FoFCou, ICntrl=  3107 FMM=F I1Cent=   0 AccDes= 0.00D+00.
 End of G2Drv F.D. properties file   721 does not exist.
 End of G2Drv F.D. properties file   722 does not exist.
 End of G2Drv F.D. properties file   788 does not exist.
 DoSCS=T DFT=T ScalE2(SS,OS)=  0.270000  0.270000
 R2 and R3 integrals will be kept in memory, NReq=  5268037470.
 DD1Dir will call FoFMem   1 times, MxPair=      2242
 NAB=   756 NAA=   378 NBB=   351.
 Discarding MO integrals.

 **********************************************************************

            Population analysis using the SCF Density.

 **********************************************************************

 Alpha  occ. eigenvalues --  -19.78653 -19.78290 -10.65956 -10.65440 -10.64029
 Alpha  occ. eigenvalues --  -10.63934 -10.62496  -1.27259  -1.02723  -0.94709
 Alpha  occ. eigenvalues --   -0.86864  -0.77781  -0.71252  -0.65677  -0.61854
 Alpha  occ. eigenvalues --   -0.56764  -0.55540  -0.54377  -0.52964  -0.49591
 Alpha  occ. eigenvalues --   -0.48633  -0.44312  -0.43858  -0.39833  -0.37705
 Alpha  occ. eigenvalues --   -0.36896  -0.31335  -0.29849
 Alpha virt. eigenvalues --    0.01081   0.08851   0.09184   0.10159   0.11151
 Alpha virt. eigenvalues --    0.12328   0.13032   0.14696   0.15664   0.16485
 Alpha virt. eigenvalues --    0.17702   0.20338   0.23202   0.26097   0.28574
 Alpha virt. eigenvalues --    0.31534   0.33779   0.34193   0.34897   0.35462
 Alpha virt. eigenvalues --    0.37200   0.38227   0.40570   0.41783   0.43820
 Alpha virt. eigenvalues --    0.45602   0.46554   0.47511   0.47999   0.49730
 Alpha virt. eigenvalues --    0.50073   0.51484   0.52463   0.53105   0.53909
 Alpha virt. eigenvalues --    0.54734   0.55545   0.56680   0.57759   0.59422
 Alpha virt. eigenvalues --    0.63196   0.64314   0.65699   0.67787   0.68838
 Alpha virt. eigenvalues --    0.69435   0.70635   0.71347   0.74753   0.75683
 Alpha virt. eigenvalues --    0.77572   0.78274   0.78383   0.82328   0.84406
 Alpha virt. eigenvalues --    0.87204   0.88865   0.93055   0.94296   0.95789
 Alpha virt. eigenvalues --    0.97431   0.98632   0.99926   1.02523   1.02837
 Alpha virt. eigenvalues --    1.03858   1.06159   1.06610   1.08790   1.10690
 Alpha virt. eigenvalues --    1.12119   1.13368   1.13853   1.16307   1.17943
 Alpha virt. eigenvalues --    1.19493   1.20924   1.23539   1.24277   1.27793
 Alpha virt. eigenvalues --    1.29128   1.31067   1.33119   1.34751   1.36156
 Alpha virt. eigenvalues --    1.38301   1.39166   1.39407   1.42476   1.47499
 Alpha virt. eigenvalues --    1.47796   1.50037   1.50868   1.51339   1.52353
 Alpha virt. eigenvalues --    1.55005   1.55839   1.59138   1.62838   1.63790
 Alpha virt. eigenvalues --    1.71713   1.73886   1.75915   1.79197   1.85375
 Alpha virt. eigenvalues --    1.89837   1.92659   1.98386   2.03282   2.07115
 Alpha virt. eigenvalues --    2.12643   2.13288   2.16658   2.20185   2.20334
 Alpha virt. eigenvalues --    2.23101   2.28068   2.34820   2.35463   2.36783
 Alpha virt. eigenvalues --    2.37291   2.39338   2.42744   2.44835   2.49496
 Alpha virt. eigenvalues --    2.50411   2.51831   2.54251   2.57084   2.58835
 Alpha virt. eigenvalues --    2.60139   2.63276   2.66310   2.70825   2.74280
 Alpha virt. eigenvalues --    2.76662   2.80410   2.83189   2.85017   2.85689
 Alpha virt. eigenvalues --    2.86609   2.89664   2.89794   2.90982   2.92435
 Alpha virt. eigenvalues --    2.94035   2.94174   2.96096   2.98474   2.99686
 Alpha virt. eigenvalues --    3.01941   3.03249   3.04535   3.05416   3.06458
 Alpha virt. eigenvalues --    3.10568   3.10814   3.11788   3.13878   3.14097
 Alpha virt. eigenvalues --    3.15237   3.17146   3.18268   3.18583   3.21361
 Alpha virt. eigenvalues --    3.21413   3.22787   3.25469   3.27237   3.28732
 Alpha virt. eigenvalues --    3.30083   3.32338   3.32971   3.39776   3.40125
 Alpha virt. eigenvalues --    3.40985   3.42468   3.43373   3.44782   3.50543
 Alpha virt. eigenvalues --    3.52117   3.52976   3.53503   3.53948   3.55794
 Alpha virt. eigenvalues --    3.59255   3.59534   3.60389   3.63715   3.64665
 Alpha virt. eigenvalues --    3.66088   3.68074   3.69863   3.71587   3.75390
 Alpha virt. eigenvalues --    3.77226   3.80692   3.82488   3.84232   3.86598
 Alpha virt. eigenvalues --    3.87331   3.88014   3.89423   3.90221   3.93737
 Alpha virt. eigenvalues --    3.96543   3.97681   3.98549   4.00190   4.03483
 Alpha virt. eigenvalues --    4.03831   4.05578   4.08500   4.09133   4.11865
 Alpha virt. eigenvalues --    4.13120   4.14143   4.15524   4.15710   4.18663
 Alpha virt. eigenvalues --    4.19799   4.21156   4.25512   4.26597   4.28017
 Alpha virt. eigenvalues --    4.33231   4.34423   4.36520   4.37889   4.40247
 Alpha virt. eigenvalues --    4.42490   4.46893   4.50267   4.50629   4.56138
 Alpha virt. eigenvalues --    4.59966   4.61526   4.65195   4.66686   4.67807
 Alpha virt. eigenvalues --    4.70510   4.79391   4.80070   4.82188   4.82996
 Alpha virt. eigenvalues --    4.84908   4.88623   4.95208   4.97475   5.00320
 Alpha virt. eigenvalues --    5.03481   5.05956   5.08192   5.08738   5.09616
 Alpha virt. eigenvalues --    5.13116   5.16627   5.20895   5.21553   5.27338
 Alpha virt. eigenvalues --    5.29251   5.30857   5.32332   5.35385   5.37294
 Alpha virt. eigenvalues --    5.39340   5.40119   5.40714   5.46533   5.48912
 Alpha virt. eigenvalues --    5.54658   5.60141   5.61957   5.68554   5.76345
 Alpha virt. eigenvalues --    5.81862   5.92771   5.96058   5.99811   6.07678
 Alpha virt. eigenvalues --    6.08825   6.10115   6.16415   6.23920   6.27682
 Alpha virt. eigenvalues --    6.37506   6.40628   6.48824   6.64186   6.68193
 Alpha virt. eigenvalues --    6.76850   6.80073   6.86010   6.97275   7.05691
 Alpha virt. eigenvalues --    7.06056   7.22058   7.39642   7.42043   7.61416
 Alpha virt. eigenvalues --    7.81745   9.99032  10.73626  11.11796  11.69290
 Alpha virt. eigenvalues --   13.45605  13.96539  14.76194
  Beta  occ. eigenvalues --  -19.78552 -19.77065 -10.65961 -10.64257 -10.63692
  Beta  occ. eigenvalues --  -10.63663 -10.62700  -1.25788  -1.00510  -0.93876
  Beta  occ. eigenvalues --   -0.85339  -0.77473  -0.69141  -0.64811  -0.58804
  Beta  occ. eigenvalues --   -0.56063  -0.54712  -0.54110  -0.51826  -0.48083
  Beta  occ. eigenvalues --   -0.47156  -0.43492  -0.43267  -0.39636  -0.36010
  Beta  occ. eigenvalues --   -0.34284  -0.29015
  Beta virt. eigenvalues --   -0.05577   0.01890   0.08890   0.09474   0.10272
  Beta virt. eigenvalues --    0.11156   0.12965   0.13273   0.14834   0.15809
  Beta virt. eigenvalues --    0.16537   0.18035   0.20748   0.23535   0.26766
  Beta virt. eigenvalues --    0.28820   0.31568   0.33972   0.34465   0.35377
  Beta virt. eigenvalues --    0.35653   0.38039   0.38468   0.41183   0.42449
  Beta virt. eigenvalues --    0.44168   0.45704   0.47078   0.47848   0.48340
  Beta virt. eigenvalues --    0.49857   0.51266   0.51786   0.52542   0.53682
  Beta virt. eigenvalues --    0.54116   0.55289   0.56402   0.57410   0.59135
  Beta virt. eigenvalues --    0.60009   0.63367   0.64590   0.65954   0.68100
  Beta virt. eigenvalues --    0.68945   0.69747   0.71398   0.71490   0.75350
  Beta virt. eigenvalues --    0.75837   0.78097   0.78609   0.79109   0.82694
  Beta virt. eigenvalues --    0.85125   0.87400   0.89360   0.93559   0.94622
  Beta virt. eigenvalues --    0.96011   0.97600   0.98808   1.00094   1.03012
  Beta virt. eigenvalues --    1.03307   1.04156   1.06169   1.06854   1.09044
  Beta virt. eigenvalues --    1.10704   1.12385   1.13585   1.14154   1.16497
  Beta virt. eigenvalues --    1.18289   1.19736   1.21189   1.24057   1.24562
  Beta virt. eigenvalues --    1.28208   1.29431   1.31276   1.33273   1.35177
  Beta virt. eigenvalues --    1.36579   1.38464   1.39223   1.39547   1.42774
  Beta virt. eigenvalues --    1.47709   1.48151   1.50661   1.51301   1.51498
  Beta virt. eigenvalues --    1.52625   1.55457   1.56144   1.59619   1.62972
  Beta virt. eigenvalues --    1.63951   1.72462   1.74576   1.76379   1.79429
  Beta virt. eigenvalues --    1.85847   1.92124   1.93915   1.98823   2.04040
  Beta virt. eigenvalues --    2.07833   2.12867   2.13422   2.18495   2.20366
  Beta virt. eigenvalues --    2.20627   2.23426   2.28744   2.35072   2.35960
  Beta virt. eigenvalues --    2.36969   2.37692   2.39590   2.43236   2.45456
  Beta virt. eigenvalues --    2.49620   2.50625   2.52104   2.54812   2.57511
  Beta virt. eigenvalues --    2.59201   2.60766   2.63470   2.66319   2.72288
  Beta virt. eigenvalues --    2.74819   2.76913   2.80932   2.84287   2.85247
  Beta virt. eigenvalues --    2.85920   2.87354   2.89963   2.90313   2.91169
  Beta virt. eigenvalues --    2.92627   2.94535   2.94875   2.96910   2.98395
  Beta virt. eigenvalues --    3.00182   3.02417   3.03842   3.04637   3.06156
  Beta virt. eigenvalues --    3.06736   3.10868   3.11040   3.11848   3.14214
  Beta virt. eigenvalues --    3.14473   3.15461   3.17420   3.18610   3.18922
  Beta virt. eigenvalues --    3.21477   3.21948   3.23525   3.26349   3.28788
  Beta virt. eigenvalues --    3.30352   3.31297   3.32673   3.34090   3.39644
  Beta virt. eigenvalues --    3.40888   3.41282   3.42691   3.43485   3.44924
  Beta virt. eigenvalues --    3.50552   3.52556   3.53003   3.53683   3.54341
  Beta virt. eigenvalues --    3.56204   3.59534   3.59795   3.60861   3.64034
  Beta virt. eigenvalues --    3.64867   3.66438   3.68376   3.70171   3.71919
  Beta virt. eigenvalues --    3.75732   3.77394   3.81040   3.82855   3.84423
  Beta virt. eigenvalues --    3.86740   3.87673   3.88150   3.89426   3.90393
  Beta virt. eigenvalues --    3.93811   3.96614   3.97819   3.98828   4.00382
  Beta virt. eigenvalues --    4.03647   4.03988   4.05948   4.08689   4.09373
  Beta virt. eigenvalues --    4.12302   4.13319   4.14205   4.15647   4.15844
  Beta virt. eigenvalues --    4.18813   4.19821   4.21400   4.25797   4.26800
  Beta virt. eigenvalues --    4.28497   4.33642   4.35061   4.36944   4.38550
  Beta virt. eigenvalues --    4.40557   4.42866   4.47007   4.50496   4.50882
  Beta virt. eigenvalues --    4.56675   4.60795   4.61591   4.65682   4.67220
  Beta virt. eigenvalues --    4.68214   4.71051   4.79862   4.80413   4.82278
  Beta virt. eigenvalues --    4.83164   4.85000   4.89251   4.95347   4.97543
  Beta virt. eigenvalues --    5.00456   5.03596   5.06107   5.08252   5.08810
  Beta virt. eigenvalues --    5.09796   5.13516   5.17886   5.21896   5.22193
  Beta virt. eigenvalues --    5.27430   5.29275   5.31155   5.32562   5.35647
  Beta virt. eigenvalues --    5.37530   5.39838   5.40361   5.41344   5.46742
  Beta virt. eigenvalues --    5.49062   5.54978   5.61094   5.62330   5.69107
  Beta virt. eigenvalues --    5.77347   5.82335   5.92847   5.96563   6.00350
  Beta virt. eigenvalues --    6.08236   6.09296   6.10231   6.16947   6.24635
  Beta virt. eigenvalues --    6.27914   6.37860   6.42652   6.49619   6.64797
  Beta virt. eigenvalues --    6.69378   6.78855   6.80977   6.86963   6.98568
  Beta virt. eigenvalues --    7.06111   7.07179   7.23544   7.41123   7.42513
  Beta virt. eigenvalues --    7.63235   7.82209   9.99431  10.74585  11.12419
  Beta virt. eigenvalues --   11.69445  13.45607  13.96941  14.76365
          Condensed to atoms (all electrons):
               1          2          3          4          5          6
     1  C    5.313540   0.594590   0.400800  -0.053321  -0.003438   0.004071
     2  C    0.594590   4.879767  -0.053730   0.394246  -0.000847   0.000143
     3  H    0.400800  -0.053730   0.495927   0.004608   0.000079  -0.000231
     4  H   -0.053321   0.394246   0.004608   0.506077  -0.002739  -0.002698
     5  C   -0.003438  -0.000847   0.000079  -0.002739   4.614581   0.396968
     6  H    0.004071   0.000143  -0.000231  -0.002698   0.396968   0.666502
     7  H    0.000390  -0.000098  -0.000004  -0.000428   0.394818  -0.036298
     8  H   -0.000715   0.000322  -0.000011   0.000853   0.412882  -0.055026
     9  O   -0.003785  -0.003396   0.000155   0.021771   0.294537  -0.050435
    10  O   -0.065317  -0.000497   0.000827  -0.003005  -0.042257  -0.003162
    11  H    0.151779  -0.000240  -0.006532  -0.001856   0.003818   0.004611
    12  C   -0.065053   0.370660  -0.001704  -0.035753  -0.000248  -0.000149
    13  C    0.002520  -0.063407   0.000112  -0.003426   0.000020   0.000041
    14  H    0.001132  -0.042006   0.003039   0.004354  -0.000004  -0.000003
    15  H   -0.000486   0.006903  -0.000023  -0.000216  -0.000000   0.000002
    16  H    0.000683  -0.002715   0.000041   0.003555   0.000021   0.000017
               7          8          9         10         11         12
     1  C    0.000390  -0.000715  -0.003785  -0.065317   0.151779  -0.065053
     2  C   -0.000098   0.000322  -0.003396  -0.000497  -0.000240   0.370660
     3  H   -0.000004  -0.000011   0.000155   0.000827  -0.006532  -0.001704
     4  H   -0.000428   0.000853   0.021771  -0.003005  -0.001856  -0.035753
     5  C    0.394818   0.412882   0.294537  -0.042257   0.003818  -0.000248
     6  H   -0.036298  -0.055026  -0.050435  -0.003162   0.004611  -0.000149
     7  H    0.593800  -0.026078  -0.027353   0.006891  -0.000893  -0.000052
     8  H   -0.026078   0.598408  -0.034975   0.004272   0.000163   0.000004
     9  O   -0.027353  -0.034975   7.955964   0.072301  -0.030220   0.000461
    10  O    0.006891   0.004272   0.072301   7.995434   0.263074   0.000386
    11  H   -0.000893   0.000163  -0.030220   0.263074   0.386776   0.001020
    12  C   -0.000052   0.000004   0.000461   0.000386   0.001020   4.880072
    13  C    0.000010  -0.000003  -0.000107   0.000025  -0.000205   0.599627
    14  H   -0.000001   0.000001   0.000002   0.000005  -0.000035   0.413676
    15  H    0.000000  -0.000000  -0.000001  -0.000000   0.000002  -0.045868
    16  H    0.000005  -0.000002  -0.000075   0.000008  -0.000025  -0.051578
              13         14         15         16
     1  C    0.002520   0.001132  -0.000486   0.000683
     2  C   -0.063407  -0.042006   0.006903  -0.002715
     3  H    0.000112   0.003039  -0.000023   0.000041
     4  H   -0.003426   0.004354  -0.000216   0.003555
     5  C    0.000020  -0.000004  -0.000000   0.000021
     6  H    0.000041  -0.000003   0.000002   0.000017
     7  H    0.000010  -0.000001   0.000000   0.000005
     8  H   -0.000003   0.000001  -0.000000  -0.000002
     9  O   -0.000107   0.000002  -0.000001  -0.000075
    10  O    0.000025   0.000005  -0.000000   0.000008
    11  H   -0.000205  -0.000035   0.000002  -0.000025
    12  C    0.599627   0.413676  -0.045868  -0.051578
    13  C    4.969782  -0.040474   0.420908   0.415831
    14  H   -0.040474   0.529102  -0.007702   0.005901
    15  H    0.420908  -0.007702   0.528456  -0.033491
    16  H    0.415831   0.005901  -0.033491   0.534725
          Atomic-Atomic Spin Densities.
               1          2          3          4          5          6
     1  C    0.950588  -0.034471   0.005492  -0.003972   0.000437  -0.003443
     2  C   -0.034471  -0.193956  -0.004557   0.006719  -0.000050  -0.000071
     3  H    0.005492  -0.004557   0.019600   0.000866  -0.000021   0.000308
     4  H   -0.003972   0.006719   0.000866   0.028421  -0.000341   0.000964
     5  C    0.000437  -0.000050  -0.000021  -0.000341  -0.003385   0.003848
     6  H   -0.003443  -0.000071   0.000308   0.000964   0.003848  -0.000432
     7  H    0.000127  -0.000030  -0.000004  -0.000079   0.000268  -0.000633
     8  H    0.000935  -0.000083  -0.000046  -0.000150  -0.001934  -0.000410
     9  O    0.010844  -0.000817  -0.000375  -0.003635  -0.000194  -0.000439
    10  O   -0.080153   0.004361   0.003267   0.002335  -0.001334   0.002691
    11  H    0.041100   0.000511  -0.000616   0.000543   0.000685  -0.002691
    12  C   -0.021309   0.025649  -0.002308  -0.007122   0.000058  -0.000106
    13  C    0.003251   0.002471   0.000442   0.002070  -0.000002   0.000015
    14  H    0.002120  -0.000036   0.000741   0.000226  -0.000001   0.000010
    15  H   -0.000239   0.000399  -0.000026  -0.000117   0.000000  -0.000001
    16  H    0.000226  -0.000103   0.000026   0.000561  -0.000002   0.000008
               7          8          9         10         11         12
     1  C    0.000127   0.000935   0.010844  -0.080153   0.041100  -0.021309
     2  C   -0.000030  -0.000083  -0.000817   0.004361   0.000511   0.025649
     3  H   -0.000004  -0.000046  -0.000375   0.003267  -0.000616  -0.002308
     4  H   -0.000079  -0.000150  -0.003635   0.002335   0.000543  -0.007122
     5  C    0.000268  -0.001934  -0.000194  -0.001334   0.000685   0.000058
     6  H   -0.000633  -0.000410  -0.000439   0.002691  -0.002691  -0.000106
     7  H   -0.001100   0.000845   0.000157  -0.000172   0.000089   0.000006
     8  H    0.000845   0.001830  -0.000241  -0.000397   0.001058   0.000007
     9  O    0.000157  -0.000241   0.034313  -0.029927   0.007554   0.000115
    10  O   -0.000172  -0.000397  -0.029927   0.432331  -0.025738  -0.000257
    11  H    0.000089   0.001058   0.007554  -0.025738  -0.093435  -0.000018
    12  C    0.000006   0.000007   0.000115  -0.000257  -0.000018   0.157783
    13  C   -0.000002  -0.000000  -0.000009   0.000017  -0.000076  -0.006819
    14  H   -0.000000  -0.000000  -0.000007   0.000020  -0.000037  -0.002185
    15  H    0.000000   0.000000   0.000001  -0.000000   0.000001   0.001853
    16  H   -0.000001  -0.000000  -0.000011   0.000006  -0.000013  -0.000987
              13         14         15         16
     1  C    0.003251   0.002120  -0.000239   0.000226
     2  C    0.002471  -0.000036   0.000399  -0.000103
     3  H    0.000442   0.000741  -0.000026   0.000026
     4  H    0.002070   0.000226  -0.000117   0.000561
     5  C   -0.000002  -0.000001   0.000000  -0.000002
     6  H    0.000015   0.000010  -0.000001   0.000008
     7  H   -0.000002  -0.000000   0.000000  -0.000001
     8  H   -0.000000  -0.000000   0.000000  -0.000000
     9  O   -0.000009  -0.000007   0.000001  -0.000011
    10  O    0.000017   0.000020  -0.000000   0.000006
    11  H   -0.000076  -0.000037   0.000001  -0.000013
    12  C   -0.006819  -0.002185   0.001853  -0.000987
    13  C   -0.131718   0.002379  -0.004021  -0.000497
    14  H    0.002379  -0.008165  -0.000429   0.000068
    15  H   -0.004021  -0.000429   0.012583  -0.001441
    16  H   -0.000497   0.000068  -0.001441   0.007654
 Mulliken charges and spin densities:
               1          2
     1  C   -0.277389   0.871534
     2  C   -0.079694  -0.194063
     3  H    0.156648   0.022792
     4  H    0.167979   0.027289
     5  C   -0.068190  -0.001967
     6  H    0.075646  -0.000383
     7  H    0.095288  -0.000529
     8  H    0.099904   0.001414
     9  O   -0.194846   0.017328
    10  O   -0.228984   0.307049
    11  H    0.228763  -0.071084
    12  C   -0.065499   0.144358
    13  C   -0.301253  -0.132498
    14  H    0.133013  -0.005296
    15  H    0.131517   0.008562
    16  H    0.127098   0.005494
 Sum of Mulliken charges =  -0.00000   1.00000
 Mulliken charges and spin densities with hydrogens summed into heavy atoms:
               1          2
     1  C   -0.120741   0.894325
     2  C    0.088285  -0.166774
     5  C    0.202648  -0.001464
     9  O   -0.194846   0.017328
    10  O   -0.000221   0.235965
    12  C    0.067513   0.139062
    13  C   -0.042638  -0.118443
 APT charges:
               1
     1  C    0.199602
     2  C   -0.105175
     3  H    0.025229
     4  H    0.070515
     5  C    0.424277
     6  H   -0.037241
     7  H   -0.003714
     8  H   -0.031411
     9  O   -0.344064
    10  O    0.020851
    11  H   -0.273900
    12  C    0.100541
    13  C   -0.143815
    14  H    0.019731
    15  H    0.037161
    16  H    0.041413
 Sum of APT charges =  -0.00000
 APT charges with hydrogens summed into heavy atoms:
               1
     1  C    0.224831
     2  C   -0.034659
     5  C    0.351911
     9  O   -0.344064
    10  O   -0.253049
    12  C    0.120273
    13  C   -0.065242
 Electronic spatial extent (au):  <R**2>=           1246.2577
 Charge=             -0.0000 electrons
 Dipole moment (field-independent basis, Debye):
    X=             -2.0247    Y=             -0.7998    Z=              1.9056  Tot=              2.8932
 Quadrupole moment (field-independent basis, Debye-Ang):
   XX=            -42.4511   YY=            -39.4465   ZZ=            -45.8581
   XY=             -3.4047   XZ=              3.0689   YZ=              2.2328
 Traceless Quadrupole moment (field-independent basis, Debye-Ang):
   XX=              0.1341   YY=              3.1387   ZZ=             -3.2728
   XY=             -3.4047   XZ=              3.0689   YZ=              2.2328
 Octapole moment (field-independent basis, Debye-Ang**2):
  XXX=              0.6586  YYY=              1.8223  ZZZ=             -2.5312  XYY=              4.3457
  XXY=            -12.1685  XXZ=             10.8809  XZZ=              7.8019  YZZ=              0.1963
  YYZ=              2.1911  XYZ=             -5.9239
 Hexadecapole moment (field-independent basis, Debye-Ang**3):
 XXXX=          -1187.0903 YYYY=           -255.3030 ZZZZ=           -105.6124 XXXY=             -6.9614
 XXXZ=             -0.7763 YYYX=             -8.6588 YYYZ=             12.7391 ZZZX=             -5.7284
 ZZZY=              1.3384 XXYY=           -249.4990 XXZZ=           -243.0209 YYZZ=            -63.3106
 XXYZ=              7.5966 YYXZ=              0.2105 ZZXY=             -2.0226
 N-N= 2.794303414153D+02 E-N=-1.367378833627D+03  KE= 3.441045549287D+02
  Exact polarizability: 120.158   8.310  81.740   0.831   8.493  50.536
 Approx polarizability:  99.964  17.160  99.288   1.343  12.459  62.417
                          Isotropic Fermi Contact Couplings
        Atom                 a.u.       MegaHertz       Gauss      10(-4) cm-1
     1  C(13)              0.19908     223.80236      79.85825      74.65243
     2  C(13)              0.01306      14.68651       5.24051       4.89889
     3  H(1)               0.01376      61.48843      21.94060      20.51033
     4  H(1)               0.01398      62.50138      22.30205      20.84822
     5  C(13)             -0.00261      -2.93249      -1.04639      -0.97817
     6  H(1)               0.00198       8.85217       3.15867       2.95276
     7  H(1)              -0.00003      -0.14847      -0.05298      -0.04953
     8  H(1)               0.00038       1.70603       0.60875       0.56907
     9  O(17)              0.01285      -7.78941      -2.77946      -2.59827
    10  O(17)              0.01874     -11.36081      -4.05382      -3.78956
    11  H(1)              -0.02617    -116.96634     -41.73650     -39.01577
    12  C(13)              0.04348      48.87672      17.44043      16.30352
    13  C(13)              0.01206      13.55596       4.83710       4.52178
    14  H(1)               0.00064       2.86526       1.02239       0.95575
    15  H(1)              -0.00056      -2.51480      -0.89734      -0.83885
    16  H(1)              -0.00157      -7.03193      -2.50917      -2.34560
 --------------------------------------------------------
       Center         ----  Spin Dipole Couplings  ----
                      3XX-RR        3YY-RR        3ZZ-RR
 --------------------------------------------------------
     1   Atom        0.717186     -0.382335     -0.334851
     2   Atom        0.018397      0.001350     -0.019747
     3   Atom       -0.006792      0.031022     -0.024231
     4   Atom       -0.006679      0.012282     -0.005603
     5   Atom       -0.003078      0.003853     -0.000774
     6   Atom       -0.002401      0.001837      0.000564
     7   Atom       -0.001643      0.004091     -0.002448
     8   Atom        0.000415      0.000427     -0.000842
     9   Atom        0.254118     -0.159976     -0.094141
    10   Atom        1.256757     -0.708545     -0.548212
    11   Atom        0.193786     -0.100227     -0.093559
    12   Atom        0.094294     -0.012591     -0.081703
    13   Atom       -0.030080     -0.010250      0.040330
    14   Atom        0.010892     -0.004029     -0.006863
    15   Atom        0.006738     -0.004659     -0.002079
    16   Atom       -0.001687      0.002310     -0.000623
 --------------------------------------------------------
                        XY            XZ            YZ
 --------------------------------------------------------
     1   Atom       -0.071903     -0.298578      0.036391
     2   Atom        0.033949      0.008085      0.002119
     3   Atom       -0.000206     -0.009276      0.039554
     4   Atom        0.003725      0.001359      0.010969
     5   Atom       -0.005067      0.000379     -0.004088
     6   Atom       -0.002947      0.000831     -0.006379
     7   Atom       -0.002246      0.000432     -0.002263
     8   Atom       -0.004234      0.003384     -0.003493
     9   Atom       -0.130118     -0.149471      0.022969
    10   Atom       -0.101207     -0.584271      0.034353
    11   Atom       -0.072189     -0.093150      0.021630
    12   Atom        0.038961     -0.025941      0.040491
    13   Atom       -0.001408      0.020973     -0.038014
    14   Atom        0.003074     -0.002740      0.001438
    15   Atom        0.000959     -0.001359     -0.001873
    16   Atom       -0.001505     -0.000858      0.002681
 --------------------------------------------------------


 ---------------------------------------------------------------------------------
              Anisotropic Spin Dipole Couplings in Principal Axis System
 ---------------------------------------------------------------------------------

       Atom             a.u.   MegaHertz   Gauss  10(-4) cm-1        Axes

              Baa    -0.4219   -56.615   -20.202   -18.885  0.2019 -0.4386  0.8757
     1 C(13)  Bbb    -0.3794   -50.907   -18.165   -16.981  0.1703  0.8962  0.4096
              Bcc     0.8013   107.522    38.367    35.866  0.9645 -0.0665 -0.2556
 
              Baa    -0.0269    -3.605    -1.286    -1.202 -0.5831  0.6669  0.4640
     2 C(13)  Bbb    -0.0189    -2.538    -0.906    -0.847  0.2036 -0.4329  0.8781
              Bcc     0.0458     6.143     2.192     2.049  0.7865  0.6065  0.1166
 
              Baa    -0.0465   -24.823    -8.857    -8.280  0.2015 -0.4446  0.8728
     3 H(1)   Bbb    -0.0055    -2.915    -1.040    -0.972  0.9765  0.1610 -0.1434
              Bcc     0.0520    27.738     9.897     9.252 -0.0767  0.8811  0.4666
 
              Baa    -0.0109    -5.790    -2.066    -1.931  0.1017 -0.4396  0.8924
     4 H(1)   Bbb    -0.0073    -3.879    -1.384    -1.294  0.9823 -0.0974 -0.1600
              Bcc     0.0181     9.668     3.450     3.225  0.1573  0.8929  0.4219
 
              Baa    -0.0063    -0.847    -0.302    -0.283  0.7832  0.5247  0.3337
     5 C(13)  Bbb    -0.0019    -0.249    -0.089    -0.083 -0.4858  0.1812  0.8551
              Bcc     0.0082     1.096     0.391     0.366 -0.3882  0.8318 -0.3967
 
              Baa    -0.0059    -3.122    -1.114    -1.041  0.4244  0.6690  0.6102
     6 H(1)   Bbb    -0.0025    -1.318    -0.470    -0.440  0.8700 -0.1147 -0.4795
              Bcc     0.0083     4.440     1.584     1.481 -0.2508  0.7344 -0.6307
 
              Baa    -0.0032    -1.721    -0.614    -0.574  0.2637  0.3580  0.8957
     7 H(1)   Bbb    -0.0023    -1.224    -0.437    -0.408  0.9159  0.1985 -0.3489
              Bcc     0.0055     2.945     1.051     0.982 -0.3027  0.9124 -0.2756
 
              Baa    -0.0038    -2.048    -0.731    -0.683  0.5258  0.7867  0.3234
     8 H(1)   Bbb    -0.0037    -1.950    -0.696    -0.650 -0.5949  0.0684  0.8009
              Bcc     0.0075     3.998     1.426     1.333 -0.6080  0.6135 -0.5040
 
              Baa    -0.2033    14.712     5.250     4.907  0.3481  0.8918  0.2889
     9 O(17)  Bbb    -0.1398    10.117     3.610     3.375  0.2173 -0.3766  0.9005
              Bcc     0.3431   -24.829    -8.860    -8.282  0.9119 -0.2507 -0.3249
 
              Baa    -0.7229    52.305    18.664    17.447  0.2356 -0.4280  0.8725
    10 O(17)  Bbb    -0.7118    51.509    18.380    17.181  0.1646  0.9024  0.3982
              Bcc     1.4347  -103.814   -37.043   -34.629  0.9578 -0.0498 -0.2831
 
              Baa    -0.1211   -64.629   -23.061   -21.558  0.2702 -0.0611  0.9609
    11 H(1)   Bbb    -0.1170   -62.423   -22.274   -20.822  0.2258  0.9742 -0.0015
              Bcc     0.2381   127.052    45.335    42.380  0.9359 -0.2174 -0.2770
 
              Baa    -0.1084   -14.550    -5.192    -4.853  0.1977 -0.4486  0.8716
    12 C(13)  Bbb     0.0006     0.080     0.028     0.027 -0.2178  0.8468  0.4853
              Bcc     0.1078    14.471     5.163     4.827  0.9558  0.2858 -0.0698
 
              Baa    -0.0410    -5.495    -1.961    -1.833  0.7584 -0.4930 -0.4263
    13 C(13)  Bbb    -0.0237    -3.174    -1.132    -1.059  0.6204  0.7466  0.2402
              Bcc     0.0646     8.669     3.093     2.892  0.1998 -0.4467  0.8721
 
              Baa    -0.0082    -4.382    -1.564    -1.462  0.1969 -0.4450  0.8736
    14 H(1)   Bbb    -0.0036    -1.922    -0.686    -0.641 -0.0975  0.8778  0.4691
              Bcc     0.0118     6.304     2.249     2.103  0.9756  0.1775 -0.1294
 
              Baa    -0.0056    -3.013    -1.075    -1.005 -0.0184  0.8881  0.4592
    15 H(1)   Bbb    -0.0014    -0.761    -0.272    -0.254  0.1977 -0.4470  0.8724
              Bcc     0.0071     3.775     1.347     1.259  0.9801  0.1069 -0.1674
 
              Baa    -0.0022    -1.189    -0.424    -0.397 -0.4875 -0.5582  0.6714
    16 H(1)   Bbb    -0.0022    -1.155    -0.412    -0.385  0.8291 -0.0546  0.5565
              Bcc     0.0044     2.344     0.836     0.782 -0.2740  0.8279  0.4894
 

 ---------------------------------------------------------------------------------

 Calling FoFJK, ICntrl=  10100127 FMM=F ISym2X=0 I1Cent= 0 IOpClX= 1 NMat=1 NMatS=1 NMatT=0.
 -------------------------------------------------------------------
 Center     Atomic                   Forces (Hartrees/Bohr)
 Number     Number              X              Y              Z
 -------------------------------------------------------------------
      1        6          -0.000003169   -0.000001934   -0.000001434
      2        6          -0.000000447    0.000001537   -0.000001077
      3        1           0.000001297   -0.000000431    0.000000075
      4        1          -0.000000213   -0.000000047    0.000000246
      5        6          -0.000000240    0.000001040   -0.000001133
      6        1           0.000001505   -0.000000346    0.000000133
      7        1          -0.000000015   -0.000000037    0.000000366
      8        1           0.000000491    0.000000030    0.000000251
      9        8           0.000002763    0.000009034    0.000004497
     10        8          -0.000010752   -0.000010491   -0.000001440
     11        1           0.000009029    0.000000341   -0.000000398
     12        6          -0.000000739    0.000001094   -0.000000189
     13        6           0.000000599    0.000000076   -0.000000027
     14        1           0.000000059    0.000000092   -0.000000265
     15        1          -0.000000151    0.000000115    0.000000182
     16        1          -0.000000016   -0.000000072    0.000000212
 -------------------------------------------------------------------
 Cartesian Forces:  Max     0.000010752 RMS     0.000003056
 FormGI is forming the generalized inverse of G from B-inverse, IUseBI=4.

 GradGradGradGradGradGradGradGradGradGradGradGradGradGradGradGradGradGrad
 Berny optimization.
 Internal  Forces:  Max     0.000011115 RMS     0.000003240
 Search for a saddle point.
 Step number   1 out of a maximum of  100 on scan point     1 out of    37
 All quantities printed in internal units (Hartrees-Bohrs-Radians)
 Swapping is turned off.
 Second derivative matrix not updated -- analytic derivatives used.
 ITU=  0
     Eigenvalues ---   -0.04802   0.00590   0.00699   0.01057   0.01532
     Eigenvalues ---    0.01990   0.02432   0.02750   0.03294   0.03689
     Eigenvalues ---    0.04111   0.04465   0.04899   0.08014   0.08473
     Eigenvalues ---    0.08567   0.10520   0.10898   0.11270   0.12541
     Eigenvalues ---    0.13181   0.13848   0.16584   0.17664   0.18368
     Eigenvalues ---    0.19722   0.22387   0.28055   0.32355   0.33617
     Eigenvalues ---    0.33725   0.34461   0.34752   0.35648   0.35863
     Eigenvalues ---    0.36225   0.36480   0.36649   0.40765   0.63773
     Eigenvalues ---    0.680851000.000001000.000001000.000001000.00000
     Eigenvalues --- 1000.000001000.000001000.000001000.000001000.00000
     Eigenvalues --- 1000.000001000.000001000.000001000.00000
 Eigenvectors required to have negative eigenvalues:
                          R3        R11       A1        R10       A2
   1                    0.82554  -0.49898   0.15073   0.13598  -0.10489
                          A14       D13       A3        A21       A13
   1                   -0.07440  -0.06334  -0.04584   0.03390  -0.03295
 RFO step:  Lambda0=2.176583878D-10 Lambda= 0.00000000D+00.
 Linear search not attempted -- option 19 set.
 Iteration  1 RMS(Cart)=  0.00043554 RMS(Int)=  0.00000004
 Iteration  2 RMS(Cart)=  0.00000008 RMS(Int)=  0.00000000
 Iteration  1 RMS(Cart)=  0.00000000 RMS(Int)=  0.00000000
 Variable       Old X    -DE/DX   Delta X   Delta X   Delta X     New X
                                 (Linear)    (Quad)   (Total)
    R1        2.48519  -0.00000   0.00000  -0.00000  -0.00000   2.48519
    R2        2.04065  -0.00000   0.00000   0.00000   0.00000   2.04065
    R3        2.76338   0.00000   0.00000  -0.00007  -0.00007   2.76331
    R4        2.05500  -0.00000   0.00000  -0.00000  -0.00000   2.05500
    R5        2.76723   0.00000   0.00000  -0.00000  -0.00000   2.76723
    R6        2.06161  -0.00000   0.00000  -0.00000  -0.00000   2.06161
    R7        2.05645   0.00000   0.00000  -0.00000  -0.00000   2.05645
    R8        2.05687   0.00000   0.00000   0.00000   0.00000   2.05687
    R9        2.68518  -0.00000   0.00000  -0.00000  -0.00000   2.68518
   R10        2.67917  -0.00001   0.00000  -0.00005  -0.00005   2.67912
   R11        2.05657  -0.00001   0.00000   0.00001   0.00001   2.05658
   R12        2.51729  -0.00000   0.00000  -0.00000  -0.00000   2.51729
   R13        2.04576  -0.00000   0.00000  -0.00000  -0.00000   2.04576
   R14        2.03991   0.00000   0.00000   0.00000   0.00000   2.03991
   R15        2.04346   0.00000   0.00000  -0.00000  -0.00000   2.04346
    A1        2.33390  -0.00000   0.00000  -0.00001  -0.00001   2.33388
    A2        1.94730   0.00000   0.00000   0.00006   0.00006   1.94736
    A3        2.00199  -0.00000   0.00000  -0.00004  -0.00004   2.00194
    A4        2.06850   0.00000   0.00000   0.00001   0.00001   2.06851
    A5        2.17684  -0.00000   0.00000  -0.00001  -0.00001   2.17683
    A6        2.03785   0.00000   0.00000   0.00000   0.00000   2.03785
    A7        1.92055  -0.00000   0.00000  -0.00000  -0.00000   1.92055
    A8        1.92064  -0.00000   0.00000  -0.00000  -0.00000   1.92064
    A9        1.93290   0.00000   0.00000   0.00001   0.00001   1.93290
   A10        1.92382  -0.00000   0.00000  -0.00000  -0.00000   1.92382
   A11        1.83465  -0.00000   0.00000   0.00000   0.00000   1.83465
   A12        1.92978  -0.00000   0.00000  -0.00000  -0.00000   1.92978
   A13        1.87355   0.00000   0.00000   0.00001   0.00001   1.87356
   A14        1.80175   0.00001   0.00000   0.00004   0.00004   1.80179
   A15        2.14663  -0.00000   0.00000  -0.00000  -0.00000   2.14663
   A16        2.04014   0.00000   0.00000  -0.00000  -0.00000   2.04014
   A17        2.09642   0.00000   0.00000   0.00000   0.00000   2.09642
   A18        2.11878  -0.00000   0.00000  -0.00000  -0.00000   2.11878
   A19        2.11603   0.00000   0.00000  -0.00000  -0.00000   2.11603
   A20        2.04838   0.00000   0.00000   0.00000   0.00000   2.04838
   A21        3.03990   0.00001   0.00000   0.00024   0.00024   3.04014
   A22        3.03130  -0.00000   0.00000  -0.00013  -0.00013   3.03118
    D1        3.13846  -0.00000   0.00000  -0.00008  -0.00008   3.13838
    D2       -0.00269  -0.00000   0.00000  -0.00009  -0.00009  -0.00278
    D3       -0.00405   0.00000   0.00000   0.00011   0.00011  -0.00394
    D4        3.13798   0.00000   0.00000   0.00010   0.00010   3.13808
    D5        2.82188  -0.00001   0.00000   0.00000   0.00000   2.82188
    D6        3.14060  -0.00000   0.00000   0.00001   0.00001   3.14060
    D7       -0.00033  -0.00000   0.00000   0.00001   0.00001  -0.00032
    D8       -0.00056   0.00000   0.00000  -0.00001  -0.00001  -0.00057
    D9       -3.14148   0.00000   0.00000  -0.00000  -0.00000  -3.14149
   D10        1.13414  -0.00000   0.00000  -0.00004  -0.00004   1.13410
   D11       -3.07543   0.00000   0.00000  -0.00003  -0.00003  -3.07547
   D12       -0.99954  -0.00000   0.00000  -0.00004  -0.00004  -0.99957
   D13       -1.60103  -0.00001   0.00000  -0.00011  -0.00011  -1.60114
   D14       -3.14063  -0.00000   0.00000   0.00001   0.00001  -3.14063
   D15       -0.00156  -0.00000   0.00000   0.00001   0.00001  -0.00156
   D16        0.00027  -0.00000   0.00000   0.00000   0.00000   0.00027
   D17        3.13934  -0.00000   0.00000   0.00000   0.00000   3.13934
         Item               Value     Threshold  Converged?
 Maximum Force            0.000011     0.000450     YES
 RMS     Force            0.000003     0.000300     YES
 Maximum Displacement     0.001407     0.001800     YES
 RMS     Displacement     0.000435     0.001200     YES
 Predicted change in Energy=-2.893620D-09
 Optimization completed.
    -- Stationary point found.
                           ----------------------------
                           !   Optimized Parameters   !
                           ! (Angstroms and Degrees)  !
 --------------------------                            --------------------------
 ! Name  Definition              Value          Derivative Info.                !
 --------------------------------------------------------------------------------
 ! R1    R(1,2)                  1.3151         -DE/DX =    0.0                 !
 ! R2    R(1,3)                  1.0799         -DE/DX =    0.0                 !
 ! R3    R(1,11)                 1.4623         -DE/DX =    0.0                 !
 ! R4    R(2,4)                  1.0875         -DE/DX =    0.0                 !
 ! R5    R(2,12)                 1.4644         -DE/DX =    0.0                 !
 ! R6    R(5,6)                  1.091          -DE/DX =    0.0                 !
 ! R7    R(5,7)                  1.0882         -DE/DX =    0.0                 !
 ! R8    R(5,8)                  1.0884         -DE/DX =    0.0                 !
 ! R9    R(5,9)                  1.4209         -DE/DX =    0.0                 !
 ! R10   R(9,10)                 1.4178         -DE/DX =    0.0                 !
 ! R11   R(10,11)                1.0883         -DE/DX =    0.0                 !
 ! R12   R(12,13)                1.3321         -DE/DX =    0.0                 !
 ! R13   R(12,14)                1.0826         -DE/DX =    0.0                 !
 ! R14   R(13,15)                1.0795         -DE/DX =    0.0                 !
 ! R15   R(13,16)                1.0814         -DE/DX =    0.0                 !
 ! A1    A(2,1,3)              133.7224         -DE/DX =    0.0                 !
 ! A2    A(2,1,11)             111.5721         -DE/DX =    0.0                 !
 ! A3    A(3,1,11)             114.7055         -DE/DX =    0.0                 !
 ! A4    A(1,2,4)              118.5164         -DE/DX =    0.0                 !
 ! A5    A(1,2,12)             124.7236         -DE/DX =    0.0                 !
 ! A6    A(4,2,12)             116.76           -DE/DX =    0.0                 !
 ! A7    A(6,5,7)              110.0393         -DE/DX =    0.0                 !
 ! A8    A(6,5,8)              110.0446         -DE/DX =    0.0                 !
 ! A9    A(6,5,9)              110.7469         -DE/DX =    0.0                 !
 ! A10   A(7,5,8)              110.227          -DE/DX =    0.0                 !
 ! A11   A(7,5,9)              105.1179         -DE/DX =    0.0                 !
 ! A12   A(8,5,9)              110.5685         -DE/DX =    0.0                 !
 ! A13   A(5,9,10)             107.3464         -DE/DX =    0.0                 !
 ! A14   A(9,10,11)            103.2327         -DE/DX =    0.0                 !
 ! A15   A(2,12,13)            122.993          -DE/DX =    0.0                 !
 ! A16   A(2,12,14)            116.8913         -DE/DX =    0.0                 !
 ! A17   A(13,12,14)           120.1158         -DE/DX =    0.0                 !
 ! A18   A(12,13,15)           121.3971         -DE/DX =    0.0                 !
 ! A19   A(12,13,16)           121.2394         -DE/DX =    0.0                 !
 ! A20   A(15,13,16)           117.3633         -DE/DX =    0.0                 !
 ! A21   L(1,11,10,6,-1)       174.1733         -DE/DX =    0.0                 !
 ! A22   L(1,11,10,6,-2)       173.6809         -DE/DX =    0.0                 !
 ! D1    D(3,1,2,4)            179.8208         -DE/DX =    0.0                 !
 ! D2    D(3,1,2,12)            -0.154          -DE/DX =    0.0                 !
 ! D3    D(11,1,2,4)            -0.232          -DE/DX =    0.0                 !
 ! D4    D(11,1,2,12)          179.7932         -DE/DX =    0.0                 !
 ! D5    D(3,1,10,9)           161.6819         -DE/DX =    0.0                 !
 ! D6    D(1,2,12,13)          179.943          -DE/DX =    0.0                 !
 ! D7    D(1,2,12,14)           -0.0187         -DE/DX =    0.0                 !
 ! D8    D(4,2,12,13)           -0.0322         -DE/DX =    0.0                 !
 ! D9    D(4,2,12,14)         -179.9938         -DE/DX =    0.0                 !
 ! D10   D(6,5,9,10)            64.9812         -DE/DX =    0.0                 !
 ! D11   D(7,5,9,10)          -176.2094         -DE/DX =    0.0                 !
 ! D12   D(8,5,9,10)           -57.2692         -DE/DX =    0.0                 !
 ! D13   D(5,9,10,11)          -91.7324         -DE/DX =    0.0                 !
 ! D14   D(2,12,13,15)        -179.945          -DE/DX =    0.0                 !
 ! D15   D(2,12,13,16)          -0.0896         -DE/DX =    0.0                 !
 ! D16   D(14,12,13,15)          0.0154         -DE/DX =    0.0                 !
 ! D17   D(14,12,13,16)        179.8708         -DE/DX =    0.0                 !
 --------------------------------------------------------------------------------
 Iteration  1 RMS(Cart)=  0.11720519 RMS(Int)=  0.00409307
 Iteration  2 RMS(Cart)=  0.00712865 RMS(Int)=  0.00001308
 Iteration  3 RMS(Cart)=  0.00003232 RMS(Int)=  0.00000000
 Iteration  4 RMS(Cart)=  0.00000000 RMS(Int)=  0.00000000
 Iteration  1 RMS(Cart)=  0.00000000 RMS(Int)=  0.00000000
 GradGradGradGradGradGradGradGradGradGradGradGradGradGradGradGradGradGrad

                          Input orientation:                          
 ---------------------------------------------------------------------
 Center     Atomic      Atomic             Coordinates (Angstroms)
 Number     Number       Type             X           Y           Z
 ---------------------------------------------------------------------
      1          6           0       -0.362285    1.402965    0.287047
      2          6           0       -1.046519    0.324753   -0.027256
      3          1           0       -0.628144    2.355739    0.720238
      4          1           0       -0.516190   -0.517098   -0.466125
      5          6           0        2.239064   -1.130259    0.572433
      6          1           0        1.466198   -0.943989    1.319536
      7          1           0        2.221024   -2.175412    0.269830
      8          1           0        3.216851   -0.871784    0.974730
      9          8           0        1.978064   -0.395894   -0.615693
     10          8           0        2.078306    0.980818   -0.292319
     11          1           0        1.057490    1.249534   -0.027524
     12          6           0       -2.488819    0.165324    0.169432
     13          6           0       -3.148060   -0.943430   -0.163029
     14          1           0       -3.018903    1.002156    0.606102
     15          1           0       -4.212495   -1.032871   -0.007339
     16          1           0       -2.637173   -1.789279   -0.602182
 ---------------------------------------------------------------------
                    Distance matrix (angstroms):
                    1          2          3          4          5
     1  C    0.000000
     2  C    1.315106   0.000000
     3  H    1.079867   2.204243   0.000000
     4  H    2.068236   1.087459   3.110174   0.000000
     5  C    3.642209   3.643040   4.516072   3.007656   0.000000
     6  H    3.149219   3.120465   3.953938   2.701978   1.090955
     7  H    4.413453   4.125036   5.371401   3.283897   1.088228
     8  H    4.296232   4.540044   5.026495   4.017146   1.088448
     9  O    3.086757   3.164442   4.018521   2.501673   1.420935
    10  O    2.543690   3.203937   3.200086   3.000895   2.286981
    11  H    1.462278   2.298276   2.150395   2.406206   2.723872
    12  C    2.463277   1.464354   2.926331   2.181948   4.918721
    13  C    3.669970   2.458291   4.244367   2.683349   5.440304
    14  H    2.705561   2.179522   2.749717   3.117912   5.674023
    15  H    4.565532   3.444844   4.985942   3.760210   6.478290
    16  H    4.019486   2.707370   4.792303   2.476999   5.058825
                    6          7          8          9         10
     6  H    0.000000
     7  H    1.785511   0.000000
     8  H    1.785747   1.785497   0.000000
     9  O    2.075458   2.002465   2.071354   0.000000
    10  O    2.584112   3.209076   2.516710   1.417728   0.000000
    11  H    2.606368   3.629392   3.188627   1.975052   1.088297
    12  C    4.265615   5.260394   5.854807   4.569949   4.662282
    13  C    4.846583   5.525595   6.466198   5.175118   5.570848
    14  H    4.940911   6.137333   6.521669   5.330761   5.175825
    15  H    5.832329   6.540061   7.495705   6.252908   6.611380
    16  H    4.609248   4.950917   6.131725   4.821008   5.477700
                   11         12         13         14         15
    11  H    0.000000
    12  C    3.713571   0.000000
    13  C    4.744902   1.332090   0.000000
    14  H    4.132754   1.082570   2.096079   0.000000
    15  H    5.743041   2.106652   1.079473   2.437685   0.000000
    16  H    4.818211   2.106626   1.081352   3.065580   1.845977
                   16
    16  H    0.000000
 Symmetry turned off by external request.
 Stoichiometry    C5H9O2(2)
 Framework group  C1[X(C5H9O2)]
 Deg. of freedom    42
 Full point group                 C1      NOp   1
 Rotational constants (GHZ):           4.8100423           1.0741938           0.9335699
 Standard basis: CC-pVTZ (5D, 7F)
   336 basis functions,   517 primitive gaussians,   380 cartesian basis functions
    28 alpha electrons       27 beta electrons
       nuclear repulsion energy       280.2244206317 Hartrees.
 NAtoms=   16 NActive=   16 NUniq=   16 SFac= 1.00D+00 NAtFMM=   60 NAOKFM=F Big=F
 Integral buffers will be    131072 words long.
 Raffenetti 2 integral format.
 Two-electron integral symmetry is turned off.
 Nuclear repulsion after empirical dispersion term =      280.2158796859 Hartrees.
 One-electron integrals computed using PRISM.
 NBasis=   336 RedAO= T EigKep=  3.00D-04  NBF=   336
 NBsUse=   336 1.00D-06 EigRej= -1.00D+00 NBFU=   336
 Initial guess from the checkpoint file:  "/localscratch/347861/Gau-5748.chk"
 B after Tr=     0.019237    0.029978    0.019067
         Rot=    0.999955   -0.009220    0.000310   -0.002177 Ang=  -1.09 deg.
 Initial guess <Sx>= 0.0000 <Sy>= 0.0000 <Sz>= 0.5000 <S**2>= 0.8038 S= 0.5266
 ExpMin= 1.03D-01 ExpMax= 1.53D+04 ExpMxC= 5.22D+02 IAcc=3 IRadAn=         5 AccDes= 0.00D+00
 Harris functional with IExCor=  419 and IRadAn=       5 diagonalized for initial guess.
 HarFok:  IExCor=  419 AccDes= 0.00D+00 IRadAn=         5 IDoV= 1 UseB2=F ITyADJ=14
 ICtDFT=  3500011 ScaDFX=  1.000000  1.000000  1.000000  1.000000
 FoFCou: FMM=F IPFlag=           0 FMFlag=      100000 FMFlg1=           0
         NFxFlg=           0 DoJE=T BraDBF=F KetDBF=T FulRan=T
         wScrn=  0.000000 ICntrl=       500 IOpCl=  0 I1Cent=   200000004 NGrid=           0
         NMat0=    1 NMatS0=      1 NMatT0=    0 NMatD0=    1 NMtDS0=    0 NMtDT0=    0
 Symmetry not used in FoFCou.
 Requested convergence on RMS density matrix=1.00D-08 within 500 cycles.
 Requested convergence on MAX density matrix=1.00D-06.
 Requested convergence on             energy=1.00D-06.
 No special actions if energy rises.
 Integral accuracy reduced to 1.0D-05 until final iterations.
 Initial convergence to 1.0D-05 achieved.  Increase integral accuracy.
 SCF Done:  E(UB2PLYPD3) =  -345.583723757     A.U. after   20 cycles
            NFock= 20  Conv=0.60D-08     -V/T= 2.0043
 <Sx>= 0.0000 <Sy>= 0.0000 <Sz>= 0.5000 <S**2>= 0.8035 S= 0.5264
 <L.S>=  0.00000000000    
 Annihilation of the first spin contaminant:
 S**2 before annihilation     0.8035,   after     0.7517
 DoSCS=T DFT=T ScalE2(SS,OS)=  0.270000  0.270000
 ExpMin= 1.03D-01 ExpMax= 1.53D+04 ExpMxC= 5.22D+02 IAcc=3 IRadAn=         5 AccDes= 0.00D+00
 HarFok:  IExCor=  205 AccDes= 0.00D+00 IRadAn=         5 IDoV=-2 UseB2=F ITyADJ=14
 ICtDFT= 12500011 ScaDFX=  1.000000  1.000000  1.000000  1.000000
 Range of M.O.s used for correlation:     8   336
 NBasis=   336 NAE=    28 NBE=    27 NFC=     7 NFV=     0
 NROrb=    329 NOA=    21 NOB=    20 NVA=   308 NVB=   309

 **** Warning!!: The largest alpha MO coefficient is  0.13035912D+02


 **** Warning!!: The largest beta MO coefficient is  0.12717730D+02

 DoSCS=T DFT=T ScalE2(SS,OS)=  0.270000  0.270000
 Disk-based method using ON**2 memory for 21 occupieds at a time.
 Estimated scratch disk usage=  1913458664 words.
 Actual    scratch disk usage=  1753901032 words.
 JobTyp=2 Pass  1:  I=   8 to  28 NPSUse= 40 ParTrn=T ParDer=T DoDerP=T.
 (rs|ai) integrals will be sorted in core.
 Actual    scratch disk usage=  1753901032 words.
 JobTyp=3 Pass  1:  I=   8 to  27 NPSUse= 40 ParTrn=T ParDer=T DoDerP=T.
 (rs|ai) integrals will be sorted in core.
 Spin components of T(2) and E(2):
     alpha-alpha T2 =       0.7644520543D-01 E2=     -0.5299820036D-01
     alpha-beta  T2 =       0.4654134077D+00 E2=     -0.3242328852D+00
     beta-beta   T2 =       0.8052492365D-01 E2=     -0.5149231203D-01
 (S**2,0)=  0.80354D+00           (S**2,1)=  0.76553D+00
 Scaling Projection term by:   0.270000
 E(PUHF)=      -0.34559107551D+03        E(PMP2)=      -0.34601374080D+03
 E2(B2PLYPD3) =    -0.4287233976D+00 E(B2PLYPD3) =    -0.34601244715413D+03
          IDoAtm=1111111111111111
          Differentiating once with respect to electric field.
                with respect to dipole field.
          Differentiating once with respect to nuclear coordinates.
 Keep R1 and R2 ints in memory in canonical form, NReq=3251777228.
          There are     1 degrees of freedom in the 1st order CPHF.  IDoFFX=0 NUNeed=     1.
 LinEq1:  Iter=  0 NonCon=     1 RMS=9.78D-04 Max=7.41D-02 NDo=     1
 AX will form     1 AO Fock derivatives at one time.
 LinEq1:  Iter=  1 NonCon=     1 RMS=3.54D-04 Max=2.16D-02 NDo=     1
 LinEq1:  Iter=  2 NonCon=     1 RMS=2.53D-04 Max=1.79D-02 NDo=     1
 LinEq1:  Iter=  3 NonCon=     1 RMS=1.32D-04 Max=7.71D-03 NDo=     1
 LinEq1:  Iter=  4 NonCon=     1 RMS=8.77D-05 Max=5.00D-03 NDo=     1
 LinEq1:  Iter=  5 NonCon=     1 RMS=3.29D-05 Max=1.12D-03 NDo=     1
 LinEq1:  Iter=  6 NonCon=     1 RMS=2.45D-05 Max=9.03D-04 NDo=     1
 LinEq1:  Iter=  7 NonCon=     1 RMS=1.15D-05 Max=4.84D-04 NDo=     1
 LinEq1:  Iter=  8 NonCon=     1 RMS=9.66D-06 Max=3.46D-04 NDo=     1
 LinEq1:  Iter=  9 NonCon=     1 RMS=3.71D-06 Max=1.71D-04 NDo=     1
 LinEq1:  Iter= 10 NonCon=     1 RMS=1.28D-06 Max=5.42D-05 NDo=     1
 LinEq1:  Iter= 11 NonCon=     1 RMS=9.42D-07 Max=4.27D-05 NDo=     1
 LinEq1:  Iter= 12 NonCon=     1 RMS=3.45D-07 Max=9.71D-06 NDo=     1
 LinEq1:  Iter= 13 NonCon=     1 RMS=1.21D-07 Max=3.06D-06 NDo=     1
 LinEq1:  Iter= 14 NonCon=     1 RMS=4.12D-08 Max=6.50D-07 NDo=     1
 LinEq1:  Iter= 15 NonCon=     1 RMS=1.71D-08 Max=3.64D-07 NDo=     1
 LinEq1:  Iter= 16 NonCon=     1 RMS=7.06D-09 Max=1.71D-07 NDo=     1
 LinEq1:  Iter= 17 NonCon=     1 RMS=2.96D-09 Max=6.59D-08 NDo=     1
 LinEq1:  Iter= 18 NonCon=     1 RMS=1.00D-09 Max=2.33D-08 NDo=     1
 LinEq1:  Iter= 19 NonCon=     1 RMS=3.52D-10 Max=1.03D-08 NDo=     1
 LinEq1:  Iter= 20 NonCon=     1 RMS=1.71D-10 Max=3.93D-09 NDo=     1
 LinEq1:  Iter= 21 NonCon=     1 RMS=6.12D-11 Max=1.98D-09 NDo=     1
 LinEq1:  Iter= 22 NonCon=     0 RMS=1.95D-11 Max=9.01D-10 NDo=     1
 Linear equations converged to 1.000D-10 1.000D-09 after    22 iterations.
 End of Minotr F.D. properties file   721 does not exist.
 End of Minotr F.D. properties file   722 does not exist.
 End of Minotr F.D. properties file   788 does not exist.
 Calling FoFJK, ICntrl=  10002127 FMM=F ISym2X=0 I1Cent= 0 IOpClX= 1 NMat=1 NMatS=1 NMatT=0.
 -------------------------------------------------------------------
 Center     Atomic                   Forces (Hartrees/Bohr)
 Number     Number              X              Y              Z
 -------------------------------------------------------------------
      1        6           0.000065180   -0.000416535    0.000243341
      2        6          -0.000118368    0.000192878    0.000349737
      3        1           0.000055514   -0.000043363    0.000082902
      4        1          -0.000232396    0.000259520   -0.000501973
      5        6           0.000390726   -0.000023093    0.000320227
      6        1           0.000223039   -0.000017279    0.000137658
      7        1           0.000048811   -0.000035666   -0.000034717
      8        1          -0.000040822   -0.000051868    0.000018221
      9        8          -0.000259975   -0.000013106    0.000136369
     10        8           0.000125555   -0.000130504    0.000022318
     11        1          -0.000206115    0.000286153   -0.000579770
     12        6          -0.000059783    0.000000743   -0.000207662
     13        6          -0.000009922    0.000021025    0.000037918
     14        1           0.000014240   -0.000004942   -0.000019143
[...]
    15  H    0.000000  -0.000000  -0.000001  -0.000000   0.000002  -0.045871
    16  H    0.000005  -0.000002  -0.000075   0.000008  -0.000025  -0.051574
              13         14         15         16
     1  C    0.002517   0.001133  -0.000486   0.000683
     2  C   -0.063406  -0.042006   0.006903  -0.002717
     3  H    0.000112   0.003040  -0.000023   0.000041
     4  H   -0.003426   0.004354  -0.000216   0.003555
     5  C    0.000020  -0.000004  -0.000000   0.000021
     6  H    0.000040  -0.000003   0.000002   0.000017
     7  H    0.000010  -0.000001   0.000000   0.000005
     8  H   -0.000003   0.000001  -0.000000  -0.000002
     9  O   -0.000106   0.000002  -0.000001  -0.000075
    10  O    0.000025   0.000005  -0.000000   0.000008
    11  H   -0.000205  -0.000035   0.000002  -0.000025
    12  C    0.599633   0.413676  -0.045871  -0.051574
    13  C    4.969779  -0.040476   0.420908   0.415829
    14  H   -0.040476   0.529106  -0.007702   0.005902
    15  H    0.420908  -0.007702   0.528461  -0.033491
    16  H    0.415829   0.005902  -0.033491   0.534723
          Atomic-Atomic Spin Densities.
               1          2          3          4          5          6
     1  C    0.950530  -0.034464   0.005491  -0.003971   0.000438  -0.003441
     2  C   -0.034464  -0.193949  -0.004555   0.006717  -0.000050  -0.000071
     3  H    0.005491  -0.004555   0.019601   0.000866  -0.000021   0.000307
     4  H   -0.003971   0.006717   0.000866   0.028419  -0.000341   0.000961
     5  C    0.000438  -0.000050  -0.000021  -0.000341  -0.003384   0.003849
     6  H   -0.003441  -0.000071   0.000307   0.000961   0.003849  -0.000432
     7  H    0.000127  -0.000030  -0.000004  -0.000079   0.000268  -0.000633
     8  H    0.000935  -0.000083  -0.000046  -0.000149  -0.001937  -0.000411
     9  O    0.010845  -0.000817  -0.000375  -0.003632  -0.000192  -0.000439
    10  O   -0.080164   0.004361   0.003268   0.002335  -0.001336   0.002690
    11  H    0.041101   0.000510  -0.000615   0.000543   0.000684  -0.002690
    12  C   -0.021309   0.025649  -0.002309  -0.007122   0.000058  -0.000106
    13  C    0.003251   0.002471   0.000442   0.002070  -0.000002   0.000015
    14  H    0.002119  -0.000036   0.000741   0.000226  -0.000001   0.000010
    15  H   -0.000239   0.000399  -0.000026  -0.000117   0.000000  -0.000001
    16  H    0.000226  -0.000103   0.000026   0.000561  -0.000002   0.000008
               7          8          9         10         11         12
     1  C    0.000127   0.000935   0.010845  -0.080164   0.041101  -0.021309
     2  C   -0.000030  -0.000083  -0.000817   0.004361   0.000510   0.025649
     3  H   -0.000004  -0.000046  -0.000375   0.003268  -0.000615  -0.002309
     4  H   -0.000079  -0.000149  -0.003632   0.002335   0.000543  -0.007122
     5  C    0.000268  -0.001937  -0.000192  -0.001336   0.000684   0.000058
     6  H   -0.000633  -0.000411  -0.000439   0.002690  -0.002690  -0.000106
     7  H   -0.001101   0.000846   0.000156  -0.000172   0.000089   0.000006
     8  H    0.000846   0.001835  -0.000242  -0.000395   0.001058   0.000007
     9  O    0.000156  -0.000242   0.034320  -0.029934   0.007554   0.000115
    10  O   -0.000172  -0.000395  -0.029934   0.432418  -0.025749  -0.000257
    11  H    0.000089   0.001058   0.007554  -0.025749  -0.093441  -0.000018
    12  C    0.000006   0.000007   0.000115  -0.000257  -0.000018   0.157767
    13  C   -0.000002  -0.000000  -0.000009   0.000017  -0.000076  -0.006817
    14  H   -0.000000  -0.000000  -0.000007   0.000020  -0.000037  -0.002185
    15  H    0.000000   0.000000   0.000001  -0.000000   0.000001   0.001853
    16  H   -0.000001  -0.000000  -0.000011   0.000006  -0.000013  -0.000987
              13         14         15         16
     1  C    0.003251   0.002119  -0.000239   0.000226
     2  C    0.002471  -0.000036   0.000399  -0.000103
     3  H    0.000442   0.000741  -0.000026   0.000026
     4  H    0.002070   0.000226  -0.000117   0.000561
     5  C   -0.000002  -0.000001   0.000000  -0.000002
     6  H    0.000015   0.000010  -0.000001   0.000008
     7  H   -0.000002  -0.000000   0.000000  -0.000001
     8  H   -0.000000  -0.000000   0.000000  -0.000000
     9  O   -0.000009  -0.000007   0.000001  -0.000011
    10  O    0.000017   0.000020  -0.000000   0.000006
    11  H   -0.000076  -0.000037   0.000001  -0.000013
    12  C   -0.006817  -0.002185   0.001853  -0.000987
    13  C   -0.131706   0.002379  -0.004021  -0.000497
    14  H    0.002379  -0.008165  -0.000429   0.000068
    15  H   -0.004021  -0.000429   0.012582  -0.001441
    16  H   -0.000497   0.000068  -0.001441   0.007654
 Mulliken charges and spin densities:
               1          2
     1  C   -0.277417   0.871474
     2  C   -0.079640  -0.194050
     3  H    0.156642   0.022793
     4  H    0.167942   0.027286
     5  C   -0.068136  -0.001967
     6  H    0.075632  -0.000383
     7  H    0.095279  -0.000529
     8  H    0.099881   0.001417
     9  O   -0.194839   0.017334
    10  O   -0.228978   0.307107
    11  H    0.228759  -0.071098
    12  C   -0.065497   0.144343
    13  C   -0.301250  -0.132485
    14  H    0.133009  -0.005297
    15  H    0.131515   0.008561
    16  H    0.127101   0.005493
 Sum of Mulliken charges =  -0.00000   1.00000
 Mulliken charges and spin densities with hydrogens summed into heavy atoms:
               1          2
     1  C   -0.120775   0.894267
     2  C    0.088302  -0.166764
     5  C    0.202655  -0.001461
     9  O   -0.194839   0.017334
    10  O   -0.000220   0.236009
    12  C    0.067512   0.139047
    13  C   -0.042635  -0.118431
 Electronic spatial extent (au):  <R**2>=           1294.0059
 Charge=             -0.0000 electrons
 Dipole moment (field-independent basis, Debye):
    X=             -1.6127    Y=              1.6755    Z=             -1.7188  Tot=              2.8918
 Quadrupole moment (field-independent basis, Debye-Ang):
   XX=            -40.7121   YY=            -44.0715   ZZ=            -45.1065
   XY=              4.2543   XZ=             -1.3089   YZ=              5.5053
 Traceless Quadrupole moment (field-independent basis, Debye-Ang):
   XX=              2.5846   YY=             -0.7748   ZZ=             -1.8098
   XY=              4.2543   XZ=             -1.3089   YZ=              5.5053
 Octapole moment (field-independent basis, Debye-Ang**2):
  XXX=             16.4707  YYY=             45.9595  ZZZ=            -38.6222  XYY=              1.9519
  XXY=             31.6741  XXZ=            -19.9922  XZZ=              3.1068  YZZ=             16.0460
  YYZ=            -16.4949  XYZ=             -1.3367
 Hexadecapole moment (field-independent basis, Debye-Ang**3):
 XXXX=          -1156.4734 YYYY=           -319.1544 ZZZZ=           -151.8967 XXXY=             64.8536
 XXXZ=            -34.5735 YYYX=             84.7433 YYYZ=             10.9116 ZZZX=            -51.0523
 ZZZY=             -0.0796 XXYY=           -267.1669 XXZZ=           -241.4156 YYZZ=            -72.5916
 XXYZ=             17.4223 YYXZ=            -17.7283 ZZXY=             29.6737
 N-N= 2.794170204616D+02 E-N=-1.367352369336D+03  KE= 3.441045638171D+02
                          Isotropic Fermi Contact Couplings
        Atom                 a.u.       MegaHertz       Gauss      10(-4) cm-1
     1  C(13)              0.19907     223.79102      79.85420      74.64865
     2  C(13)              0.01306      14.68473       5.23988       4.89830
     3  H(1)               0.01376      61.48942      21.94096      20.51066
     4  H(1)               0.01398      62.49182      22.29864      20.84503
     5  C(13)             -0.00261      -2.93130      -1.04596      -0.97778
     6  H(1)               0.00198       8.85349       3.15915       2.95321
     7  H(1)              -0.00003      -0.14835      -0.05293      -0.04948
     8  H(1)               0.00038       1.70867       0.60969       0.56995
     9  O(17)              0.01285      -7.79045      -2.77983      -2.59861
    10  O(17)              0.01875     -11.36867      -4.05663      -3.79218
    11  H(1)              -0.02617    -116.97255     -41.73871     -39.01784
    12  C(13)              0.04347      48.86978      17.43795      16.30120
    13  C(13)              0.01206      13.55653       4.83731       4.52197
    14  H(1)               0.00064       2.86554       1.02250       0.95584
    15  H(1)              -0.00056      -2.51491      -0.89738      -0.83888
    16  H(1)              -0.00157      -7.03189      -2.50915      -2.34558
 --------------------------------------------------------
       Center         ----  Spin Dipole Couplings  ----
                      3XX-RR        3YY-RR        3ZZ-RR
 --------------------------------------------------------
     1   Atom        0.609511     -0.361694     -0.247817
     2   Atom        0.011551      0.007860     -0.019411
     3   Atom       -0.010594      0.002116      0.008478
     4   Atom       -0.007261      0.004529      0.002732
     5   Atom       -0.001469      0.004044     -0.002575
     6   Atom       -0.001111      0.004375     -0.003264
     7   Atom       -0.000838      0.003899     -0.003061
     8   Atom        0.002491      0.000728     -0.003219
     9   Atom        0.227858     -0.180303     -0.047554
    10   Atom        1.045015     -0.632266     -0.412749
    11   Atom        0.173104     -0.116969     -0.056136
    12   Atom        0.070992     -0.026174     -0.044818
    13   Atom       -0.020664      0.014140      0.006524
    14   Atom        0.008741     -0.003564     -0.005177
    15   Atom        0.005837     -0.002572     -0.003265
    16   Atom       -0.001590     -0.000033      0.001623
 --------------------------------------------------------
                        XY            XZ            YZ
 --------------------------------------------------------
     1   Atom       -0.199295      0.396604     -0.055025
     2   Atom       -0.032232     -0.014202      0.007805
     3   Atom       -0.005877      0.014938      0.045784
     4   Atom       -0.002682     -0.001170      0.014161
     5   Atom        0.006269      0.001069     -0.001417
     6   Atom        0.004615     -0.000406     -0.004218
     7   Atom        0.003150      0.000563      0.000440
     8   Atom        0.005325     -0.001688     -0.001540
     9   Atom        0.007249      0.212102     -0.030767
    10   Atom       -0.387621      0.734063     -0.155359
    11   Atom       -0.011998      0.137761     -0.004252
    12   Atom       -0.069586      0.032606      0.043814
    13   Atom        0.019336     -0.029783     -0.040117
    14   Atom       -0.006293      0.003355      0.001097
    15   Atom       -0.002613      0.001529     -0.002672
    16   Atom        0.001140      0.001477      0.002900
 --------------------------------------------------------


 ---------------------------------------------------------------------------------
              Anisotropic Spin Dipole Couplings in Principal Axis System
 ---------------------------------------------------------------------------------

       Atom             a.u.   MegaHertz   Gauss  10(-4) cm-1        Axes

              Baa    -0.4219   -56.612   -20.200   -18.884 -0.3783 -0.6536  0.6555
     1 C(13)  Bbb    -0.3793   -50.904   -18.164   -16.980 -0.1187  0.7365  0.6660
              Bcc     0.8012   107.515    38.364    35.863  0.9180 -0.1742  0.3562
 
              Baa    -0.0269    -3.605    -1.286    -1.202  0.5854  0.3827  0.7148
     2 C(13)  Bbb    -0.0189    -2.538    -0.906    -0.847 -0.3799 -0.6494  0.6588
              Bcc     0.0458     6.143     2.192     2.049  0.7163 -0.6572 -0.2347
 
              Baa    -0.0465   -24.821    -8.857    -8.279  0.3783  0.6583 -0.6508
     3 H(1)   Bbb    -0.0055    -2.915    -1.040    -0.972  0.9187 -0.3535  0.1764
              Bcc     0.0520    27.736     9.897     9.252  0.1139  0.6646  0.7385
 
              Baa    -0.0108    -5.789    -2.066    -1.931 -0.2834 -0.6759  0.6803
     4 H(1)   Bbb    -0.0073    -3.879    -1.384    -1.294  0.9529 -0.1185  0.2792
              Bcc     0.0181     9.668     3.450     3.225 -0.1081  0.7274  0.6776
 
              Baa    -0.0063    -0.847    -0.302    -0.283  0.7542 -0.5127 -0.4103
     5 C(13)  Bbb    -0.0019    -0.249    -0.089    -0.083  0.3738 -0.1785  0.9102
              Bcc     0.0082     1.096     0.391     0.366  0.5398  0.8398 -0.0571
 
              Baa    -0.0058    -3.121    -1.114    -1.041 -0.4249  0.5025  0.7530
     6 H(1)   Bbb    -0.0025    -1.318    -0.470    -0.440  0.7981 -0.1846  0.5735
              Bcc     0.0083     4.439     1.584     1.481  0.4272  0.8447 -0.3226
 
              Baa    -0.0032    -1.721    -0.614    -0.574 -0.3462  0.0954  0.9333
     7 H(1)   Bbb    -0.0023    -1.224    -0.437    -0.408  0.8243 -0.4441  0.3511
              Bcc     0.0055     2.945     1.051     0.982  0.4480  0.8909  0.0751
 
              Baa    -0.0038    -2.048    -0.731    -0.683 -0.4685  0.7194  0.5128
     8 H(1)   Bbb    -0.0037    -1.950    -0.696    -0.651  0.4750 -0.2843  0.8328
              Bcc     0.0075     3.998     1.427     1.334  0.7449  0.6338 -0.2085
 
              Baa    -0.2033    14.713     5.250     4.908 -0.2759  0.7995  0.5335
     9 O(17)  Bbb    -0.1398    10.118     3.610     3.375 -0.3907 -0.6004  0.6978
              Bcc     0.3432   -24.831    -8.860    -8.283  0.8782 -0.0159  0.4780
 
              Baa    -0.7230    52.314    18.667    17.450 -0.4106 -0.6366  0.6528
    10 O(17)  Bbb    -0.7120    51.518    18.383    17.184 -0.1103  0.7453  0.6575
              Bcc     1.4349  -103.831   -37.050   -34.634  0.9051 -0.1980  0.3762
 
              Baa    -0.1211   -64.634   -23.063   -21.560 -0.4128 -0.3166  0.8540
    11 H(1)   Bbb    -0.1170   -62.429   -22.276   -20.824 -0.1038  0.9479  0.3012
              Bcc     0.2381   127.063    45.339    42.384  0.9049 -0.0357  0.4241
 
              Baa    -0.1084   -14.550    -5.192    -4.853  0.3748  0.6625 -0.6485
    12 C(13)  Bbb     0.0006     0.080     0.029     0.027  0.2454  0.6037  0.7585
              Bcc     0.1078    14.470     5.163     4.827  0.8940 -0.4434  0.0637
 
              Baa    -0.0410    -5.495    -1.961    -1.833  0.7423  0.2042  0.6382
    13 C(13)  Bbb    -0.0237    -3.174    -1.132    -1.059 -0.5542  0.7224  0.4134
              Bcc     0.0646     8.669     3.093     2.892  0.3766  0.6606 -0.6494
 
              Baa    -0.0082    -4.382    -1.564    -1.462  0.3739  0.6599 -0.6517
    14 H(1)   Bbb    -0.0036    -1.922    -0.686    -0.641  0.1334  0.6571  0.7419
              Bcc     0.0118     6.304     2.249     2.103  0.9178 -0.3643  0.1577
 
              Baa    -0.0056    -3.013    -1.075    -1.005  0.0583  0.6827  0.7284
    15 H(1)   Bbb    -0.0014    -0.761    -0.272    -0.254  0.3747  0.6613 -0.6498
              Bcc     0.0071     3.774     1.347     1.259  0.9253 -0.3108  0.2172
 
              Baa    -0.0022    -1.189    -0.424    -0.397 -0.3152  0.8123 -0.4908
    16 H(1)   Bbb    -0.0022    -1.155    -0.412    -0.385  0.9011  0.0940 -0.4233
              Bcc     0.0044     2.344     0.836     0.782  0.2977  0.5757  0.7616
 

 ---------------------------------------------------------------------------------

 1\1\GINC-N138\Scan\UB2PLYPD3-FC\CC-pVTZ\C5H9O2(2)\ROOT\13-Jun-2019\0\\
 # opt=(calcfc,ts,noeigentest,maxcyc=500,modredundant) uB2PLYPD3/cc-pvt
 z scf=maxcyc=500 nosymm\\Title Card Required\\0,2\C,-0.5214266522,-1.4
 797453053,-0.4660464328\C,-1.1554651562,-0.5098195968,0.155838841\H,-0
 .7802869804,-2.1374417551,-1.282465104\H,-0.6494629456,0.0023673511,0.
 9708216717\C,2.4513601612,0.4780782641,0.3072861996\H,1.819821965,0.62
 48675375,-0.5700948018\H,2.5391766655,1.4092666245,0.8635363598\H,3.43
 58247535,0.1267799894,0.0037409001\O,1.8511797262,-0.4387632467,1.2118
 586402\O,1.7948344343,-1.6977276577,0.562415874\H,0.8159369477,-1.6892
 168325,0.0869097413\C,-2.5104589038,-0.0578345678,-0.1667094242\C,-3.1
 210959062,0.9286846253,0.4877873688\H,-3.016133777,-0.5662031717,-0.97
 77660023\H,-4.1215477268,1.240600593,0.2288139945\H,-2.6338476052,1.44
 73801486,1.3019541739\\Version=ES64L-G16RevB.01\HF=-345.5840639,-345.5
 839245,-345.5836035,-345.5831492,-345.5826537,-345.5822315,-345.581964
 1,-345.5818625,-345.5819403,-345.5821915,-345.5825436,-345.5828914,-34
 5.5831674,-345.5833447,-345.5834222,-345.5834127,-345.5833301,-345.583
 1931,-345.5830179,-345.5828351,-345.5826707,-345.5825393,-345.5824594,
 -345.5824348,-345.5824584,-345.5825186,-345.5825971,-345.5826814,-345.
 58277,-345.5828665,-345.5829842,-345.5831321,-345.58333,-345.5835789,-
 345.5838366,-345.5840232,-345.5840666\MP2=-346.0126459,-346.0125254,-3
 46.0121752,-346.0116401,-346.011005,-346.0103878,-346.0099175,-346.009
 6694,-346.0096663,-346.0098947,-346.0102584,-346.0106203,-346.0108976,
 -346.0110641,-346.011123,-346.0110903,-346.0109835,-346.010823,-346.01
 0628,-346.0104201,-346.0102213,-346.0100578,-346.0099556,-346.0099245,
 -346.0099584,-346.0100391,-346.0101412,-346.0102466,-346.010354,-346.0
 104795,-346.0106617,-346.0109463,-346.0113403,-346.0117965,-346.012225
 ,-346.012533,-346.0126462\PUHF=-345.5914098,-345.5912794,-345.5909889,
 -345.5905878,-345.5901588,-345.5898005,-345.5895682,-345.5894702,-345.
 5895243,-345.5897292,-345.5900377,-345.590356,-345.590611,-345.5907737
 ,-345.5908442,-345.5908341,-345.590759,-345.5906357,-345.5904813,-345.
 5903179,-345.5901692,-345.5900499,-345.5899782,-345.5899564,-345.58997
 89,-345.5900354,-345.5901096,-345.5901885,-345.5902705,-345.5903597,-3
 45.5904655,-345.5905969,-345.5907713,-345.5909908,-345.591217,-345.591
 3794,-345.5914127\PMP2-0=-346.0139387,-346.0138189,-346.013474,-346.01
 2949,-346.0123273,-346.0117235,-346.0112611,-346.0110149,-346.0110089,
 -346.0112305,-346.0115874,-346.0119439,-346.0122168,-346.0123795,-346.
 0124359,-346.012402,-346.0122955,-346.0121365,-346.0119446,-346.011739
 9,-346.0115441,-346.0113832,-346.0112832,-346.0112532,-346.0112874,-34
 6.0113681,-346.0114702,-346.0115757,-346.0116831,-346.0118085,-346.011
 9892,-346.0122703,-346.0126586,-346.0131071,-346.0135275,-346.0138291,
 -346.013939\S2=0.80353,0.803465,0.803627,0.80403,0.804626,0.805295,0.8
 05765,0.805983,0.806015,0.805896,0.805701,0.805485,0.80524,0.804992,0.
 804785,0.804625,0.804538,0.804515,0.804574,0.804667,0.804801,0.804944,
 0.805083,0.805184,0.805258,0.805324,0.805404,0.805504,0.805615,0.80570
 9,0.805713,0.805536,0.805182,0.804694,0.804196,0.803784,0.803526\S2-1=
 0.765539,0.765472,0.765514,0.765669,0.765924,0.76623,0.76646,0.766592,
 0.766673,0.766724,0.766718,0.766653,0.766537,0.766401,0.766273,0.76616
 1,0.766079,0.766023,0.766006,0.766016,0.766068,0.766137,0.766213,0.766
 275,0.766327,0.766381,0.766449,0.766535,0.766635,0.766727,0.766767,0.7
 66686,0.766493,0.766214,0.765932,0.765695,0.765535\S2A=0.751723,0.7517
 22,0.751733,0.751757,0.751792,0.751832,0.75186,0.751873,0.751872,0.751
 858,0.75184,0.751824,0.751808,0.751794,0.751784,0.751777,0.751775,0.75
 1777,0.751784,0.751791,0.7518,0.751809,0.751816,0.751821,0.751824,0.75
 1827,0.75183,0.751833,0.751837,0.75184,0.751837,0.751825,0.751806,0.75
 1781,0.751756,0.751735,0.751723\RMSD=5.329e-09,7.034e-09,4.949e-09,4.1
 43e-09,7.717e-09,4.767e-09,9.300e-09,9.516e-09,8.456e-09,3.848e-09,6.2
 27e-09,2.895e-09,6.773e-09,9.024e-09,4.626e-09,5.524e-09,7.033e-09,8.1
 78e-09,6.804e-09,9.370e-09,7.186e-09,6.741e-09,5.853e-09,6.608e-09,5.0
 45e-09,8.537e-09,6.768e-09,6.674e-09,5.211e-09,4.763e-09,5.164e-09,8.6
 49e-09,6.699e-09,7.498e-09,4.010e-09,4.714e-09,6.998e-09\PG=C01 [X(C5H
 9O2)]\\@


 IF YOU'RE NOT PART OF THE SOLUTION,
 THEN YOU'RE PART OF THE PRECIPITATE.
 Job cpu time:      15 days 17 hours 25 minutes 36.7 seconds.
 Elapsed time:       0 days 13 hours 57 minutes 18.4 seconds.
 File lengths (MBytes):  RWF=  83476 Int=      0 D2E=      0 Chk=     20 Scr=      1
 Normal termination of Gaussian 16 at Thu Jun 13 20:05:49 2019.
