 Entering Gaussian System, Link 0=g16
 Initial command:
 /ichec/packages/gaussian/16b01/l1.exe "/localscratch/339753/Gau-4169.inp" -scrdir="/localscratch/339753/"
 Entering Link 1 = /ichec/packages/gaussian/16b01/l1.exe PID=      4208.
  
 Copyright (c) 1988-2017, Gaussian, Inc.  All Rights Reserved.
  
 This is part of the Gaussian(R) 16 program.  It is based on
 the Gaussian(R) 09 system (copyright 2009, Gaussian, Inc.),
 the Gaussian(R) 03 system (copyright 2003, Gaussian, Inc.),
 the Gaussian(R) 98 system (copyright 1998, Gaussian, Inc.),
 the Gaussian(R) 94 system (copyright 1995, Gaussian, Inc.),
 the Gaussian 92(TM) system (copyright 1992, Gaussian, Inc.),
 the Gaussian 90(TM) system (copyright 1990, Gaussian, Inc.),
 the Gaussian 88(TM) system (copyright 1988, Gaussian, Inc.),
 the Gaussian 86(TM) system (copyright 1986, Carnegie Mellon
 University), and the Gaussian 82(TM) system (copyright 1983,
 Carnegie Mellon University). Gaussian is a federally registered
 trademark of Gaussian, Inc.
  
 This software contains proprietary and confidential information,
 including trade secrets, belonging to Gaussian, Inc.
  
 This software is provided under written license and may be
 used, copied, transmitted, or stored only in accord with that
 written license.
  
 The following legend is applicable only to US Government
 contracts under FAR:
  
                    RESTRICTED RIGHTS LEGEND
  
 Use, reproduction and disclosure by the US Government is
 subject to restrictions as set forth in subparagraphs (a)
 and (c) of the Commercial Computer Software - Restricted
 Rights clause in FAR 52.227-19.
  
 Gaussian, Inc.
 340 Quinnipiac St., Bldg. 40, Wallingford CT 06492
  
  
 ---------------------------------------------------------------
 Warning -- This program may not be used in any manner that
 competes with the business of Gaussian, Inc. or will provide
 assistance to any competitor of Gaussian, Inc.  The licensee
 of this program is prohibited from giving any competitor of
 Gaussian, Inc. access to this program.  By using this program,
 the user acknowledges that Gaussian, Inc. is engaged in the
 business of creating and licensing software in the field of
 computational chemistry and represents and warrants to the
 licensee that it is not a competitor of Gaussian, Inc. and that
 it will not use this program in any manner prohibited above.
 ---------------------------------------------------------------
  

 Cite this work as:
 Gaussian 16, Revision B.01,
 M. J. Frisch, G. W. Trucks, H. B. Schlegel, G. E. Scuseria, 
 M. A. Robb, J. R. Cheeseman, G. Scalmani, V. Barone, 
 G. A. Petersson, H. Nakatsuji, X. Li, M. Caricato, A. V. Marenich, 
 J. Bloino, B. G. Janesko, R. Gomperts, B. Mennucci, H. P. Hratchian, 
 J. V. Ortiz, A. F. Izmaylov, J. L. Sonnenberg, D. Williams-Young, 
 F. Ding, F. Lipparini, F. Egidi, J. Goings, B. Peng, A. Petrone, 
 T. Henderson, D. Ranasinghe, V. G. Zakrzewski, J. Gao, N. Rega, 
 G. Zheng, W. Liang, M. Hada, M. Ehara, K. Toyota, R. Fukuda, 
 J. Hasegawa, M. Ishida, T. Nakajima, Y. Honda, O. Kitao, H. Nakai, 
 T. Vreven, K. Throssell, J. A. Montgomery, Jr., J. E. Peralta, 
 F. Ogliaro, M. J. Bearpark, J. J. Heyd, E. N. Brothers, K. N. Kudin, 
 V. N. Staroverov, T. A. Keith, R. Kobayashi, J. Normand, 
 K. Raghavachari, A. P. Rendell, J. C. Burant, S. S. Iyengar, 
 J. Tomasi, M. Cossi, J. M. Millam, M. Klene, C. Adamo, R. Cammi, 
 J. W. Ochterski, R. L. Martin, K. Morokuma, O. Farkas, 
 J. B. Foresman, and D. J. Fox, Gaussian, Inc., Wallingford CT, 2016.
 
 ******************************************
 Gaussian 16:  ES64L-G16RevB.01 20-Dec-2017
                 4-Jun-2019 
 ******************************************
 %mem=80GB
 %nproc=40
 Will use up to   40 processors via shared memory.
 ----------------------------------------------------------------------
 # opt=(calcfc,ts,noeigentest,maxcyc=500) freq=noraman uB2PLYPD3/cc-pvt
 z
 ----------------------------------------------------------------------
 1/5=1,6=500,10=4,11=1,18=20,38=1/1,3;
 2/9=110,12=2,17=6,18=5,40=1/2;
 3/5=16,6=1,11=2,25=1,30=1,71=2,74=-60,116=2,140=1/1,2,3;
 4//1;
 5/5=2,38=5/2;
 8/6=3,8=1,10=1,19=11,30=-1/1;
 9/15=3,16=-3/6;
 11/6=1,8=1,15=11,17=12,24=-1,27=1,28=-2,29=300,32=6,42=3/1,2,10;
 10/6=2,21=1/2;
 8/6=4,8=1,10=1,19=11,30=-1/11,4;
 10/5=1,20=4/2;
 11/12=2,14=11,16=1,17=2,28=-2,42=3,76=2/2,10,12;
 6/7=2,8=2,9=2,10=2/1;
 7/10=1,12=2,25=1,44=2/1,2,3,16;
 1/5=1,6=500,10=4,11=1,18=20/3(2);
 2/9=110/2;
 99//99;
 2/9=110/2;
 3/5=16,6=1,11=2,25=1,30=1,71=1,74=-60,116=2/1,2,3;
 4/5=5,16=3,69=1/1;
 5/5=2,38=5/2;
 8/6=4,10=1/1;
 9/15=2,16=-3/6;
 10/5=1/2;
 7/12=2/1,2,3,16;
 1/5=1,6=500,11=1,18=20/3(-8);
 2/9=110/2;
 6/7=2,8=2,9=2,10=2/1;
 99/9=10/99;
 -------------------
 Title Card Required
 -------------------
 Symbolic Z-matrix:
 Charge =  0 Multiplicity = 2
 C                    -1.97566   0.65332   0.07742 
 H                    -2.69141  -0.10592  -0.23498 
 H                    -1.97094   0.67287   1.16643 
 C                    -0.58433   0.36479  -0.47747 
 H                    -0.58907   0.34492  -1.56647 
 H                     0.13132   1.1242   -0.16526 
 C                     0.78402  -2.97349  -1.41156 
 H                    -0.15756  -2.76587  -1.92195 
 H                     1.5703   -3.15138  -2.14304 
 H                     0.67167  -3.84773  -0.77107 
 O                     1.22942  -1.85419  -0.67071 
 O                     0.22683  -1.63494   0.35905 
 H                    -0.15188  -0.62323   0.04866 
 C                    -2.50061   2.01649  -0.41022 
 C                    -2.90795   3.07428  -0.78862 
 H                    -3.26961   4.01345  -1.12459 
 

 GradGradGradGradGradGradGradGradGradGradGradGradGradGradGradGradGradGrad
 Berny optimization.
 Initialization pass.
                           ----------------------------
                           !    Initial Parameters    !
                           ! (Angstroms and Degrees)  !
 --------------------------                            --------------------------
 ! Name  Definition              Value          Derivative Info.                !
 --------------------------------------------------------------------------------
 ! R1    R(1,2)                  1.0892         calculate D2E/DX2 analytically  !
 ! R2    R(1,3)                  1.0892         calculate D2E/DX2 analytically  !
 ! R3    R(1,4)                  1.5254         calculate D2E/DX2 analytically  !
 ! R4    R(1,14)                 1.54           calculate D2E/DX2 analytically  !
 ! R5    R(4,5)                  1.0892         calculate D2E/DX2 analytically  !
 ! R6    R(4,6)                  1.0892         calculate D2E/DX2 analytically  !
 ! R7    R(4,13)                 1.2            calculate D2E/DX2 analytically  !
 ! R8    R(7,8)                  1.091          calculate D2E/DX2 analytically  !
 ! R9    R(7,9)                  1.0885         calculate D2E/DX2 analytically  !
 ! R10   R(7,10)                 1.0896         calculate D2E/DX2 analytically  !
 ! R11   R(7,11)                 1.4142         calculate D2E/DX2 analytically  !
 ! R12   R(11,12)                1.4538         calculate D2E/DX2 analytically  !
 ! R13   R(12,13)                1.124          calculate D2E/DX2 analytically  !
 ! R14   R(14,15)                1.195          calculate D2E/DX2 analytically  !
 ! R15   R(15,16)                1.061          calculate D2E/DX2 analytically  !
 ! A1    A(2,1,3)              107.5856         calculate D2E/DX2 analytically  !
 ! A2    A(2,1,4)              111.2962         calculate D2E/DX2 analytically  !
 ! A3    A(2,1,14)             107.5899         calculate D2E/DX2 analytically  !
 ! A4    A(3,1,4)              111.2932         calculate D2E/DX2 analytically  !
 ! A5    A(3,1,14)             107.589          calculate D2E/DX2 analytically  !
 ! A6    A(4,1,14)             111.2936         calculate D2E/DX2 analytically  !
 ! A7    A(1,4,5)              111.2949         calculate D2E/DX2 analytically  !
 ! A8    A(1,4,6)              111.2924         calculate D2E/DX2 analytically  !
 ! A9    A(1,4,13)             108.9617         calculate D2E/DX2 analytically  !
 ! A10   A(5,4,6)              107.5887         calculate D2E/DX2 analytically  !
 ! A11   A(5,4,13)             115.1459         calculate D2E/DX2 analytically  !
 ! A12   A(6,4,13)             102.2161         calculate D2E/DX2 analytically  !
 ! A13   A(8,7,9)              109.8854         calculate D2E/DX2 analytically  !
 ! A14   A(8,7,10)             109.7989         calculate D2E/DX2 analytically  !
 ! A15   A(8,7,11)             111.4858         calculate D2E/DX2 analytically  !
 ! A16   A(9,7,10)             109.7781         calculate D2E/DX2 analytically  !
 ! A17   A(9,7,11)             104.7067         calculate D2E/DX2 analytically  !
 ! A18   A(10,7,11)            111.0739         calculate D2E/DX2 analytically  !
 ! A19   A(7,11,12)            105.8563         calculate D2E/DX2 analytically  !
 ! A20   A(11,12,13)            99.9337         calculate D2E/DX2 analytically  !
 ! A21   L(4,13,12,8,-1)       169.6149         calculate D2E/DX2 analytically  !
 ! A22   L(1,14,15,6,-1)       180.0            calculate D2E/DX2 analytically  !
 ! A23   L(14,15,16,6,-1)      180.0            calculate D2E/DX2 analytically  !
 ! A24   L(4,13,12,8,-2)       179.7246         calculate D2E/DX2 analytically  !
 ! A25   L(1,14,15,6,-2)       180.0            calculate D2E/DX2 analytically  !
 ! A26   L(14,15,16,6,-2)      180.0            calculate D2E/DX2 analytically  !
 ! D1    D(2,1,4,5)             59.9852         calculate D2E/DX2 analytically  !
 ! D2    D(2,1,4,6)            179.9849         calculate D2E/DX2 analytically  !
 ! D3    D(2,1,4,13)           -68.0504         calculate D2E/DX2 analytically  !
 ! D4    D(3,1,4,5)            179.9824         calculate D2E/DX2 analytically  !
 ! D5    D(3,1,4,6)            -60.0179         calculate D2E/DX2 analytically  !
 ! D6    D(3,1,4,13)            51.9468         calculate D2E/DX2 analytically  !
 ! D7    D(14,1,4,5)           -60.0178         calculate D2E/DX2 analytically  !
 ! D8    D(14,1,4,6)            59.9819         calculate D2E/DX2 analytically  !
 ! D9    D(14,1,4,13)          171.9466         calculate D2E/DX2 analytically  !
 ! D10   D(1,4,12,11)          160.1133         calculate D2E/DX2 analytically  !
 ! D11   D(5,4,12,11)           36.561          calculate D2E/DX2 analytically  !
 ! D12   D(6,4,12,11)          -79.3961         calculate D2E/DX2 analytically  !
 ! D13   D(8,7,11,12)           63.9852         calculate D2E/DX2 analytically  !
 ! D14   D(9,7,11,12)         -177.2485         calculate D2E/DX2 analytically  !
 ! D15   D(10,7,11,12)         -58.8202         calculate D2E/DX2 analytically  !
 ! D16   D(7,11,12,13)        -115.9407         calculate D2E/DX2 analytically  !
 --------------------------------------------------------------------------------
 Trust Radius=3.00D-01 FncErr=1.00D-07 GrdErr=1.00D-07 EigMax=2.50D+02 EigMin=1.00D-04
 Number of steps in this run=    100 maximum allowed number of steps=    100.
 Search for a saddle point of order  1.
 GradGradGradGradGradGradGradGradGradGradGradGradGradGradGradGradGradGrad

                          Input orientation:                          
 ---------------------------------------------------------------------
 Center     Atomic      Atomic             Coordinates (Angstroms)
 Number     Number       Type             X           Y           Z
 ---------------------------------------------------------------------
      1          6           0       -1.975662    0.653319    0.077422
      2          1           0       -2.691414   -0.105917   -0.234977
      3          1           0       -1.970941    0.672871    1.166431
      4          6           0       -0.584325    0.364787   -0.477473
      5          1           0       -0.589075    0.344923   -1.566470
      6          1           0        0.131315    1.124200   -0.165256
      7          6           0        0.784023   -2.973491   -1.411563
      8          1           0       -0.157562   -2.765866   -1.921954
      9          1           0        1.570296   -3.151378   -2.143043
     10          1           0        0.671671   -3.847732   -0.771070
     11          8           0        1.229417   -1.854195   -0.670711
     12          8           0        0.226834   -1.634936    0.359049
     13          1           0       -0.151878   -0.623227    0.048662
     14          6           0       -2.500605    2.016490   -0.410224
     15          6           0       -2.907948    3.074276   -0.788624
     16          1           0       -3.269614    4.013448   -1.124593
 ---------------------------------------------------------------------
                    Distance matrix (angstroms):
                    1          2          3          4          5
     1  C    0.000000
     2  H    1.089190   0.000000
     3  H    1.089194   1.757707   0.000000
     4  C    1.525443   2.172600   2.172565   0.000000
     5  H    2.172582   2.529023   3.079910   1.089188   0.000000
     6  H    2.172550   3.079910   2.529144   1.089187   1.757735
     7  C    4.794443   4.656822   5.247078   3.726795   3.594616
     8  H    4.358190   4.042477   4.965015   3.474139   3.160631
     9  H    5.655086   5.574739   6.173965   4.447463   4.149631
    10  H    5.290347   5.059536   5.583292   4.405569   4.449775
    11  O    4.137615   4.315003   4.472521   2.872435   2.990889
    12  O    3.188481   3.347676   3.287560   2.314441   2.879787
    13  H    2.226339   2.607164   2.497653   1.200000   1.933160
    14  C    1.540000   2.138161   2.138153   2.530766   2.790159
    15  C    2.735000   3.235281   3.235269   3.582927   3.664912
    16  H    3.796000   4.253810   4.253798   4.576272   4.564933
                    6          7          8          9         10
     6  H    0.000000
     7  C    4.332479   0.000000
     8  H    4.278090   1.090958   0.000000
     9  H    4.925736   1.088545   1.784094   0.000000
    10  H    5.037768   1.089566   1.783983   1.781782   0.000000
    11  O    3.214366   1.414235   2.078573   1.991643   2.072521
    12  O    2.810134   2.288505   2.574827   3.219464   2.524186
    13  H    1.783104   2.920943   2.911059   3.763110   3.427481
    14  C    2.789838   6.057340   5.535893   6.803070   6.677024
    15  C    3.664492   7.112958   6.554107   7.787675   7.792828
    16  H    4.564471   8.082798   7.501983   8.706129   8.800957
                   11         12         13         14         15
    11  O    0.000000
    12  O    1.453841   0.000000
    13  H    1.985133   1.123974   0.000000
    14  C    5.381740   4.622079   3.563033   0.000000
    15  C    6.435955   5.772407   4.687056   1.195000   0.000000
    16  H    7.407868   6.806657   5.709252   2.256000   1.061000
                   16
    16  H    0.000000
 Stoichiometry    C5H9O2(2)
 Framework group  C1[X(C5H9O2)]
 Deg. of freedom    42
 Full point group                 C1      NOp   1
 Largest Abelian subgroup         C1      NOp   1
 Largest concise Abelian subgroup C1      NOp   1
                         Standard orientation:                         
 ---------------------------------------------------------------------
 Center     Atomic      Atomic             Coordinates (Angstroms)
 Number     Number       Type             X           Y           Z
 ---------------------------------------------------------------------
      1          6           0       -1.510506    0.548896    0.453945
      2          1           0       -1.297426    0.373339    1.507563
      3          1           0       -1.583894    1.625774    0.308030
      4          6           0       -0.432524   -0.058789   -0.438047
      5          1           0       -0.358901   -1.135618   -0.291931
      6          1           0       -0.645802    0.116574   -1.491654
      7          6           0        3.120970   -0.689949    0.491104
      8          1           0        2.430520   -1.158249    1.194072
      9          1           0        3.765312   -1.445881    0.045773
     10          1           0        3.727241    0.052838    1.008654
     11          8           0        2.434659   -0.113476   -0.602841
     12          8           0        1.613800    0.947482   -0.042295
     13          1           0        0.590789    0.548154   -0.281679
     14          6           0       -2.893638   -0.057020    0.151602
     15          6           0       -3.966913   -0.527194   -0.083008
     16          1           0       -4.919838   -0.944647   -0.291311
 ---------------------------------------------------------------------
 Rotational constants (GHZ):           8.8493275           0.7689099           0.7518803
 Standard basis: CC-pVTZ (5D, 7F)
 There are   380 symmetry adapted cartesian basis functions of A   symmetry.
 There are   336 symmetry adapted basis functions of A   symmetry.
   336 basis functions,   517 primitive gaussians,   380 cartesian basis functions
    28 alpha electrons       27 beta electrons
       nuclear repulsion energy       272.5265740718 Hartrees.
 NAtoms=   16 NActive=   16 NUniq=   16 SFac= 1.00D+00 NAtFMM=   60 NAOKFM=F Big=F
 Integral buffers will be    131072 words long.
 Raffenetti 2 integral format.
 Two-electron integral symmetry is turned on.
 Nuclear repulsion after empirical dispersion term =      272.5188767087 Hartrees.
 One-electron integrals computed using PRISM.
 NBasis=   336 RedAO= T EigKep=  4.37D-05  NBF=   336
 NBsUse=   336 1.00D-06 EigRej= -1.00D+00 NBFU=   336
 ExpMin= 1.03D-01 ExpMax= 1.53D+04 ExpMxC= 5.22D+02 IAcc=3 IRadAn=         5 AccDes= 0.00D+00
 Harris functional with IExCor=  419 and IRadAn=       5 diagonalized for initial guess.
 HarFok:  IExCor=  419 AccDes= 0.00D+00 IRadAn=         5 IDoV= 1 UseB2=F ITyADJ=14
 ICtDFT=  3500011 ScaDFX=  1.000000  1.000000  1.000000  1.000000
 FoFCou: FMM=F IPFlag=           0 FMFlag=      100000 FMFlg1=           0
         NFxFlg=           0 DoJE=T BraDBF=F KetDBF=T FulRan=T
         wScrn=  0.000000 ICntrl=       500 IOpCl=  0 I1Cent=   200000004 NGrid=           0
         NMat0=    1 NMatS0=      1 NMatT0=    0 NMatD0=    1 NMtDS0=    0 NMtDT0=    0
 Petite list used in FoFCou.
 Initial guess <Sx>= 0.0000 <Sy>= 0.0000 <Sz>= 0.5000 <S**2>= 0.7500 S= 0.5000
 Requested convergence on RMS density matrix=1.00D-08 within 128 cycles.
 Requested convergence on MAX density matrix=1.00D-06.
 Requested convergence on             energy=1.00D-06.
 No special actions if energy rises.
 Integral accuracy reduced to 1.0D-05 until final iterations.
 Initial convergence to 1.0D-05 achieved.  Increase integral accuracy.
 SCF Done:  E(UB2PLYPD3) =  -345.549959113     A.U. after   21 cycles
            NFock= 21  Conv=0.96D-08     -V/T= 2.0043
 <Sx>= 0.0000 <Sy>= 0.0000 <Sz>= 0.5000 <S**2>= 0.7649 S= 0.5074
 <L.S>=  0.00000000000    
 Annihilation of the first spin contaminant:
 S**2 before annihilation     0.7649,   after     0.7501
 DoSCS=T DFT=T ScalE2(SS,OS)=  0.270000  0.270000
 ExpMin= 1.03D-01 ExpMax= 1.53D+04 ExpMxC= 5.22D+02 IAcc=3 IRadAn=         5 AccDes= 0.00D+00
 HarFok:  IExCor=  205 AccDes= 0.00D+00 IRadAn=         5 IDoV=-2 UseB2=F ITyADJ=14
 ICtDFT= 12500011 ScaDFX=  1.000000  1.000000  1.000000  1.000000
 Range of M.O.s used for correlation:     8   336
 NBasis=   336 NAE=    28 NBE=    27 NFC=     7 NFV=     0
 NROrb=    329 NOA=    21 NOB=    20 NVA=   308 NVB=   309

 **** Warning!!: The largest alpha MO coefficient is  0.25952759D+02


 **** Warning!!: The largest beta MO coefficient is  0.25952658D+02

 DoSCS=T DFT=T ScalE2(SS,OS)=  0.270000  0.270000
 Disk-based method using ON**2 memory for 21 occupieds at a time.
 Permanent disk used for amplitudes=   106523802 words.
 Estimated scratch disk usage=  1838604600 words.
 Actual    scratch disk usage=  1778059576 words.
 JobTyp=2 Pass  1:  I=   8 to  28 NPSUse= 40 ParTrn=T ParDer=T DoDerP=T.
 (rs|ai) integrals will be sorted in core.
 Actual    scratch disk usage=  1778059576 words.
 JobTyp=3 Pass  1:  I=   8 to  27 NPSUse= 40 ParTrn=T ParDer=T DoDerP=T.
 (rs|ai) integrals will be sorted in core.
 Spin components of T(2) and E(2):
     alpha-alpha T2 =       0.7853146707D-01 E2=     -0.5334197455D-01
     alpha-beta  T2 =       0.4704050848D+00 E2=     -0.3269546642D+00
     beta-beta   T2 =       0.8370885027D-01 E2=     -0.5189444543D-01
 (S**2,0)=  0.76492D+00           (S**2,1)=  0.74354D+00
 Scaling Projection term by:   0.270000
 E(PUHF)=      -0.34555586321D+03        E(PMP2)=      -0.34598260797D+03
 E2(B2PLYPD3) =    -0.4321910841D+00 E(B2PLYPD3) =    -0.34598215019691D+03
 G2DrvN: will do    17 centers at a time, making    1 passes.
 Calling FoFCou, ICntrl=  3107 FMM=F I1Cent=   0 AccDes= 0.00D+00.
 End of G2Drv F.D. properties file   721 does not exist.
 End of G2Drv F.D. properties file   722 does not exist.
 End of G2Drv F.D. properties file   788 does not exist.
          IDoAtm=1111111111111111
          Differentiating once with respect to electric field.
                with respect to dipole field.
          Differentiating once with respect to nuclear coordinates.
 Keep R1 and R2 ints in memory in canonical form, NReq=3251642460.
          There are    51 degrees of freedom in the 1st order CPHF.  IDoFFX=6 NUNeed=    51.
     48 vectors produced by pass  0 Test12= 3.33D-14 1.96D-09 XBig12= 1.03D+02 4.02D+00.
 AX will form    48 AO Fock derivatives at one time.
     48 vectors produced by pass  1 Test12= 3.33D-14 1.96D-09 XBig12= 1.20D+01 6.41D-01.
     48 vectors produced by pass  2 Test12= 3.33D-14 1.96D-09 XBig12= 4.37D-01 8.21D-02.
     48 vectors produced by pass  3 Test12= 3.33D-14 1.96D-09 XBig12= 7.85D-03 9.50D-03.
     48 vectors produced by pass  4 Test12= 3.33D-14 1.96D-09 XBig12= 8.44D-05 9.51D-04.
     48 vectors produced by pass  5 Test12= 3.33D-14 1.96D-09 XBig12= 1.15D-06 1.06D-04.
     48 vectors produced by pass  6 Test12= 3.33D-14 1.96D-09 XBig12= 1.05D-08 1.11D-05.
     24 vectors produced by pass  7 Test12= 3.33D-14 1.96D-09 XBig12= 6.71D-11 7.04D-07.
      4 vectors produced by pass  8 Test12= 3.33D-14 1.96D-09 XBig12= 5.65D-13 6.13D-08.
      2 vectors produced by pass  9 Test12= 3.33D-14 1.96D-09 XBig12= 4.98D-15 7.80D-09.
 InvSVY:  IOpt=1 It=  1 EMax= 4.75D-15
 Solved reduced A of dimension   366 with    51 vectors.
 End of Minotr F.D. properties file   721 does not exist.
 End of Minotr F.D. properties file   722 does not exist.
 End of Minotr F.D. properties file   788 does not exist.
 MDV= 10737418240.
 DoSCS=T DFT=T ScalE2(SS,OS)=  0.270000  0.270000
 Form MO integral derivatives with frozen-active canonical formalism.
 Discarding MO integrals.
 Reordered first order wavefunction length =    428928697
 In DefCFB: NBatch=  1 ICI= 28 ICA=309 LFMax= 78
            Large arrays: LIAPS=  8665386240 LIARS=  1611002400 words.
 In DefCFB: NBatch=  1 ICI= 28 ICA=309 LFMax= 78
            Large arrays: LIAPS=  8665386240 LIARS=  1611002400 words.
 Semi-Direct transformation.
 ModeAB=           4 MOrb=            28 LenV=   10734120947
 LASXX=    503301435 LTotXX=   503301435 LenRXX=  1014543915
 LTotAB=   511242480 MaxLAS=   569136960 LenRXY=           0
 NonZer=  1517845350 LenScr=  2285697024 LnRSAI=   569136960
 LnScr1=   857054208 LExtra=           0 Total=   4726432107
 MaxDsk=          -1 SrtSym=           T ITran=            4
 JobTyp=1 Pass  1:  I=   1 to  28.
 (rs|ai) integrals will be sorted in core.
 ModeAB=           4 MOrb=            27 LenV=   10734120947
 LASXX=    486308502 LTotXX=   486308502 LenRXX=   901306008
 LTotAB=   414997506 MaxLAS=   548810640 LenRXY=           0
 NonZer=  1387614510 LenScr=  2089584640 LnRSAI=   548810640
 LnScr1=   826444800 LExtra=           0 Total=   4366146088
 MaxDsk=          -1 SrtSym=           T ITran=            4
 JobTyp=2 Pass  1:  I=   1 to  27.
 (rs|ai) integrals will be sorted in core.
 SymMOI:  orbitals are not symmetric.
 DoSCS=T DFT=T ScalE2(SS,OS)=  0.270000  0.270000
 Spin components of T(2) and E(2):
     alpha-alpha T2 =       0.7853146707D-01 E2=     -0.5334197455D-01
     alpha-beta  T2 =       0.4704050848D+00 E2=     -0.3269546642D+00
     beta-beta   T2 =       0.8370885027D-01 E2=     -0.5189444543D-01
 E2(B2PLYPD3) =    -0.4321910841D+00 E(B2PLYPD3) =    -0.34598215019691D+03
 (S**2,0)=  0.76492D+00           (S**2,1)=  0.74354D+00
 Scaling Projection term by:   0.270000
 E(PUHF)=      -0.34555586321D+03        E(PMP2)=      -0.34598260797D+03
          IDoAtm=1111111111111111
          Differentiating once with respect to electric field.
                with respect to dipole field.
          Differentiating once with respect to nuclear coordinates.
 Keep R1 and R2 ints in memory in canonical form, NReq=3251778068.
          There are     1 degrees of freedom in the 1st order CPHF.  IDoFFX=0 NUNeed=     1.
 LinEq1:  Iter=  0 NonCon=     1 RMS=8.39D-04 Max=5.19D-02 NDo=     1
 AX will form     1 AO Fock derivatives at one time.
 LinEq1:  Iter=  1 NonCon=     1 RMS=2.60D-04 Max=9.30D-03 NDo=     1
 LinEq1:  Iter=  2 NonCon=     1 RMS=1.61D-04 Max=9.03D-03 NDo=     1
 LinEq1:  Iter=  3 NonCon=     1 RMS=1.11D-04 Max=3.06D-03 NDo=     1
 LinEq1:  Iter=  4 NonCon=     1 RMS=6.36D-05 Max=3.74D-03 NDo=     1
 LinEq1:  Iter=  5 NonCon=     1 RMS=4.12D-05 Max=1.26D-03 NDo=     1
 LinEq1:  Iter=  6 NonCon=     1 RMS=2.03D-05 Max=6.83D-04 NDo=     1
 LinEq1:  Iter=  7 NonCon=     1 RMS=5.56D-06 Max=1.48D-04 NDo=     1
 LinEq1:  Iter=  8 NonCon=     1 RMS=2.98D-06 Max=6.20D-05 NDo=     1
 LinEq1:  Iter=  9 NonCon=     1 RMS=2.20D-06 Max=7.86D-05 NDo=     1
 LinEq1:  Iter= 10 NonCon=     1 RMS=1.17D-06 Max=4.66D-05 NDo=     1
 LinEq1:  Iter= 11 NonCon=     1 RMS=5.70D-07 Max=1.94D-05 NDo=     1
 LinEq1:  Iter= 12 NonCon=     1 RMS=2.42D-07 Max=7.64D-06 NDo=     1
 LinEq1:  Iter= 13 NonCon=     1 RMS=1.01D-07 Max=3.31D-06 NDo=     1
 LinEq1:  Iter= 14 NonCon=     1 RMS=4.33D-08 Max=8.35D-07 NDo=     1
 LinEq1:  Iter= 15 NonCon=     1 RMS=1.78D-08 Max=3.17D-07 NDo=     1
 LinEq1:  Iter= 16 NonCon=     1 RMS=6.34D-09 Max=1.23D-07 NDo=     1
 LinEq1:  Iter= 17 NonCon=     1 RMS=2.55D-09 Max=5.08D-08 NDo=     1
 LinEq1:  Iter= 18 NonCon=     1 RMS=9.99D-10 Max=2.04D-08 NDo=     1
 LinEq1:  Iter= 19 NonCon=     1 RMS=5.09D-10 Max=9.46D-09 NDo=     1
 LinEq1:  Iter= 20 NonCon=     1 RMS=2.04D-10 Max=4.96D-09 NDo=     1
 LinEq1:  Iter= 21 NonCon=     1 RMS=6.24D-11 Max=1.14D-09 NDo=     1
 LinEq1:  Iter= 22 NonCon=     0 RMS=1.71D-11 Max=3.63D-10 NDo=     1
 Linear equations converged to 1.000D-10 1.000D-09 after    22 iterations.
 End of Minotr F.D. properties file   721 does not exist.
 End of Minotr F.D. properties file   722 does not exist.
 End of Minotr F.D. properties file   788 does not exist.
 Symmetrizing basis deriv contribution to polar:
 IMax=3 JMax=2 DiffMx= 0.00D+00
 G2DrvN: will do    17 centers at a time, making    1 passes.
 Calling FoFCou, ICntrl=  3107 FMM=F I1Cent=   0 AccDes= 0.00D+00.
 End of G2Drv F.D. properties file   721 does not exist.
 End of G2Drv F.D. properties file   722 does not exist.
 End of G2Drv F.D. properties file   788 does not exist.
 DoSCS=T DFT=T ScalE2(SS,OS)=  0.270000  0.270000
 R2 and R3 integrals will be kept in memory, NReq=  5268037470.
 DD1Dir will call FoFMem   1 times, MxPair=      2242
 NAB=   756 NAA=   378 NBB=   351.
 Discarding MO integrals.

 **********************************************************************

            Population analysis using the SCF Density.

 **********************************************************************

 Orbital symmetries:
 Alpha Orbitals:
       Occupied  (A) (A) (A) (A) (A) (A) (A) (A) (A) (A) (A) (A)
                 (A) (A) (A) (A) (A) (A) (A) (A) (A) (A) (A) (A)
                 (A) (A) (A) (A)
       Virtual   (A) (A) (A) (A) (A) (A) (A) (A) (A) (A) (A) (A)
                 (A) (A) (A) (A) (A) (A) (A) (A) (A) (A) (A) (A)
                 (A) (A) (A) (A) (A) (A) (A) (A) (A) (A) (A) (A)
                 (A) (A) (A) (A) (A) (A) (A) (A) (A) (A) (A) (A)
                 (A) (A) (A) (A) (A) (A) (A) (A) (A) (A) (A) (A)
                 (A) (A) (A) (A) (A) (A) (A) (A) (A) (A) (A) (A)
                 (A) (A) (A) (A) (A) (A) (A) (A) (A) (A) (A) (A)
                 (A) (A) (A) (A) (A) (A) (A) (A) (A) (A) (A) (A)
                 (A) (A) (A) (A) (A) (A) (A) (A) (A) (A) (A) (A)
                 (A) (A) (A) (A) (A) (A) (A) (A) (A) (A) (A) (A)
                 (A) (A) (A) (A) (A) (A) (A) (A) (A) (A) (A) (A)
                 (A) (A) (A) (A) (A) (A) (A) (A) (A) (A) (A) (A)
                 (A) (A) (A) (A) (A) (A) (A) (A) (A) (A) (A) (A)
                 (A) (A) (A) (A) (A) (A) (A) (A) (A) (A) (A) (A)
                 (A) (A) (A) (A) (A) (A) (A) (A) (A) (A) (A) (A)
                 (A) (A) (A) (A) (A) (A) (A) (A) (A) (A) (A) (A)
                 (A) (A) (A) (A) (A) (A) (A) (A) (A) (A) (A) (A)
                 (A) (A) (A) (A) (A) (A) (A) (A) (A) (A) (A) (A)
                 (A) (A) (A) (A) (A) (A) (A) (A) (A) (A) (A) (A)
                 (A) (A) (A) (A) (A) (A) (A) (A) (A) (A) (A) (A)
                 (A) (A) (A) (A) (A) (A) (A) (A) (A) (A) (A) (A)
                 (A) (A) (A) (A) (A) (A) (A) (A) (A) (A) (A) (A)
                 (A) (A) (A) (A) (A) (A) (A) (A) (A) (A) (A) (A)
                 (A) (A) (A) (A) (A) (A) (A) (A) (A) (A) (A) (A)
                 (A) (A) (A) (A) (A) (A) (A) (A) (A) (A) (A) (A)
                 (A) (A) (A) (A) (A) (A) (A) (A)
 Beta  Orbitals:
       Occupied  (A) (A) (A) (A) (A) (A) (A) (A) (A) (A) (A) (A)
                 (A) (A) (A) (A) (A) (A) (A) (A) (A) (A) (A) (A)
                 (A) (A) (A)
       Virtual   (A) (A) (A) (A) (A) (A) (A) (A) (A) (A) (A) (A)
                 (A) (A) (A) (A) (A) (A) (A) (A) (A) (A) (A) (A)
                 (A) (A) (A) (A) (A) (A) (A) (A) (A) (A) (A) (A)
                 (A) (A) (A) (A) (A) (A) (A) (A) (A) (A) (A) (A)
                 (A) (A) (A) (A) (A) (A) (A) (A) (A) (A) (A) (A)
                 (A) (A) (A) (A) (A) (A) (A) (A) (A) (A) (A) (A)
                 (A) (A) (A) (A) (A) (A) (A) (A) (A) (A) (A) (A)
                 (A) (A) (A) (A) (A) (A) (A) (A) (A) (A) (A) (A)
                 (A) (A) (A) (A) (A) (A) (A) (A) (A) (A) (A) (A)
                 (A) (A) (A) (A) (A) (A) (A) (A) (A) (A) (A) (A)
                 (A) (A) (A) (A) (A) (A) (A) (A) (A) (A) (A) (A)
                 (A) (A) (A) (A) (A) (A) (A) (A) (A) (A) (A) (A)
                 (A) (A) (A) (A) (A) (A) (A) (A) (A) (A) (A) (A)
                 (A) (A) (A) (A) (A) (A) (A) (A) (A) (A) (A) (A)
                 (A) (A) (A) (A) (A) (A) (A) (A) (A) (A) (A) (A)
                 (A) (A) (A) (A) (A) (A) (A) (A) (A) (A) (A) (A)
                 (A) (A) (A) (A) (A) (A) (A) (A) (A) (A) (A) (A)
                 (A) (A) (A) (A) (A) (A) (A) (A) (A) (A) (A) (A)
                 (A) (A) (A) (A) (A) (A) (A) (A) (A) (A) (A) (A)
                 (A) (A) (A) (A) (A) (A) (A) (A) (A) (A) (A) (A)
                 (A) (A) (A) (A) (A) (A) (A) (A) (A) (A) (A) (A)
                 (A) (A) (A) (A) (A) (A) (A) (A) (A) (A) (A) (A)
                 (A) (A) (A) (A) (A) (A) (A) (A) (A) (A) (A) (A)
                 (A) (A) (A) (A) (A) (A) (A) (A) (A) (A) (A) (A)
                 (A) (A) (A) (A) (A) (A) (A) (A) (A) (A) (A) (A)
                 (A) (A) (A) (A) (A) (A) (A) (A) (A)
 The electronic state is 2-A.
 Alpha  occ. eigenvalues --  -19.80516 -19.79785 -10.66717 -10.65682 -10.63631
 Alpha  occ. eigenvalues --  -10.62570 -10.60852  -1.27529  -1.05135  -0.92245
 Alpha  occ. eigenvalues --   -0.85316  -0.78278  -0.75371  -0.63078  -0.61294
 Alpha  occ. eigenvalues --   -0.56563  -0.55308  -0.54273  -0.53526  -0.50770
 Alpha  occ. eigenvalues --   -0.47098  -0.44893  -0.44141  -0.40243  -0.37222
 Alpha  occ. eigenvalues --   -0.34011  -0.32908  -0.31738
 Alpha virt. eigenvalues --    0.07147   0.08491   0.10282   0.10376   0.10777
 Alpha virt. eigenvalues --    0.11388   0.12294   0.13188   0.15007   0.16386
 Alpha virt. eigenvalues --    0.17646   0.18820   0.22289   0.23813   0.27446
 Alpha virt. eigenvalues --    0.28159   0.30352   0.30937   0.32654   0.33869
 Alpha virt. eigenvalues --    0.34395   0.35572   0.38732   0.42899   0.43438
 Alpha virt. eigenvalues --    0.45340   0.46411   0.48813   0.49111   0.49977
 Alpha virt. eigenvalues --    0.50787   0.51400   0.51688   0.52174   0.53751
 Alpha virt. eigenvalues --    0.53946   0.54394   0.56251   0.58157   0.58991
 Alpha virt. eigenvalues --    0.60833   0.63284   0.65736   0.66971   0.67979
 Alpha virt. eigenvalues --    0.69085   0.71434   0.72484   0.75898   0.78581
 Alpha virt. eigenvalues --    0.79519   0.83527   0.85737   0.86283   0.87510
 Alpha virt. eigenvalues --    0.89494   0.91596   0.93824   0.94731   0.95983
 Alpha virt. eigenvalues --    0.97082   0.97466   1.01219   1.02308   1.03791
 Alpha virt. eigenvalues --    1.05256   1.05891   1.07576   1.11107   1.12379
 Alpha virt. eigenvalues --    1.14798   1.15340   1.15865   1.16519   1.18186
 Alpha virt. eigenvalues --    1.20432   1.21793   1.23346   1.25026   1.27601
 Alpha virt. eigenvalues --    1.29580   1.30462   1.32424   1.34241   1.35725
 Alpha virt. eigenvalues --    1.36004   1.37258   1.38576   1.39942   1.41465
 Alpha virt. eigenvalues --    1.44130   1.45704   1.47057   1.49659   1.53887
 Alpha virt. eigenvalues --    1.54809   1.58348   1.60656   1.60919   1.63197
 Alpha virt. eigenvalues --    1.63303   1.72698   1.73893   1.76527   1.82613
 Alpha virt. eigenvalues --    1.91042   1.98629   2.03745   2.04076   2.12398
 Alpha virt. eigenvalues --    2.13479   2.16934   2.18509   2.19257   2.21872
 Alpha virt. eigenvalues --    2.26040   2.35981   2.36342   2.40144   2.40583
 Alpha virt. eigenvalues --    2.42798   2.44834   2.46602   2.50843   2.52284
 Alpha virt. eigenvalues --    2.55865   2.57482   2.58105   2.61172   2.63184
 Alpha virt. eigenvalues --    2.63622   2.64476   2.66936   2.67722   2.68907
 Alpha virt. eigenvalues --    2.74065   2.76499   2.77837   2.82488   2.83273
 Alpha virt. eigenvalues --    2.86334   2.89170   2.89500   2.90085   2.91484
 Alpha virt. eigenvalues --    2.92639   2.95092   2.99230   3.01358   3.02681
 Alpha virt. eigenvalues --    3.03652   3.04866   3.04971   3.05750   3.06159
 Alpha virt. eigenvalues --    3.06888   3.08395   3.10415   3.11399   3.11776
 Alpha virt. eigenvalues --    3.14221   3.15467   3.15919   3.16783   3.18299
 Alpha virt. eigenvalues --    3.18682   3.19725   3.20302   3.22983   3.24860
 Alpha virt. eigenvalues --    3.25786   3.27369   3.31871   3.32965   3.35234
 Alpha virt. eigenvalues --    3.39583   3.41238   3.42671   3.45710   3.46818
 Alpha virt. eigenvalues --    3.48334   3.50067   3.50446   3.51291   3.53401
 Alpha virt. eigenvalues --    3.55369   3.57162   3.59684   3.60637   3.62400
 Alpha virt. eigenvalues --    3.64397   3.66869   3.71750   3.76184   3.76637
 Alpha virt. eigenvalues --    3.77120   3.82488   3.84003   3.85055   3.86129
 Alpha virt. eigenvalues --    3.88860   3.90414   3.91735   3.94244   3.95193
 Alpha virt. eigenvalues --    3.95861   3.96575   3.98322   3.99997   4.04618
 Alpha virt. eigenvalues --    4.06854   4.07537   4.11157   4.13522   4.14677
 Alpha virt. eigenvalues --    4.16309   4.17628   4.18149   4.18394   4.19331
 Alpha virt. eigenvalues --    4.23756   4.24209   4.25547   4.27858   4.30751
 Alpha virt. eigenvalues --    4.31519   4.35799   4.38170   4.38509   4.39498
 Alpha virt. eigenvalues --    4.41139   4.45123   4.47882   4.55121   4.57508
 Alpha virt. eigenvalues --    4.61546   4.65038   4.68689   4.71060   4.80128
 Alpha virt. eigenvalues --    4.81826   4.85678   4.87377   4.91511   4.93475
 Alpha virt. eigenvalues --    4.95893   4.99062   5.00801   5.04462   5.05464
 Alpha virt. eigenvalues --    5.05611   5.10635   5.11463   5.19525   5.23660
 Alpha virt. eigenvalues --    5.25682   5.26643   5.29438   5.30152   5.31947
 Alpha virt. eigenvalues --    5.32770   5.34613   5.37221   5.40905   5.43104
 Alpha virt. eigenvalues --    5.45982   5.48643   5.51032   5.54161   5.59919
 Alpha virt. eigenvalues --    5.60901   5.63952   5.73665   5.79588   5.86422
 Alpha virt. eigenvalues --    5.90895   5.94351   5.99661   6.01674   6.02699
 Alpha virt. eigenvalues --    6.07184   6.08359   6.09787   6.12008   6.20822
 Alpha virt. eigenvalues --    6.31483   6.33992   6.44355   6.56723   6.63029
 Alpha virt. eigenvalues --    6.71813   6.79935   6.86129   6.96683   7.01573
 Alpha virt. eigenvalues --    7.08730   7.18695   7.33770   7.41788   7.54938
 Alpha virt. eigenvalues --    7.83053   8.12722  10.00898  10.59126  12.78206
 Alpha virt. eigenvalues --   13.40566  13.43627  17.22752
  Beta  occ. eigenvalues --  -19.79768 -19.78446 -10.66716 -10.65718 -10.62489
  Beta  occ. eigenvalues --  -10.62407 -10.60811  -1.25222  -1.01516  -0.91199
  Beta  occ. eigenvalues --   -0.84362  -0.77946  -0.73027  -0.61264  -0.58438
  Beta  occ. eigenvalues --   -0.55276  -0.54713  -0.53934  -0.52560  -0.47702
  Beta  occ. eigenvalues --   -0.46230  -0.43942  -0.43571  -0.38644  -0.34830
  Beta  occ. eigenvalues --   -0.32849  -0.32693
  Beta virt. eigenvalues --   -0.05003   0.07286   0.08965   0.10393   0.10865
  Beta virt. eigenvalues --    0.11088   0.11627   0.12598   0.13350   0.15019
  Beta virt. eigenvalues --    0.16508   0.17878   0.19239   0.22715   0.24260
  Beta virt. eigenvalues --    0.27710   0.28384   0.30626   0.31038   0.32829
  Beta virt. eigenvalues --    0.34331   0.34505   0.35751   0.38948   0.43148
  Beta virt. eigenvalues --    0.43630   0.45470   0.46706   0.49023   0.49590
  Beta virt. eigenvalues --    0.50243   0.51023   0.51717   0.51928   0.52944
  Beta virt. eigenvalues --    0.53962   0.54611   0.54749   0.56913   0.59125
  Beta virt. eigenvalues --    0.60502   0.61316   0.63425   0.66227   0.67372
  Beta virt. eigenvalues --    0.68262   0.69731   0.71561   0.73149   0.76272
  Beta virt. eigenvalues --    0.79560   0.80102   0.83694   0.85858   0.86610
  Beta virt. eigenvalues --    0.87841   0.89691   0.91880   0.94029   0.94819
  Beta virt. eigenvalues --    0.96422   0.97408   0.97679   1.01456   1.02615
  Beta virt. eigenvalues --    1.03867   1.05358   1.06322   1.07898   1.11326
  Beta virt. eigenvalues --    1.12659   1.14913   1.15443   1.16182   1.16623
  Beta virt. eigenvalues --    1.18518   1.20691   1.21962   1.23480   1.25538
  Beta virt. eigenvalues --    1.27979   1.30518   1.30643   1.33009   1.34434
  Beta virt. eigenvalues --    1.35869   1.36282   1.37679   1.38618   1.40037
  Beta virt. eigenvalues --    1.41759   1.44814   1.45895   1.47561   1.50232
  Beta virt. eigenvalues --    1.54150   1.55170   1.58961   1.61016   1.61219
  Beta virt. eigenvalues --    1.63408   1.63762   1.73003   1.74317   1.76793
  Beta virt. eigenvalues --    1.82965   1.91672   1.99201   2.04974   2.06892
  Beta virt. eigenvalues --    2.12685   2.13618   2.17623   2.19323   2.20661
  Beta virt. eigenvalues --    2.22391   2.27131   2.36137   2.36543   2.40556
  Beta virt. eigenvalues --    2.41363   2.43508   2.45504   2.46820   2.51146
  Beta virt. eigenvalues --    2.52639   2.56504   2.57697   2.58296   2.61814
  Beta virt. eigenvalues --    2.63524   2.63838   2.64554   2.67486   2.67842
  Beta virt. eigenvalues --    2.69167   2.74415   2.76748   2.78521   2.82884
  Beta virt. eigenvalues --    2.83353   2.86748   2.89342   2.89593   2.90548
  Beta virt. eigenvalues --    2.91512   2.92922   2.95788   3.00092   3.01887
  Beta virt. eigenvalues --    3.03036   3.03977   3.05091   3.05379   3.05867
  Beta virt. eigenvalues --    3.06337   3.07022   3.08774   3.10826   3.11588
  Beta virt. eigenvalues --    3.12053   3.14383   3.15712   3.16118   3.16988
  Beta virt. eigenvalues --    3.18717   3.19127   3.19911   3.21181   3.23588
  Beta virt. eigenvalues --    3.25082   3.26424   3.27857   3.32521   3.33477
  Beta virt. eigenvalues --    3.35497   3.39852   3.41276   3.43007   3.46058
  Beta virt. eigenvalues --    3.46863   3.48811   3.50535   3.50864   3.52068
  Beta virt. eigenvalues --    3.53577   3.55663   3.57386   3.59915   3.60732
  Beta virt. eigenvalues --    3.62562   3.64894   3.67043   3.72011   3.76368
  Beta virt. eigenvalues --    3.76885   3.77544   3.82596   3.84196   3.85122
  Beta virt. eigenvalues --    3.86096   3.89056   3.90863   3.92039   3.94461
  Beta virt. eigenvalues --    3.95276   3.96023   3.96720   3.98521   4.00032
  Beta virt. eigenvalues --    4.04914   4.06950   4.07569   4.11500   4.13521
  Beta virt. eigenvalues --    4.14949   4.16470   4.17694   4.18267   4.18544
  Beta virt. eigenvalues --    4.19652   4.23951   4.24479   4.26310   4.28203
  Beta virt. eigenvalues --    4.30906   4.31729   4.35821   4.38341   4.38628
  Beta virt. eigenvalues --    4.39555   4.41656   4.45230   4.48084   4.55469
  Beta virt. eigenvalues --    4.58133   4.62082   4.65714   4.69131   4.72656
  Beta virt. eigenvalues --    4.80460   4.82317   4.86254   4.88124   4.92453
  Beta virt. eigenvalues --    4.93779   4.96197   4.99188   5.01061   5.04723
  Beta virt. eigenvalues --    5.05702   5.06073   5.10982   5.11970   5.20214
  Beta virt. eigenvalues --    5.24684   5.26006   5.26930   5.30000   5.30265
  Beta virt. eigenvalues --    5.32174   5.33081   5.35138   5.37352   5.41526
  Beta virt. eigenvalues --    5.43657   5.46247   5.49788   5.51506   5.54909
  Beta virt. eigenvalues --    5.60618   5.61302   5.64578   5.73820   5.80688
  Beta virt. eigenvalues --    5.87101   5.91087   5.94676   5.99816   6.01838
  Beta virt. eigenvalues --    6.03130   6.07713   6.08747   6.10406   6.12404
  Beta virt. eigenvalues --    6.21260   6.31540   6.34217   6.45450   6.59562
  Beta virt. eigenvalues --    6.65887   6.73176   6.82551   6.87874   6.98768
  Beta virt. eigenvalues --    7.02622   7.10005   7.21421   7.34892   7.43711
  Beta virt. eigenvalues --    7.58241   7.83662   8.12792  10.01253  10.61010
  Beta virt. eigenvalues --   12.78296  13.40612  13.44525  17.22801
          Condensed to atoms (all electrons):
               1          2          3          4          5          6
     1  C    4.861578   0.406751   0.420455   0.304858  -0.024093  -0.034450
     2  H    0.406751   0.566713  -0.032875  -0.032079  -0.006877   0.006919
     3  H    0.420455  -0.032875   0.561564  -0.031573   0.006719  -0.006013
     4  C    0.304858  -0.032079  -0.031573   5.125000   0.389271   0.394660
     5  H   -0.024093  -0.006877   0.006719   0.389271   0.562462  -0.034204
     6  H   -0.034450   0.006919  -0.006013   0.394660  -0.034204   0.564130
     7  C    0.000137   0.000022   0.000010  -0.004221   0.000083  -0.000043
     8  H   -0.000277   0.000072  -0.000008  -0.000025  -0.001393  -0.000015
     9  H   -0.000012   0.000009  -0.000003   0.000522  -0.000255   0.000046
    10  H    0.000088   0.000004  -0.000001  -0.000022   0.000126   0.000001
    11  O    0.001214  -0.000050  -0.000041   0.008013   0.002122   0.001388
    12  O    0.002220   0.001988   0.000798  -0.117075  -0.001589  -0.000789
    13  H   -0.008011  -0.002030   0.000563   0.258304  -0.001504  -0.011315
    14  C    0.318926  -0.032526  -0.041345  -0.044052  -0.006658   0.001687
    15  C   -0.093627   0.001514  -0.003443   0.001613  -0.000672   0.003683
    16  H    0.000381  -0.000017  -0.000087  -0.000075  -0.000029   0.000035
               7          8          9         10         11         12
     1  C    0.000137  -0.000277  -0.000012   0.000088   0.001214   0.002220
     2  H    0.000022   0.000072   0.000009   0.000004  -0.000050   0.001988
     3  H    0.000010  -0.000008  -0.000003  -0.000001  -0.000041   0.000798
     4  C   -0.004221  -0.000025   0.000522  -0.000022   0.008013  -0.117075
     5  H    0.000083  -0.001393  -0.000255   0.000126   0.002122  -0.001589
     6  H   -0.000043  -0.000015   0.000046   0.000001   0.001388  -0.000789
     7  C    4.573397   0.395677   0.397098   0.411995   0.302496  -0.038891
     8  H    0.395677   0.668585  -0.030473  -0.059555  -0.048269   0.001487
     9  H    0.397098  -0.030473   0.590236  -0.032565  -0.027064   0.006629
    10  H    0.411995  -0.059555  -0.032565   0.631701  -0.038416  -0.001161
    11  O    0.302496  -0.048269  -0.027064  -0.038416   7.934245   0.079056
    12  O   -0.038891   0.001487   0.006629  -0.001161   0.079056   8.068486
    13  H    0.004823   0.002877  -0.000953   0.000638  -0.026082   0.178471
    14  C   -0.000025   0.000121   0.000005  -0.000007  -0.000126   0.000777
    15  C   -0.000001   0.000010   0.000000  -0.000000  -0.000004   0.000027
    16  H   -0.000000   0.000000   0.000000  -0.000000  -0.000000   0.000000
              13         14         15         16
     1  C   -0.008011   0.318926  -0.093627   0.000381
     2  H   -0.002030  -0.032526   0.001514  -0.000017
     3  H    0.000563  -0.041345  -0.003443  -0.000087
     4  C    0.258304  -0.044052   0.001613  -0.000075
     5  H   -0.001504  -0.006658  -0.000672  -0.000029
     6  H   -0.011315   0.001687   0.003683   0.000035
     7  C    0.004823  -0.000025  -0.000001  -0.000000
     8  H    0.002877   0.000121   0.000010   0.000000
     9  H   -0.000953   0.000005   0.000000   0.000000
    10  H    0.000638  -0.000007  -0.000000  -0.000000
    11  O   -0.026082  -0.000126  -0.000004  -0.000000
    12  O    0.178471   0.000777   0.000027   0.000000
    13  H    0.414088  -0.000876  -0.000493  -0.000004
    14  C   -0.000876   5.119919   0.820776  -0.065558
    15  C   -0.000493   0.820776   5.068116   0.407068
    16  H   -0.000004  -0.065558   0.407068   0.487111
          Atomic-Atomic Spin Densities.
               1          2          3          4          5          6
     1  C   -0.048367   0.001243  -0.000192  -0.013759  -0.001432  -0.000679
     2  H    0.001243   0.003187   0.000719  -0.002128   0.000627   0.000062
     3  H   -0.000192   0.000719   0.003052  -0.001996  -0.000114   0.000843
     4  C   -0.013759  -0.002128  -0.001996   0.606573   0.006142   0.001283
     5  H   -0.001432   0.000627  -0.000114   0.006142  -0.021390   0.003423
     6  H   -0.000679   0.000062   0.000843   0.001283   0.003423  -0.014125
     7  C   -0.000061  -0.000011  -0.000000   0.000863  -0.000121  -0.000040
     8  H    0.000165   0.000047   0.000011  -0.002905   0.000395   0.000104
     9  H   -0.000005  -0.000002   0.000000   0.000188   0.000003  -0.000015
    10  H   -0.000035  -0.000011  -0.000004   0.000957  -0.000049  -0.000030
    11  O   -0.000257  -0.000030  -0.000023   0.012623  -0.000893  -0.000847
    12  O    0.005422   0.000629   0.000772  -0.119430   0.002474   0.004970
    13  H    0.000548  -0.000399  -0.000679   0.068004   0.000016  -0.000592
    14  C    0.028256  -0.002006  -0.000900  -0.015746   0.000383  -0.001181
    15  C    0.006382   0.000297   0.000825   0.003061   0.000577   0.000363
    16  H    0.000189  -0.000004   0.000005   0.000001   0.000006  -0.000001
               7          8          9         10         11         12
     1  C   -0.000061   0.000165  -0.000005  -0.000035  -0.000257   0.005422
     2  H   -0.000011   0.000047  -0.000002  -0.000011  -0.000030   0.000629
     3  H   -0.000000   0.000011   0.000000  -0.000004  -0.000023   0.000772
     4  C    0.000863  -0.002905   0.000188   0.000957   0.012623  -0.119430
     5  H   -0.000121   0.000395   0.000003  -0.000049  -0.000893   0.002474
     6  H   -0.000040   0.000104  -0.000015  -0.000030  -0.000847   0.004970
     7  C   -0.001037   0.002507   0.000160  -0.003069   0.003453  -0.003848
     8  H    0.002507   0.002524  -0.001062  -0.001448  -0.000292   0.001753
     9  H    0.000160  -0.001062  -0.002528   0.001728   0.000298  -0.000158
    10  H   -0.003069  -0.001448   0.001728   0.002576  -0.001122   0.001436
    11  O    0.003453  -0.000292   0.000298  -0.001122   0.005764  -0.036233
    12  O   -0.003848   0.001753  -0.000158   0.001436  -0.036233   0.746538
    13  H   -0.000090  -0.001395   0.000157   0.000652   0.009633  -0.068633
    14  C    0.000010  -0.000036  -0.000001   0.000002   0.000023  -0.000324
    15  C    0.000000  -0.000001  -0.000000   0.000000   0.000000   0.000007
    16  H    0.000000  -0.000000  -0.000000   0.000000   0.000000  -0.000000
              13         14         15         16
     1  C    0.000548   0.028256   0.006382   0.000189
     2  H   -0.000399  -0.002006   0.000297  -0.000004
     3  H   -0.000679  -0.000900   0.000825   0.000005
     4  C    0.068004  -0.015746   0.003061   0.000001
     5  H    0.000016   0.000383   0.000577   0.000006
     6  H   -0.000592  -0.001181   0.000363  -0.000001
     7  C   -0.000090   0.000010   0.000000   0.000000
     8  H   -0.001395  -0.000036  -0.000001  -0.000000
     9  H    0.000157  -0.000001  -0.000000  -0.000000
    10  H    0.000652   0.000002   0.000000   0.000000
    11  O    0.009633   0.000023   0.000000   0.000000
    12  O   -0.068633  -0.000324   0.000007  -0.000000
    13  H   -0.072946  -0.000124   0.000001   0.000001
    14  C   -0.000124   0.008181  -0.003966   0.000942
    15  C    0.000001  -0.003966   0.010144  -0.001172
    16  H    0.000001   0.000942  -0.001172  -0.000336
 Mulliken charges and spin densities:
               1          2
     1  C   -0.156138  -0.022580
     2  H    0.122462   0.002221
     3  H    0.125280   0.002320
     4  C   -0.253119   0.543730
     5  H    0.116492  -0.009953
     6  H    0.114282  -0.006463
     7  C   -0.042558  -0.001283
     8  H    0.071185   0.000369
     9  H    0.096782  -0.001236
    10  H    0.087173   0.001585
    11  O   -0.188483  -0.007901
    12  O   -0.180435   0.535375
    13  H    0.191505  -0.065849
    14  C   -0.071037   0.013514
    15  C   -0.204566   0.016519
    16  H    0.171174  -0.000369
 Sum of Mulliken charges =  -0.00000   1.00000
 Mulliken charges and spin densities with hydrogens summed into heavy atoms:
               1          2
     1  C    0.091604  -0.018039
     4  C   -0.022344   0.527315
     7  C    0.212583  -0.000565
    11  O   -0.188483  -0.007901
    12  O    0.011069   0.469526
    14  C   -0.071037   0.013514
    15  C   -0.033392   0.016150
 APT charges:
               1
     1  C    0.126820
     2  H   -0.011309
     3  H   -0.008987
     4  C    0.433319
     5  H   -0.035547
     6  H   -0.054257
     7  C    0.464960
     8  H   -0.036792
     9  H   -0.006981
    10  H   -0.033831
    11  O   -0.416039
    12  O    0.179825
    13  H   -0.366167
    14  C   -0.119268
    15  C   -0.331545
    16  H    0.215798
 Sum of APT charges =  -0.00000
 APT charges with hydrogens summed into heavy atoms:
               1
     1  C    0.106524
     4  C    0.343516
     7  C    0.387355
    11  O   -0.416039
    12  O   -0.186342
    14  C   -0.119268
    15  C   -0.115747
 Electronic spatial extent (au):  <R**2>=           1472.3828
 Charge=             -0.0000 electrons
 Dipole moment (field-independent basis, Debye):
    X=              0.2148    Y=             -1.1803    Z=              1.0491  Tot=              1.5937
 Quadrupole moment (field-independent basis, Debye-Ang):
   XX=            -39.0099   YY=            -43.0705   ZZ=            -44.1456
   XY=             -2.4622   XZ=              4.3615   YZ=              0.1367
 Traceless Quadrupole moment (field-independent basis, Debye-Ang):
   XX=              3.0655   YY=             -0.9952   ZZ=             -2.0703
   XY=             -2.4622   XZ=              4.3615   YZ=              0.1367
 Octapole moment (field-independent basis, Debye-Ang**2):
  XXX=             18.9915  YYY=              2.9178  ZZZ=             -1.1962  XYY=              8.2617
  XXY=            -23.3422  XXZ=              1.6040  XZZ=              9.8236  YZZ=              1.4652
  YYZ=             -0.6858  XYZ=             -2.1191
 Hexadecapole moment (field-independent basis, Debye-Ang**3):
 XXXX=          -1428.2407 YYYY=           -142.1226 ZZZZ=           -106.4295 XXXY=             60.9163
 XXXZ=             62.9523 YYYX=             -7.4965 YYYZ=              1.5602 ZZZX=             -2.5624
 ZZZY=             -0.8454 XXYY=           -299.3354 XXZZ=           -325.7822 YYZZ=            -43.3182
 XXYZ=             10.7965 YYXZ=              0.1774 ZZXY=             -1.5245
 N-N= 2.725188767087D+02 E-N=-1.353478790377D+03  KE= 3.440825188942D+02
  Exact polarizability: 127.888   6.380  59.385   5.734   2.249  53.987
 Approx polarizability: 105.440   8.945  72.561   4.751   4.637  64.062
                          Isotropic Fermi Contact Couplings
        Atom                 a.u.       MegaHertz       Gauss      10(-4) cm-1
     1  C(13)             -0.00371      -4.16677      -1.48681      -1.38989
     2  H(1)               0.00148       6.60392       2.35644       2.20283
     3  H(1)               0.00151       6.77141       2.41621       2.25870
     4  C(13)              0.16208     182.20341      65.01471      60.77652
     5  H(1)              -0.00243     -10.85553      -3.87352      -3.62102
     6  H(1)              -0.00005      -0.23340      -0.08328      -0.07785
     7  C(13)             -0.00104      -1.17258      -0.41840      -0.39113
     8  H(1)               0.00155       6.93883       2.47595       2.31454
     9  H(1)              -0.00004      -0.18843      -0.06724      -0.06285
    10  H(1)              -0.00005      -0.23991      -0.08560      -0.08002
    11  O(17)              0.01266      -7.67673      -2.73925      -2.56068
    12  O(17)              0.07954     -48.21962     -17.20596     -16.08433
    13  H(1)              -0.01905     -85.16389     -30.38859     -28.40762
    14  C(13)              0.04316      48.51469      17.31125      16.18276
    15  C(13)              0.00483       5.43325       1.93872       1.81234
    16  H(1)              -0.00009      -0.41794      -0.14913      -0.13941
 --------------------------------------------------------
       Center         ----  Spin Dipole Couplings  ----
                      3XX-RR        3YY-RR        3ZZ-RR
 --------------------------------------------------------
     1   Atom        0.017298     -0.011203     -0.006095
     2   Atom        0.000282     -0.006828      0.006546
     3   Atom        0.003772      0.002162     -0.005934
     4   Atom        0.430122     -0.150740     -0.279382
     5   Atom       -0.007310      0.042657     -0.035346
     6   Atom       -0.009499     -0.028700      0.038199
     7   Atom        0.002584      0.001378     -0.003962
     8   Atom       -0.001480      0.002481     -0.001001
     9   Atom        0.002452      0.001007     -0.003459
    10   Atom        0.005745     -0.003604     -0.002141
    11   Atom        0.208484     -0.070409     -0.138075
    12   Atom        1.202206     -0.137344     -1.064862
    13   Atom        0.210962     -0.068264     -0.142697
    14   Atom        0.034509     -0.015545     -0.018964
    15   Atom       -0.005628      0.000990      0.004638
    16   Atom        0.003036     -0.001424     -0.001612
 --------------------------------------------------------
                        XY            XZ            YZ
 --------------------------------------------------------
     1   Atom       -0.004609     -0.013201      0.003999
     2   Atom        0.000171     -0.008547      0.002268
     3   Atom       -0.008164     -0.003247      0.004611
     4   Atom        0.367780      0.201090      0.096837
     5   Atom        0.001000      0.010139     -0.010345
     6   Atom        0.012959      0.014051     -0.014587
     7   Atom       -0.009116      0.003722     -0.004278
     8   Atom       -0.004137      0.003998     -0.006281
     9   Atom       -0.004578      0.001097     -0.000849
    10   Atom       -0.004430      0.006061     -0.002246
    11   Atom        0.189916     -0.038586     -0.052218
    12   Atom        1.506572      0.367836      0.241782
    13   Atom        0.170918      0.070963      0.031901
    14   Atom        0.011786      0.000097     -0.003399
    15   Atom        0.000424     -0.002417      0.019203
    16   Atom        0.001324      0.000025      0.000806
 --------------------------------------------------------


 ---------------------------------------------------------------------------------
              Anisotropic Spin Dipole Couplings in Principal Axis System
 ---------------------------------------------------------------------------------

       Atom             a.u.   MegaHertz   Gauss  10(-4) cm-1        Axes

              Baa    -0.0138    -1.857    -0.663    -0.619 -0.1824  0.7115 -0.6786
     1 C(13)  Bbb    -0.0104    -1.392    -0.497    -0.464  0.4040  0.6835  0.6080
              Bcc     0.0242     3.248     1.159     1.083  0.8964 -0.1632 -0.4121
 
              Baa    -0.0079    -4.221    -1.506    -1.408 -0.4031  0.8372 -0.3696
     2 H(1)   Bbb    -0.0048    -2.542    -0.907    -0.848  0.7203  0.5394  0.4362
              Bcc     0.0127     6.763     2.413     2.256 -0.5645  0.0904  0.8205
 
              Baa    -0.0081    -4.296    -1.533    -1.433 -0.0733 -0.4584  0.8857
     3 H(1)   Bbb    -0.0047    -2.530    -0.903    -0.844  0.7128  0.5970  0.3680
              Bcc     0.0128     6.826     2.436     2.277  0.6975 -0.6583 -0.2830
 
              Baa    -0.3324   -44.607   -15.917   -14.879 -0.2700  0.0337  0.9623
     4 C(13)  Bbb    -0.3289   -44.130   -15.747   -14.720 -0.4004  0.9050 -0.1441
              Bcc     0.6613    88.737    31.664    29.599  0.8757  0.4241  0.2309
 
              Baa    -0.0399   -21.278    -7.592    -7.097 -0.2984  0.1223  0.9466
     5 H(1)   Bbb    -0.0041    -2.203    -0.786    -0.735  0.9544  0.0449  0.2951
              Bcc     0.0440    23.480     8.378     7.832 -0.0064  0.9915 -0.1301
 
              Baa    -0.0401   -21.379    -7.629    -7.131 -0.4710  0.8481  0.2426
     6 H(1)   Bbb    -0.0036    -1.942    -0.693    -0.648  0.8551  0.5065 -0.1106
              Bcc     0.0437    23.322     8.322     7.779  0.2167 -0.1554  0.9638
 
              Baa    -0.0074    -0.987    -0.352    -0.329  0.5699  0.7544  0.3259
     7 C(13)  Bbb    -0.0056    -0.757    -0.270    -0.252 -0.4517 -0.0437  0.8911
              Bcc     0.0130     1.744     0.622     0.582  0.6864 -0.6550  0.3159
 
              Baa    -0.0060    -3.202    -1.142    -1.068 -0.3098  0.4636  0.8301
     8 H(1)   Bbb    -0.0041    -2.180    -0.778    -0.727  0.8409  0.5410  0.0117
              Bcc     0.0101     5.382     1.920     1.795 -0.4437  0.7017 -0.5575
 
              Baa    -0.0037    -1.951    -0.696    -0.651 -0.1608  0.0217  0.9867
     9 H(1)   Bbb    -0.0029    -1.547    -0.552    -0.516  0.6373  0.7657  0.0870
              Bcc     0.0066     3.498     1.248     1.167  0.7537 -0.6428  0.1370
 
              Baa    -0.0055    -2.943    -1.050    -0.982 -0.5542 -0.5260  0.6451
    10 H(1)   Bbb    -0.0052    -2.792    -0.996    -0.931 -0.0248  0.7851  0.6188
              Bcc     0.0108     5.736     2.047     1.913  0.8320 -0.3269  0.4482
 
              Baa    -0.1868    13.520     4.824     4.510 -0.3101  0.7612  0.5696
    11 O(17)  Bbb    -0.1253     9.067     3.235     3.024  0.3568 -0.4622  0.8118
              Bcc     0.3122   -22.587    -8.060    -7.534  0.8812  0.4550 -0.1283
 
              Baa    -1.1242    81.344    29.025    27.133  0.0467 -0.3044  0.9514
    12 O(17)  Bbb    -1.1156    80.727    28.805    26.928 -0.5541  0.7846  0.2782
              Bcc     2.2398  -162.071   -57.831   -54.061  0.8311  0.5402  0.1320
 
              Baa    -0.1565   -83.521   -29.803   -27.860 -0.2421  0.1209  0.9627
    13 H(1)   Bbb    -0.1490   -79.500   -28.368   -26.518 -0.3853  0.8986 -0.2098
              Bcc     0.3055   163.021    58.170    54.378  0.8904  0.4217  0.1710
 
              Baa    -0.0219    -2.944    -1.050    -0.982 -0.1370  0.6500  0.7475
    14 C(13)  Bbb    -0.0152    -2.042    -0.729    -0.681 -0.1712  0.7277 -0.6642
              Bcc     0.0372     4.985     1.779     1.663  0.9757  0.2190 -0.0116
 
              Baa    -0.0168    -2.256    -0.805    -0.753 -0.1717  0.7243 -0.6677
    15 C(13)  Bbb    -0.0054    -0.721    -0.257    -0.240  0.9837  0.1633 -0.0758
              Bcc     0.0222     2.977     1.062     0.993 -0.0541  0.6698  0.7405
 
              Baa    -0.0025    -1.323    -0.472    -0.441 -0.1709  0.7244 -0.6678
    16 H(1)   Bbb    -0.0009    -0.497    -0.177    -0.166 -0.2163  0.6337  0.7427
              Bcc     0.0034     1.820     0.649     0.607  0.9613  0.2713  0.0484
 

 ---------------------------------------------------------------------------------

 Calling FoFJK, ICntrl=  10100127 FMM=F ISym2X=0 I1Cent= 0 IOpClX= 1 NMat=1 NMatS=1 NMatT=0.
 ***** Axes restored to original set *****
 -------------------------------------------------------------------
 Center     Atomic                   Forces (Hartrees/Bohr)
 Number     Number              X              Y              Z
 -------------------------------------------------------------------
      1        6          -0.010962719    0.029535513   -0.010904999
      2        1           0.000662379   -0.000261257   -0.000049208
      3        1           0.000419726   -0.000174067   -0.000105184
      4        6          -0.024599478    0.056277357   -0.015191734
      5        1           0.002674644   -0.011617543    0.002240309
      6        1           0.002374118   -0.002520946    0.003123335
      7        6          -0.000898921   -0.002290742   -0.003252605
      8        1           0.000325381    0.000564248    0.000248396
      9        1           0.000014985   -0.000101409   -0.000256174
     10        1           0.000239704    0.000556183   -0.000294870
     11        8          -0.012238087   -0.000796203    0.018823459
     12        8           0.032653365   -0.040557182   -0.001184408
     13        1          -0.004881802    0.006067796   -0.005123586
     14        6           0.020719771   -0.053496347    0.019105260
     15        6          -0.006831961    0.019658604   -0.007516127
     16        1           0.000328896   -0.000844005    0.000338134
 -------------------------------------------------------------------
 Cartesian Forces:  Max     0.056277357 RMS     0.016299717
 FormGI is forming the generalized inverse of G from B-inverse, IUseBI=4.

 GradGradGradGradGradGradGradGradGradGradGradGradGradGradGradGradGradGrad
 Berny optimization.
 Internal  Forces:  Max     0.049029647 RMS     0.010937765
 Search for a saddle point.
 Step number   1 out of a maximum of  100
 All quantities printed in internal units (Hartrees-Bohrs-Radians)
 Swapping is turned off.
 Second derivative matrix not updated -- analytic derivatives used.
 ITU=  0
     Eigenvalues ---   -0.02188  -0.00008   0.00196   0.00643   0.01301
     Eigenvalues ---    0.01576   0.02442   0.02822   0.04005   0.04044
     Eigenvalues ---    0.04319   0.04367   0.04642   0.05701   0.06675
     Eigenvalues ---    0.08443   0.08502   0.08548   0.09913   0.10618
     Eigenvalues ---    0.12453   0.13088   0.14803   0.16150   0.16760
     Eigenvalues ---    0.17241   0.18512   0.22375   0.23020   0.29255
     Eigenvalues ---    0.31292   0.32644   0.33460   0.33704   0.34097
     Eigenvalues ---    0.34385   0.34528   0.34630   0.35150   0.39925
     Eigenvalues ---    0.41369   1.11307
 Eigenvectors required to have negative eigenvalues:
                          R13       R7        D16       R12       A12
   1                    0.63977  -0.53417   0.34566  -0.23618   0.12744
                          D5        A20       D8        D2        A9
   1                   -0.12003   0.11883  -0.10858  -0.09664   0.09254
 RFO step:  Lambda0=7.994678358D-03 Lambda=-2.53024488D-02.
 Linear search not attempted -- option 19 set.
 Maximum step size (   0.300) exceeded in Quadratic search.
    -- Step size scaled by   0.539
 Iteration  1 RMS(Cart)=  0.07794992 RMS(Int)=  0.00389953
 Iteration  2 RMS(Cart)=  0.00545769 RMS(Int)=  0.00096245
 Iteration  3 RMS(Cart)=  0.00001651 RMS(Int)=  0.00096237
 Iteration  4 RMS(Cart)=  0.00000001 RMS(Int)=  0.00096237
 Variable       Old X    -DE/DX   Delta X   Delta X   Delta X     New X
                                 (Linear)    (Quad)   (Total)
    R1        2.05827  -0.00024   0.00000   0.00063   0.00063   2.05890
    R2        2.05828  -0.00011   0.00000   0.00110   0.00110   2.05938
    R3        2.88267  -0.00469   0.00000  -0.01856  -0.01856   2.86411
    R4        2.91018  -0.03932   0.00000  -0.08769  -0.08769   2.82249
    R5        2.05827  -0.00204   0.00000  -0.00594  -0.00594   2.05233
    R6        2.05826   0.00070   0.00000  -0.00433  -0.00433   2.05393
    R7        2.26767   0.03951   0.00000   0.22391   0.22392   2.49159
    R8        2.06161  -0.00018   0.00000   0.00071   0.00072   2.06233
    R9        2.05705   0.00020   0.00000   0.00098   0.00098   2.05804
   R10        2.05898  -0.00064   0.00000   0.00071   0.00071   2.05969
   R11        2.67252   0.00303   0.00000  -0.00338  -0.00338   2.66913
   R12        2.74736  -0.01930   0.00000   0.01392   0.01391   2.76128
   R13        2.12400   0.04903   0.00000  -0.11290  -0.11291   2.01110
   R14        2.25822   0.02114   0.00000   0.00983   0.00983   2.26805
   R15        2.00500  -0.00097   0.00000  -0.00099  -0.00099   2.00401
    A1        1.87772   0.00039   0.00000   0.00029   0.00024   1.87796
    A2        1.94249  -0.00023   0.00000  -0.00729  -0.00733   1.93515
    A3        1.87780   0.00159   0.00000   0.01643   0.01639   1.89419
    A4        1.94243   0.00008   0.00000  -0.00571  -0.00575   1.93668
    A5        1.87778   0.00148   0.00000   0.01497   0.01493   1.89272
    A6        1.94244  -0.00310   0.00000  -0.01676  -0.01680   1.92564
    A7        1.94246   0.00555   0.00000   0.04741   0.04471   1.98717
    A8        1.94242   0.00239   0.00000   0.04505   0.04142   1.98384
    A9        1.90174  -0.00061   0.00000  -0.03576  -0.03533   1.86641
   A10        1.87778   0.00132   0.00000   0.05255   0.04858   1.92636
   A11        2.00967  -0.00820   0.00000  -0.06170  -0.06092   1.94875
   A12        1.78401  -0.00077   0.00000  -0.05032  -0.04935   1.73466
   A13        1.91786   0.00013   0.00000  -0.00099  -0.00099   1.91687
   A14        1.91635   0.00040   0.00000  -0.00174  -0.00174   1.91461
   A15        1.94579  -0.00095   0.00000   0.00228   0.00228   1.94807
   A16        1.91599   0.00004   0.00000  -0.00244  -0.00244   1.91355
   A17        1.82748   0.00042   0.00000   0.00044   0.00044   1.82791
   A18        1.93861  -0.00004   0.00000   0.00246   0.00246   1.94106
   A19        1.84754   0.00331   0.00000  -0.00642  -0.00643   1.84111
   A20        1.74417   0.01141   0.00000  -0.00192  -0.00192   1.74225
   A21        2.96034   0.00626   0.00000   0.04470   0.04492   3.00526
   A22        3.14159  -0.00172   0.00000  -0.01698  -0.01698   3.12461
   A23        3.14159   0.00000   0.00000   0.00460   0.00460   3.14619
   A24        3.13679   0.00455   0.00000   0.02116   0.02131   3.15809
   A25        3.14159  -0.00064   0.00000  -0.00864  -0.00864   3.13295
   A26        3.14159   0.00004   0.00000   0.00236   0.00236   3.14395
    D1        1.04694  -0.00486   0.00000  -0.06464  -0.06588   0.98106
    D2        3.14133   0.00218   0.00000   0.06441   0.06583  -3.07603
    D3       -1.18770   0.00219   0.00000   0.00802   0.00783  -1.17987
    D4        3.14129  -0.00446   0.00000  -0.07305  -0.07429   3.06700
    D5       -1.04751   0.00258   0.00000   0.05600   0.05743  -0.99008
    D6        0.90664   0.00258   0.00000  -0.00039  -0.00057   0.90607
    D7       -1.04751  -0.00462   0.00000  -0.06924  -0.07048  -1.11799
    D8        1.04688   0.00242   0.00000   0.05981   0.06123   1.10811
    D9        3.00103   0.00242   0.00000   0.00342   0.00323   3.00427
   D10        2.79450   0.00058   0.00000   0.00613   0.00514   2.79965
   D11        0.63811  -0.00065   0.00000   0.00557   0.00492   0.64303
   D12       -1.38572   0.00083   0.00000  -0.00681  -0.00519  -1.39092
   D13        1.11675  -0.00018   0.00000  -0.00038  -0.00039   1.11636
   D14       -3.09357  -0.00026   0.00000  -0.00014  -0.00014  -3.09371
   D15       -1.02661   0.00001   0.00000  -0.00153  -0.00153  -1.02814
   D16       -2.02355   0.00484   0.00000  -0.07110  -0.07111  -2.09465
         Item               Value     Threshold  Converged?
 Maximum Force            0.049030     0.000450     NO 
 RMS     Force            0.010938     0.000300     NO 
 Maximum Displacement     0.225319     0.001800     NO 
 RMS     Displacement     0.080475     0.001200     NO 
 Predicted change in Energy=-7.034462D-03
 GradGradGradGradGradGradGradGradGradGradGradGradGradGradGradGradGradGrad

                          Input orientation:                          
 ---------------------------------------------------------------------
 Center     Atomic      Atomic             Coordinates (Angstroms)
 Number     Number       Type             X           Y           Z
 ---------------------------------------------------------------------
      1          6           0       -1.995931    0.683468    0.040680
      2          1           0       -2.692266   -0.080849   -0.302829
      3          1           0       -1.972892    0.642849    1.129457
      4          6           0       -0.614525    0.455703   -0.539795
      5          1           0       -0.595511    0.413431   -1.624852
      6          1           0        0.132745    1.155733   -0.175261
      7          6           0        0.812205   -3.029245   -1.378255
      8          1           0       -0.131745   -2.885100   -1.906644
      9          1           0        1.609828   -3.224791   -2.093534
     10          1           0        0.723320   -3.869618   -0.689896
     11          8           0        1.214983   -1.855860   -0.703023
     12          8           0        0.187685   -1.615272    0.307865
     13          1           0       -0.149919   -0.654566   -0.001401
     14          6           0       -2.517940    2.020836   -0.371375
     15          6           0       -2.918512    3.099434   -0.712915
     16          1           0       -3.276995    4.051419   -1.012618
 ---------------------------------------------------------------------
                    Distance matrix (angstroms):
                    1          2          3          4          5
     1  C    0.000000
     2  H    1.089523   0.000000
     3  H    1.089779   1.758603   0.000000
     4  C    1.515622   2.158947   2.160228   0.000000
     5  H    2.192736   2.527536   3.088046   1.086047   0.000000
     6  H    2.191101   3.086437   2.529633   1.086894   1.784007
     7  C    4.866543   4.704349   5.246872   3.857905   3.727532
     8  H    4.472352   4.122174   5.005413   3.641746   3.342872
     9  H    5.729822   5.621301   6.179175   4.572515   4.280169
    10  H    5.353378   5.115743   5.562551   4.529985   4.577988
    11  O    4.160678   4.310153   4.445680   2.952467   3.045872
    12  O    3.181787   3.319868   3.231442   2.377184   2.909369
    13  H    2.280321   2.623650   2.507061   1.318493   1.993680
    14  C    1.493599   2.110016   2.109128   2.470020   2.801908
    15  C    2.693688   3.214585   3.212996   3.511074   3.666411
    16  H    3.754152   4.233360   4.231727   4.499053   4.560717
                    6          7          8          9         10
     6  H    0.000000
     7  C    4.407142   0.000000
     8  H    4.404086   1.091336   0.000000
     9  H    5.005051   1.089066   1.784207   0.000000
    10  H    5.086038   1.089939   1.783505   1.780983   0.000000
    11  O    3.243372   1.412445   2.078873   1.990829   2.072951
    12  O    2.813342   2.287433   2.572654   3.221764   2.522798
    13  H    1.840464   2.908696   2.933524   3.752305   3.401931
    14  C    2.795173   6.132454   5.667379   6.893541   6.730875
    15  C    3.657487   7.205667   6.708629   7.899861   7.863279
    16  H    4.551097   8.184806   7.668583   8.831345   8.879724
                   11         12         13         14         15
    11  O    0.000000
    12  O    1.461204   0.000000
    13  H    1.948933   1.064226   0.000000
    14  C    5.391982   4.582909   3.591960   0.000000
    15  C    6.452969   5.737499   4.718461   1.200201   0.000000
    16  H    7.427628   6.771932   5.739987   2.260669   1.060475
                   16
    16  H    0.000000
 Stoichiometry    C5H9O2(2)
 Framework group  C1[X(C5H9O2)]
 Deg. of freedom    42
 Full point group                 C1      NOp   1
 Largest Abelian subgroup         C1      NOp   1
 Largest concise Abelian subgroup C1      NOp   1
                         Standard orientation:                         
 ---------------------------------------------------------------------
 Center     Atomic      Atomic             Coordinates (Angstroms)
 Number     Number       Type             X           Y           Z
 ---------------------------------------------------------------------
      1          6           0       -1.531451    0.550796    0.404997
      2          1           0       -1.294164    0.458274    1.464335
      3          1           0       -1.554970    1.613373    0.164176
      4          6           0       -0.506487   -0.174938   -0.443454
      5          1           0       -0.391524   -1.224976   -0.191065
      6          1           0       -0.663369   -0.057746   -1.512563
      7          6           0        3.203544   -0.564935    0.539909
      8          1           0        2.571837   -0.966300    1.334180
      9          1           0        3.871692   -1.341875    0.171117
     10          1           0        3.789407    0.270428    0.923186
     11          8           0        2.442510   -0.181291   -0.586432
     12          8           0        1.585356    0.908578   -0.125354
     13          1           0        0.629656    0.482500   -0.319445
     14          6           0       -2.893286   -0.016740    0.172306
     15          6           0       -3.979149   -0.486422   -0.029642
     16          1           0       -4.940524   -0.898548   -0.204327
 ---------------------------------------------------------------------
 Rotational constants (GHZ):           9.3999443           0.7569114           0.7442114
 Standard basis: CC-pVTZ (5D, 7F)
 There are   380 symmetry adapted cartesian basis functions of A   symmetry.
 There are   336 symmetry adapted basis functions of A   symmetry.
   336 basis functions,   517 primitive gaussians,   380 cartesian basis functions
    28 alpha electrons       27 beta electrons
       nuclear repulsion energy       272.1978468193 Hartrees.
 NAtoms=   16 NActive=   16 NUniq=   16 SFac= 1.00D+00 NAtFMM=   60 NAOKFM=F Big=F
 Integral buffers will be    131072 words long.
 Raffenetti 2 integral format.
 Two-electron integral symmetry is turned on.
 Nuclear repulsion after empirical dispersion term =      272.1901813980 Hartrees.
 One-electron integrals computed using PRISM.
 NBasis=   336 RedAO= T EigKep=  4.26D-05  NBF=   336
 NBsUse=   336 1.00D-06 EigRej= -1.00D+00 NBFU=   336
 Initial guess from the checkpoint file:  "/localscratch/339753/Gau-4208.chk"
 B after Tr=    -0.000000   -0.000000   -0.000000
         Rot=    0.998483    0.055000   -0.001844   -0.001806 Ang=   6.31 deg.
 Initial guess <Sx>= 0.0000 <Sy>= 0.0000 <Sz>= 0.5000 <S**2>= 0.7658 S= 0.5079
 ExpMin= 1.03D-01 ExpMax= 1.53D+04 ExpMxC= 5.22D+02 IAcc=3 IRadAn=         5 AccDes= 0.00D+00
 Harris functional with IExCor=  419 and IRadAn=       5 diagonalized for initial guess.
 HarFok:  IExCor=  419 AccDes= 0.00D+00 IRadAn=         5 IDoV= 1 UseB2=F ITyADJ=14
 ICtDFT=  3500011 ScaDFX=  1.000000  1.000000  1.000000  1.000000
 FoFCou: FMM=F IPFlag=           0 FMFlag=      100000 FMFlg1=           0
         NFxFlg=           0 DoJE=T BraDBF=F KetDBF=T FulRan=T
         wScrn=  0.000000 ICntrl=       500 IOpCl=  0 I1Cent=   200000004 NGrid=           0
         NMat0=    1 NMatS0=      1 NMatT0=    0 NMatD0=    1 NMtDS0=    0 NMtDT0=    0
 Petite list used in FoFCou.
 Requested convergence on RMS density matrix=1.00D-08 within 128 cycles.
 Requested convergence on MAX density matrix=1.00D-06.
 Requested convergence on             energy=1.00D-06.
 No special actions if energy rises.
 Integral accuracy reduced to 1.0D-05 until final iterations.
 Initial convergence to 1.0D-05 achieved.  Increase integral accuracy.
 SCF Done:  E(UB2PLYPD3) =  -345.558461599     A.U. after   19 cycles
            NFock= 19  Conv=0.53D-08     -V/T= 2.0042
 <Sx>= 0.0000 <Sy>= 0.0000 <Sz>= 0.5000 <S**2>= 0.7634 S= 0.5067
 <L.S>=  0.00000000000    
 Annihilation of the first spin contaminant:
 S**2 before annihilation     0.7634,   after     0.7501
 DoSCS=T DFT=T ScalE2(SS,OS)=  0.270000  0.270000
 ExpMin= 1.03D-01 ExpMax= 1.53D+04 ExpMxC= 5.22D+02 IAcc=3 IRadAn=         5 AccDes= 0.00D+00
 HarFok:  IExCor=  205 AccDes= 0.00D+00 IRadAn=         5 IDoV=-2 UseB2=F ITyADJ=14
 ICtDFT= 12500011 ScaDFX=  1.000000  1.000000  1.000000  1.000000
 Range of M.O.s used for correlation:     8   336
 NBasis=   336 NAE=    28 NBE=    27 NFC=     7 NFV=     0
 NROrb=    329 NOA=    21 NOB=    20 NVA=   308 NVB=   309

 **** Warning!!: The largest alpha MO coefficient is  0.32375138D+02


 **** Warning!!: The largest beta MO coefficient is  0.27270230D+02

 DoSCS=T DFT=T ScalE2(SS,OS)=  0.270000  0.270000
 Disk-based method using ON**2 memory for 21 occupieds at a time.
 Estimated scratch disk usage=  1840933920 words.
 Actual    scratch disk usage=  1687756832 words.
 JobTyp=2 Pass  1:  I=   8 to  28 NPSUse= 40 ParTrn=T ParDer=T DoDerP=T.
 (rs|ai) integrals will be sorted in core.
 Actual    scratch disk usage=  1687756832 words.
 JobTyp=3 Pass  1:  I=   8 to  27 NPSUse= 40 ParTrn=T ParDer=T DoDerP=T.
 (rs|ai) integrals will be sorted in core.
 Spin components of T(2) and E(2):
     alpha-alpha T2 =       0.7953938636D-01 E2=     -0.5373091141D-01
     alpha-beta  T2 =       0.4678294782D+00 E2=     -0.3263810106D+00
     beta-beta   T2 =       0.8106827637D-01 E2=     -0.5123148593D-01
 (S**2,0)=  0.76339D+00           (S**2,1)=  0.74419D+00
 Scaling Projection term by:   0.270000
 E(PUHF)=      -0.34556350995D+03        E(PMP2)=      -0.34599019547D+03
 E2(B2PLYPD3) =    -0.4313434080D+00 E(B2PLYPD3) =    -0.34598980500698D+03
          IDoAtm=1111111111111111
          Differentiating once with respect to electric field.
                with respect to dipole field.
          Differentiating once with respect to nuclear coordinates.
 Keep R1 and R2 ints in memory in canonical form, NReq=3251778068.
          There are     1 degrees of freedom in the 1st order CPHF.  IDoFFX=0 NUNeed=     1.
 LinEq1:  Iter=  0 NonCon=     1 RMS=8.01D-04 Max=4.46D-02 NDo=     1
 AX will form     1 AO Fock derivatives at one time.
 LinEq1:  Iter=  1 NonCon=     1 RMS=2.48D-04 Max=7.17D-03 NDo=     1
 LinEq1:  Iter=  2 NonCon=     1 RMS=1.43D-04 Max=8.16D-03 NDo=     1
 LinEq1:  Iter=  3 NonCon=     1 RMS=1.02D-04 Max=3.64D-03 NDo=     1
 LinEq1:  Iter=  4 NonCon=     1 RMS=5.55D-05 Max=2.50D-03 NDo=     1
 LinEq1:  Iter=  5 NonCon=     1 RMS=3.83D-05 Max=8.98D-04 NDo=     1
 LinEq1:  Iter=  6 NonCon=     1 RMS=1.79D-05 Max=5.36D-04 NDo=     1
 LinEq1:  Iter=  7 NonCon=     1 RMS=5.94D-06 Max=2.01D-04 NDo=     1
 LinEq1:  Iter=  8 NonCon=     1 RMS=3.41D-06 Max=1.33D-04 NDo=     1
 LinEq1:  Iter=  9 NonCon=     1 RMS=2.46D-06 Max=8.28D-05 NDo=     1
 LinEq1:  Iter= 10 NonCon=     1 RMS=1.21D-06 Max=4.55D-05 NDo=     1
 LinEq1:  Iter= 11 NonCon=     1 RMS=5.57D-07 Max=1.23D-05 NDo=     1
 LinEq1:  Iter= 12 NonCon=     1 RMS=2.27D-07 Max=4.61D-06 NDo=     1
 LinEq1:  Iter= 13 NonCon=     1 RMS=8.93D-08 Max=2.43D-06 NDo=     1
 LinEq1:  Iter= 14 NonCon=     1 RMS=4.02D-08 Max=9.67D-07 NDo=     1
 LinEq1:  Iter= 15 NonCon=     1 RMS=2.05D-08 Max=6.07D-07 NDo=     1
[...]
               (au)            (10**-24 esu)      (10**-40 SI)
   iso        0.820307D+02      0.121557D+02      0.135250D+02
   aniso      0.756065D+02      0.112037D+02      0.124658D+02
   xx         0.641591D+02      0.950740D+01      0.105784D+02
   yx         0.222288D+02      0.329396D+01      0.366503D+01
   yy         0.111564D+03      0.165320D+02      0.183944D+02
   zx        -0.889173D+01     -0.131762D+01     -0.146605D+01
   zy        -0.258550D+02     -0.383132D+01     -0.426292D+01
   zz         0.703695D+02      0.104277D+02      0.116024D+02

 ----------------------------------------------------------------------
 1\1\GINC-N58\Freq\UB2PLYPD3-FC\CC-pVTZ\C5H9O2(2)\ROOT\04-Jun-2019\0\\#
 N Geom=AllCheck Guess=TCheck SCRF=Check GenChk UB2PLYPD3(FC)/CC-pVTZ F
 req\\Title Card Required\\0,2\C,-1.8070051332,0.5381157609,-0.07328891
 71\H,-2.2162860691,-0.3379998319,-0.5772902451\H,-1.9689473524,0.39178
 1597,0.99529202\C,-0.3286883837,0.6677668561,-0.3639298387\H,-0.050443
 4217,0.6489278878,-1.4125830243\H,0.1955179702,1.4256090527,0.20773151
 07\C,0.3965529746,-2.8583062657,-1.3707405214\H,-0.4236792085,-2.26526
 92587,-1.7797750843\H,0.961708241,-3.3124350919,-2.1818918663\H,0.0026
 452913,-3.627434132,-0.708716907\O,1.3265572556,-2.0332740368,-0.68520
 26218\O,0.6768687884,-1.5017012029,0.4471659573\H,0.2565942567,-0.4959
 812312,0.0876502853\C,-2.5297046755,1.7312002593,-0.5126854103\C,-3.08
 76288229,2.7309343277,-0.8899910973\H,-3.5895293808,3.6056363495,-1.21
 61387498\\Version=ES64L-G16RevB.01\State=2-A\HF=-345.5663931\MP2=-345.
 998023\PUHF=-345.5724981\PMP2-0=-345.9985359\S2=0.768374\S2-1=0.742932
 \S2A=0.750155\RMSD=4.114e-09\RMSF=1.215e-06\ZeroPoint=0.1228124\Therma
 l=0.1325063\Dipole=-0.5556726,-0.0006415,-0.5291268\DipoleDeriv=0.1565
 579,-0.0450754,0.0047336,0.1478377,-0.0914985,0.0022996,-0.0797195,0.1
 229982,0.14545,0.0027759,0.0058895,-0.0332589,-0.0185949,-0.0656984,-0
 .0248175,-0.0367288,-0.0525227,0.0377949,0.0205526,0.0461339,0.0054468
 ,0.0289478,0.0327549,0.0306319,0.0262974,0.040895,-0.0563332,0.3940154
 ,-0.5309666,0.0123861,-0.4471926,0.9221382,0.041608,0.1592041,-0.28795
 71,0.0854299,-0.0272534,0.0706351,0.0075532,0.0418406,-0.0569915,-0.00
 72224,0.0429819,0.0080602,-0.0564188,-0.0328265,0.0615199,-0.0027342,-
 0.0298591,-0.0963674,-0.0608765,-0.0487952,0.020832,0.0333411,0.294545
 6,0.2894656,0.1188762,-0.0686814,0.6442623,0.0699067,0.0009459,0.19675
 27,0.3504459,-0.0465622,-0.0396824,-0.0992645,0.1242264,-0.0885743,0.0
 469204,-0.0373987,-0.0045366,0.0081641,0.0119407,0.0142912,0.0607941,0
 .0256693,0.0012343,-0.0697034,0.0595174,-0.1029415,-0.0264052,0.038200
 6,-0.1109651,-0.0206035,-0.0290287,-0.0929793,0.0225791,0.0388013,0.11
 52753,-0.0257813,-0.5055987,0.2687291,-0.0852819,0.1260982,-0.6291658,
 0.022319,0.410616,-0.8801679,-0.2663775,0.1696268,-0.7521203,-0.004426
 1,-0.5274841,0.6874698,-0.0745521,-0.4035891,0.5163174,-0.1731576,-0.1
 499375,0.5642955,0.0172533,0.6454413,-1.090921,0.0361063,-0.1701519,0.
 3672238,0.08051,-0.2280752,0.0482492,0.0432746,-0.1438463,0.1200652,-0
 .0733999,0.0855988,-0.1245751,-0.0963458,-0.325342,0.1299871,-0.024061
 8,0.1328659,-0.4150447,0.0372866,-0.0489568,0.0662948,-0.2510223,0.227
 38,-0.0203864,-0.000687,-0.00824,0.2193163,0.0009142,0.0013772,-0.0019
 485,0.2107057\Polar=76.3216798,-34.0633283,111.5362559,2.6956524,-1.77
 52474,58.2342616\PG=C01 [X(C5H9O2)]\NImag=1\\0.45003251,0.02468526,0.5
 2557036,0.00835678,0.01861633,0.56183757,-0.08029326,-0.07692141,-0.04
 481158,0.09355636,-0.07969270,-0.21202543,-0.10008125,0.08263742,0.235
 64022,-0.04552066,-0.09890176,-0.10745295,0.05021957,0.10728949,0.1119
 5493,-0.05015676,-0.00625445,0.03478666,0.00131666,0.00188169,-0.01192
 551,0.06003441,-0.00688416,-0.05038123,0.03111058,0.00407967,0.0039476
 4,-0.02594097,0.00259826,0.05586450,0.03676484,0.02949661,-0.29925434,
 0.00194849,0.00130307,-0.01484340,-0.04003027,-0.03696509,0.32521705,-
 0.19482802,-0.02253622,0.02723319,-0.01574872,-0.00151147,0.00235267,-
 0.00742180,-0.00026947,0.00281675,0.42770874,-0.02510797,-0.05622178,-
 0.00913249,-0.02667216,-0.00041061,0.00592436,-0.00213462,-0.00005043,
 -0.00028885,0.13860050,0.28027162,0.02899491,-0.00959692,-0.08386413,-
 0.01752628,-0.00042948,0.00374271,0.03481446,0.00198425,-0.00484276,-0
 .04041839,0.13427628,0.54392797,-0.00640105,-0.00037466,0.03165925,0.0
 0149134,-0.00009587,-0.00050148,-0.00625987,-0.00016672,0.00056026,-0.
 06248899,-0.00896365,0.06225063,0.06618146,0.00104677,0.00148085,0.001
 03474,0.00068742,0.00002041,0.00051731,-0.00073093,0.00078813,0.000830
 50,-0.01300731,-0.02960627,-0.00364326,0.00788767,0.03014898,-0.001811
 03,0.00119067,-0.00164643,0.00039682,0.00020849,0.00045532,0.00062825,
 0.00007296,0.00134823,0.07132259,-0.01660942,-0.31518292,-0.07517838,0
 .01108148,0.33150338,-0.01311392,-0.02318633,-0.01647849,-0.00587396,0
 .00033732,0.00167372,0.00140595,0.00018622,0.00024150,-0.10703063,-0.0
 9721927,-0.06294924,0.00590712,0.00494087,0.00427494,0.11664424,0.0028
 5561,0.00103605,0.00008806,-0.00008643,0.00086434,0.00004852,-0.000067
 42,-0.00009278,0.00002283,-0.10951696,-0.17585250,-0.12097945,0.000066
 18,0.00304590,0.00280476,0.10970590,0.18257895,0.00398387,0.00458529,0
 .00554659,0.00214153,0.00053568,0.00098001,-0.00090872,0.00043125,0.00
 071066,-0.06394674,-0.11108206,-0.12760604,-0.01349680,-0.02192964,-0.
 01109694,0.07184051,0.12170116,0.13095162,0.00079153,0.00173106,-0.000
 21393,-0.00071620,-0.00016572,0.00005058,0.00005669,-0.00014960,-0.000
 05799,0.00398253,-0.00553289,0.00330444,0.00005530,0.00074416,-0.00033
 595,-0.00087136,0.00074835,-0.00085016,0.55007009,0.00000692,0.0017677
 6,-0.00078900,0.00006825,0.00004160,-0.00005723,-0.00005076,0.00003698
 ,0.00003500,0.00238779,-0.00641029,0.00232739,-0.00031667,0.00034076,-
 0.00004081,-0.00050455,0.00075106,-0.00021948,-0.05393592,0.53470625,0
 .00058308,0.00153602,-0.00026743,-0.00055436,-0.00017074,0.00004419,-0
 .00002173,-0.00012475,-0.00008151,0.00342735,-0.00538144,0.00329063,0.
 00000761,0.00059014,-0.00020294,-0.00066721,0.00076678,-0.00059657,-0.
 06969310,-0.03925472,0.56201798,-0.00010504,-0.00048270,0.00022745,0.0
 0014610,0.00009530,-0.00000196,-0.00006132,0.00000869,0.00004053,-0.00
 097464,0.00232173,-0.00122903,0.00004770,-0.00050436,0.00022474,0.0001
 3313,-0.00018692,0.00029795,-0.18309392,0.10819667,-0.06438067,0.20890
 461,0.00024124,-0.00031386,0.00029150,0.00000663,-0.00002317,-0.000124
 97,0.00000083,0.00005336,0.00000772,-0.00011528,0.00079728,0.00005420,
 0.00014878,-0.00059282,0.00010370,-0.00010989,-0.00001185,0.00008346,0
 .11297357,-0.14012757,0.05538542,-0.11358333,0.14374204,-0.00008281,-0
 .00056438,-0.00000955,0.00033447,-0.00004258,0.00004864,0.00001078,0.0
 0005398,0.00001172,-0.00053470,0.00112318,-0.00041309,0.00001149,-0.00
 018635,0.00012706,0.00011523,-0.00005389,0.00008705,-0.06107350,0.0549
 6438,-0.08366710,0.07990508,-0.05594417,0.08691910,-0.00009348,-0.0002
 2332,-0.00001342,0.00015806,-0.00000037,0.00002631,-0.00000795,0.00003
 379,0.00000649,-0.00025592,0.00025743,0.00000590,0.00003230,-0.0001514
 2,0.00005376,0.00006023,0.00000929,0.00005847,-0.13197015,0.06210296,0
 .11302640,-0.01023615,0.00803079,0.01779397,0.13441862,-0.00004352,-0.
 00011164,0.00011660,-0.00005605,0.00000762,0.00001170,-0.00002224,-0.0
 0001184,-0.00001312,-0.00030765,0.00043130,-0.00020687,0.00009868,-0.0
 0008009,0.00001421,0.00006617,-0.00007872,0.00005426,0.05497134,-0.093
 65297,-0.07671008,0.00960812,-0.00637795,-0.01313368,-0.06092598,0.101
 23527,-0.00010477,-0.00020485,0.00004783,0.00008475,0.00001645,-0.0000
 1340,-0.00000568,0.00002915,0.00001290,-0.00039358,0.00049273,-0.00014
 352,0.00005894,-0.00015948,0.00003273,0.00008651,-0.00004569,0.0000863
 0,0.10352863,-0.07955094,-0.19433028,-0.00601905,0.00588104,0.01084348
 ,-0.11317826,0.09499874,0.21422049,-0.00005683,-0.00026606,0.00009940,
 0.00007980,0.00003877,-0.00008047,-0.00000892,0.00004042,0.00002594,-0
 .00063091,0.00107085,-0.00069435,-0.00005468,-0.00015199,0.00007103,0.
 00010036,-0.00015122,0.00017505,-0.07903566,-0.05737872,0.05450528,0.0
 0945242,0.01750695,-0.01501648,-0.00456820,-0.01143060,0.01005513,0.09
 013693,-0.00003561,-0.00030783,0.00008969,-0.00000846,-0.00003309,0.00
 008769,0.00002335,-0.00004037,-0.00004245,-0.00054508,0.00101220,-0.00
 034876,0.00007162,-0.00003903,-0.00002373,0.00010433,-0.00012422,0.000
 03115,-0.05670453,-0.17557596,0.11622679,-0.00545054,-0.01141041,0.013
 38588,0.00549080,0.01205555,-0.00833396,0.07498296,0.19273350,0.000001
 02,0.00002684,0.00001286,0.00002934,0.00002822,-0.00003794,-0.00000947
 ,0.00000777,0.00001397,0.00030871,-0.00018362,-0.00009281,-0.00008336,
 0.00004418,0.00003332,-0.00004975,0.00004325,0.00000186,0.06134988,0.1
 2197832,-0.16080649,0.00481424,0.00680283,-0.00566401,0.00599232,0.016
 62345,-0.01217718,-0.05889120,-0.12547411,0.16503454,-0.00045766,0.002
 89358,-0.00123614,-0.00002845,0.00004046,0.00006337,0.00001162,-0.0000
 8098,-0.00003201,0.00562974,-0.01290579,0.00529461,-0.00068407,0.00159
 690,-0.00089519,-0.00081244,0.00156630,-0.00070631,-0.17101481,-0.0563
 7605,-0.02144213,-0.02684212,-0.02338745,-0.02068104,0.01188942,0.0108
 3623,0.00912301,-0.01675868,-0.01854471,-0.01151282,0.30021427,-0.0003
 0749,-0.00341629,0.00117474,0.00023917,-0.00003228,0.00005688,0.000042
 73,0.00000550,-0.00012149,-0.00428629,0.01120081,-0.00528308,-0.000095
 20,-0.00003896,0.00053550,0.00128326,-0.00134833,0.00055216,-0.0779795
 1,-0.10780623,-0.02238341,0.00157576,0.01148736,-0.00176314,-0.0097516
 0,-0.01075031,-0.00932809,-0.02725860,-0.02082023,-0.02105026,0.062926
 87,0.20316608,-0.00052368,-0.00603255,0.00266139,0.00073699,0.00025082
 ,0.00000313,0.00009197,0.00012282,-0.00010001,-0.01867951,0.03181826,-
 0.01251065,0.00237911,-0.00528058,0.00193845,0.00244844,-0.00383167,0.
 00245094,-0.05197907,-0.03231869,-0.08088873,-0.01780586,-0.01607256,-
 0.01203266,-0.01763406,-0.01849018,-0.01697241,0.00835184,0.00016604,0
 .00960273,-0.01664076,0.13343056,0.25066039,0.00204835,-0.00652112,0.0
 0211140,0.00081222,-0.00003975,0.00023030,0.00008118,-0.00016329,0.000
 09708,-0.03065665,0.06507881,-0.02607090,0.00227292,-0.00568512,0.0016
 2204,0.00293641,-0.00406921,0.00316341,0.01510198,0.00236699,-0.009859
 73,0.00077343,-0.00256104,-0.00154647,0.00069820,-0.00299063,-0.003188
 34,0.00059866,-0.00052848,-0.00195754,-0.08015481,0.02988580,0.0770964
 7,0.06575651,-0.00375853,0.00900724,-0.00356923,0.00013652,0.00028075,
 0.00020242,0.00031734,0.00000321,-0.00033200,0.06143629,-0.11691436,0.
 04629553,-0.00384087,0.00816817,-0.00255538,-0.00430653,0.00716461,-0.
 00399061,0.01560032,-0.02107770,-0.03942404,0.00170705,0.00377737,0.00
 418199,-0.00472113,-0.00270618,-0.00346772,0.00446709,0.00418249,0.000
 83814,0.00417463,-0.05759602,-0.02655171,-0.02587971,0.11962940,0.0011
 3447,0.00327902,-0.00201465,-0.00042852,-0.00028328,-0.00012387,-0.000
 54854,0.00012554,0.00029610,-0.00250194,0.00780556,0.00086587,-0.00148
 239,0.00267698,-0.00044064,-0.00071260,0.00236327,-0.00091346,0.014863
 06,-0.02287380,-0.04219354,0.00375428,0.00274242,0.00318406,-0.0054901
 8,-0.00315647,-0.00121123,0.00113367,0.00372547,0.00441860,0.05389542,
 -0.05496062,-0.16040504,-0.05331871,0.02032846,0.25184943,-0.01137609,
 0.01682521,-0.00609632,0.00001331,0.00004989,-0.00026148,0.00036760,0.
 00017172,-0.00003249,0.00873624,-0.05278418,0.02129265,-0.00180828,0.0
 0438116,-0.00045514,-0.00126778,0.00000914,-0.00210248,-0.00221927,-0.
 00543698,-0.00400512,0.00148287,0.00078657,0.00056065,-0.00021844,0.00
 007151,-0.00020186,0.00057494,0.00094484,0.00005074,-0.01953727,0.0218
 3685,0.02839182,0.01644135,-0.04176322,-0.00755296,0.01330618,0.005683
 16,-0.01373359,0.00526916,-0.00067879,0.00017460,-0.00025821,-0.000623
 43,0.00021332,0.00038219,-0.06139372,0.09458809,-0.04410003,0.00655007
 ,-0.01435861,0.00371357,0.00949385,-0.01918818,0.00917495,0.00794197,0
 .00690766,0.00911122,-0.00332410,-0.00092431,-0.00213289,-0.00020687,0
 .00005368,-0.00034812,-0.00146673,-0.00164537,0.00032158,0.02711678,-0
 .02403560,-0.05731286,-0.04919377,0.04609092,0.03821027,0.05528401,-0.
 07518571,-0.00040855,0.00214398,-0.00135257,-0.00019985,0.00012956,0.0
 0003645,0.00082382,-0.00044108,-0.00008770,0.01991414,-0.03612607,-0.0
 0857358,-0.00626760,0.01467575,-0.00746137,-0.00001431,-0.00288367,-0.
 00063290,0.00122518,-0.00439270,-0.00224024,0.00013049,0.00089034,0.00
 056743,-0.00065012,-0.00009466,-0.00039492,0.00025623,0.00055559,-0.00
 035709,0.00456748,-0.02061017,0.01598076,0.01188601,0.00748302,-0.0537
 2449,-0.03047497,0.03887226,0.05751565,-0.10361709,0.08496172,-0.03348
 108,0.00634444,-0.00449872,0.00502114,0.00120916,-0.00070507,-0.002961
 65,-0.02869257,0.02481691,-0.00711371,0.00186019,-0.00110133,0.0000758
 8,0.00185653,-0.00089220,0.00037658,-0.00104400,-0.00087865,-0.0008464
 9,0.00034655,0.00001799,0.00023023,0.00010601,0.00008456,0.00013434,0.
 00013503,0.00016799,-0.00002873,-0.00117093,0.00161628,0.00317418,0.00
 287763,-0.00300476,-0.00230464,-0.00419204,0.00409864,-0.00065897,0.37
 240641,0.07759314,-0.20450455,0.05215300,0.01606071,-0.02970946,0.0106
 9434,0.00352756,-0.00934868,0.00655942,0.01353198,-0.00112799,-0.00176
 013,-0.00166048,0.00102137,-0.00044656,-0.00168558,0.00151897,0.000066
 38,-0.00032051,-0.00030668,-0.00029991,0.00006329,-0.00000153,0.000074
 99,0.00002963,0.00004172,0.00004384,0.00005012,0.00006161,-0.00001624,
 -0.00034001,0.00038558,0.00095321,0.00105262,-0.00075065,-0.00067043,-
 0.00140721,0.00158018,-0.00009721,-0.49679040,0.96538242,-0.03023816,0
 .05123365,-0.08404766,0.00937578,-0.00990684,0.00577446,-0.01876060,0.
 03111130,-0.00933429,-0.00172032,-0.00390623,0.00145811,0.00066041,-0.
 00040836,0.00062423,0.00031346,-0.00006604,0.00012210,-0.00007916,0.00
 034053,-0.00001676,0.00001579,-0.00013846,0.00001712,0.00001220,-0.000
 03599,-0.00000925,-0.00001449,-0.00006106,0.00001532,0.00037533,-0.000
 41273,-0.00071187,-0.00053898,0.00084482,0.00065191,0.00134981,-0.0010
 5568,0.00068940,0.18605110,-0.32949305,0.21172299,0.00321237,0.0036164
 5,-0.00145211,-0.00093821,0.00037074,-0.00100641,-0.00044919,0.0009002
 1,0.00066771,0.00221549,-0.00018636,-0.00020931,-0.00011491,0.00000736
 ,-0.00000840,-0.00001981,-0.00002015,0.00000786,-0.00020501,-0.0003782
 9,-0.00015856,0.00005377,0.00004836,-0.00001236,-0.00000520,0.00005443
 ,0.00003827,0.00005325,0.00005492,-0.00002361,-0.00040125,0.00045681,0
 .00093315,0.00068589,-0.00084010,-0.00070407,-0.00058820,0.00112362,-0
 .00019481,-0.25119242,0.39368489,-0.14807034,0.35892272,0.00191971,-0.
 00021502,0.00226535,0.00093321,0.00070499,0.00073234,0.00137300,-0.000
 84316,-0.00096297,-0.00293668,-0.00129660,0.00127192,0.00070140,-0.000
 30578,-0.00005468,0.00092666,-0.00026121,0.00002112,0.00005846,0.00045
 592,0.00012493,-0.00004157,-0.00008669,0.00005169,0.00003471,-0.000064
 18,-0.00002874,-0.00005930,-0.00005441,0.00001425,0.00054179,-0.000448
 27,-0.00093233,-0.00077763,0.00081394,0.00076226,0.00100721,-0.0006419
 3,-0.00006929,0.39401632,-0.72895561,0.26351166,-0.55623560,1.02643374
 ,-0.00054046,0.00184541,0.00435224,-0.00128673,0.00053006,-0.00033773,
 0.00038055,-0.00053919,0.00067447,0.00111626,0.00093383,-0.00001738,-0
 .00061152,0.00018374,-0.00000796,-0.00011576,0.00002607,-0.00009018,-0
 .00007098,-0.00015228,-0.00009012,0.00003996,0.00003077,-0.00002248,-0
 .00001132,0.00002814,0.00001274,0.00003036,0.00001274,0.00000456,-0.00
 016495,0.00016482,0.00035775,0.00028136,-0.00028245,-0.00023228,-0.000
 42857,0.00017216,0.00003442,-0.14819443,0.26345784,-0.12812670,0.20872
 625,-0.36911306,0.18182666,0.00441444,0.00205298,-0.00069107,-0.000319
 50,0.00055301,-0.00033968,-0.00011747,0.00040029,-0.00005517,0.0004561
 0,-0.00063935,0.00025363,-0.00003646,0.00004014,0.00001402,-0.00005407
 ,0.00002974,-0.00003403,0.00011224,0.00012701,0.00007939,-0.00002739,-
 0.00000472,-0.00001452,-0.00000735,-0.00001437,-0.00001804,-0.00001752
 ,-0.00002340,0.00001023,0.00011743,-0.00018484,-0.00034103,-0.00027327
 ,0.00027560,0.00026367,0.00028488,-0.00040471,0.00006582,0.00276710,-0
 .00338975,0.00126814,-0.11122929,0.15853831,-0.05915001,0.10393014,0.0
 0179815,0.00236895,0.00136222,-0.00042569,0.00055185,-0.00028190,0.000
 11908,-0.00014414,0.00008861,0.00046956,-0.00041047,0.00013842,-0.0000
 1029,0.00000698,0.00000524,-0.00003243,-0.00000208,-0.00001507,0.00001
 943,-0.00005059,0.00000777,-0.00000308,0.00001275,-0.00001501,-0.00000
 871,0.00000875,0.00000563,0.00000606,0.00000557,-0.00000459,-0.0000585
 6,0.00004717,0.00008142,0.00002552,-0.00007320,-0.00007464,0.00002346,
 0.00010484,-0.00003564,-0.00190928,0.00471329,-0.00155752,0.15734272,-
 0.29523574,0.10270141,-0.15735595,0.28809606,-0.00058884,0.00134662,0.
 00545122,-0.00046043,0.00062234,-0.00023054,0.00067404,-0.00103849,0.0
 0025890,-0.00029648,0.00033597,-0.00003839,0.00003383,-0.00002715,-0.0
 0002353,-0.00000694,-0.00000430,-0.00000105,0.00003205,0.00000401,0.00
 002891,-0.00001394,0.00000676,0.00000323,0.00000155,-0.00000603,-0.000
 00429,-0.00000694,0.00000303,-0.00000224,-0.00000786,-0.00000167,-0.00
 003418,-0.00000741,-0.00000124,-0.00000677,-0.00003428,-0.00001957,0.0
 0000076,0.00052625,-0.00121948,0.00117090,-0.05853325,0.10240556,-0.05
 833802,0.05868865,-0.10240636,0.05176510\\-0.00000006,-0.00000135,0.00
 000066,0.00000027,-0.00000073,0.00000046,0.00000005,-0.00000040,0.0000
 0002,-0.00000188,0.00000141,-0.00000092,0.00000093,-0.00000150,0.00000
 025,0.00000191,-0.00000265,0.00000141,0.00000020,-0.00000022,0.0000002
 4,-0.00000006,0.00000035,-0.00000011,0.00000015,-0.00000007,0.00000017
 ,-0.00000010,0.00000014,-0.00000006,-0.00000026,0.00000045,0.00000174,
 0.00000134,-0.00000163,-0.00000184,-0.00000156,0.00000528,-0.00000139,
 -0.00000078,0.00000083,-0.00000046,-0.00000007,0.00000024,-0.00000020,
 -0.00000008,-0.00000016,0.00000003\\\@


 "THE ACADEMIC HIERARCHY"


 THE PRESIDENT:
   LEAPS TALL BUILDINGS IN A SINGLE BOUND,
     IS MORE POWERFUL THAN A LOCOMOTIVE,
       IS FASTER THAN A SPEEDING BULLET,
         WALKS ON WATER,
           GIVES POLICY TO GOD.

 THE VICE PRESIDENT FOR ACADEMIC AFFAIRS:
   LEAPS SHORT BUILDINGS IN A SINGLE BOUND,
     IS MORE POWERFUL THAN A SWITCH ENGINE,
       IS JUST AS FAST AS A SPEEDING BULLET,
         WALKS ON WATER IF SEA IS CALM,
           TALKS WITH GOD.

 PROFESSOR:
   LEAPS SHORT BUILDINGS WITH A RUNNING START AND FAVORABLE WINDS,
     IS ALMOST AS POWERFUL AS A SWITCH ENGINE,
       CAN FIRE A SPEEDING BULLET,
         WALKS ON WATER IN AN INDOOR SWIMMING POOL,
          TALKS WITH GOD IF SPECIAL REQUEST IS APPROVED.

 ASSOCIATE PROFESSOR:
   BARELY CLEARS A QUONSET HUT,
     LOSES TUG OF WAR WITH LOCOMOTIVE,
       MISFIRES FREQUENTLY,
         SWIMS WELL,
           IS OCCASIONALLY ADDRESSED BY GOD.

 ASSISTANT PROFESSOR:
   MAKES HIGH MARKS ON WALLS WHEN TRYING TO LEAP TALL BUILDINGS,
     IS RUN OVER BY LOCOMOTIVES,
       CAN SOMETIMES HANDLE A GUN WITHOUT INFLICTING SELF INJURY,
         DOG PADDLES,
           TALKS TO ANIMALS.

 GRADUATE STUDENT:
   RUNS INTO BUILDINGS,
     RECOGNIZES LOCOMOTIVES TWO OUT OF THREE TIMES,
       IS NOT ISSUED AMMUNITION,
         CAN STAY AFLOAT WITH A LIFE JACKET,
           TALKS TO WALLS.

 UNDERGRADUATE AND WORK STUDY STUDENT:
   FALLS OVER DOORSTEP WHEN TRYING TO ENTER BUILDINGS,
     SAYS, "LOOK AT THE CHOO-CHOO,"
       WETS HIMSELF WITH A WATER PISTOL,
        PLAYS IN MUD PUDDLES,
          MUMBLES TO HIMSELF.

 DEPARTMENT SECRETARY:
   LIFTS TALL BUILDINGS AND WALKS UNDER THEM,
     KICKS LOCOMOTIVES OFF THE TRACKS,
       CATCHES SPEEDING BULLETS IN HER TEETH AND EATS THEM,
         FREEZES WATER WITH A SINGLE GLANCE,
           IS GOD.
 Job cpu time:       2 days  5 hours 17 minutes 14.5 seconds.
 Elapsed time:       0 days  1 hours 22 minutes 48.0 seconds.
 File lengths (MBytes):  RWF=  83473 Int=      0 D2E=      0 Chk=     18 Scr=      1
 Normal termination of Gaussian 16 at Tue Jun  4 08:40:14 2019.
