 Entering Gaussian System, Link 0=g16
 Initial command:
 /ichec/packages/gaussian/16b01/l1.exe "/localscratch/353443/Gau-97929.inp" -scrdir="/localscratch/353443/"
 Entering Link 1 = /ichec/packages/gaussian/16b01/l1.exe PID=     98185.
  
 Copyright (c) 1988-2017, Gaussian, Inc.  All Rights Reserved.
  
 This is part of the Gaussian(R) 16 program.  It is based on
 the Gaussian(R) 09 system (copyright 2009, Gaussian, Inc.),
 the Gaussian(R) 03 system (copyright 2003, Gaussian, Inc.),
 the Gaussian(R) 98 system (copyright 1998, Gaussian, Inc.),
 the Gaussian(R) 94 system (copyright 1995, Gaussian, Inc.),
 the Gaussian 92(TM) system (copyright 1992, Gaussian, Inc.),
 the Gaussian 90(TM) system (copyright 1990, Gaussian, Inc.),
 the Gaussian 88(TM) system (copyright 1988, Gaussian, Inc.),
 the Gaussian 86(TM) system (copyright 1986, Carnegie Mellon
 University), and the Gaussian 82(TM) system (copyright 1983,
 Carnegie Mellon University). Gaussian is a federally registered
 trademark of Gaussian, Inc.
  
 This software contains proprietary and confidential information,
 including trade secrets, belonging to Gaussian, Inc.
  
 This software is provided under written license and may be
 used, copied, transmitted, or stored only in accord with that
 written license.
  
 The following legend is applicable only to US Government
 contracts under FAR:
  
                    RESTRICTED RIGHTS LEGEND
  
 Use, reproduction and disclosure by the US Government is
 subject to restrictions as set forth in subparagraphs (a)
 and (c) of the Commercial Computer Software - Restricted
 Rights clause in FAR 52.227-19.
  
 Gaussian, Inc.
 340 Quinnipiac St., Bldg. 40, Wallingford CT 06492
  
  
 ---------------------------------------------------------------
 Warning -- This program may not be used in any manner that
 competes with the business of Gaussian, Inc. or will provide
 assistance to any competitor of Gaussian, Inc.  The licensee
 of this program is prohibited from giving any competitor of
 Gaussian, Inc. access to this program.  By using this program,
 the user acknowledges that Gaussian, Inc. is engaged in the
 business of creating and licensing software in the field of
 computational chemistry and represents and warrants to the
 licensee that it is not a competitor of Gaussian, Inc. and that
 it will not use this program in any manner prohibited above.
 ---------------------------------------------------------------
  

 Cite this work as:
 Gaussian 16, Revision B.01,
 M. J. Frisch, G. W. Trucks, H. B. Schlegel, G. E. Scuseria, 
 M. A. Robb, J. R. Cheeseman, G. Scalmani, V. Barone, 
 G. A. Petersson, H. Nakatsuji, X. Li, M. Caricato, A. V. Marenich, 
 J. Bloino, B. G. Janesko, R. Gomperts, B. Mennucci, H. P. Hratchian, 
 J. V. Ortiz, A. F. Izmaylov, J. L. Sonnenberg, D. Williams-Young, 
 F. Ding, F. Lipparini, F. Egidi, J. Goings, B. Peng, A. Petrone, 
 T. Henderson, D. Ranasinghe, V. G. Zakrzewski, J. Gao, N. Rega, 
 G. Zheng, W. Liang, M. Hada, M. Ehara, K. Toyota, R. Fukuda, 
 J. Hasegawa, M. Ishida, T. Nakajima, Y. Honda, O. Kitao, H. Nakai, 
 T. Vreven, K. Throssell, J. A. Montgomery, Jr., J. E. Peralta, 
 F. Ogliaro, M. J. Bearpark, J. J. Heyd, E. N. Brothers, K. N. Kudin, 
 V. N. Staroverov, T. A. Keith, R. Kobayashi, J. Normand, 
 K. Raghavachari, A. P. Rendell, J. C. Burant, S. S. Iyengar, 
 J. Tomasi, M. Cossi, J. M. Millam, M. Klene, C. Adamo, R. Cammi, 
 J. W. Ochterski, R. L. Martin, K. Morokuma, O. Farkas, 
 J. B. Foresman, and D. J. Fox, Gaussian, Inc., Wallingford CT, 2016.
 
 ******************************************
 Gaussian 16:  ES64L-G16RevB.01 20-Dec-2017
                24-Jun-2019 
 ******************************************
 %mem=80GB
 %nproc=40
 Will use up to   40 processors via shared memory.
 ----------------------------------------------------------------------
 # opt=(calcfc,ts,noeigentest,maxcyc=500) freq=noraman uB2PLYPD3/cc-pvt
 z
 ----------------------------------------------------------------------
 1/5=1,6=500,10=4,11=1,18=20,38=1/1,3;
 2/9=110,12=2,17=6,18=5,40=1/2;
 3/5=16,6=1,11=2,25=1,30=1,71=2,74=-60,116=2,140=1/1,2,3;
 4//1;
 5/5=2,38=5/2;
 8/6=3,8=1,10=1,19=11,30=-1/1;
 9/15=3,16=-3/6;
 11/6=1,8=1,15=11,17=12,24=-1,27=1,28=-2,29=300,32=6,42=3/1,2,10;
 10/6=2,21=1/2;
 8/6=4,8=1,10=1,19=11,30=-1/11,4;
 10/5=1,20=4/2;
 11/12=2,14=11,16=1,17=2,28=-2,42=3,76=2/2,10,12;
 6/7=2,8=2,9=2,10=2/1;
 7/10=1,12=2,25=1,44=2/1,2,3,16;
 1/5=1,6=500,10=4,11=1,18=20/3(2);
 2/9=110/2;
 99//99;
 2/9=110/2;
 3/5=16,6=1,11=2,25=1,30=1,71=1,74=-60,116=2/1,2,3;
 4/5=5,16=3,69=1/1;
 5/5=2,38=5/2;
 8/6=4,10=1/1;
 9/15=2,16=-3/6;
 10/5=1/2;
 7/12=2/1,2,3,16;
 1/5=1,6=500,11=1,18=20/3(-8);
 2/9=110/2;
 6/7=2,8=2,9=2,10=2/1;
 99/9=10/99;
 -------------------
 Title Card Required
 -------------------
 Symbolic Z-matrix:
 Charge =  0 Multiplicity = 2
 C                    -1.3282    0.32349  -0.62437 
 H                    -1.40206   0.64151  -1.66545 
 H                    -0.77572  -0.61629  -0.61164 
 C                    -0.5802    1.36821   0.1649 
 H                    -0.89866   2.39777   0.02947 
 H                    -0.38674   1.11818   1.20368 
 C                     2.70886  -0.37557   0.27431 
 H                     2.11542  -0.17718   1.1683 
 H                     2.95473  -1.43411   0.22003 
 H                     3.61807   0.22264   0.2946 
 O                     1.95865  -0.10584  -0.90139 
 O                     1.68942   1.27744  -0.93172 
 H                     0.66291   1.37438  -0.39959 
 C                    -2.70358   0.10926  -0.05411 
 C                    -3.11181  -1.01734   0.52246 
 H                    -3.38135   0.95389  -0.11009 
 H                    -4.10853  -1.11576   0.92689 
 H                    -2.45995  -1.87752   0.59822 
 
 Add virtual bond connecting atoms H13        and O12        Dist= 2.19D+00.
 Add virtual bond connecting atoms H13        and C4         Dist= 2.58D+00.

 GradGradGradGradGradGradGradGradGradGradGradGradGradGradGradGradGradGrad
 Berny optimization.
 Initialization pass.
                           ----------------------------
                           !    Initial Parameters    !
                           ! (Angstroms and Degrees)  !
 --------------------------                            --------------------------
 ! Name  Definition              Value          Derivative Info.                !
 --------------------------------------------------------------------------------
 ! R1    R(1,2)                  1.0911         calculate D2E/DX2 analytically  !
 ! R2    R(1,3)                  1.0902         calculate D2E/DX2 analytically  !
 ! R3    R(1,4)                  1.5079         calculate D2E/DX2 analytically  !
 ! R4    R(1,14)                 1.5042         calculate D2E/DX2 analytically  !
 ! R5    R(4,5)                  1.0862         calculate D2E/DX2 analytically  !
 ! R6    R(4,6)                  1.0858         calculate D2E/DX2 analytically  !
 ! R7    R(4,13)                 1.3653         calculate D2E/DX2 analytically  !
 ! R8    R(7,8)                  1.0912         calculate D2E/DX2 analytically  !
 ! R9    R(7,9)                  1.0881         calculate D2E/DX2 analytically  !
 ! R10   R(7,10)                 1.0885         calculate D2E/DX2 analytically  !
 ! R11   R(7,11)                 1.4205         calculate D2E/DX2 analytically  !
 ! R12   R(11,12)                1.4096         calculate D2E/DX2 analytically  !
 ! R13   R(12,13)                1.1603         calculate D2E/DX2 analytically  !
 ! R14   R(14,15)                1.3298         calculate D2E/DX2 analytically  !
 ! R15   R(14,16)                1.0844         calculate D2E/DX2 analytically  !
 ! R16   R(15,17)                1.0801         calculate D2E/DX2 analytically  !
 ! R17   R(15,18)                1.0819         calculate D2E/DX2 analytically  !
 ! A1    A(2,1,3)              107.2594         calculate D2E/DX2 analytically  !
 ! A2    A(2,1,4)              109.3335         calculate D2E/DX2 analytically  !
 ! A3    A(2,1,14)             109.9586         calculate D2E/DX2 analytically  !
 ! A4    A(3,1,4)              109.8601         calculate D2E/DX2 analytically  !
 ! A5    A(3,1,14)             109.643          calculate D2E/DX2 analytically  !
 ! A6    A(4,1,14)             110.7195         calculate D2E/DX2 analytically  !
 ! A7    A(1,4,5)              116.488          calculate D2E/DX2 analytically  !
 ! A8    A(1,4,6)              115.4407         calculate D2E/DX2 analytically  !
 ! A9    A(1,4,13)             103.7909         calculate D2E/DX2 analytically  !
 ! A10   A(5,4,6)              112.941          calculate D2E/DX2 analytically  !
 ! A11   A(5,4,13)             102.1884         calculate D2E/DX2 analytically  !
 ! A12   A(6,4,13)             103.5542         calculate D2E/DX2 analytically  !
 ! A13   A(8,7,9)              109.9153         calculate D2E/DX2 analytically  !
 ! A14   A(8,7,10)             109.8191         calculate D2E/DX2 analytically  !
 ! A15   A(8,7,11)             110.8748         calculate D2E/DX2 analytically  !
 ! A16   A(9,7,10)             110.2936         calculate D2E/DX2 analytically  !
 ! A17   A(9,7,11)             105.2355         calculate D2E/DX2 analytically  !
 ! A18   A(10,7,11)            110.6218         calculate D2E/DX2 analytically  !
 ! A19   A(7,11,12)            107.7598         calculate D2E/DX2 analytically  !
 ! A20   A(11,12,13)           103.9513         calculate D2E/DX2 analytically  !
 ! A21   A(1,14,15)            124.452          calculate D2E/DX2 analytically  !
 ! A22   A(1,14,16)            116.1669         calculate D2E/DX2 analytically  !
 ! A23   A(15,14,16)           119.3663         calculate D2E/DX2 analytically  !
 ! A24   A(14,15,17)           121.5212         calculate D2E/DX2 analytically  !
 ! A25   A(14,15,18)           121.2628         calculate D2E/DX2 analytically  !
 ! A26   A(17,15,18)           117.2141         calculate D2E/DX2 analytically  !
 ! A27   L(4,13,12,8,-1)       179.3634         calculate D2E/DX2 analytically  !
 ! A28   L(4,13,12,8,-2)       173.9672         calculate D2E/DX2 analytically  !
 ! D1    D(2,1,4,5)             48.2151         calculate D2E/DX2 analytically  !
 ! D2    D(2,1,4,6)           -175.7868         calculate D2E/DX2 analytically  !
 ! D3    D(2,1,4,13)           -63.2052         calculate D2E/DX2 analytically  !
 ! D4    D(3,1,4,5)            165.6695         calculate D2E/DX2 analytically  !
 ! D5    D(3,1,4,6)            -58.3324         calculate D2E/DX2 analytically  !
 ! D6    D(3,1,4,13)            54.2492         calculate D2E/DX2 analytically  !
 ! D7    D(14,1,4,5)           -73.0814         calculate D2E/DX2 analytically  !
 ! D8    D(14,1,4,6)            62.9168         calculate D2E/DX2 analytically  !
 ! D9    D(14,1,4,13)          175.4984         calculate D2E/DX2 analytically  !
 ! D10   D(2,1,14,15)          125.1991         calculate D2E/DX2 analytically  !
 ! D11   D(2,1,14,16)          -56.2145         calculate D2E/DX2 analytically  !
 ! D12   D(3,1,14,15)            7.5031         calculate D2E/DX2 analytically  !
 ! D13   D(3,1,14,16)         -173.9106         calculate D2E/DX2 analytically  !
 ! D14   D(4,1,14,15)         -113.8742         calculate D2E/DX2 analytically  !
 ! D15   D(4,1,14,16)           64.7122         calculate D2E/DX2 analytically  !
 ! D16   D(1,4,12,11)          -50.4567         calculate D2E/DX2 analytically  !
 ! D17   D(5,4,12,11)         -171.6839         calculate D2E/DX2 analytically  !
 ! D18   D(6,4,12,11)           69.6999         calculate D2E/DX2 analytically  !
 ! D19   D(8,7,11,12)           65.1921         calculate D2E/DX2 analytically  !
 ! D20   D(9,7,11,12)         -176.011          calculate D2E/DX2 analytically  !
 ! D21   D(10,7,11,12)         -56.8959         calculate D2E/DX2 analytically  !
 ! D22   D(7,11,12,13)         -91.8592         calculate D2E/DX2 analytically  !
 ! D23   D(1,14,15,17)         179.2859         calculate D2E/DX2 analytically  !
 ! D24   D(1,14,15,18)          -1.2333         calculate D2E/DX2 analytically  !
 ! D25   D(16,14,15,17)          0.7417         calculate D2E/DX2 analytically  !
 ! D26   D(16,14,15,18)       -179.7775         calculate D2E/DX2 analytically  !
 --------------------------------------------------------------------------------
 Trust Radius=3.00D-01 FncErr=1.00D-07 GrdErr=1.00D-07 EigMax=2.50D+02 EigMin=1.00D-04
 Number of steps in this run=    108 maximum allowed number of steps=    108.
 Search for a saddle point of order  1.
 GradGradGradGradGradGradGradGradGradGradGradGradGradGradGradGradGradGrad

                          Input orientation:                          
 ---------------------------------------------------------------------
 Center     Atomic      Atomic             Coordinates (Angstroms)
 Number     Number       Type             X           Y           Z
 ---------------------------------------------------------------------
      1          6           0       -1.328200    0.323490   -0.624365
      2          1           0       -1.402061    0.641509   -1.665453
      3          1           0       -0.775718   -0.616289   -0.611635
      4          6           0       -0.580200    1.368211    0.164896
      5          1           0       -0.898664    2.397773    0.029472
      6          1           0       -0.386744    1.118185    1.203676
      7          6           0        2.708861   -0.375572    0.274307
      8          1           0        2.115417   -0.177176    1.168299
      9          1           0        2.954728   -1.434108    0.220033
     10          1           0        3.618066    0.222644    0.294598
     11          8           0        1.958647   -0.105839   -0.901387
     12          8           0        1.689423    1.277443   -0.931719
     13          1           0        0.662910    1.374384   -0.399591
     14          6           0       -2.703575    0.109264   -0.054113
     15          6           0       -3.111808   -1.017345    0.522457
     16          1           0       -3.381350    0.953893   -0.110088
     17          1           0       -4.108534   -1.115757    0.926885
     18          1           0       -2.459947   -1.877519    0.598217
 ---------------------------------------------------------------------
                    Distance matrix (angstroms):
                    1          2          3          4          5
     1  C    0.000000
     2  H    1.091080   0.000000
     3  H    1.090222   1.756387   0.000000
     4  C    1.507939   2.133947   2.139969   0.000000
     5  H    2.216902   2.492116   3.083943   1.086166   0.000000
     6  H    2.204453   3.080583   2.540680   1.085819   1.810570
     7  C    4.194539   4.657983   3.603488   3.724335   4.556931
     8  H    3.914436   4.590539   3.423397   3.265178   4.124557
     9  H    4.705914   5.181202   3.908545   4.511291   5.437670
    10  H    5.031919   5.405453   4.564034   4.353686   5.020192
    11  O    3.326323   3.526568   2.796653   3.123384   3.911368
    12  O    3.179708   3.240378   3.124995   2.522299   2.979467
    13  H    2.262614   2.530537   2.465237   1.365286   1.915707
    14  C    1.504240   2.138607   2.133985   2.478232   2.915813
    15  C    2.508844   3.234499   2.627609   3.496822   4.099277
    16  H    2.208464   2.536598   3.083235   2.844946   2.875412
    17  H    3.494004   4.139227   3.704615   4.381765   4.842882
    18  H    2.760435   3.548074   2.427153   3.775709   4.586850
                    6          7          8          9         10
     6  H    0.000000
     7  C    3.560591   0.000000
     8  H    2.817804   1.091219   0.000000
     9  H    4.318239   1.088069   1.784245   0.000000
    10  H    4.203203   1.088544   1.783582   1.786170   0.000000
    11  O    3.380885   1.420505   2.076840   2.003512   2.071703
    12  O    2.982573   2.286091   2.589877   3.206250   2.517165
    13  H    1.933359   2.775320   2.641097   3.677498   3.246745
    14  C    2.822704   5.444023   4.979862   5.871418   6.332267
    15  C    3.528530   5.861198   5.333561   6.088350   6.846948
    16  H    3.274238   6.245471   5.755696   6.779190   7.049136
    17  H    4.349578   6.888440   6.298951   7.105678   7.867112
    18  H    3.693101   5.392341   4.914277   5.445947   6.437788
                   11         12         13         14         15
    11  O    0.000000
    12  O    1.409564   0.000000
    13  H    2.030220   1.160296   0.000000
    14  C    4.743465   4.629608   3.612908   0.000000
    15  C    5.344875   5.516566   4.562788   1.329788   0.000000
    16  H    5.501341   5.147087   4.076354   1.084394   2.087713
    17  H    6.416634   6.542027   5.543196   2.106405   1.080143
    18  H    4.991156   5.432473   4.617654   2.105278   1.081925
                   16         17         18
    16  H    0.000000
    17  H    2.426430   0.000000
    18  H    3.060649   1.845574   0.000000
 Stoichiometry    C5H11O2(2)
 Framework group  C1[X(C5H11O2)]
 Deg. of freedom    48
 Full point group                 C1      NOp   1
 Largest Abelian subgroup         C1      NOp   1
 Largest concise Abelian subgroup C1      NOp   1
                         Standard orientation:                         
 ---------------------------------------------------------------------
 Center     Atomic      Atomic             Coordinates (Angstroms)
 Number     Number       Type             X           Y           Z
 ---------------------------------------------------------------------
      1          6           0        1.175338   -0.378837   -0.452556
      2          1           0        1.108873   -1.032250   -1.323813
      3          1           0        0.716723    0.571835   -0.725463
      4          6           0        0.421517   -1.000214    0.696149
      5          1           0        0.627144   -2.046914    0.900831
      6          1           0        0.363035   -0.396409    1.596705
      7          6           0       -2.661805    1.070967    0.424119
      8          1           0       -1.998050    1.110519    1.289349
      9          1           0       -2.812942    2.072578    0.026842
     10          1           0       -3.615232    0.630442    0.710201
     11          8           0       -2.068405    0.334586   -0.635811
     12          8           0       -1.933170   -1.001654   -0.207975
     13          1           0       -0.869535   -1.041193    0.253983
     14          6           0        2.617219   -0.157738   -0.085363
     15          6           0        3.186729    1.037313    0.040519
     16          1           0        3.204119   -1.049304    0.105866
     17          1           0        4.225454    1.141471    0.317848
     18          1           0        2.629019    1.946817   -0.139270
 ---------------------------------------------------------------------
 Rotational constants (GHZ):           4.8985828           0.9623790           0.8757961
 Standard basis: CC-pVTZ (5D, 7F)
 There are   410 symmetry adapted cartesian basis functions of A   symmetry.
 There are   364 symmetry adapted basis functions of A   symmetry.
   364 basis functions,   551 primitive gaussians,   410 cartesian basis functions
    29 alpha electrons       28 beta electrons
       nuclear repulsion energy       298.0547920995 Hartrees.
 NAtoms=   18 NActive=   18 NUniq=   18 SFac= 1.00D+00 NAtFMM=   60 NAOKFM=F Big=F
 Integral buffers will be    131072 words long.
 Raffenetti 2 integral format.
 Two-electron integral symmetry is turned on.
 Nuclear repulsion after empirical dispersion term =      298.0455945776 Hartrees.
 One-electron integrals computed using PRISM.
 NBasis=   364 RedAO= T EigKep=  4.33D-04  NBF=   364
 NBsUse=   364 1.00D-06 EigRej= -1.00D+00 NBFU=   364
 ExpMin= 1.03D-01 ExpMax= 1.53D+04 ExpMxC= 5.22D+02 IAcc=3 IRadAn=         5 AccDes= 0.00D+00
 Harris functional with IExCor=  419 and IRadAn=       5 diagonalized for initial guess.
 HarFok:  IExCor=  419 AccDes= 0.00D+00 IRadAn=         5 IDoV= 1 UseB2=F ITyADJ=14
 ICtDFT=  3500011 ScaDFX=  1.000000  1.000000  1.000000  1.000000
 FoFCou: FMM=F IPFlag=           0 FMFlag=      100000 FMFlg1=           0
         NFxFlg=           0 DoJE=T BraDBF=F KetDBF=T FulRan=T
         wScrn=  0.000000 ICntrl=       500 IOpCl=  0 I1Cent=   200000004 NGrid=           0
         NMat0=    1 NMatS0=      1 NMatT0=    0 NMatD0=    1 NMtDS0=    0 NMtDT0=    0
 Petite list used in FoFCou.
 Initial guess <Sx>= 0.0000 <Sy>= 0.0000 <Sz>= 0.5000 <S**2>= 0.7500 S= 0.5000
 Requested convergence on RMS density matrix=1.00D-08 within 128 cycles.
 Requested convergence on MAX density matrix=1.00D-06.
 Requested convergence on             energy=1.00D-06.
 No special actions if energy rises.
 Integral accuracy reduced to 1.0D-05 until final iterations.
 Initial convergence to 1.0D-05 achieved.  Increase integral accuracy.
 SCF Done:  E(UB2PLYPD3) =  -346.804964503     A.U. after   21 cycles
            NFock= 21  Conv=0.82D-08     -V/T= 2.0044
 <Sx>= 0.0000 <Sy>= 0.0000 <Sz>= 0.5000 <S**2>= 0.7688 S= 0.5093
 <L.S>=  0.00000000000    
 Annihilation of the first spin contaminant:
 S**2 before annihilation     0.7688,   after     0.7502
 DoSCS=T DFT=T ScalE2(SS,OS)=  0.270000  0.270000
 ExpMin= 1.03D-01 ExpMax= 1.53D+04 ExpMxC= 5.22D+02 IAcc=3 IRadAn=         5 AccDes= 0.00D+00
 HarFok:  IExCor=  205 AccDes= 0.00D+00 IRadAn=         5 IDoV=-2 UseB2=F ITyADJ=14
 ICtDFT= 12500011 ScaDFX=  1.000000  1.000000  1.000000  1.000000
 Range of M.O.s used for correlation:     8   364
 NBasis=   364 NAE=    29 NBE=    28 NFC=     7 NFV=     0
 NROrb=    357 NOA=    22 NOB=    21 NVA=   335 NVB=   336

 **** Warning!!: The largest alpha MO coefficient is  0.11939081D+02


 **** Warning!!: The largest beta MO coefficient is  0.11936151D+02

 DoSCS=T DFT=T ScalE2(SS,OS)=  0.270000  0.270000
 Disk-based method using ON**2 memory for 22 occupieds at a time.
 Permanent disk used for amplitudes=   135386230 words.
 Estimated scratch disk usage=  2479458636 words.
 Actual    scratch disk usage=  2398226764 words.
 JobTyp=2 Pass  1:  I=   8 to  29 NPSUse= 40 ParTrn=T ParDer=T DoDerP=T.
 (rs|ai) integrals will be sorted in core.
 Actual    scratch disk usage=  2398226764 words.
 JobTyp=3 Pass  1:  I=   8 to  28 NPSUse= 40 ParTrn=T ParDer=T DoDerP=T.
 (rs|ai) integrals will be sorted in core.
 Spin components of T(2) and E(2):
     alpha-alpha T2 =       0.7531196130D-01 E2=     -0.5343512851D-01
     alpha-beta  T2 =       0.4628310425D+00 E2=     -0.3341400062D+00
     beta-beta   T2 =       0.7979689635D-01 E2=     -0.5180546698D-01
 (S**2,0)=  0.76877D+00           (S**2,1)=  0.74296D+00
 Scaling Projection term by:   0.270000
 E(PUHF)=      -0.34681111739D+03        E(PMP2)=      -0.34724487062D+03
 E2(B2PLYPD3) =    -0.4393806017D+00 E(B2PLYPD3) =    -0.34724434510459D+03
 G2DrvN: will do    19 centers at a time, making    1 passes.
 Calling FoFCou, ICntrl=  3107 FMM=F I1Cent=   0 AccDes= 0.00D+00.
 End of G2Drv F.D. properties file   721 does not exist.
 End of G2Drv F.D. properties file   722 does not exist.
 End of G2Drv F.D. properties file   788 does not exist.
          IDoAtm=111111111111111111
          Differentiating once with respect to electric field.
                with respect to dipole field.
          Differentiating once with respect to nuclear coordinates.
 Keep R1 and R2 ints in memory in canonical form, NReq=4459304652.
          There are    57 degrees of freedom in the 1st order CPHF.  IDoFFX=6 NUNeed=    57.
     54 vectors produced by pass  0 Test12= 3.35D-14 1.75D-09 XBig12= 9.13D+01 4.00D+00.
 AX will form    54 AO Fock derivatives at one time.
     54 vectors produced by pass  1 Test12= 3.35D-14 1.75D-09 XBig12= 6.43D+00 3.93D-01.
     54 vectors produced by pass  2 Test12= 3.35D-14 1.75D-09 XBig12= 5.16D-01 1.41D-01.
     54 vectors produced by pass  3 Test12= 3.35D-14 1.75D-09 XBig12= 8.00D-03 8.06D-03.
     54 vectors produced by pass  4 Test12= 3.35D-14 1.75D-09 XBig12= 8.25D-05 9.04D-04.
     54 vectors produced by pass  5 Test12= 3.35D-14 1.75D-09 XBig12= 8.76D-07 8.94D-05.
     54 vectors produced by pass  6 Test12= 3.35D-14 1.75D-09 XBig12= 7.68D-09 7.51D-06.
     19 vectors produced by pass  7 Test12= 3.35D-14 1.75D-09 XBig12= 6.03D-11 6.59D-07.
      3 vectors produced by pass  8 Test12= 3.35D-14 1.75D-09 XBig12= 4.41D-13 5.74D-08.
      2 vectors produced by pass  9 Test12= 3.35D-14 1.75D-09 XBig12= 4.01D-15 5.39D-09.
 InvSVY:  IOpt=1 It=  1 EMax= 1.78D-15
 Solved reduced A of dimension   402 with    57 vectors.
 End of Minotr F.D. properties file   721 does not exist.
 End of Minotr F.D. properties file   722 does not exist.
 End of Minotr F.D. properties file   788 does not exist.
 MDV= 10737418240.
 DoSCS=T DFT=T ScalE2(SS,OS)=  0.270000  0.270000
 Form MO integral derivatives with frozen-active canonical formalism.
 Discarding MO integrals.
 Reordered first order wavefunction length =    545006183
 In DefCFB: NBatch=  1 ICI= 29 ICA=336 LFMax= 68
            Large arrays: LIAPS= 11415666080 LIARS=  1957569600 words.
 In DefCFB: NBatch=  1 ICI= 29 ICA=336 LFMax= 68
            Large arrays: LIAPS= 11415666080 LIARS=  1957569600 words.
 Semi-Direct transformation.
 ModeAB=           4 MOrb=            29 LenV=   10733570243
 LASXX=    664627481 LTotXX=   664627481 LenRXX=  1338891981
 LTotAB=   674264500 MaxLAS=   762523216 LenRXY=           0
 NonZer=  2003519462 LenScr=  3017065472 LnRSAI=   762523216
 LnScr1=  1148270592 LExtra=           0 Total=   6266751261
 MaxDsk=          -1 SrtSym=           T ITran=            4
 JobTyp=1 Pass  1:  I=   1 to  29.
 (rs|ai) integrals will be sorted in core.
 ModeAB=           4 MOrb=            28 LenV=   10733570243
 LASXX=    642894399 LTotXX=   642894399 LenRXX=  1195226319
 LTotAB=   552331920 MaxLAS=   736229312 LenRXY=           0
 NonZer=  1838120718 LenScr=  2767993856 LnRSAI=   736229312
 LnScr1=  1108675584 LExtra=           0 Total=   5808125071
 MaxDsk=          -1 SrtSym=           T ITran=            4
 JobTyp=2 Pass  1:  I=   1 to  28.
 (rs|ai) integrals will be sorted in core.
 SymMOI:  orbitals are not symmetric.
 DoSCS=T DFT=T ScalE2(SS,OS)=  0.270000  0.270000
 Spin components of T(2) and E(2):
     alpha-alpha T2 =       0.7531196130D-01 E2=     -0.5343512851D-01
     alpha-beta  T2 =       0.4628310425D+00 E2=     -0.3341400062D+00
     beta-beta   T2 =       0.7979689635D-01 E2=     -0.5180546698D-01
 E2(B2PLYPD3) =    -0.4393806017D+00 E(B2PLYPD3) =    -0.34724434510459D+03
 (S**2,0)=  0.76877D+00           (S**2,1)=  0.74296D+00
 Scaling Projection term by:   0.270000
 E(PUHF)=      -0.34681111739D+03        E(PMP2)=      -0.34724487062D+03
          IDoAtm=111111111111111111
          Differentiating once with respect to electric field.
                with respect to dipole field.
          Differentiating once with respect to nuclear coordinates.
 Keep R1 and R2 ints in memory in canonical form, NReq=4459439664.
          There are     1 degrees of freedom in the 1st order CPHF.  IDoFFX=0 NUNeed=     1.
 LinEq1:  Iter=  0 NonCon=     1 RMS=8.41D-04 Max=6.83D-02 NDo=     1
 AX will form     1 AO Fock derivatives at one time.
 LinEq1:  Iter=  1 NonCon=     1 RMS=2.72D-04 Max=8.86D-03 NDo=     1
 LinEq1:  Iter=  2 NonCon=     1 RMS=1.52D-04 Max=9.33D-03 NDo=     1
 LinEq1:  Iter=  3 NonCon=     1 RMS=7.17D-05 Max=3.37D-03 NDo=     1
 LinEq1:  Iter=  4 NonCon=     1 RMS=3.76D-05 Max=1.63D-03 NDo=     1
 LinEq1:  Iter=  5 NonCon=     1 RMS=2.39D-05 Max=9.25D-04 NDo=     1
 LinEq1:  Iter=  6 NonCon=     1 RMS=1.88D-05 Max=7.63D-04 NDo=     1
 LinEq1:  Iter=  7 NonCon=     1 RMS=7.92D-06 Max=4.34D-04 NDo=     1
 LinEq1:  Iter=  8 NonCon=     1 RMS=5.22D-06 Max=3.44D-04 NDo=     1
 LinEq1:  Iter=  9 NonCon=     1 RMS=2.86D-06 Max=1.06D-04 NDo=     1
 LinEq1:  Iter= 10 NonCon=     1 RMS=1.26D-06 Max=2.71D-05 NDo=     1
 LinEq1:  Iter= 11 NonCon=     1 RMS=5.40D-07 Max=9.74D-06 NDo=     1
 LinEq1:  Iter= 12 NonCon=     1 RMS=2.26D-07 Max=3.82D-06 NDo=     1
 LinEq1:  Iter= 13 NonCon=     1 RMS=9.81D-08 Max=1.97D-06 NDo=     1
 LinEq1:  Iter= 14 NonCon=     1 RMS=3.21D-08 Max=8.35D-07 NDo=     1
 LinEq1:  Iter= 15 NonCon=     1 RMS=1.40D-08 Max=2.64D-07 NDo=     1
 LinEq1:  Iter= 16 NonCon=     1 RMS=5.84D-09 Max=1.47D-07 NDo=     1
 LinEq1:  Iter= 17 NonCon=     1 RMS=1.95D-09 Max=3.75D-08 NDo=     1
 LinEq1:  Iter= 18 NonCon=     1 RMS=5.53D-10 Max=9.35D-09 NDo=     1
 LinEq1:  Iter= 19 NonCon=     1 RMS=1.92D-10 Max=3.52D-09 NDo=     1
 LinEq1:  Iter= 20 NonCon=     1 RMS=8.20D-11 Max=1.73D-09 NDo=     1
 LinEq1:  Iter= 21 NonCon=     1 RMS=2.79D-11 Max=1.16D-09 NDo=     1
 LinEq1:  Iter= 22 NonCon=     0 RMS=9.20D-12 Max=5.43D-10 NDo=     1
 Linear equations converged to 1.000D-10 1.000D-09 after    22 iterations.
 End of Minotr F.D. properties file   721 does not exist.
 End of Minotr F.D. properties file   722 does not exist.
 End of Minotr F.D. properties file   788 does not exist.
 Symmetrizing basis deriv contribution to polar:
 IMax=3 JMax=2 DiffMx= 0.00D+00
 G2DrvN: will do    19 centers at a time, making    1 passes.
 Calling FoFCou, ICntrl=  3107 FMM=F I1Cent=   0 AccDes= 0.00D+00.
 End of G2Drv F.D. properties file   721 does not exist.
 End of G2Drv F.D. properties file   722 does not exist.
 End of G2Drv F.D. properties file   788 does not exist.
 DoSCS=T DFT=T ScalE2(SS,OS)=  0.270000  0.270000
 R2 and R3 integrals will be kept in memory, NReq=  7133702340.
 DD1Dir will call FoFMem   1 times, MxPair=      2408
 NAB=   812 NAA=   406 NBB=   378.
 Discarding MO integrals.

 **********************************************************************

            Population analysis using the SCF Density.

 **********************************************************************

 Orbital symmetries:
 Alpha Orbitals:
       Occupied  (A) (A) (A) (A) (A) (A) (A) (A) (A) (A) (A) (A)
                 (A) (A) (A) (A) (A) (A) (A) (A) (A) (A) (A) (A)
                 (A) (A) (A) (A) (A)
       Virtual   (A) (A) (A) (A) (A) (A) (A) (A) (A) (A) (A) (A)
                 (A) (A) (A) (A) (A) (A) (A) (A) (A) (A) (A) (A)
                 (A) (A) (A) (A) (A) (A) (A) (A) (A) (A) (A) (A)
                 (A) (A) (A) (A) (A) (A) (A) (A) (A) (A) (A) (A)
                 (A) (A) (A) (A) (A) (A) (A) (A) (A) (A) (A) (A)
                 (A) (A) (A) (A) (A) (A) (A) (A) (A) (A) (A) (A)
                 (A) (A) (A) (A) (A) (A) (A) (A) (A) (A) (A) (A)
                 (A) (A) (A) (A) (A) (A) (A) (A) (A) (A) (A) (A)
                 (A) (A) (A) (A) (A) (A) (A) (A) (A) (A) (A) (A)
                 (A) (A) (A) (A) (A) (A) (A) (A) (A) (A) (A) (A)
                 (A) (A) (A) (A) (A) (A) (A) (A) (A) (A) (A) (A)
                 (A) (A) (A) (A) (A) (A) (A) (A) (A) (A) (A) (A)
                 (A) (A) (A) (A) (A) (A) (A) (A) (A) (A) (A) (A)
                 (A) (A) (A) (A) (A) (A) (A) (A) (A) (A) (A) (A)
                 (A) (A) (A) (A) (A) (A) (A) (A) (A) (A) (A) (A)
                 (A) (A) (A) (A) (A) (A) (A) (A) (A) (A) (A) (A)
                 (A) (A) (A) (A) (A) (A) (A) (A) (A) (A) (A) (A)
                 (A) (A) (A) (A) (A) (A) (A) (A) (A) (A) (A) (A)
                 (A) (A) (A) (A) (A) (A) (A) (A) (A) (A) (A) (A)
                 (A) (A) (A) (A) (A) (A) (A) (A) (A) (A) (A) (A)
                 (A) (A) (A) (A) (A) (A) (A) (A) (A) (A) (A) (A)
                 (A) (A) (A) (A) (A) (A) (A) (A) (A) (A) (A) (A)
                 (A) (A) (A) (A) (A) (A) (A) (A) (A) (A) (A) (A)
                 (A) (A) (A) (A) (A) (A) (A) (A) (A) (A) (A) (A)
                 (A) (A) (A) (A) (A) (A) (A) (A) (A) (A) (A) (A)
                 (A) (A) (A) (A) (A) (A) (A) (A) (A) (A) (A) (A)
                 (A) (A) (A) (A) (A) (A) (A) (A) (A) (A) (A) (A)
                 (A) (A) (A) (A) (A) (A) (A) (A) (A) (A) (A)
 Beta  Orbitals:
       Occupied  (A) (A) (A) (A) (A) (A) (A) (A) (A) (A) (A) (A)
                 (A) (A) (A) (A) (A) (A) (A) (A) (A) (A) (A) (A)
                 (A) (A) (A) (A)
       Virtual   (A) (A) (A) (A) (A) (A) (A) (A) (A) (A) (A) (A)
                 (A) (A) (A) (A) (A) (A) (A) (A) (A) (A) (A) (A)
                 (A) (A) (A) (A) (A) (A) (A) (A) (A) (A) (A) (A)
                 (A) (A) (A) (A) (A) (A) (A) (A) (A) (A) (A) (A)
                 (A) (A) (A) (A) (A) (A) (A) (A) (A) (A) (A) (A)
                 (A) (A) (A) (A) (A) (A) (A) (A) (A) (A) (A) (A)
                 (A) (A) (A) (A) (A) (A) (A) (A) (A) (A) (A) (A)
                 (A) (A) (A) (A) (A) (A) (A) (A) (A) (A) (A) (A)
                 (A) (A) (A) (A) (A) (A) (A) (A) (A) (A) (A) (A)
                 (A) (A) (A) (A) (A) (A) (A) (A) (A) (A) (A) (A)
                 (A) (A) (A) (A) (A) (A) (A) (A) (A) (A) (A) (A)
                 (A) (A) (A) (A) (A) (A) (A) (A) (A) (A) (A) (A)
                 (A) (A) (A) (A) (A) (A) (A) (A) (A) (A) (A) (A)
                 (A) (A) (A) (A) (A) (A) (A) (A) (A) (A) (A) (A)
                 (A) (A) (A) (A) (A) (A) (A) (A) (A) (A) (A) (A)
                 (A) (A) (A) (A) (A) (A) (A) (A) (A) (A) (A) (A)
                 (A) (A) (A) (A) (A) (A) (A) (A) (A) (A) (A) (A)
                 (A) (A) (A) (A) (A) (A) (A) (A) (A) (A) (A) (A)
                 (A) (A) (A) (A) (A) (A) (A) (A) (A) (A) (A) (A)
                 (A) (A) (A) (A) (A) (A) (A) (A) (A) (A) (A) (A)
                 (A) (A) (A) (A) (A) (A) (A) (A) (A) (A) (A) (A)
                 (A) (A) (A) (A) (A) (A) (A) (A) (A) (A) (A) (A)
                 (A) (A) (A) (A) (A) (A) (A) (A) (A) (A) (A) (A)
                 (A) (A) (A) (A) (A) (A) (A) (A) (A) (A) (A) (A)
                 (A) (A) (A) (A) (A) (A) (A) (A) (A) (A) (A) (A)
                 (A) (A) (A) (A) (A) (A) (A) (A) (A) (A) (A) (A)
                 (A) (A) (A) (A) (A) (A) (A) (A) (A) (A) (A) (A)
                 (A) (A) (A) (A) (A) (A) (A) (A) (A) (A) (A) (A)
 The electronic state is 2-A.
 Alpha  occ. eigenvalues --  -19.78693 -19.78498 -10.66120 -10.64105 -10.62709
 Alpha  occ. eigenvalues --  -10.62435 -10.61253  -1.27409  -1.02164  -0.93386
 Alpha  occ. eigenvalues --   -0.85476  -0.77839  -0.73654  -0.64946  -0.60961
 Alpha  occ. eigenvalues --   -0.56296  -0.55622  -0.54507  -0.51943  -0.50991
 Alpha  occ. eigenvalues --   -0.48815  -0.46640  -0.44150  -0.42879  -0.41861
 Alpha  occ. eigenvalues --   -0.37214  -0.36707  -0.32145  -0.29454
 Alpha virt. eigenvalues --    0.06536   0.07633   0.09353   0.10613   0.12182
 Alpha virt. eigenvalues --    0.12227   0.12895   0.15133   0.15409   0.16210
 Alpha virt. eigenvalues --    0.18052   0.19397   0.20794   0.23008   0.25385
 Alpha virt. eigenvalues --    0.26460   0.30389   0.31246   0.31693   0.31953
 Alpha virt. eigenvalues --    0.34270   0.35849   0.36726   0.37935   0.40594
 Alpha virt. eigenvalues --    0.43066   0.45537   0.47165   0.47596   0.48450
 Alpha virt. eigenvalues --    0.49391   0.50233   0.51098   0.51612   0.52348
 Alpha virt. eigenvalues --    0.52886   0.53721   0.53877   0.54907   0.55891
 Alpha virt. eigenvalues --    0.56637   0.57307   0.59637   0.61230   0.62918
 Alpha virt. eigenvalues --    0.64732   0.67292   0.69556   0.69888   0.71315
 Alpha virt. eigenvalues --    0.72441   0.73427   0.76073   0.77138   0.80068
 Alpha virt. eigenvalues --    0.82763   0.84176   0.86275   0.88251   0.89952
 Alpha virt. eigenvalues --    0.92497   0.93743   0.94949   0.96453   0.97875
 Alpha virt. eigenvalues --    0.99659   1.00738   1.04157   1.06221   1.07842
 Alpha virt. eigenvalues --    1.08785   1.09240   1.10988   1.11688   1.12064
 Alpha virt. eigenvalues --    1.15930   1.16425   1.17586   1.18955   1.19536
 Alpha virt. eigenvalues --    1.20899   1.21542   1.22837   1.23928   1.24571
 Alpha virt. eigenvalues --    1.26403   1.29411   1.31371   1.31881   1.35171
 Alpha virt. eigenvalues --    1.36351   1.37436   1.38362   1.38940   1.39743
 Alpha virt. eigenvalues --    1.41358   1.43064   1.44874   1.47742   1.47862
 Alpha virt. eigenvalues --    1.51480   1.53122   1.53951   1.55703   1.55920
 Alpha virt. eigenvalues --    1.59546   1.60369   1.63414   1.63887   1.67824
 Alpha virt. eigenvalues --    1.70488   1.75816   1.78616   1.82462   1.87748
 Alpha virt. eigenvalues --    1.93517   1.98149   2.00244   2.04873   2.11953
 Alpha virt. eigenvalues --    2.17574   2.18810   2.22358   2.24511   2.28188
 Alpha virt. eigenvalues --    2.35654   2.37337   2.37719   2.41776   2.43345
 Alpha virt. eigenvalues --    2.43578   2.46219   2.47765   2.48409   2.51088
 Alpha virt. eigenvalues --    2.55927   2.57341   2.59951   2.61401   2.65571
 Alpha virt. eigenvalues --    2.66714   2.69580   2.70613   2.72440   2.77357
 Alpha virt. eigenvalues --    2.78981   2.80740   2.84535   2.85308   2.88142
 Alpha virt. eigenvalues --    2.89131   2.90869   2.91531   2.92256   2.93469
 Alpha virt. eigenvalues --    2.94428   2.98236   2.99594   3.00693   3.00876
 Alpha virt. eigenvalues --    3.02026   3.02983   3.04992   3.07114   3.07756
 Alpha virt. eigenvalues --    3.10242   3.10941   3.13114   3.13422   3.15158
 Alpha virt. eigenvalues --    3.16395   3.17250   3.17570   3.18781   3.20597
 Alpha virt. eigenvalues --    3.21210   3.24149   3.26449   3.27759   3.29151
 Alpha virt. eigenvalues --    3.31172   3.32812   3.33547   3.37101   3.39577
 Alpha virt. eigenvalues --    3.40930   3.41500   3.42167   3.42820   3.44036
 Alpha virt. eigenvalues --    3.46562   3.49337   3.50034   3.51286   3.53202
 Alpha virt. eigenvalues --    3.53383   3.56202   3.58180   3.58999   3.61172
 Alpha virt. eigenvalues --    3.62426   3.64592   3.66421   3.69301   3.73099
 Alpha virt. eigenvalues --    3.73972   3.76558   3.79219   3.79910   3.83419
 Alpha virt. eigenvalues --    3.85475   3.85687   3.86930   3.87734   3.88116
 Alpha virt. eigenvalues --    3.90723   3.92317   3.94212   3.95394   3.96166
 Alpha virt. eigenvalues --    3.97512   3.98327   3.98661   4.01164   4.04282
 Alpha virt. eigenvalues --    4.05424   4.05801   4.06689   4.07875   4.11667
 Alpha virt. eigenvalues --    4.12595   4.12930   4.16271   4.17238   4.17966
 Alpha virt. eigenvalues --    4.18714   4.19607   4.21320   4.23335   4.24760
 Alpha virt. eigenvalues --    4.26017   4.29318   4.32332   4.35594   4.36746
 Alpha virt. eigenvalues --    4.37488   4.40322   4.41057   4.42130   4.45306
 Alpha virt. eigenvalues --    4.47887   4.48660   4.55491   4.57886   4.59412
 Alpha virt. eigenvalues --    4.60842   4.63705   4.66281   4.68011   4.70976
 Alpha virt. eigenvalues --    4.76115   4.79574   4.81687   4.83285   4.85618
 Alpha virt. eigenvalues --    4.87847   4.91779   4.94169   4.94568   4.97393
 Alpha virt. eigenvalues --    5.00047   5.02266   5.03734   5.04409   5.07843
 Alpha virt. eigenvalues --    5.08176   5.12670   5.14060   5.15786   5.18043
 Alpha virt. eigenvalues --    5.23177   5.25841   5.28899   5.30560   5.30732
 Alpha virt. eigenvalues --    5.34394   5.34854   5.36820   5.38393   5.38878
 Alpha virt. eigenvalues --    5.40052   5.40850   5.45488   5.46903   5.52135
 Alpha virt. eigenvalues --    5.57275   5.59014   5.64976   5.67811   5.68655
 Alpha virt. eigenvalues --    5.77079   5.81758   5.86303   5.92798   5.96816
 Alpha virt. eigenvalues --    6.02847   6.04973   6.08501   6.08565   6.10271
 Alpha virt. eigenvalues --    6.18944   6.25444   6.31965   6.37524   6.40653
 Alpha virt. eigenvalues --    6.43352   6.64568   6.75264   6.76392   6.83145
 Alpha virt. eigenvalues --    6.96268   7.05283   7.07228   7.18451   7.41966
 Alpha virt. eigenvalues --    7.43361   7.58705   7.74715   9.88905  10.60678
 Alpha virt. eigenvalues --   11.23989  12.50518  13.41013  13.42723  14.37250
  Beta  occ. eigenvalues --  -19.78555 -19.76905 -10.66129 -10.62842 -10.62645
  Beta  occ. eigenvalues --  -10.62482 -10.61180  -1.25567  -0.99306  -0.92600
  Beta  occ. eigenvalues --   -0.83890  -0.77430  -0.71537  -0.64695  -0.57643
  Beta  occ. eigenvalues --   -0.55850  -0.54626  -0.54202  -0.51385  -0.49716
  Beta  occ. eigenvalues --   -0.46269  -0.46067  -0.43369  -0.42120  -0.41277
  Beta  occ. eigenvalues --   -0.35505  -0.33880  -0.31062
  Beta virt. eigenvalues --   -0.04866   0.07033   0.07763   0.09474   0.10806
  Beta virt. eigenvalues --    0.12293   0.12365   0.13514   0.15221   0.15589
  Beta virt. eigenvalues --    0.16347   0.18332   0.19549   0.21427   0.23618
  Beta virt. eigenvalues --    0.25596   0.26867   0.30560   0.31486   0.31890
  Beta virt. eigenvalues --    0.32256   0.34925   0.36226   0.36838   0.38399
  Beta virt. eigenvalues --    0.41298   0.43573   0.45674   0.47278   0.47815
  Beta virt. eigenvalues --    0.48749   0.50310   0.50412   0.51729   0.52062
  Beta virt. eigenvalues --    0.52432   0.53143   0.53954   0.54421   0.55584
  Beta virt. eigenvalues --    0.57179   0.57578   0.57743   0.60271   0.61397
  Beta virt. eigenvalues --    0.63477   0.64961   0.67500   0.69814   0.70164
  Beta virt. eigenvalues --    0.71962   0.73048   0.73673   0.76260   0.77409
  Beta virt. eigenvalues --    0.80369   0.82976   0.84342   0.86816   0.88472
  Beta virt. eigenvalues --    0.90054   0.92790   0.94014   0.95046   0.96942
  Beta virt. eigenvalues --    0.97954   0.99801   1.01197   1.04293   1.06401
  Beta virt. eigenvalues --    1.07954   1.09190   1.09436   1.11110   1.11880
  Beta virt. eigenvalues --    1.12416   1.16104   1.16639   1.17668   1.19520
  Beta virt. eigenvalues --    1.20226   1.21201   1.21928   1.23124   1.24144
  Beta virt. eigenvalues --    1.24754   1.26674   1.29615   1.31730   1.32249
  Beta virt. eigenvalues --    1.35362   1.36565   1.37601   1.38571   1.39077
  Beta virt. eigenvalues --    1.39947   1.41492   1.43461   1.45373   1.48057
  Beta virt. eigenvalues --    1.48267   1.51996   1.53382   1.54264   1.55992
  Beta virt. eigenvalues --    1.56060   1.60038   1.60749   1.63644   1.64150
  Beta virt. eigenvalues --    1.68100   1.71008   1.76810   1.78870   1.82632
  Beta virt. eigenvalues --    1.90356   1.94236   1.98467   2.00701   2.05921
  Beta virt. eigenvalues --    2.12276   2.17870   2.20861   2.22488   2.24930
  Beta virt. eigenvalues --    2.28935   2.35851   2.37550   2.37897   2.42595
  Beta virt. eigenvalues --    2.43539   2.44191   2.46564   2.48203   2.48502
  Beta virt. eigenvalues --    2.51292   2.56338   2.57926   2.60090   2.62525
  Beta virt. eigenvalues --    2.65910   2.66934   2.69999   2.70896   2.72760
  Beta virt. eigenvalues --    2.77779   2.79565   2.81248   2.84639   2.85508
  Beta virt. eigenvalues --    2.88573   2.89936   2.90976   2.91846   2.92374
  Beta virt. eigenvalues --    2.94095   2.94637   2.98385   2.99947   3.01107
  Beta virt. eigenvalues --    3.01305   3.02353   3.03433   3.05742   3.07434
  Beta virt. eigenvalues --    3.08050   3.10366   3.11174   3.13200   3.14226
  Beta virt. eigenvalues --    3.15456   3.16664   3.17619   3.17982   3.19051
  Beta virt. eigenvalues --    3.20811   3.21479   3.24848   3.26689   3.28116
  Beta virt. eigenvalues --    3.30038   3.31412   3.33333   3.34189   3.37384
  Beta virt. eigenvalues --    3.39787   3.41245   3.41623   3.42610   3.42922
  Beta virt. eigenvalues --    3.44473   3.47014   3.50063   3.50781   3.51449
  Beta virt. eigenvalues --    3.53308   3.53712   3.56571   3.58435   3.59087
  Beta virt. eigenvalues --    3.61413   3.62698   3.64840   3.66568   3.69565
  Beta virt. eigenvalues --    3.73187   3.74090   3.76972   3.79424   3.80071
  Beta virt. eigenvalues --    3.83577   3.85662   3.85794   3.87027   3.87901
  Beta virt. eigenvalues --    3.88268   3.90826   3.92443   3.94422   3.95498
  Beta virt. eigenvalues --    3.96162   3.97683   3.98347   3.98903   4.01393
  Beta virt. eigenvalues --    4.04313   4.05458   4.05990   4.06898   4.07919
  Beta virt. eigenvalues --    4.11714   4.12626   4.13420   4.16401   4.17328
  Beta virt. eigenvalues --    4.18254   4.18787   4.19714   4.21551   4.23508
  Beta virt. eigenvalues --    4.24817   4.25998   4.29654   4.32473   4.35650
  Beta virt. eigenvalues --    4.36770   4.37771   4.40351   4.41413   4.42611
  Beta virt. eigenvalues --    4.45531   4.47992   4.49165   4.55813   4.58359
  Beta virt. eigenvalues --    4.59991   4.61123   4.64234   4.66532   4.68572
  Beta virt. eigenvalues --    4.71428   4.76521   4.80083   4.81827   4.83646
  Beta virt. eigenvalues --    4.85838   4.88304   4.91954   4.94331   4.94852
  Beta virt. eigenvalues --    4.97765   5.00178   5.02557   5.03911   5.04698
  Beta virt. eigenvalues --    5.08123   5.08447   5.12904   5.14210   5.16241
  Beta virt. eigenvalues --    5.18651   5.23983   5.26381   5.29316   5.30842
  Beta virt. eigenvalues --    5.30926   5.34687   5.35189   5.37254   5.38585
  Beta virt. eigenvalues --    5.39347   5.40469   5.41073   5.45868   5.47177
  Beta virt. eigenvalues --    5.52366   5.57451   5.59183   5.65322   5.68478
  Beta virt. eigenvalues --    5.69046   5.77746   5.81912   5.87871   5.92858
  Beta virt. eigenvalues --    5.97109   6.03669   6.05703   6.08873   6.09044
  Beta virt. eigenvalues --    6.10396   6.19014   6.25852   6.34032   6.38036
  Beta virt. eigenvalues --    6.41969   6.43625   6.65575   6.76971   6.79090
  Beta virt. eigenvalues --    6.84378   6.97995   7.06248   7.08524   7.20713
  Beta virt. eigenvalues --    7.42524   7.45118   7.60576   7.75298   9.89753
  Beta virt. eigenvalues --   10.61729  11.24035  12.51301  13.41306  13.42723
  Beta virt. eigenvalues --   14.37317
          Condensed to atoms (all electrons):
               1          2          3          4          5          6
     1  C    4.862319   0.413223   0.416191   0.311009  -0.031644  -0.041152
     2  H    0.413223   0.571298  -0.027402  -0.036054  -0.004377   0.007004
     3  H    0.416191  -0.027402   0.565611  -0.036237   0.005746  -0.003678
     4  C    0.311009  -0.036054  -0.036237   5.172425   0.402109   0.396243
     5  H   -0.031644  -0.004377   0.005746   0.402109   0.537412  -0.028171
     6  H   -0.041152   0.007004  -0.003678   0.396243  -0.028171   0.553498
     7  C    0.000519   0.000062  -0.001089  -0.003858   0.000082   0.000208
     8  H    0.000484  -0.000013  -0.001612  -0.000262  -0.000238  -0.000626
     9  H   -0.000097  -0.000028   0.000006   0.000354   0.000002  -0.000104
    10  H   -0.000025  -0.000010   0.000431  -0.000253   0.000035  -0.000047
    11  O   -0.006538  -0.000675   0.015503   0.004215   0.000519  -0.000049
    12  O   -0.000408   0.003414  -0.003006  -0.074374   0.000308  -0.000613
    13  H   -0.006984  -0.001447  -0.003102   0.212131  -0.007385  -0.006518
    14  C    0.317256  -0.036213  -0.044358  -0.048817  -0.000717   0.003107
    15  C   -0.056555   0.001793  -0.002818  -0.000574   0.000435   0.002407
    16  H   -0.039065  -0.003060   0.005403   0.000919   0.001592   0.000450
    17  H    0.006537  -0.000345  -0.000062  -0.000517  -0.000001  -0.000082
    18  H   -0.004793   0.000256   0.003336   0.000170   0.000007   0.000290
               7          8          9         10         11         12
     1  C    0.000519   0.000484  -0.000097  -0.000025  -0.006538  -0.000408
     2  H    0.000062  -0.000013  -0.000028  -0.000010  -0.000675   0.003414
     3  H   -0.001089  -0.001612   0.000006   0.000431   0.015503  -0.003006
     4  C   -0.003858  -0.000262   0.000354  -0.000253   0.004215  -0.074374
     5  H    0.000082  -0.000238   0.000002   0.000035   0.000519   0.000308
     6  H    0.000208  -0.000626  -0.000104  -0.000047  -0.000049  -0.000613
     7  C    4.601285   0.392611   0.395753   0.411624   0.302529  -0.046993
     8  H    0.392611   0.683161  -0.034636  -0.058801  -0.050426  -0.002128
     9  H    0.395753  -0.034636   0.591884  -0.028503  -0.026429   0.006762
    10  H    0.411624  -0.058801  -0.028503   0.614781  -0.037429   0.004046
    11  O    0.302529  -0.050426  -0.026429  -0.037429   7.947267   0.071315
    12  O   -0.046993  -0.002128   0.006762   0.004046   0.071315   8.061919
    13  H    0.001886   0.004790  -0.000448   0.000352  -0.029490   0.204144
    14  C   -0.000087  -0.000037  -0.000030   0.000001   0.000113   0.000661
    15  C    0.000008   0.000028   0.000006  -0.000001  -0.000062   0.000006
    16  H    0.000000   0.000000  -0.000000   0.000000  -0.000002   0.000013
    17  H   -0.000000   0.000001   0.000000  -0.000000  -0.000001   0.000000
    18  H    0.000015   0.000024  -0.000001  -0.000002  -0.000056   0.000010
              13         14         15         16         17         18
     1  C   -0.006984   0.317256  -0.056555  -0.039065   0.006537  -0.004793
     2  H   -0.001447  -0.036213   0.001793  -0.003060  -0.000345   0.000256
     3  H   -0.003102  -0.044358  -0.002818   0.005403  -0.000062   0.003336
     4  C    0.212131  -0.048817  -0.000574   0.000919  -0.000517   0.000170
     5  H   -0.007385  -0.000717   0.000435   0.001592  -0.000001   0.000007
     6  H   -0.006518   0.003107   0.002407   0.000450  -0.000082   0.000290
     7  C    0.001886  -0.000087   0.000008   0.000000  -0.000000   0.000015
     8  H    0.004790  -0.000037   0.000028   0.000000   0.000001   0.000024
     9  H   -0.000448  -0.000030   0.000006  -0.000000   0.000000  -0.000001
    10  H    0.000352   0.000001  -0.000001   0.000000  -0.000000  -0.000002
    11  O   -0.029490   0.000113  -0.000062  -0.000002  -0.000001  -0.000056
    12  O    0.204144   0.000661   0.000006   0.000013   0.000000   0.000010
    13  H    0.415439   0.001485  -0.000096  -0.000138   0.000006  -0.000052
    14  C    0.001485   4.978645   0.623255   0.406638  -0.046169  -0.052127
    15  C   -0.000096   0.623255   4.952254  -0.040095   0.419692   0.411258
    16  H   -0.000138   0.406638  -0.040095   0.535822  -0.007959   0.006652
    17  H    0.000006  -0.046169   0.419692  -0.007959   0.535543  -0.034849
    18  H   -0.000052  -0.052127   0.411258   0.006652  -0.034849   0.546767
          Atomic-Atomic Spin Densities.
               1          2          3          4          5          6
     1  C   -0.026100   0.002401   0.001881  -0.030054  -0.000112   0.001263
     2  H    0.002401   0.001958   0.000623  -0.002427   0.000733  -0.000102
     3  H    0.001881   0.000623   0.006147  -0.002496  -0.000145   0.000603
     4  C   -0.030054  -0.002427  -0.002496   0.705784   0.005025   0.004165
     5  H   -0.000112   0.000733  -0.000145   0.005025  -0.023994   0.003157
     6  H    0.001263  -0.000102   0.000603   0.004165   0.003157  -0.024807
     7  C   -0.000204  -0.000014  -0.000187   0.000815  -0.000030  -0.000189
     8  H    0.000341   0.000025   0.000322  -0.004300   0.000140   0.000971
     9  H   -0.000010   0.000001  -0.000026   0.000101  -0.000002  -0.000004
    10  H   -0.000073  -0.000005  -0.000051   0.001112  -0.000025  -0.000119
    11  O   -0.001752  -0.000156  -0.001308   0.012089  -0.000233  -0.000753
    12  O    0.006594   0.000608   0.000948  -0.086717   0.002154   0.002797
    13  H   -0.000911  -0.000387   0.000797   0.061144   0.001586   0.001202
    14  C    0.017665  -0.002022  -0.002146  -0.016296  -0.001134  -0.001862
    15  C   -0.001755   0.000348   0.000761   0.000863   0.000157  -0.000057
    16  H   -0.000603   0.000141   0.000128   0.002084   0.000230   0.000181
    17  H    0.000271  -0.000017  -0.000031  -0.000275  -0.000011  -0.000024
    18  H   -0.000135   0.000021   0.000293   0.000311   0.000018   0.000063
               7          8          9         10         11         12
     1  C   -0.000204   0.000341  -0.000010  -0.000073  -0.001752   0.006594
     2  H   -0.000014   0.000025   0.000001  -0.000005  -0.000156   0.000608
     3  H   -0.000187   0.000322  -0.000026  -0.000051  -0.001308   0.000948
     4  C    0.000815  -0.004300   0.000101   0.001112   0.012089  -0.086717
     5  H   -0.000030   0.000140  -0.000002  -0.000025  -0.000233   0.002154
     6  H   -0.000189   0.000971  -0.000004  -0.000119  -0.000753   0.002797
     7  C   -0.005420   0.003775   0.000611  -0.002674   0.000848  -0.001732
     8  H    0.003775   0.002225  -0.000766  -0.001368  -0.000984   0.003657
     9  H    0.000611  -0.000766  -0.001795   0.001022   0.000112  -0.000194
    10  H   -0.002674  -0.001368   0.001022   0.004054  -0.000551  -0.000324
    11  O    0.000848  -0.000984   0.000112  -0.000551   0.047477  -0.040247
    12  O   -0.001732   0.003657  -0.000194  -0.000324  -0.040247   0.570278
    13  H    0.001004  -0.003405   0.000058   0.001342   0.009976  -0.049388
    14  C    0.000037  -0.000054   0.000003   0.000005   0.000098  -0.000434
    15  C    0.000002  -0.000008  -0.000000   0.000000  -0.000003   0.000011
    16  H   -0.000001   0.000003  -0.000000  -0.000000  -0.000005   0.000026
    17  H    0.000000  -0.000001   0.000000   0.000000   0.000000  -0.000000
    18  H   -0.000004   0.000011  -0.000000  -0.000000  -0.000011   0.000009
              13         14         15         16         17         18
     1  C   -0.000911   0.017665  -0.001755  -0.000603   0.000271  -0.000135
     2  H   -0.000387  -0.002022   0.000348   0.000141  -0.000017   0.000021
     3  H    0.000797  -0.002146   0.000761   0.000128  -0.000031   0.000293
     4  C    0.061144  -0.016296   0.000863   0.002084  -0.000275   0.000311
     5  H    0.001586  -0.001134   0.000157   0.000230  -0.000011   0.000018
     6  H    0.001202  -0.001862  -0.000057   0.000181  -0.000024   0.000063
     7  C    0.001004   0.000037   0.000002  -0.000001   0.000000  -0.000004
     8  H   -0.003405  -0.000054  -0.000008   0.000003  -0.000001   0.000011
     9  H    0.000058   0.000003  -0.000000  -0.000000   0.000000  -0.000000
    10  H    0.001342   0.000005   0.000000  -0.000000   0.000000  -0.000000
    11  O    0.009976   0.000098  -0.000003  -0.000005   0.000000  -0.000011
    12  O   -0.049388  -0.000434   0.000011   0.000026  -0.000000   0.000009
    13  H   -0.097312   0.000112  -0.000059  -0.000044   0.000001  -0.000020
    14  C    0.000112   0.009540  -0.004637  -0.002860   0.000821  -0.000924
    15  C   -0.000059  -0.004637   0.048522   0.001386  -0.000647   0.000982
    16  H   -0.000044  -0.002860   0.001386   0.001186  -0.000297   0.000095
    17  H    0.000001   0.000821  -0.000647  -0.000297  -0.000136  -0.000111
    18  H   -0.000020  -0.000924   0.000982   0.000095  -0.000111  -0.002068
 Mulliken charges and spin densities:
               1          2
     1  C   -0.140278  -0.031293
     2  H    0.112574   0.001729
     3  H    0.111140   0.006115
     4  C   -0.298629   0.650929
     5  H    0.124284  -0.012484
     6  H    0.117835  -0.013516
     7  C   -0.054554  -0.003362
     8  H    0.067682   0.000586
     9  H    0.095507  -0.000888
    10  H    0.093802   0.002346
    11  O   -0.190304   0.024599
    12  O   -0.225073   0.408046
    13  H    0.215428  -0.074303
    14  C   -0.102604  -0.004088
    15  C   -0.310940   0.045864
    16  H    0.132830   0.001649
    17  H    0.128205  -0.000457
    18  H    0.123095  -0.001470
 Sum of Mulliken charges =  -0.00000   1.00000
 Mulliken charges and spin densities with hydrogens summed into heavy atoms:
               1          2
     1  C    0.083437  -0.023449
     4  C   -0.056510   0.624929
     7  C    0.202437  -0.001319
    11  O   -0.190304   0.024599
    12  O   -0.009645   0.333743
    14  C    0.030225  -0.002439
    15  C   -0.059640   0.043937
 APT charges:
               1
     1  C   -0.066707
     2  H   -0.012652
     3  H    0.000643
     4  C    0.436037
     5  H   -0.040738
     6  H   -0.054563
     7  C    0.442900
     8  H   -0.042551
     9  H   -0.006014
    10  H   -0.033191
    11  O   -0.401349
    12  O    0.109244
    13  H   -0.345391
    14  C    0.080754
    15  C   -0.133731
    16  H    0.003774
    17  H    0.033073
    18  H    0.030464
 Sum of APT charges =  -0.00000
 APT charges with hydrogens summed into heavy atoms:
               1
     1  C   -0.078717
     4  C    0.340735
     7  C    0.361145
    11  O   -0.401349
    12  O   -0.236147
    14  C    0.084527
    15  C   -0.070194
 Electronic spatial extent (au):  <R**2>=           1335.0386
 Charge=             -0.0000 electrons
 Dipole moment (field-independent basis, Debye):
    X=              1.1170    Y=              0.9082    Z=              1.6658  Tot=              2.2017
 Quadrupole moment (field-independent basis, Debye-Ang):
   XX=            -44.6263   YY=            -41.8869   ZZ=            -46.6669
   XY=             -5.3013   XZ=             -2.6259   YZ=              0.0156
 Traceless Quadrupole moment (field-independent basis, Debye-Ang):
   XX=             -0.2329   YY=              2.5065   ZZ=             -2.2736
   XY=             -5.3013   XZ=             -2.6259   YZ=              0.0156
 Octapole moment (field-independent basis, Debye-Ang**2):
  XXX=            -19.9523  YYY=              0.2593  ZZZ=             -2.0963  XYY=             -3.6221
  XXY=             10.6586  XXZ=              9.5212  XZZ=             -9.1014  YZZ=             -1.9327
  YYZ=             -0.5082  XYZ=             -0.2440
 Hexadecapole moment (field-independent basis, Debye-Ang**3):
 XXXX=          -1307.9157 YYYY=           -253.5924 ZZZZ=           -125.3745 XXXY=            -23.9226
 XXXZ=              9.9352 YYYX=             -9.8862 YYYZ=             -5.0133 ZZZX=              3.4065
 ZZZY=              2.7854 XXYY=           -261.1156 XXZZ=           -272.2019 YYZZ=            -66.7739
 XXYZ=              4.3330 YYXZ=              1.9674 ZZXY=             -3.3775
 N-N= 2.980455945776D+02 E-N=-1.407172935219D+03  KE= 3.452916966507D+02
  Exact polarizability: 117.941  -0.422  79.190   6.881  -1.558  57.530
 Approx polarizability:  94.998   3.870  92.916   7.471  -1.305  69.150
                          Isotropic Fermi Contact Couplings
        Atom                 a.u.       MegaHertz       Gauss      10(-4) cm-1
     1  C(13)             -0.00951     -10.68579      -3.81295      -3.56439
     2  H(1)               0.00150       6.69047       2.38733       2.23170
     3  H(1)               0.00431      19.24683       6.86775       6.42005
     4  C(13)              0.09340     104.99477      37.46475      35.02249
     5  H(1)              -0.00412     -18.41231      -6.56997      -6.14168
     6  H(1)              -0.00401     -17.93436      -6.39943      -5.98226
     7  C(13)             -0.00340      -3.82216      -1.36384      -1.27494
     8  H(1)               0.00227      10.14743       3.62086       3.38482
     9  H(1)              -0.00011      -0.50035      -0.17854      -0.16690
    10  H(1)               0.00060       2.66970       0.95262       0.89052
    11  O(17)              0.01463      -8.87067      -3.16528      -2.95894
    12  O(17)              0.04251     -25.76674      -9.19421      -8.59486
    13  H(1)              -0.02343    -104.74537     -37.37575     -34.93930
    14  C(13)              0.03922      44.09137      15.73290      14.70730
    15  C(13)              0.00061       0.68825       0.24559       0.22958
    16  H(1)              -0.00055      -2.47953      -0.88476      -0.82708
    17  H(1)               0.00050       2.24807       0.80217       0.74988
    18  H(1)              -0.00013      -0.60056      -0.21430      -0.20033
 --------------------------------------------------------
       Center         ----  Spin Dipole Couplings  ----
                      3XX-RR        3YY-RR        3ZZ-RR
 --------------------------------------------------------
     1   Atom        0.023748     -0.015703     -0.008046
     2   Atom       -0.000389     -0.007995      0.008384
     3   Atom       -0.003048      0.004105     -0.001057
     4   Atom        0.625753     -0.365858     -0.259896
     5   Atom       -0.003481      0.042561     -0.039080
     6   Atom       -0.003273     -0.015660      0.018933
     7   Atom       -0.002449      0.004159     -0.001710
     8   Atom       -0.002085      0.002942     -0.000857
     9   Atom       -0.001069      0.004289     -0.003220
    10   Atom        0.002484     -0.000054     -0.002430
    11   Atom        0.291577     -0.224932     -0.066644
    12   Atom        1.335455     -0.809432     -0.526023
    13   Atom        0.190594     -0.118510     -0.072084
    14   Atom        0.048459     -0.019324     -0.029136
    15   Atom       -0.012816     -0.008023      0.020839
    16   Atom        0.007910     -0.002610     -0.005300
    17   Atom        0.003667     -0.001859     -0.001808
    18   Atom       -0.000404      0.002436     -0.002031
 --------------------------------------------------------
                        XY            XZ            YZ
 --------------------------------------------------------
     1   Atom        0.008498     -0.010288     -0.005997
     2   Atom       -0.000754     -0.007721      0.000883
     3   Atom        0.004935     -0.002624     -0.009586
     4   Atom        0.022617      0.328145      0.008257
     5   Atom       -0.008680      0.015922     -0.013552
     6   Atom       -0.007495      0.003707      0.042237
     7   Atom       -0.006732     -0.001045      0.003736
     8   Atom       -0.003680     -0.001163      0.006157
     9   Atom       -0.003553     -0.000234      0.001247
    10   Atom       -0.005558     -0.003502      0.002790
    11   Atom       -0.025226      0.239527      0.020859
    12   Atom        0.411844      0.895061      0.161504
    13   Atom       -0.010083      0.126069     -0.005272
    14   Atom        0.020552      0.005621      0.001427
    15   Atom        0.002200     -0.001630      0.013536
    16   Atom       -0.002355     -0.001405     -0.000791
    17   Atom        0.001669     -0.000337      0.000594
    18   Atom        0.001031     -0.000445     -0.000388
 --------------------------------------------------------


 ---------------------------------------------------------------------------------
              Anisotropic Spin Dipole Couplings in Principal Axis System
 ---------------------------------------------------------------------------------

       Atom             a.u.   MegaHertz   Gauss  10(-4) cm-1        Axes

              Baa    -0.0192    -2.575    -0.919    -0.859 -0.0803  0.9068  0.4138
     1 C(13)  Bbb    -0.0098    -1.312    -0.468    -0.438  0.3561 -0.3616  0.8617
              Bcc     0.0290     3.888     1.387     1.297  0.9310  0.2165 -0.2938
 
              Baa    -0.0081    -4.306    -1.537    -1.436  0.0833  0.9964 -0.0144
     2 H(1)   Bbb    -0.0049    -2.598    -0.927    -0.867  0.8604 -0.0647  0.5055
              Bcc     0.0129     6.904     2.464     2.303 -0.5028  0.0545  0.8627
 
              Baa    -0.0086    -4.595    -1.640    -1.533 -0.2210  0.6403  0.7357
     3 H(1)   Bbb    -0.0047    -2.508    -0.895    -0.837  0.9213 -0.1104  0.3729
              Bcc     0.0133     7.103     2.535     2.369  0.3200  0.7602 -0.5655
 
              Baa    -0.3685   -49.448   -17.644   -16.494 -0.2884 -0.3350  0.8970
     4 C(13)  Bbb    -0.3661   -49.129   -17.531   -16.388 -0.1246  0.9420  0.3117
              Bcc     0.7346    98.578    35.175    32.882  0.9494  0.0219  0.3134
 
              Baa    -0.0462   -24.668    -8.802    -8.228 -0.3269  0.1113  0.9385
     5 H(1)   Bbb    -0.0011    -0.568    -0.203    -0.190  0.9183  0.2721  0.2876
              Bcc     0.0473    25.236     9.005     8.418 -0.2233  0.9558 -0.1911
 
              Baa    -0.0456   -24.345    -8.687    -8.120  0.1921  0.8161 -0.5450
     6 H(1)   Bbb    -0.0017    -0.894    -0.319    -0.298  0.9811 -0.1473  0.1253
              Bcc     0.0473    25.238     9.006     8.419 -0.0220  0.5588  0.8290
 
              Baa    -0.0069    -0.929    -0.331    -0.310  0.7897  0.5625 -0.2449
     7 C(13)  Bbb    -0.0027    -0.358    -0.128    -0.119  0.3770 -0.1300  0.9170
              Bcc     0.0096     1.287     0.459     0.429 -0.4840  0.8165  0.3147
 
              Baa    -0.0059    -3.172    -1.132    -1.058 -0.3971 -0.6281  0.6692
     8 H(1)   Bbb    -0.0028    -1.487    -0.531    -0.496  0.8592  0.0020  0.5116
              Bcc     0.0087     4.659     1.662     1.554 -0.3227  0.7782  0.5388
 
              Baa    -0.0035    -1.892    -0.675    -0.631 -0.3418 -0.2969  0.8916
     9 H(1)   Bbb    -0.0027    -1.426    -0.509    -0.476  0.8315  0.3466  0.4341
              Bcc     0.0062     3.317     1.184     1.107 -0.4380  0.8898  0.1284
 
              Baa    -0.0045    -2.394    -0.854    -0.798  0.6258  0.7800  0.0075
    10 H(1)   Bbb    -0.0042    -2.256    -0.805    -0.753  0.2864 -0.2388  0.9279
              Bcc     0.0087     4.650     1.659     1.551  0.7255 -0.5785 -0.3728
 
              Baa    -0.2415    17.477     6.236     5.830  0.2303  0.8778 -0.4201
    11 O(17)  Bbb    -0.1703    12.323     4.397     4.110 -0.3835  0.4786  0.7899
              Bcc     0.4118   -29.800   -10.633    -9.940  0.8944 -0.0208  0.4468
 
              Baa    -0.8900    64.398    22.979    21.481 -0.3861  0.6378  0.6665
    12 O(17)  Bbb    -0.8818    63.809    22.769    21.284  0.1221  0.7515 -0.6483
              Bcc     1.7718  -128.207   -45.747   -42.765  0.9143  0.1689  0.3680
 
              Baa    -0.1231   -65.680   -23.436   -21.908 -0.3532  0.2572  0.8995
    13 H(1)   Bbb    -0.1186   -63.261   -22.573   -21.102  0.1242  0.9658 -0.2274
              Bcc     0.2417   128.940    46.009    43.010  0.9273 -0.0314  0.3731
 
              Baa    -0.0295    -3.964    -1.415    -1.322 -0.0748  0.0113  0.9971
    14 C(13)  Bbb    -0.0251    -3.363    -1.200    -1.122 -0.2669  0.9632 -0.0309
              Bcc     0.0546     7.327     2.615     2.444  0.9608  0.2684  0.0691
 
              Baa    -0.0158    -2.115    -0.755    -0.706 -0.6695  0.6865 -0.2837
    15 C(13)  Bbb    -0.0104    -1.402    -0.500    -0.467  0.7426  0.6279 -0.2330
              Bcc     0.0262     3.517     1.255     1.173 -0.0182  0.3667  0.9302
 
              Baa    -0.0058    -3.107    -1.109    -1.036  0.1533  0.3407  0.9276
    16 H(1)   Bbb    -0.0027    -1.439    -0.513    -0.480  0.1558  0.9186 -0.3631
              Bcc     0.0085     4.546     1.622     1.516  0.9758 -0.2002 -0.0878
 
              Baa    -0.0028    -1.483    -0.529    -0.495 -0.2344  0.7908 -0.5654
    17 H(1)   Bbb    -0.0014    -0.725    -0.259    -0.242 -0.1279  0.5515  0.8243
              Bcc     0.0041     2.207     0.788     0.736  0.9637  0.2655 -0.0281
 
              Baa    -0.0021    -1.147    -0.409    -0.382  0.2303  0.0306  0.9727
    18 H(1)   Bbb    -0.0007    -0.360    -0.128    -0.120  0.9205 -0.3310 -0.2075
              Bcc     0.0028     1.507     0.538     0.503  0.3156  0.9431 -0.1044
 

 ---------------------------------------------------------------------------------

 Calling FoFJK, ICntrl=  10100127 FMM=F ISym2X=0 I1Cent= 0 IOpClX= 1 NMat=1 NMatS=1 NMatT=0.
 ***** Axes restored to original set *****
 -------------------------------------------------------------------
 Center     Atomic                   Forces (Hartrees/Bohr)
 Number     Number              X              Y              Z
 -------------------------------------------------------------------
      1        6           0.000038391   -0.000088683    0.000080814
      2        1           0.000000023   -0.000001137    0.000000249
      3        1          -0.000001429    0.000001604    0.000002397
      4        6          -0.000047299    0.000088598   -0.000100448
      5        1          -0.000000804    0.000003953   -0.000000405
      6        1          -0.000000681   -0.000000337   -0.000001879
      7        6           0.000000859    0.000001710   -0.000000970
      8        1          -0.000000468   -0.000000472   -0.000000615
      9        1           0.000000195   -0.000000277   -0.000000355
     10        1          -0.000000098    0.000000107   -0.000000387
     11        8          -0.000058486   -0.000010332   -0.000118851
     12        8           0.000069098    0.000002436    0.000141502
     13        1           0.000001508    0.000001780   -0.000000764
     14        6           0.000001935    0.000003038   -0.000000566
     15        6          -0.000001825   -0.000001749   -0.000000731
     16        1          -0.000000300   -0.000000319   -0.000000394
     17        1           0.000000575   -0.000000083    0.000000528
     18        1          -0.000001195    0.000000162    0.000000876
 -------------------------------------------------------------------
 Cartesian Forces:  Max     0.000141502 RMS     0.000038144
 FormGI is forming the generalized inverse of G from B-inverse, IUseBI=4.

 GradGradGradGradGradGradGradGradGradGradGradGradGradGradGradGradGradGrad
 Berny optimization.
 Internal  Forces:  Max     0.000174890 RMS     0.000029366
 Search for a saddle point.
 Step number   1 out of a maximum of  108
 All quantities printed in internal units (Hartrees-Bohrs-Radians)
 Swapping is turned off.
 Second derivative matrix not updated -- analytic derivatives used.
 ITU=  0
     Eigenvalues ---   -0.07272   0.00083   0.00137   0.00258   0.00608
     Eigenvalues ---    0.01575   0.01900   0.02357   0.03018   0.03146
     Eigenvalues ---    0.03221   0.03680   0.03955   0.04141   0.04224
     Eigenvalues ---    0.06522   0.07534   0.08491   0.08519   0.08937
     Eigenvalues ---    0.09678   0.10559   0.11131   0.12186   0.13043
     Eigenvalues ---    0.13493   0.15583   0.16163   0.16718   0.17588
     Eigenvalues ---    0.18045   0.18621   0.25812   0.28740   0.31114
     Eigenvalues ---    0.31951   0.33441   0.33538   0.34416   0.34459
     Eigenvalues ---    0.34862   0.35130   0.35382   0.35529   0.36030
     Eigenvalues ---    0.36436   0.40408   0.62079
 Eigenvectors required to have negative eigenvalues:
                          R7        R13       R12       A20       D5
   1                    0.69653  -0.65797   0.15254  -0.08167   0.07711
                          D1        D7        D8        D2        D4
   1                   -0.07653  -0.07086   0.06920   0.06352  -0.06295
 RFO step:  Lambda0=7.533870749D-11 Lambda=-4.42094936D-05.
 Linear search not attempted -- option 19 set.
 Iteration  1 RMS(Cart)=  0.07988030 RMS(Int)=  0.00235289
 Iteration  2 RMS(Cart)=  0.00347539 RMS(Int)=  0.00001172
 Iteration  3 RMS(Cart)=  0.00000835 RMS(Int)=  0.00001109
 Iteration  4 RMS(Cart)=  0.00000000 RMS(Int)=  0.00001109
 Variable       Old X    -DE/DX   Delta X   Delta X   Delta X     New X
                                 (Linear)    (Quad)   (Total)
    R1        2.06184  -0.00000   0.00000   0.00005   0.00005   2.06189
    R2        2.06022  -0.00000   0.00000  -0.00007  -0.00007   2.06015
    R3        2.84959  -0.00000   0.00000  -0.00026  -0.00026   2.84933
    R4        2.84260   0.00000   0.00000   0.00013   0.00013   2.84273
    R5        2.05256   0.00000   0.00000  -0.00002  -0.00002   2.05254
    R6        2.05190  -0.00000   0.00000  -0.00011  -0.00011   2.05179
    R7        2.58002   0.00000   0.00000   0.00299   0.00299   2.58300
    R8        2.06210  -0.00000   0.00000   0.00019   0.00019   2.06229
    R9        2.05615   0.00000   0.00000   0.00001   0.00001   2.05617
   R10        2.05705  -0.00000   0.00000  -0.00007  -0.00007   2.05698
   R11        2.68436  -0.00000   0.00000   0.00005   0.00005   2.68441
   R12        2.66369  -0.00000   0.00000  -0.00010  -0.00010   2.66359
   R13        2.19264   0.00000   0.00000  -0.00117  -0.00117   2.19147
   R14        2.51293   0.00000   0.00000  -0.00002  -0.00002   2.51291
   R15        2.04921   0.00000   0.00000  -0.00004  -0.00004   2.04917
   R16        2.04118  -0.00000   0.00000  -0.00001  -0.00001   2.04116
   R17        2.04454  -0.00000   0.00000   0.00002   0.00002   2.04456
    A1        1.87203   0.00000   0.00000  -0.00157  -0.00157   1.87046
    A2        1.90823   0.00000   0.00000  -0.00026  -0.00026   1.90797
    A3        1.91914  -0.00000   0.00000   0.00006   0.00006   1.91920
    A4        1.91742  -0.00000   0.00000   0.00206   0.00206   1.91948
    A5        1.91363   0.00000   0.00000  -0.00013  -0.00013   1.91350
    A6        1.93242  -0.00000   0.00000  -0.00019  -0.00019   1.93223
    A7        2.03310   0.00008   0.00000  -0.00082  -0.00086   2.03224
    A8        2.01482  -0.00008   0.00000   0.00063   0.00064   2.01546
    A9        1.81149   0.00000   0.00000   0.00257   0.00256   1.81405
   A10        1.97119   0.00000   0.00000  -0.00027  -0.00026   1.97094
   A11        1.78352  -0.00001   0.00000  -0.00525  -0.00524   1.77828
   A12        1.80736   0.00001   0.00000   0.00324   0.00324   1.81060
   A13        1.91838   0.00000   0.00000  -0.00001  -0.00001   1.91837
   A14        1.91670   0.00000   0.00000   0.00004   0.00004   1.91675
   A15        1.93513  -0.00000   0.00000  -0.00024  -0.00024   1.93489
   A16        1.92499   0.00000   0.00000   0.00013   0.00013   1.92512
   A17        1.83671  -0.00000   0.00000   0.00017   0.00017   1.83688
   A18        1.93071  -0.00000   0.00000  -0.00009  -0.00009   1.93063
   A19        1.88076  -0.00000   0.00000  -0.00020  -0.00019   1.88057
   A20        1.81429   0.00001   0.00000   0.00174   0.00174   1.81603
   A21        2.17210   0.00000   0.00000   0.00008   0.00008   2.17218
   A22        2.02749  -0.00000   0.00000  -0.00014  -0.00014   2.02736
   A23        2.08333  -0.00000   0.00000   0.00006   0.00006   2.08339
   A24        2.12094  -0.00000   0.00000   0.00003   0.00003   2.12098
   A25        2.11644   0.00000   0.00000   0.00008   0.00008   2.11652
   A26        2.04577  -0.00000   0.00000  -0.00012  -0.00012   2.04566
   A27        3.13048  -0.00002   0.00000  -0.00554  -0.00553   3.12495
   A28        3.03630  -0.00000   0.00000   0.00939   0.00939   3.04569
    D1        0.84151   0.00001   0.00000  -0.00326  -0.00327   0.83824
    D2       -3.06806   0.00001   0.00000  -0.00394  -0.00394  -3.07200
    D3       -1.10314  -0.00002   0.00000   0.00183   0.00184  -1.10130
    D4        2.89148   0.00001   0.00000  -0.00412  -0.00412   2.88735
    D5       -1.01809   0.00001   0.00000  -0.00479  -0.00480  -1.02289
    D6        0.94683  -0.00002   0.00000   0.00098   0.00098   0.94781
    D7       -1.27551   0.00001   0.00000  -0.00305  -0.00305  -1.27856
    D8        1.09810   0.00001   0.00000  -0.00372  -0.00372   1.09438
    D9        3.06302  -0.00002   0.00000   0.00205   0.00206   3.06508
   D10        2.18514  -0.00000   0.00000  -0.00134  -0.00134   2.18379
   D11       -0.98113   0.00000   0.00000  -0.00135  -0.00135  -0.98248
   D12        0.13095  -0.00000   0.00000   0.00061   0.00061   0.13156
   D13       -3.03531  -0.00000   0.00000   0.00060   0.00060  -3.03472
   D14       -1.98748  -0.00000   0.00000  -0.00176  -0.00176  -1.98924
   D15        1.12944   0.00000   0.00000  -0.00177  -0.00177   1.12767
   D16       -0.88064   0.00017   0.00000   0.12603   0.12608  -0.75455
   D17       -2.99645   0.00009   0.00000   0.12858   0.12852  -2.86793
   D18        1.21649   0.00009   0.00000   0.13099   0.13099   1.34748
   D19        1.13782   0.00000   0.00000   0.00403   0.00403   1.14185
   D20       -3.07197   0.00000   0.00000   0.00399   0.00399  -3.06798
   D21       -0.99302   0.00000   0.00000   0.00420   0.00420  -0.98882
   D22       -1.60324  -0.00000   0.00000   0.00660   0.00660  -1.59665
   D23        3.12913  -0.00000   0.00000  -0.00002  -0.00002   3.12911
   D24       -0.02153   0.00000   0.00000   0.00002   0.00002  -0.02150
   D25        0.01295  -0.00000   0.00000  -0.00000  -0.00000   0.01294
   D26       -3.13771   0.00000   0.00000   0.00003   0.00003  -3.13768
         Item               Value     Threshold  Converged?
 Maximum Force            0.000175     0.000450     YES
 RMS     Force            0.000029     0.000300     YES
 Maximum Displacement     0.203564     0.001800     NO 
 RMS     Displacement     0.080459     0.001200     NO 
 Predicted change in Energy=-2.320605D-05
 GradGradGradGradGradGradGradGradGradGradGradGradGradGradGradGradGradGrad

                          Input orientation:                          
 ---------------------------------------------------------------------
 Center     Atomic      Atomic             Coordinates (Angstroms)
 Number     Number       Type             X           Y           Z
 ---------------------------------------------------------------------
      1          6           0       -1.289293    0.313978   -0.604441
      2          1           0       -1.340799    0.586494   -1.659709
      3          1           0       -0.715862   -0.610865   -0.538510
      4          6           0       -0.589912    1.409368    0.160048
      5          1           0       -0.927753    2.423871   -0.030695
      6          1           0       -0.423464    1.210191    1.214323
      7          6           0        2.649974   -0.413770    0.242226
      8          1           0        2.019356   -0.278442    1.122555
      9          1           0        2.883650   -1.468488    0.112311
     10          1           0        3.565267    0.165183    0.351326
     11          8           0        1.957231   -0.036387   -0.939126
     12          8           0        1.713367    1.350140   -0.869869
     13          1           0        0.669985    1.427862   -0.369710
     14          6           0       -2.674999    0.089207   -0.063842
     15          6           0       -3.073054   -1.022852    0.547041
     16          1           0       -3.370386    0.914053   -0.173071
     17          1           0       -4.078300   -1.129266    0.927633
     18          1           0       -2.403756   -1.863086    0.676000
 ---------------------------------------------------------------------
                    Distance matrix (angstroms):
                    1          2          3          4          5
     1  C    0.000000
     2  H    1.091104   0.000000
     3  H    1.090185   1.755364   0.000000
     4  C    1.507799   2.133651   2.141305   0.000000
     5  H    2.216201   2.490030   3.084217   1.086156   0.000000
     6  H    2.204713   3.080675   2.544438   1.085759   1.810358
     7  C    4.094421   4.532565   3.460815   3.718527   4.574584
     8  H    3.778973   4.447443   3.217306   3.253214   4.161482
     9  H    4.593949   5.020854   3.757069   4.511094   5.449560
    10  H    4.949989   5.318952   4.440960   4.341670   5.043297
    11  O    3.282482   3.432815   2.763321   3.128310   3.898878
    12  O    3.187484   3.245756   3.139505   2.523753   2.971974
    13  H    2.265967   2.532834   2.470925   1.366867   1.913043
    14  C    1.504310   2.138732   2.133923   2.478011   2.916268
    15  C    2.508949   3.234261   2.627643   3.497350   4.100731
    16  H    2.208420   2.537048   3.083086   2.843826   2.875114
    17  H    3.494104   4.139092   3.704633   4.382089   4.844494
    18  H    2.760646   3.547655   2.427361   3.776930   4.588682
                    6          7          8          9         10
     6  H    0.000000
     7  C    3.609466   0.000000
     8  H    2.862136   1.091317   0.000000
     9  H    4.396221   1.088077   1.784322   0.000000
    10  H    4.212694   1.088509   1.783659   1.786228   0.000000
    11  O    3.443691   1.420529   2.076772   2.003668   2.071637
    12  O    2.988226   2.285906   2.591460   3.206073   2.514950
    13  H    1.937053   2.772440   2.638016   3.677158   3.239893
    14  C    2.821297   5.357424   4.855891   5.775467   6.254523
    15  C    3.528749   5.763413   5.178610   5.989148   6.746632
    16  H    3.270613   6.179023   5.670098   6.698575   6.995648
    17  H    4.348916   6.800837   6.159814   7.017732   7.773792
    18  H    3.695454   5.275307   4.719579   5.331990   6.312569
                   11         12         13         14         15
    11  O    0.000000
    12  O    1.409511   0.000000
    13  H    2.031073   1.159675   0.000000
    14  C    4.715872   4.636527   3.615864   0.000000
    15  C    5.337187   5.527074   4.566922   1.329775   0.000000
    16  H    5.465682   5.149781   4.077655   1.084373   2.087719
[...]
 2,0.596476,-0.0771023,0.0341666,-0.1461546,0.3092624,-0.022098,0.38729
 14,-0.1201102,0.4072618,-0.0771085,0.0278373,0.1227225,0.0302605,0.035
 351,-0.0347576,-0.0309157,0.0431321,-0.0842775,0.0355491,0.0374458,-0.
 0192207,0.0831788,-0.0935014,-0.0087661,-0.045738,-0.019842,0.0424535,
 -0.1363057,-0.024896,-0.0387784,-0.1291912,0.0122599,-0.0183277,-0.052
 6559,0.0473524,0.029078,-0.4545122,-0.0065961,-0.0122908,0.9775105,-0.
 3925837,-0.2078258,-0.1576915,0.0519934,-0.355353,0.4559565,-0.1239101
 ,-0.2341747,-0.9835401,0.011874,0.3086407,-0.4380153,0.0764197,-0.1378
 103,-1.0967556,0.1972127,0.3031052,0.1491901,0.0779826,-0.02461,0.5919
 681,-0.0900857,-0.0111974,0.2855565,0.0480577,-0.1342182,-0.2348391,0.
 0632662,-0.0992462,-0.2892247,-0.1569914,-0.0958072,-0.0901292,-0.1271
 452,-0.0550572,-0.1055123,-0.0671031,-0.0504645,-0.0615247,-0.0607841,
 -0.244029,-0.0493961,0.0547028,0.017792,0.0926453,-0.0409315,0.0453022
 ,0.0349132,0.0477697,0.1021212,-0.0625847,-0.0193895,0.0742957,0.00846
 01,0.0608759,0.0301789,0.1224289,0.0550004,0.0998744,-0.0137741,0.1081
 332,0.004862,0.0445136,-0.0107698,0.0457059,0.0080719,0.0211441,0.1152
 156\Polar=115.4360568,0.5169813,77.7155605,-11.9603177,-6.7099845,60.8
 706218\PG=C01 [X(C5H11O2)]\NImag=1\\0.46210760,-0.06509676,0.53812484,
 0.00749318,-0.04314657,0.54277699,-0.04645520,0.00741536,-0.00879024,0
 .05323920,0.00796088,-0.06518453,0.06474465,-0.00037250,0.06942323,-0.
 01202279,0.06307822,-0.28894735,0.01231104,-0.06740100,0.31702806,-0.1
 1621877,0.11642837,-0.01265302,-0.00101937,0.00032347,-0.00028353,0.13
 251526,0.11826261,-0.23387872,0.01950703,0.00359105,-0.00631121,0.0006
 4850,-0.12480548,0.25899472,-0.01261954,0.01908030,-0.05411924,-0.0165
 3095,0.02641741,-0.00154790,0.01281160,-0.01889632,0.05228435,-0.07501
 310,-0.03644026,-0.04426331,-0.00254639,-0.00347404,-0.00266212,0.0083
 2132,0.01033206,0.00848723,0.19812558,-0.03794423,-0.14774838,-0.04750
 277,0.00333018,0.00534472,0.00295113,-0.01560377,-0.02324815,-0.014898
 05,-0.03981062,0.54237619,-0.04476990,-0.04503715,-0.10808587,-0.01789
 482,-0.02679542,-0.01790832,0.00255034,0.00217911,0.00259921,0.1235034
 2,-0.03683115,0.50928116,0.00767554,-0.01764866,0.00237327,0.00026202,
 0.00086404,0.00028791,-0.00178162,-0.00209132,-0.00174850,-0.05916742,
 0.09434596,-0.03042246,0.06056652,0.01037654,-0.01724636,0.00427956,-0
 .00000489,0.00111944,-0.00012179,-0.00307729,-0.00198035,-0.00246752,0
 .08120779,-0.28767944,0.04989121,-0.09030054,0.30817082,0.00608114,-0.
 01377744,0.00491827,0.00104724,0.00052493,0.00092994,-0.00162160,-0.00
 338304,-0.00074086,-0.02671302,0.04515472,-0.05855402,0.02801316,-0.05
 109560,0.05640357,-0.00200314,0.00283054,-0.01616112,-0.00050782,-0.00
 296765,-0.00103876,0.00043916,-0.00062447,0.00063124,-0.03103355,0.006
 48984,-0.03624694,0.00141935,0.00225230,-0.01098526,0.03543285,-0.0039
 2196,0.00664692,-0.02320613,-0.00310038,-0.00311553,-0.00292584,0.0009
 3315,0.00114543,0.00062178,0.00817531,-0.06377180,0.05147361,0.0025957
 5,-0.00221735,0.02739217,-0.00661814,0.06109269,0.00000768,0.00446209,
 -0.01224506,-0.00158223,-0.00274741,-0.00020267,0.00027122,-0.00008623
 ,0.00048760,-0.05134744,0.05181469,-0.31181195,0.00073836,-0.00122010,
 -0.00237847,0.05063495,-0.05334009,0.33103538,0.00077250,-0.00013571,-
 0.00071892,0.00008367,-0.00004937,0.00014043,-0.00041091,-0.00022213,-
 0.00014314,-0.00518275,-0.00067114,0.00058912,0.00072879,0.00000773,-0
 .00025705,0.00099330,0.00005930,-0.00007115,0.55051916,-0.00049660,0.0
 0030504,0.00058824,0.00006144,-0.00003776,-0.00000395,0.00024635,0.000
 14322,-0.00019819,0.00396563,0.00066519,-0.00175626,-0.00063829,-0.000
 04175,0.00033444,-0.00062872,0.00002491,0.00023292,0.02462020,0.604136
 81,0.00220715,-0.00058368,-0.00184494,-0.00027397,-0.00007289,-0.00009
 539,-0.00046424,0.00002582,0.00048099,-0.00864754,-0.00138296,0.005668
 89,0.00132324,0.00049676,-0.00094136,0.00100446,-0.00006014,-0.0010714
 3,-0.05339448,0.05479438,0.49105596,-0.00019739,0.00004520,0.00011775,
 0.00003748,-0.00004280,-0.00001641,-0.00003019,-0.00012338,-0.00004256
 ,0.00048828,-0.00013863,0.00036044,0.00010066,0.00003522,0.00006199,-0
 .00067991,0.00026493,-0.00002009,-0.15201049,0.01977519,0.12685701,0.1
 5554073,-0.00009296,0.00016954,-0.00001979,0.00000617,-0.00005540,-0.0
 0000167,-0.00004264,-0.00005514,-0.00004636,-0.00015087,0.00010038,-0.
 00006933,-0.00009389,-0.00005934,-0.00005588,0.00049366,-0.00001271,-0
 .00009271,0.01856196,-0.05692506,-0.02878567,-0.02168337,0.05170498,-0
 .00062204,0.00026431,0.00038999,0.00011024,-0.00005281,0.00003668,-0.0
 0003263,-0.00014211,-0.00021502,0.00267382,0.00033990,-0.00113956,-0.0
 0029100,-0.00016047,0.00029308,-0.00047178,0.00007498,0.00046347,0.122
 96801,-0.02423638,-0.19896887,-0.13011111,0.02510645,0.23319879,-0.000
 22754,0.00019111,0.00011203,0.00001992,-0.00001970,-0.00001000,-0.0000
 1683,-0.00002568,0.00000552,0.00041245,0.00009278,-0.00008892,-0.00009
 088,-0.00004002,-0.00001365,-0.00001710,-0.00002278,-0.00003816,-0.061
 91475,0.04880178,0.00737640,-0.00320318,0.01866311,0.00264526,0.062497
 46,0.00026764,-0.00011505,-0.00019087,-0.00002191,-0.00000252,0.000003
 83,-0.00000670,0.00000745,0.00001481,-0.00058190,-0.00006425,0.0002242
 3,0.00008866,0.00004650,-0.00002765,0.00006845,0.00000462,-0.00001575,
 0.05374880,-0.29951679,-0.03819518,-0.00061398,-0.00121474,-0.00066856
 ,-0.06285376,0.32647673,-0.00025524,-0.00000706,0.00019549,0.00003509,
 0.00004130,0.00000834,0.00000828,-0.00001594,0.00000038,0.00058645,-0.
 00002806,-0.00028510,-0.00002631,-0.00006294,0.00008467,-0.00026164,0.
 00000649,0.00014390,0.01026608,-0.04881947,-0.05826351,0.00398650,-0.0
 2428727,-0.00109442,-0.00459058,0.03804810,0.06050380,-0.00011516,0.00
 002520,0.00018360,-0.00000005,0.00000413,-0.00001247,0.00010740,0.0000
 5696,-0.00000594,0.00110657,0.00015724,-0.00030129,-0.00017791,0.00000
 601,0.00004428,-0.00023812,-0.00003512,-0.00000796,-0.23279012,-0.1194
 4517,-0.01375186,-0.01502096,-0.01200298,-0.00042733,0.00861491,0.0043
 2538,0.00182285,0.25344908,-0.00021105,-0.00003375,0.00013232,-0.00000
 592,0.00001788,-0.00000592,0.,-0.00000971,0.00000058,0.00053875,0.0000
 0490,-0.00039537,-0.00006627,-0.00001877,0.00004290,-0.00002267,-0.000
 00626,0.00001985,-0.12456252,-0.13280099,-0.01499275,0.00486999,0.0033
 9135,-0.00066861,-0.02561657,-0.01345757,-0.00189743,0.13174341,0.1337
 8429,-0.00026086,0.00012686,0.00022716,0.00007831,-0.00003922,0.000032
 04,0.00008860,0.00000366,-0.00016140,0.00101616,0.00015848,-0.00074670
 ,-0.00014996,-0.00005202,0.00015052,-0.00011793,0.00006605,0.00017156,
 -0.01042112,-0.00852690,-0.04967365,0.02138775,0.01372405,0.00401958,-
 0.00342831,-0.00303730,0.00012929,0.02662198,0.01253477,0.06059783,0.0
 0024886,-0.00040418,0.00061421,-0.00014969,0.00004074,-0.00020908,-0.0
 0018130,0.00092402,-0.00006445,0.00333593,0.00156918,-0.00026695,-0.00
 077568,-0.00037577,0.00055796,-0.00085483,-0.00005261,0.00044226,-0.09
 862840,-0.00365606,-0.07152552,0.01348270,-0.00131755,0.00507351,-0.00
 484665,0.00345232,-0.00701245,-0.01645735,0.01276117,-0.03728934,0.154
 29661,0.00665798,-0.00289852,-0.00454842,0.00022362,0.00004810,0.00059
 233,0.00023729,0.00191561,0.00022506,-0.03963238,-0.00395155,0.0139142
 7,0.00470143,0.00100208,-0.00232940,0.00594328,-0.00024428,-0.00176405
 ,0.01233379,-0.06908384,0.02157862,0.00137096,-0.00075818,0.00453079,0
 .01879745,-0.01387325,0.03078316,-0.00170285,0.00489849,-0.01133196,-0
 .06964396,0.30933460,-0.00099966,0.00058511,0.00107504,0.00019635,-0.0
 0002247,0.00004711,0.00010717,-0.00023932,-0.00032836,0.00282611,-0.00
 011220,-0.00222568,-0.00029487,-0.00012956,-0.00004440,-0.00018616,-0.
 00014844,0.00016136,-0.06313859,-0.01235598,-0.19087819,-0.02246203,0.
 01371413,-0.04031071,0.00137700,0.00026625,0.00284637,-0.01628673,0.00
 505573,-0.01642952,0.10853978,0.00022012,0.29202747,0.00848264,0.00111
 328,-0.00253575,0.00025299,-0.00002853,0.00006686,0.00008830,0.0004611
 8,-0.00018455,-0.12284587,-0.00560813,0.05005768,0.00739506,0.00159694
 ,-0.00389807,0.00722337,-0.00057077,-0.00133630,-0.00748577,0.03394607
 ,-0.00162468,0.00216344,-0.00322394,0.00219193,-0.00135772,0.00191041,
 -0.00440622,0.00334349,0.00116001,0.00381260,-0.04383546,-0.00472504,-
 0.00686652,0.10862336,-0.00859553,0.00336112,0.00591576,-0.00017193,0.
 00003913,-0.00057980,0.00005481,-0.00196526,-0.00012648,0.04833815,0.0
 0774607,-0.01727224,-0.00561795,-0.00027209,0.00225564,-0.00672264,0.0
 0017663,0.00154170,0.01535039,-0.04640295,0.00981016,-0.00332226,0.003
 37243,-0.00509942,0.00218962,0.00166619,0.00581484,-0.00316070,0.00446
 025,-0.00390176,0.02857380,-0.20997140,0.00468654,0.00431593,0.2668507
 1,-0.00525227,-0.00018604,0.00181139,0.00055252,0.00024462,0.00034624,
 0.00019612,-0.00002650,-0.00004535,0.06045619,0.00255620,-0.02201608,-
 0.00356558,-0.00108799,0.00188491,-0.00347810,0.00015304,0.00186256,-0
 .00126734,0.03586047,0.00637835,-0.00089631,0.00105783,0.00217748,-0.0
 0339686,0.00339764,-0.00357605,0.00131673,0.00016049,0.00125029,-0.001
 48703,-0.02343447,-0.04525807,-0.01679975,-0.03435691,0.05579696,-0.02
 811493,-0.00308864,0.00919576,0.00056936,0.00060352,-0.00000417,0.0006
 1920,-0.00037898,0.00023996,0.10747991,0.00796294,-0.04845959,-0.01746
 201,-0.00144325,0.00806170,-0.01221109,0.00103340,0.00219615,0.0052816
 9,-0.00652103,0.01079350,-0.00073486,0.00086057,-0.00371314,0.00010762
 ,0.00023015,-0.00015271,-0.00179868,-0.00058439,-0.00132007,-0.0052384
 5,0.06562802,-0.00273721,0.03787863,-0.07159028,-0.02665214,-0.0870487
 8,-0.00871544,-0.00325048,0.00065106,0.00018372,0.00021048,0.00014836,
 -0.00074800,-0.00037459,-0.00000293,-0.01006068,-0.02249778,0.00551307
 ,0.01271051,-0.00144540,-0.00458111,-0.00136998,-0.00026949,0.00115499
 ,0.00054091,-0.00014616,-0.00362973,-0.00032951,0.00038434,0.00100940,
 -0.00001898,-0.00009072,0.00052696,0.00011299,-0.00016358,0.00039052,0
 .02788051,-0.02053571,-0.01101329,-0.03264733,-0.02454113,0.01694319,0
 .01315808,0.07322181,0.00289693,-0.00112015,-0.00235662,-0.00092061,-0
 .00038012,-0.00022340,-0.00015555,0.00011821,0.00003950,-0.05788564,-0
 .00222128,0.00188582,0.00348446,0.00155195,-0.00194386,0.01702140,0.00
 008565,-0.00759780,-0.00499841,0.00427058,-0.00241581,0.00084957,-0.00
 022627,0.00129268,0.00012202,0.00008849,-0.00061279,0.00086770,0.00008
 062,0.00047067,0.00258702,-0.03078066,-0.00041652,-0.01995158,0.034096
 35,0.00010682,0.05693472,-0.00684885,0.01018784,-0.18416004,0.00434262
 ,0.04874358,-0.00028352,-0.00104285,0.00128181,-0.02115589,-0.00271103
 ,0.00749400,-0.02568607,-0.01652117,-0.00178584,0.00177365,0.00104192,
 0.00010991,0.00231358,0.00130473,0.00070686,-0.00040275,0.00024712,-0.
 00052232,0.00006194,0.00004688,0.00011052,0.00008314,-0.00009804,0.000
 04003,0.00007909,0.00004580,0.00007218,-0.00012449,-0.00118455,0.00016
 039,-0.00079493,0.00160428,0.00117934,0.00301916,-0.00083533,-0.002078
 05,0.53454139,-0.01054524,-0.07821092,0.01693143,-0.01109396,-0.002562
 52,0.00473731,0.02771283,0.00325986,-0.00935566,-0.02278862,-0.0101314
 4,0.00328439,0.00101754,0.00027791,-0.00054877,0.00125893,0.00079044,0
 .00021012,0.00044970,-0.00032806,0.00098909,-0.00010535,-0.00003352,-0
 .00030376,-0.00014560,0.00014441,-0.00010432,-0.00009398,-0.00007304,-
 0.00010257,0.00029940,0.00443518,-0.00055067,0.00265458,-0.00490410,-0
 .00142234,-0.00656125,-0.00043103,0.00171595,-0.01321333,0.72470013,0.
 04190913,0.00790930,-0.09042795,0.03280301,0.00554839,-0.00994306,-0.0
 0247083,0.00016494,0.00056309,-0.00941027,0.00108363,0.00529925,0.0001
 2383,-0.00000169,-0.00025199,-0.00078309,-0.00061782,0.00073869,0.0006
 2905,-0.00031045,0.00080728,-0.00008821,-0.00002103,-0.00017652,-0.000
 09349,0.00011950,-0.00009894,-0.00010315,-0.00008307,-0.00007171,-0.00
 012561,0.00291382,-0.00028991,0.00184101,-0.00329930,-0.00099097,-0.00
 519961,-0.00054517,0.00155294,-0.11955992,-0.24647538,0.29623529,-0.01
 343366,-0.02828792,0.01791807,-0.00378923,-0.00117932,0.00168492,0.002
 11502,-0.00172280,-0.00006586,0.00013028,0.00089308,0.00259758,-0.0000
 2484,-0.00049722,-0.00029922,-0.00013361,0.00001357,-0.00038055,0.0003
 5362,-0.00025063,0.00058103,-0.00002579,-0.00003587,-0.00012896,-0.000
 08319,0.00008562,-0.00004180,-0.00007213,-0.00003448,-0.00008444,-0.00
 011404,0.00147831,-0.00023178,0.00088214,-0.00162355,-0.00076359,-0.00
 235420,0.00005387,0.00100171,-0.14307495,-0.10070118,0.07387345,0.6246
 2502,-0.00554643,-0.00266915,0.00395735,0.00076845,0.00059735,-0.00123
 144,0.00099136,0.00107663,-0.00110939,-0.00001385,0.00110661,0.0013048
 2,-0.00012156,0.00020702,-0.00000999,-0.00027948,-0.00002580,0.0000030
 6,-0.00001810,0.00003982,-0.00017119,-0.00000103,0.00004795,0.00007151
 ,0.00004498,-0.00002738,-0.00000255,-0.00000992,-0.00000614,0.00003434
 ,-0.00006453,-0.00027075,0.00011538,-0.00027607,0.00035758,0.00020174,
 0.00070178,-0.00020087,-0.00051607,-0.09808499,-0.40823009,0.19013008,
 -0.00671651,0.70038962,0.00838955,0.01388824,-0.00070674,0.00067317,0.
 00026427,-0.00012874,-0.00140333,-0.00013759,0.00008651,0.00087088,-0.
 00133317,-0.00164201,0.00026228,0.00008257,0.00009880,0.00057888,0.000
 44788,0.00036230,0.00001051,0.00000469,-0.00009428,-0.00000233,0.00001
 474,0.00001030,-0.00001079,0.00000883,-0.00000413,-0.00000126,0.000004
 61,0.00001870,-0.00001549,0.00014306,0.00000810,0.00012104,-0.00023734
 ,0.00002907,-0.00024267,0.00029155,0.00045355,0.07327577,0.18911025,-0
 .15656743,-0.16629214,-0.25602127,0.27205772,-0.01677808,0.02088370,-0
 .00332401,0.00101237,-0.00023656,0.00036890,-0.00433084,-0.00130427,0.
 00217463,0.00184391,0.00169059,0.00048001,-0.00027332,-0.00073907,-0.0
 0014648,-0.00008751,-0.00010265,-0.00015012,0.00009742,-0.00004595,0.0
 0008662,0.00001847,0.00001056,0.00001691,0.00001287,0.00000551,-0.0000
 0429,-0.00002747,-0.00001376,-0.00001116,-0.00014251,-0.00036427,-0.00
 001203,0.00001282,0.00024009,-0.00015548,-0.00014720,0.00009600,0.0002
 9497,-0.16849519,0.13682849,-0.01785686,0.00870776,-0.00940473,0.00338
 927,0.17665160,-0.00470811,0.00420621,-0.00025116,0.00051497,0.0002784
 9,-0.00013563,-0.00129487,0.00071439,0.00047287,0.00002471,0.00119944,
 0.00024446,0.00019603,0.00003083,0.00007186,-0.00000851,-0.00005538,-0
 .00003415,-0.00003961,0.00001077,-0.00003971,0.00000842,-0.00001019,0.
 00000962,-0.00000128,-0.00000466,0.00001059,0.00001173,0.00000905,-0.0
 0000099,0.00000086,-0.00033764,0.00001981,-0.00029041,0.00031269,0.000
 12525,0.00049403,0.00013301,-0.00012614,0.13289794,-0.21079423,0.02970
 251,0.02007740,-0.01792347,0.00368110,-0.14581983,0.22364850,0.0084003
 4,-0.00856655,0.00343621,-0.00105824,-0.00027561,0.00051662,0.00276318
 ,0.00061789,0.00059287,-0.00037776,0.00010406,0.00003308,-0.00002752,0
 .00017595,0.00010004,-0.00007517,0.00004646,-0.00006800,-0.00007522,0.
 00004423,-0.00004519,-0.00000417,-0.00000489,-0.00000332,0.00000257,-0
 .00000692,0.00000173,0.00001586,0.00000341,0.00000662,0.00013671,-0.00
 006186,-0.00001730,-0.00012861,0.00006062,0.00009034,0.00019576,-0.000
 02542,-0.00017487,-0.01525483,0.02761669,-0.04760052,-0.00967417,0.014
 23462,0.00313274,0.01339262,-0.03685429,0.03771619,0.00260296,0.000239
 34,0.00376680,-0.00096951,-0.00060875,0.00024657,0.00049470,-0.0000859
 0,-0.00027032,0.00052203,0.00010447,-0.00003610,-0.00011137,-0.0000540
 6,0.00000975,-0.00005391,0.00000674,-0.00006311,0.00002636,-0.00000925
 ,-0.00000864,0.00001058,0.00001317,0.00001916,0.00001384,-0.00000425,0
 .00000189,-0.00001344,-0.00000544,0.00000437,-0.00006224,-0.00011610,0
 .00001248,-0.00001282,0.00013092,-0.00001956,0.00012398,0.00001911,-0.
 00003208,-0.00570352,0.00269043,0.00174900,-0.30682566,-0.02117989,0.0
 9771051,0.00050369,-0.00129121,-0.00212095,0.32127806,0.00179447,-0.00
 167223,0.00596079,-0.00161635,-0.00040782,0.00054151,-0.00020951,0.000
 25178,-0.00009212,0.00059711,0.00059611,-0.00002345,-0.00001589,0.0000
 1281,0.00004341,-0.00006161,-0.00007929,-0.00011546,0.00002763,-0.0000
 3494,0.00008561,-0.00000011,-0.00001633,-0.00002457,-0.00001753,0.0000
 1050,-0.00000037,-0.00000312,0.00000385,-0.00002027,-0.00001145,0.0000
 5648,-0.00002990,0.00008706,-0.00005226,-0.00011697,-0.00018777,0.0000
 2824,0.00011888,-0.02753899,0.00043545,0.00994581,-0.01655041,-0.05589
 022,0.01467316,-0.00081235,-0.00004106,-0.00315115,0.02384366,0.052108
 83,0.00329034,0.00557060,0.00972925,-0.00159933,-0.00064008,0.00038768
 ,-0.00031755,-0.00000956,-0.00009162,0.00125037,0.00060180,-0.00084890
 ,-0.00008036,0.00011067,0.00013706,-0.00003074,-0.00001586,-0.00005551
 ,-0.00016692,0.00009471,-0.00025740,0.00002488,0.00001046,0.00005846,0
 .00003237,-0.00003781,0.00002839,0.00003128,0.00002106,0.00002970,0.00
 006057,-0.00085085,0.00010680,-0.00044532,0.00094047,0.00024229,0.0011
 8156,0.00004080,-0.00035312,0.01485910,0.00102514,-0.00173174,0.095755
 58,0.01597502,-0.07238271,-0.00234223,-0.00291568,-0.00568473,-0.10710
 794,-0.02002163,0.06715305,0.00082691,-0.00241259,-0.00207186,0.000243
 78,0.00022527,-0.00012910,0.00044540,0.00046755,-0.00016836,-0.0002911
 1,-0.00033856,0.00013421,-0.00005655,0.00000767,-0.00005277,-0.0000010
 2,0.00003753,-0.00000038,-0.00003057,0.00002790,-0.00001614,-0.0000015
 3,-0.00001200,-0.00001137,-0.00000435,-0.00000240,0.00000410,0.0000108
 7,0.00000391,0.00000121,0.00004700,-0.00000297,-0.00000371,-0.00001366
 ,0.00000684,0.00003310,0.00003064,-0.00003046,-0.00003858,0.00800940,-
 0.00766341,0.00276255,-0.16688256,0.13921052,-0.01731385,0.00142122,-0
 .00077226,0.00388961,-0.01182375,0.02067516,-0.00439564,0.16806989,0.0
 0055419,0.00009444,-0.00380248,0.00029287,0.00059847,-0.00029414,-0.00
 113937,0.00031405,0.00036022,-0.00022632,-0.00004681,0.00015119,0.0000
 7445,0.00009344,-0.00001118,-0.00003315,-0.00008372,-0.00002345,-0.000
 00184,-0.00000746,0.00013347,-0.00000951,-0.00003034,-0.00005028,-0.00
 001894,0.00001054,-0.00000602,0.00001080,-0.00000025,-0.00002575,0.000
 02410,0.00023459,-0.00006125,0.00012478,-0.00023362,-0.00006923,-0.000
 31690,-0.00003092,0.00009286,0.01969900,-0.01834445,0.00383593,0.13499
 803,-0.21857870,0.03511443,-0.00091149,-0.00137673,0.00604277,-0.00369
 298,0.00469010,0.00010074,-0.14942770,0.23269737,-0.00387315,-0.002540
 38,-0.00582603,0.00084342,0.00064146,-0.00033588,0.00060578,-0.0003285
 5,0.00011526,-0.00036354,-0.00045495,0.00049677,0.00000005,-0.00018897
 ,-0.00014592,-0.00003423,-0.00005377,0.00000407,0.00004914,-0.00001706
 ,0.00015854,-0.00000268,-0.00001679,-0.00003209,-0.00000239,0.00000835
 ,-0.00000742,-0.00000630,-0.00001320,-0.00002098,-0.00001610,0.0002004
 5,-0.00007359,0.00008625,-0.00024883,-0.00009021,-0.00031780,-0.000023
 39,0.00010497,-0.00883252,0.01324310,0.00295420,-0.01544981,0.03303397
 ,-0.04473174,0.00379872,0.00601968,0.00796747,0.00613817,-0.00777329,0
 .00353305,0.01737699,-0.04148781,0.03592954\\0.00000006,-0.00000067,-0
 .00000009,0.00000006,-0.00000016,-0.00000017,0.00000084,-0.00000014,0.
 00000012,-0.00000003,0.00000009,-0.00000033,0.00000003,0.00000028,-0.0
 0000061,0.00000005,0.00000029,-0.00000054,-0.00000016,-0.00000016,0.00
 000059,-0.00000006,0.00000020,0.00000017,-0.00000009,-0.00000013,0.000
 00075,0.00000004,-0.00000009,0.00000026,-0.00000077,-0.00000087,0.0000
 0053,0.00000020,-0.00000021,-0.00000010,0.00000020,0.00000022,-0.00000
 071,0.00000002,0.00000016,-0.00000025,-0.00000010,0.00000024,0.0000002
 6,-0.00000001,0.00000012,-0.00000044,-0.00000013,0.00000049,0.00000013
 ,-0.00000014,0.00000033,0.00000041\\\@


 EVERYBODY NEEDS BEAUTY AS WELL AS BREAD, PLACES TO PLAY IN AND PRAY IN,
 WHERE NATURE MAY HEAL AND CHEER AND GIVE STRENGTH TO BODY AND SOUL ALIKE.

                                    -- JOHN MUIR
 Job cpu time:       3 days  1 hours  8 minutes 35.7 seconds.
 Elapsed time:       0 days  1 hours 53 minutes 32.4 seconds.
 File lengths (MBytes):  RWF= 108510 Int=      0 D2E=      0 Chk=     21 Scr=      1
 Normal termination of Gaussian 16 at Tue Jun 25 01:08:43 2019.
