 Entering Gaussian System, Link 0=g16
 Initial command:
 /ichec/packages/gaussian/16b01/l1.exe "/localscratch/341085/Gau-3964.inp" -scrdir="/localscratch/341085/"
 Entering Link 1 = /ichec/packages/gaussian/16b01/l1.exe PID=      7727.
  
 Copyright (c) 1988-2017, Gaussian, Inc.  All Rights Reserved.
  
 This is part of the Gaussian(R) 16 program.  It is based on
 the Gaussian(R) 09 system (copyright 2009, Gaussian, Inc.),
 the Gaussian(R) 03 system (copyright 2003, Gaussian, Inc.),
 the Gaussian(R) 98 system (copyright 1998, Gaussian, Inc.),
 the Gaussian(R) 94 system (copyright 1995, Gaussian, Inc.),
 the Gaussian 92(TM) system (copyright 1992, Gaussian, Inc.),
 the Gaussian 90(TM) system (copyright 1990, Gaussian, Inc.),
 the Gaussian 88(TM) system (copyright 1988, Gaussian, Inc.),
 the Gaussian 86(TM) system (copyright 1986, Carnegie Mellon
 University), and the Gaussian 82(TM) system (copyright 1983,
 Carnegie Mellon University). Gaussian is a federally registered
 trademark of Gaussian, Inc.
  
 This software contains proprietary and confidential information,
 including trade secrets, belonging to Gaussian, Inc.
  
 This software is provided under written license and may be
 used, copied, transmitted, or stored only in accord with that
 written license.
  
 The following legend is applicable only to US Government
 contracts under FAR:
  
                    RESTRICTED RIGHTS LEGEND
  
 Use, reproduction and disclosure by the US Government is
 subject to restrictions as set forth in subparagraphs (a)
 and (c) of the Commercial Computer Software - Restricted
 Rights clause in FAR 52.227-19.
  
 Gaussian, Inc.
 340 Quinnipiac St., Bldg. 40, Wallingford CT 06492
  
  
 ---------------------------------------------------------------
 Warning -- This program may not be used in any manner that
 competes with the business of Gaussian, Inc. or will provide
 assistance to any competitor of Gaussian, Inc.  The licensee
 of this program is prohibited from giving any competitor of
 Gaussian, Inc. access to this program.  By using this program,
 the user acknowledges that Gaussian, Inc. is engaged in the
 business of creating and licensing software in the field of
 computational chemistry and represents and warrants to the
 licensee that it is not a competitor of Gaussian, Inc. and that
 it will not use this program in any manner prohibited above.
 ---------------------------------------------------------------
  

 Cite this work as:
 Gaussian 16, Revision B.01,
 M. J. Frisch, G. W. Trucks, H. B. Schlegel, G. E. Scuseria, 
 M. A. Robb, J. R. Cheeseman, G. Scalmani, V. Barone, 
 G. A. Petersson, H. Nakatsuji, X. Li, M. Caricato, A. V. Marenich, 
 J. Bloino, B. G. Janesko, R. Gomperts, B. Mennucci, H. P. Hratchian, 
 J. V. Ortiz, A. F. Izmaylov, J. L. Sonnenberg, D. Williams-Young, 
 F. Ding, F. Lipparini, F. Egidi, J. Goings, B. Peng, A. Petrone, 
 T. Henderson, D. Ranasinghe, V. G. Zakrzewski, J. Gao, N. Rega, 
 G. Zheng, W. Liang, M. Hada, M. Ehara, K. Toyota, R. Fukuda, 
 J. Hasegawa, M. Ishida, T. Nakajima, Y. Honda, O. Kitao, H. Nakai, 
 T. Vreven, K. Throssell, J. A. Montgomery, Jr., J. E. Peralta, 
 F. Ogliaro, M. J. Bearpark, J. J. Heyd, E. N. Brothers, K. N. Kudin, 
 V. N. Staroverov, T. A. Keith, R. Kobayashi, J. Normand, 
 K. Raghavachari, A. P. Rendell, J. C. Burant, S. S. Iyengar, 
 J. Tomasi, M. Cossi, J. M. Millam, M. Klene, C. Adamo, R. Cammi, 
 J. W. Ochterski, R. L. Martin, K. Morokuma, O. Farkas, 
 J. B. Foresman, and D. J. Fox, Gaussian, Inc., Wallingford CT, 2016.
 
 ******************************************
 Gaussian 16:  ES64L-G16RevB.01 20-Dec-2017
                 5-Jun-2019 
 ******************************************
 %mem=80GB
 %nproc=40
 Will use up to   40 processors via shared memory.
 ----------------------------------------------------------------------
 # opt=(calcfc,ts,noeigentest,maxcyc=500) freq=noraman uB2PLYPD3/cc-pvt
 z
 ----------------------------------------------------------------------
 1/5=1,6=500,10=4,11=1,18=20,38=1/1,3;
 2/9=110,12=2,17=6,18=5,40=1/2;
 3/5=16,6=1,11=2,25=1,30=1,71=2,74=-60,116=2,140=1/1,2,3;
 4//1;
 5/5=2,38=5/2;
 8/6=3,8=1,10=1,19=11,30=-1/1;
 9/15=3,16=-3/6;
 11/6=1,8=1,15=11,17=12,24=-1,27=1,28=-2,29=300,32=6,42=3/1,2,10;
 10/6=2,21=1/2;
 8/6=4,8=1,10=1,19=11,30=-1/11,4;
 10/5=1,20=4/2;
 11/12=2,14=11,16=1,17=2,28=-2,42=3,76=2/2,10,12;
 6/7=2,8=2,9=2,10=2/1;
 7/10=1,12=2,25=1,44=2/1,2,3,16;
 1/5=1,6=500,10=4,11=1,18=20/3(2);
 2/9=110/2;
 99//99;
 2/9=110/2;
 3/5=16,6=1,11=2,25=1,30=1,71=1,74=-60,116=2/1,2,3;
 4/5=5,16=3,69=1/1;
 5/5=2,38=5/2;
 8/6=4,10=1/1;
 9/15=2,16=-3/6;
 10/5=1/2;
 7/12=2/1,2,3,16;
 1/5=1,6=500,11=1,18=20/3(-8);
 2/9=110/2;
 6/7=2,8=2,9=2,10=2/1;
 99/9=10/99;
 -------------------
 Title Card Required
 -------------------
 Symbolic Z-matrix:
 Charge =  0 Multiplicity = 2
 C                     0.93283  -0.66541   0.12138 
 C                     0.4802   -1.89851   0.07865 
 C                    -2.28652   0.30623  -0.91148 
 H                    -1.434     0.03532  -1.53932 
 H                    -3.15019  -0.30329  -1.17066 
 H                    -2.51869   1.36395  -1.03273 
 O                    -2.00695   0.01666   0.44395 
 O                    -0.95911   0.82781   0.84834 
 H                    -0.05267   0.23016   0.57325 
 H                     1.11243  -2.71924  -0.2543 
 H                    -0.5367   -2.13308   0.37251 
 C                     2.19679  -0.04123  -0.19282 
 C                     2.39942   1.27212  -0.17786 
 H                     3.00818  -0.71879  -0.45229 
 H                     3.36294   1.69451  -0.42391 
 H                     1.60085   1.9555    0.08192 
 
 Add virtual bond connecting atoms H9         and C1         Dist= 2.66D+00.

 GradGradGradGradGradGradGradGradGradGradGradGradGradGradGradGradGradGrad
 Berny optimization.
 Initialization pass.
                           ----------------------------
                           !    Initial Parameters    !
                           ! (Angstroms and Degrees)  !
 --------------------------                            --------------------------
 ! Name  Definition              Value          Derivative Info.                !
 --------------------------------------------------------------------------------
 ! R1    R(1,2)                  1.3142         calculate D2E/DX2 analytically  !
 ! R2    R(1,9)                  1.4062         calculate D2E/DX2 analytically  !
 ! R3    R(1,12)                 1.4443         calculate D2E/DX2 analytically  !
 ! R4    R(2,10)                 1.0882         calculate D2E/DX2 analytically  !
 ! R5    R(2,11)                 1.0842         calculate D2E/DX2 analytically  !
 ! R6    R(3,4)                  1.0929         calculate D2E/DX2 analytically  !
 ! R7    R(3,5)                  1.0884         calculate D2E/DX2 analytically  !
 ! R8    R(3,6)                  1.0897         calculate D2E/DX2 analytically  !
 ! R9    R(3,7)                  1.4139         calculate D2E/DX2 analytically  !
 ! R10   R(7,8)                  1.3854         calculate D2E/DX2 analytically  !
 ! R11   R(8,9)                  1.12           calculate D2E/DX2 analytically  !
 ! R12   R(12,13)                1.329          calculate D2E/DX2 analytically  !
 ! R13   R(12,14)                1.0885         calculate D2E/DX2 analytically  !
 ! R14   R(13,15)                1.0804         calculate D2E/DX2 analytically  !
 ! R15   R(13,16)                1.0827         calculate D2E/DX2 analytically  !
 ! A1    A(2,1,9)              111.5076         calculate D2E/DX2 analytically  !
 ! A2    A(2,1,12)             134.4134         calculate D2E/DX2 analytically  !
 ! A3    A(9,1,12)             114.0787         calculate D2E/DX2 analytically  !
 ! A4    A(1,2,10)             121.1643         calculate D2E/DX2 analytically  !
 ! A5    A(1,2,11)             121.1459         calculate D2E/DX2 analytically  !
 ! A6    A(10,2,11)            117.6898         calculate D2E/DX2 analytically  !
 ! A7    A(4,3,5)              110.0831         calculate D2E/DX2 analytically  !
 ! A8    A(4,3,6)              110.054          calculate D2E/DX2 analytically  !
 ! A9    A(4,3,7)              110.2244         calculate D2E/DX2 analytically  !
 ! A10   A(5,3,6)              110.3672         calculate D2E/DX2 analytically  !
 ! A11   A(5,3,7)              105.6931         calculate D2E/DX2 analytically  !
 ! A12   A(6,3,7)              110.3402         calculate D2E/DX2 analytically  !
 ! A13   A(3,7,8)              108.0261         calculate D2E/DX2 analytically  !
 ! A14   A(7,8,9)              103.1784         calculate D2E/DX2 analytically  !
 ! A15   A(1,12,13)            123.9235         calculate D2E/DX2 analytically  !
 ! A16   A(1,12,14)            115.7985         calculate D2E/DX2 analytically  !
 ! A17   A(13,12,14)           120.278          calculate D2E/DX2 analytically  !
 ! A18   A(12,13,15)           121.3161         calculate D2E/DX2 analytically  !
 ! A19   A(12,13,16)           120.9315         calculate D2E/DX2 analytically  !
 ! A20   A(15,13,16)           117.7524         calculate D2E/DX2 analytically  !
 ! A21   L(1,9,8,4,-1)         172.4625         calculate D2E/DX2 analytically  !
 ! A22   L(1,9,8,4,-2)         173.9544         calculate D2E/DX2 analytically  !
 ! D1    D(9,1,2,10)           179.6759         calculate D2E/DX2 analytically  !
 ! D2    D(9,1,2,11)            -0.2292         calculate D2E/DX2 analytically  !
 ! D3    D(12,1,2,10)           -0.0908         calculate D2E/DX2 analytically  !
 ! D4    D(12,1,2,11)         -179.9958         calculate D2E/DX2 analytically  !
 ! D5    D(2,1,8,7)            -23.9865         calculate D2E/DX2 analytically  !
 ! D6    D(12,1,8,7)           153.896          calculate D2E/DX2 analytically  !
 ! D7    D(2,1,12,13)          174.0603         calculate D2E/DX2 analytically  !
 ! D8    D(2,1,12,14)           -5.9554         calculate D2E/DX2 analytically  !
 ! D9    D(9,1,12,13)           -5.7018         calculate D2E/DX2 analytically  !
 ! D10   D(9,1,12,14)          174.2824         calculate D2E/DX2 analytically  !
 ! D11   D(4,3,7,8)             64.4996         calculate D2E/DX2 analytically  !
 ! D12   D(5,3,7,8)           -176.5782         calculate D2E/DX2 analytically  !
 ! D13   D(6,3,7,8)            -57.257          calculate D2E/DX2 analytically  !
 ! D14   D(3,7,8,9)            -87.7289         calculate D2E/DX2 analytically  !
 ! D15   D(1,12,13,15)        -179.7817         calculate D2E/DX2 analytically  !
 ! D16   D(1,12,13,16)           0.193          calculate D2E/DX2 analytically  !
 ! D17   D(14,12,13,15)          0.2347         calculate D2E/DX2 analytically  !
 ! D18   D(14,12,13,16)       -179.7905         calculate D2E/DX2 analytically  !
 --------------------------------------------------------------------------------
 Trust Radius=3.00D-01 FncErr=1.00D-07 GrdErr=1.00D-07 EigMax=2.50D+02 EigMin=1.00D-04
 Number of steps in this run=    100 maximum allowed number of steps=    100.
 Search for a saddle point of order  1.
 GradGradGradGradGradGradGradGradGradGradGradGradGradGradGradGradGradGrad

                          Input orientation:                          
 ---------------------------------------------------------------------
 Center     Atomic      Atomic             Coordinates (Angstroms)
 Number     Number       Type             X           Y           Z
 ---------------------------------------------------------------------
      1          6           0        0.932833   -0.665409    0.121381
      2          6           0        0.480197   -1.898511    0.078651
      3          6           0       -2.286524    0.306233   -0.911482
      4          1           0       -1.433997    0.035320   -1.539318
      5          1           0       -3.150186   -0.303292   -1.170659
      6          1           0       -2.518692    1.363948   -1.032730
      7          8           0       -2.006946    0.016657    0.443946
      8          8           0       -0.959105    0.827808    0.848340
      9          1           0       -0.052669    0.230162    0.573252
     10          1           0        1.112426   -2.719235   -0.254295
     11          1           0       -0.536700   -2.133083    0.372513
     12          6           0        2.196787   -0.041229   -0.192816
     13          6           0        2.399416    1.272122   -0.177863
     14          1           0        3.008179   -0.718793   -0.452287
     15          1           0        3.362936    1.694509   -0.423906
     16          1           0        1.600852    1.955503    0.081921
 ---------------------------------------------------------------------
                    Distance matrix (angstroms):
                    1          2          3          4          5
     1  C    0.000000
     2  C    1.314247   0.000000
     3  C    3.517834   3.673691   0.000000
     4  H    2.975034   3.165701   1.092874   0.000000
     5  H    4.297853   4.157545   1.088396   1.787700   0.000000
     6  H    4.166928   4.568604   1.089662   1.788420   1.788155
     7  O    3.035056   3.160251   1.413932   2.064450   2.004074
     8  O    2.517458   3.177550   2.265183   2.560170   3.186939
     9  H    1.406218   2.249405   2.683343   2.531597   3.594497
    10  H    2.095611   1.088189   4.597631   3.965240   4.984613
    11  H    2.092047   1.084186   3.265086   3.026914   3.543984
    12  C    1.444265   2.543594   4.553821   3.873180   5.441964
    13  C    2.448354   3.715120   4.840369   4.251858   5.853687
    14  H    2.153835   2.839775   5.412524   4.635003   6.214029
    15  H    3.431028   4.633847   5.837931   5.196885   6.853438
    16  H    2.704993   4.013640   4.338045   3.940283   5.407724
                    6          7          8          9         10
     6  H    0.000000
     7  O    2.063407   0.000000
     8  O    2.501636   1.385450   0.000000
     9  H    3.153715   1.970153   1.120036   0.000000
    10  H    5.519362   4.207508   4.253065   3.277381   0.000000
    11  H    4.258195   2.605400   3.028484   2.420642   1.859053
    12  C    4.991565   4.252080   3.434951   2.391770   2.889868
    13  C    4.992696   4.623728   3.539798   2.768136   4.194415
    14  H    5.934731   5.147388   4.452297   3.364675   2.763123
    15  H    5.922287   5.692450   4.588008   3.847726   4.957287
    16  H    4.308483   4.111738   2.900427   2.439742   4.712194
                   11         12         13         14         15
    11  H    0.000000
    12  C    3.488180   0.000000
    13  C    4.529803   1.328974   0.000000
    14  H    3.904700   1.088474   2.099915   0.000000
    15  H    5.521948   2.103828   1.080425   2.439402   0.000000
    16  H    4.622781   2.101799   1.082683   3.068845   1.851734
                   16
    16  H    0.000000
 Stoichiometry    C5H9O2(2)
 Framework group  C1[X(C5H9O2)]
 Deg. of freedom    42
 Full point group                 C1      NOp   1
 Largest Abelian subgroup         C1      NOp   1
 Largest concise Abelian subgroup C1      NOp   1
                         Standard orientation:                         
 ---------------------------------------------------------------------
 Center     Atomic      Atomic             Coordinates (Angstroms)
 Number     Number       Type             X           Y           Z
 ---------------------------------------------------------------------
      1          6           0        0.932833    0.665409   -0.121381
      2          6           0        0.480197    1.898511   -0.078651
      3          6           0       -2.286524   -0.306233    0.911482
      4          1           0       -1.433997   -0.035320    1.539318
      5          1           0       -3.150186    0.303292    1.170659
      6          1           0       -2.518692   -1.363948    1.032730
      7          8           0       -2.006946   -0.016657   -0.443946
      8          8           0       -0.959105   -0.827808   -0.848340
      9          1           0       -0.052669   -0.230162   -0.573252
     10          1           0        1.112426    2.719235    0.254295
     11          1           0       -0.536700    2.133083   -0.372513
     12          6           0        2.196787    0.041229    0.192816
     13          6           0        2.399416   -1.272122    0.177863
     14          1           0        3.008179    0.718793    0.452287
     15          1           0        3.362936   -1.694509    0.423906
     16          1           0        1.600852   -1.955503   -0.081921
 ---------------------------------------------------------------------
 Rotational constants (GHZ):           3.8099708           1.4175590           1.1843678
 Standard basis: CC-pVTZ (5D, 7F)
 There are   380 symmetry adapted cartesian basis functions of A   symmetry.
 There are   336 symmetry adapted basis functions of A   symmetry.
   336 basis functions,   517 primitive gaussians,   380 cartesian basis functions
    28 alpha electrons       27 beta electrons
       nuclear repulsion energy       289.1916508853 Hartrees.
 NAtoms=   16 NActive=   16 NUniq=   16 SFac= 1.00D+00 NAtFMM=   60 NAOKFM=F Big=F
 Integral buffers will be    131072 words long.
 Raffenetti 2 integral format.
 Two-electron integral symmetry is turned on.
 Nuclear repulsion after empirical dispersion term =      289.1827814878 Hartrees.
 One-electron integrals computed using PRISM.
 NBasis=   336 RedAO= T EigKep=  2.87D-04  NBF=   336
 NBsUse=   336 1.00D-06 EigRej= -1.00D+00 NBFU=   336
 ExpMin= 1.03D-01 ExpMax= 1.53D+04 ExpMxC= 5.22D+02 IAcc=3 IRadAn=         5 AccDes= 0.00D+00
 Harris functional with IExCor=  419 and IRadAn=       5 diagonalized for initial guess.
 HarFok:  IExCor=  419 AccDes= 0.00D+00 IRadAn=         5 IDoV= 1 UseB2=F ITyADJ=14
 ICtDFT=  3500011 ScaDFX=  1.000000  1.000000  1.000000  1.000000
 FoFCou: FMM=F IPFlag=           0 FMFlag=      100000 FMFlg1=           0
         NFxFlg=           0 DoJE=T BraDBF=F KetDBF=T FulRan=T
         wScrn=  0.000000 ICntrl=       500 IOpCl=  0 I1Cent=   200000004 NGrid=           0
         NMat0=    1 NMatS0=      1 NMatT0=    0 NMatD0=    1 NMtDS0=    0 NMtDT0=    0
 Petite list used in FoFCou.
 Initial guess <Sx>= 0.0000 <Sy>= 0.0000 <Sz>= 0.5000 <S**2>= 0.7500 S= 0.5000
 Requested convergence on RMS density matrix=1.00D-08 within 128 cycles.
 Requested convergence on MAX density matrix=1.00D-06.
 Requested convergence on             energy=1.00D-06.
 No special actions if energy rises.
 Integral accuracy reduced to 1.0D-05 until final iterations.
 Initial convergence to 1.0D-05 achieved.  Increase integral accuracy.
 SCF Done:  E(UB2PLYPD3) =  -345.587667270     A.U. after   27 cycles
            NFock= 27  Conv=0.64D-08     -V/T= 2.0041
 <Sx>= 0.0000 <Sy>= 0.0000 <Sz>= 0.5000 <S**2>= 0.7867 S= 0.5182
 <L.S>=  0.00000000000    
 Annihilation of the first spin contaminant:
 S**2 before annihilation     0.7867,   after     0.7510
 DoSCS=T DFT=T ScalE2(SS,OS)=  0.270000  0.270000
 ExpMin= 1.03D-01 ExpMax= 1.53D+04 ExpMxC= 5.22D+02 IAcc=3 IRadAn=         5 AccDes= 0.00D+00
 HarFok:  IExCor=  205 AccDes= 0.00D+00 IRadAn=         5 IDoV=-2 UseB2=F ITyADJ=14
 ICtDFT= 12500011 ScaDFX=  1.000000  1.000000  1.000000  1.000000
 Range of M.O.s used for correlation:     8   336
 NBasis=   336 NAE=    28 NBE=    27 NFC=     7 NFV=     0
 NROrb=    329 NOA=    21 NOB=    20 NVA=   308 NVB=   309

 **** Warning!!: The largest alpha MO coefficient is  0.12636929D+02


 **** Warning!!: The largest beta MO coefficient is  0.13321184D+02

 DoSCS=T DFT=T ScalE2(SS,OS)=  0.270000  0.270000
 Disk-based method using ON**2 memory for 21 occupieds at a time.
 Permanent disk used for amplitudes=   106523802 words.
 Estimated scratch disk usage=  1975512840 words.
 Actual    scratch disk usage=  1910570248 words.
 JobTyp=2 Pass  1:  I=   8 to  28 NPSUse= 40 ParTrn=T ParDer=T DoDerP=T.
 (rs|ai) integrals will be sorted in core.
 Actual    scratch disk usage=  1910570248 words.
 JobTyp=3 Pass  1:  I=   8 to  27 NPSUse= 40 ParTrn=T ParDer=T DoDerP=T.
 (rs|ai) integrals will be sorted in core.
 Spin components of T(2) and E(2):
     alpha-alpha T2 =       0.7611479307D-01 E2=     -0.5304205935D-01
     alpha-beta  T2 =       0.4656425183D+00 E2=     -0.3247441647D+00
     beta-beta   T2 =       0.8248932522D-01 E2=     -0.5221928889D-01
 (S**2,0)=  0.78666D+00           (S**2,1)=  0.75421D+00
 Scaling Projection term by:   0.270000
 E(PUHF)=      -0.34559462738D+03        E(PMP2)=      -0.34601873314D+03
 E2(B2PLYPD3) =    -0.4300055130D+00 E(B2PLYPD3) =    -0.34601767278320D+03
 G2DrvN: will do    17 centers at a time, making    1 passes.
 Calling FoFCou, ICntrl=  3107 FMM=F I1Cent=   0 AccDes= 0.00D+00.
 End of G2Drv F.D. properties file   721 does not exist.
 End of G2Drv F.D. properties file   722 does not exist.
 End of G2Drv F.D. properties file   788 does not exist.
          IDoAtm=1111111111111111
          Differentiating once with respect to electric field.
                with respect to dipole field.
          Differentiating once with respect to nuclear coordinates.
 Keep R1 and R2 ints in memory in canonical form, NReq=3251642446.
          There are    51 degrees of freedom in the 1st order CPHF.  IDoFFX=6 NUNeed=    51.
     48 vectors produced by pass  0 Test12= 3.33D-14 1.96D-09 XBig12= 1.24D+02 5.45D+00.
 AX will form    48 AO Fock derivatives at one time.
     48 vectors produced by pass  1 Test12= 3.33D-14 1.96D-09 XBig12= 1.08D+01 5.79D-01.
     48 vectors produced by pass  2 Test12= 3.33D-14 1.96D-09 XBig12= 5.18D-01 9.23D-02.
     48 vectors produced by pass  3 Test12= 3.33D-14 1.96D-09 XBig12= 1.09D-02 1.42D-02.
     48 vectors produced by pass  4 Test12= 3.33D-14 1.96D-09 XBig12= 1.28D-04 8.70D-04.
     48 vectors produced by pass  5 Test12= 3.33D-14 1.96D-09 XBig12= 1.30D-06 9.62D-05.
     48 vectors produced by pass  6 Test12= 3.33D-14 1.96D-09 XBig12= 1.14D-08 1.12D-05.
     27 vectors produced by pass  7 Test12= 3.33D-14 1.96D-09 XBig12= 7.59D-11 8.50D-07.
      5 vectors produced by pass  8 Test12= 3.33D-14 1.96D-09 XBig12= 5.16D-13 5.53D-08.
      2 vectors produced by pass  9 Test12= 3.33D-14 1.96D-09 XBig12= 4.06D-15 6.30D-09.
 InvSVY:  IOpt=1 It=  1 EMax= 3.55D-15
 Solved reduced A of dimension   370 with    51 vectors.
 End of Minotr F.D. properties file   721 does not exist.
 End of Minotr F.D. properties file   722 does not exist.
 End of Minotr F.D. properties file   788 does not exist.
 MDV= 10737418240.
 DoSCS=T DFT=T ScalE2(SS,OS)=  0.270000  0.270000
 Form MO integral derivatives with frozen-active canonical formalism.
 Discarding MO integrals.
 Reordered first order wavefunction length =    428928697
 In DefCFB: NBatch=  1 ICI= 28 ICA=309 LFMax= 78
            Large arrays: LIAPS=  8665386240 LIARS=  1611002400 words.
 In DefCFB: NBatch=  1 ICI= 28 ICA=309 LFMax= 78
            Large arrays: LIAPS=  8665386240 LIARS=  1611002400 words.
 Semi-Direct transformation.
 ModeAB=           4 MOrb=            28 LenV=   10734091367
 LASXX=    503301435 LTotXX=   503301435 LenRXX=  1014543915
 LTotAB=   511242480 MaxLAS=   617136576 LenRXY=           0
 NonZer=  1517845350 LenScr=  2285697024 LnRSAI=   617136576
 LnScr1=   929335296 LExtra=           0 Total=   4846712811
 MaxDsk=          -1 SrtSym=           T ITran=            4
 JobTyp=1 Pass  1:  I=   1 to  28.
 (rs|ai) integrals will be sorted in core.
 ModeAB=           4 MOrb=            27 LenV=   10734091367
 LASXX=    486308502 LTotXX=   486308502 LenRXX=   901306008
 LTotAB=   414997506 MaxLAS=   595095984 LenRXY=           0
 NonZer=  1387614510 LenScr=  2089584640 LnRSAI=   595095984
 LnScr1=   896145408 LExtra=           0 Total=   4482132040
 MaxDsk=          -1 SrtSym=           T ITran=            4
 JobTyp=2 Pass  1:  I=   1 to  27.
 (rs|ai) integrals will be sorted in core.
 SymMOI:  orbitals are not symmetric.
 DoSCS=T DFT=T ScalE2(SS,OS)=  0.270000  0.270000
 Spin components of T(2) and E(2):
     alpha-alpha T2 =       0.7611479307D-01 E2=     -0.5304205935D-01
     alpha-beta  T2 =       0.4656425183D+00 E2=     -0.3247441647D+00
     beta-beta   T2 =       0.8248932522D-01 E2=     -0.5221928889D-01
 E2(B2PLYPD3) =    -0.4300055130D+00 E(B2PLYPD3) =    -0.34601767278320D+03
 (S**2,0)=  0.78666D+00           (S**2,1)=  0.75421D+00
 Scaling Projection term by:   0.270000
 E(PUHF)=      -0.34559462738D+03        E(PMP2)=      -0.34601873314D+03
          IDoAtm=1111111111111111
          Differentiating once with respect to electric field.
                with respect to dipole field.
          Differentiating once with respect to nuclear coordinates.
 Keep R1 and R2 ints in memory in canonical form, NReq=3251778068.
          There are     1 degrees of freedom in the 1st order CPHF.  IDoFFX=0 NUNeed=     1.
 LinEq1:  Iter=  0 NonCon=     1 RMS=9.58D-04 Max=7.11D-02 NDo=     1
 AX will form     1 AO Fock derivatives at one time.
 LinEq1:  Iter=  1 NonCon=     1 RMS=3.61D-04 Max=1.39D-02 NDo=     1
 LinEq1:  Iter=  2 NonCon=     1 RMS=2.64D-04 Max=1.29D-02 NDo=     1
 LinEq1:  Iter=  3 NonCon=     1 RMS=1.56D-04 Max=6.75D-03 NDo=     1
 LinEq1:  Iter=  4 NonCon=     1 RMS=9.61D-05 Max=3.75D-03 NDo=     1
 LinEq1:  Iter=  5 NonCon=     1 RMS=3.37D-05 Max=8.61D-04 NDo=     1
 LinEq1:  Iter=  6 NonCon=     1 RMS=2.55D-05 Max=1.11D-03 NDo=     1
 LinEq1:  Iter=  7 NonCon=     1 RMS=1.09D-05 Max=5.35D-04 NDo=     1
 LinEq1:  Iter=  8 NonCon=     1 RMS=8.83D-06 Max=4.99D-04 NDo=     1
 LinEq1:  Iter=  9 NonCon=     1 RMS=4.16D-06 Max=1.54D-04 NDo=     1
 LinEq1:  Iter= 10 NonCon=     1 RMS=1.06D-06 Max=2.35D-05 NDo=     1
 LinEq1:  Iter= 11 NonCon=     1 RMS=4.38D-07 Max=8.68D-06 NDo=     1
 LinEq1:  Iter= 12 NonCon=     1 RMS=2.15D-07 Max=5.57D-06 NDo=     1
 LinEq1:  Iter= 13 NonCon=     1 RMS=8.87D-08 Max=1.81D-06 NDo=     1
 LinEq1:  Iter= 14 NonCon=     1 RMS=3.98D-08 Max=1.52D-06 NDo=     1
 LinEq1:  Iter= 15 NonCon=     1 RMS=2.23D-08 Max=1.01D-06 NDo=     1
 LinEq1:  Iter= 16 NonCon=     1 RMS=1.02D-08 Max=2.15D-07 NDo=     1
 LinEq1:  Iter= 17 NonCon=     1 RMS=4.73D-09 Max=8.90D-08 NDo=     1
 LinEq1:  Iter= 18 NonCon=     1 RMS=2.08D-09 Max=4.35D-08 NDo=     1
 LinEq1:  Iter= 19 NonCon=     1 RMS=8.36D-10 Max=1.69D-08 NDo=     1
 LinEq1:  Iter= 20 NonCon=     1 RMS=2.65D-10 Max=3.83D-09 NDo=     1
 LinEq1:  Iter= 21 NonCon=     1 RMS=7.68D-11 Max=1.48D-09 NDo=     1
 LinEq1:  Iter= 22 NonCon=     0 RMS=1.96D-11 Max=6.48D-10 NDo=     1
 Linear equations converged to 1.000D-10 1.000D-09 after    22 iterations.
 End of Minotr F.D. properties file   721 does not exist.
 End of Minotr F.D. properties file   722 does not exist.
 End of Minotr F.D. properties file   788 does not exist.
 Symmetrizing basis deriv contribution to polar:
 IMax=3 JMax=2 DiffMx= 0.00D+00
 G2DrvN: will do    17 centers at a time, making    1 passes.
 Calling FoFCou, ICntrl=  3107 FMM=F I1Cent=   0 AccDes= 0.00D+00.
 End of G2Drv F.D. properties file   721 does not exist.
 End of G2Drv F.D. properties file   722 does not exist.
 End of G2Drv F.D. properties file   788 does not exist.
 DoSCS=T DFT=T ScalE2(SS,OS)=  0.270000  0.270000
 R2 and R3 integrals will be kept in memory, NReq=  5268037470.
 DD1Dir will call FoFMem   1 times, MxPair=      2242
 NAB=   756 NAA=   378 NBB=   351.
 Discarding MO integrals.

 **********************************************************************

            Population analysis using the SCF Density.

 **********************************************************************

 Orbital symmetries:
 Alpha Orbitals:
       Occupied  (A) (A) (A) (A) (A) (A) (A) (A) (A) (A) (A) (A)
                 (A) (A) (A) (A) (A) (A) (A) (A) (A) (A) (A) (A)
                 (A) (A) (A) (A)
       Virtual   (A) (A) (A) (A) (A) (A) (A) (A) (A) (A) (A) (A)
                 (A) (A) (A) (A) (A) (A) (A) (A) (A) (A) (A) (A)
                 (A) (A) (A) (A) (A) (A) (A) (A) (A) (A) (A) (A)
                 (A) (A) (A) (A) (A) (A) (A) (A) (A) (A) (A) (A)
                 (A) (A) (A) (A) (A) (A) (A) (A) (A) (A) (A) (A)
                 (A) (A) (A) (A) (A) (A) (A) (A) (A) (A) (A) (A)
                 (A) (A) (A) (A) (A) (A) (A) (A) (A) (A) (A) (A)
                 (A) (A) (A) (A) (A) (A) (A) (A) (A) (A) (A) (A)
                 (A) (A) (A) (A) (A) (A) (A) (A) (A) (A) (A) (A)
                 (A) (A) (A) (A) (A) (A) (A) (A) (A) (A) (A) (A)
                 (A) (A) (A) (A) (A) (A) (A) (A) (A) (A) (A) (A)
                 (A) (A) (A) (A) (A) (A) (A) (A) (A) (A) (A) (A)
                 (A) (A) (A) (A) (A) (A) (A) (A) (A) (A) (A) (A)
                 (A) (A) (A) (A) (A) (A) (A) (A) (A) (A) (A) (A)
                 (A) (A) (A) (A) (A) (A) (A) (A) (A) (A) (A) (A)
                 (A) (A) (A) (A) (A) (A) (A) (A) (A) (A) (A) (A)
                 (A) (A) (A) (A) (A) (A) (A) (A) (A) (A) (A) (A)
                 (A) (A) (A) (A) (A) (A) (A) (A) (A) (A) (A) (A)
                 (A) (A) (A) (A) (A) (A) (A) (A) (A) (A) (A) (A)
                 (A) (A) (A) (A) (A) (A) (A) (A) (A) (A) (A) (A)
                 (A) (A) (A) (A) (A) (A) (A) (A) (A) (A) (A) (A)
                 (A) (A) (A) (A) (A) (A) (A) (A) (A) (A) (A) (A)
                 (A) (A) (A) (A) (A) (A) (A) (A) (A) (A) (A) (A)
                 (A) (A) (A) (A) (A) (A) (A) (A) (A) (A) (A) (A)
                 (A) (A) (A) (A) (A) (A) (A) (A) (A) (A) (A) (A)
                 (A) (A) (A) (A) (A) (A) (A) (A)
 Beta  Orbitals:
       Occupied  (A) (A) (A) (A) (A) (A) (A) (A) (A) (A) (A) (A)
                 (A) (A) (A) (A) (A) (A) (A) (A) (A) (A) (A) (A)
                 (A) (A) (A)
       Virtual   (A) (A) (A) (A) (A) (A) (A) (A) (A) (A) (A) (A)
                 (A) (A) (A) (A) (A) (A) (A) (A) (A) (A) (A) (A)
                 (A) (A) (A) (A) (A) (A) (A) (A) (A) (A) (A) (A)
                 (A) (A) (A) (A) (A) (A) (A) (A) (A) (A) (A) (A)
                 (A) (A) (A) (A) (A) (A) (A) (A) (A) (A) (A) (A)
                 (A) (A) (A) (A) (A) (A) (A) (A) (A) (A) (A) (A)
                 (A) (A) (A) (A) (A) (A) (A) (A) (A) (A) (A) (A)
                 (A) (A) (A) (A) (A) (A) (A) (A) (A) (A) (A) (A)
                 (A) (A) (A) (A) (A) (A) (A) (A) (A) (A) (A) (A)
                 (A) (A) (A) (A) (A) (A) (A) (A) (A) (A) (A) (A)
                 (A) (A) (A) (A) (A) (A) (A) (A) (A) (A) (A) (A)
                 (A) (A) (A) (A) (A) (A) (A) (A) (A) (A) (A) (A)
                 (A) (A) (A) (A) (A) (A) (A) (A) (A) (A) (A) (A)
                 (A) (A) (A) (A) (A) (A) (A) (A) (A) (A) (A) (A)
                 (A) (A) (A) (A) (A) (A) (A) (A) (A) (A) (A) (A)
                 (A) (A) (A) (A) (A) (A) (A) (A) (A) (A) (A) (A)
                 (A) (A) (A) (A) (A) (A) (A) (A) (A) (A) (A) (A)
                 (A) (A) (A) (A) (A) (A) (A) (A) (A) (A) (A) (A)
                 (A) (A) (A) (A) (A) (A) (A) (A) (A) (A) (A) (A)
                 (A) (A) (A) (A) (A) (A) (A) (A) (A) (A) (A) (A)
                 (A) (A) (A) (A) (A) (A) (A) (A) (A) (A) (A) (A)
                 (A) (A) (A) (A) (A) (A) (A) (A) (A) (A) (A) (A)
                 (A) (A) (A) (A) (A) (A) (A) (A) (A) (A) (A) (A)
                 (A) (A) (A) (A) (A) (A) (A) (A) (A) (A) (A) (A)
                 (A) (A) (A) (A) (A) (A) (A) (A) (A) (A) (A) (A)
                 (A) (A) (A) (A) (A) (A) (A) (A) (A)
 The electronic state is 2-A.
 Alpha  occ. eigenvalues --  -19.78971 -19.78802 -10.66005 -10.65550 -10.64172
 Alpha  occ. eigenvalues --  -10.62871 -10.62543  -1.29252  -1.02609  -0.94735
 Alpha  occ. eigenvalues --   -0.86902  -0.77991  -0.71932  -0.65958  -0.60258
 Alpha  occ. eigenvalues --   -0.56637  -0.56054  -0.55319  -0.53695  -0.49651
 Alpha  occ. eigenvalues --   -0.48484  -0.45516  -0.44410  -0.40217  -0.37706
 Alpha  occ. eigenvalues --   -0.36621  -0.30433  -0.29219
 Alpha virt. eigenvalues --    0.01084   0.08961   0.09854   0.10333   0.11416
 Alpha virt. eigenvalues --    0.13718   0.13920   0.14712   0.16144   0.16451
 Alpha virt. eigenvalues --    0.17717   0.20553   0.23883   0.25969   0.29160
 Alpha virt. eigenvalues --    0.31092   0.32232   0.34029   0.35031   0.36771
 Alpha virt. eigenvalues --    0.38157   0.38576   0.39385   0.42395   0.44082
 Alpha virt. eigenvalues --    0.45714   0.46012   0.48195   0.48897   0.50245
 Alpha virt. eigenvalues --    0.50812   0.51571   0.52284   0.54013   0.54077
 Alpha virt. eigenvalues --    0.55052   0.56241   0.56895   0.58036   0.60430
 Alpha virt. eigenvalues --    0.61816   0.63932   0.67745   0.68763   0.69403
 Alpha virt. eigenvalues --    0.70434   0.71148   0.72710   0.74446   0.75957
 Alpha virt. eigenvalues --    0.78420   0.78840   0.81997   0.82226   0.85130
 Alpha virt. eigenvalues --    0.88123   0.88978   0.91819   0.95333   0.96820
 Alpha virt. eigenvalues --    0.98052   0.99057   0.99626   1.03369   1.04036
 Alpha virt. eigenvalues --    1.04312   1.06228   1.07450   1.08922   1.10163
 Alpha virt. eigenvalues --    1.11724   1.12191   1.14629   1.16637   1.19336
 Alpha virt. eigenvalues --    1.20806   1.21319   1.24200   1.26467   1.28299
 Alpha virt. eigenvalues --    1.30823   1.32114   1.33119   1.35202   1.36360
 Alpha virt. eigenvalues --    1.37246   1.39448   1.40437   1.41249   1.43263
 Alpha virt. eigenvalues --    1.47239   1.48845   1.50615   1.53617   1.53917
 Alpha virt. eigenvalues --    1.56541   1.58072   1.60798   1.62676   1.63074
 Alpha virt. eigenvalues --    1.66940   1.74341   1.77390   1.80664   1.88885
 Alpha virt. eigenvalues --    1.93487   1.95535   2.02419   2.04738   2.09179
 Alpha virt. eigenvalues --    2.12506   2.14646   2.18774   2.22424   2.23675
 Alpha virt. eigenvalues --    2.27336   2.30312   2.34757   2.35455   2.37329
 Alpha virt. eigenvalues --    2.39278   2.40631   2.42239   2.44875   2.50508
 Alpha virt. eigenvalues --    2.51463   2.52724   2.55806   2.59481   2.63085
 Alpha virt. eigenvalues --    2.64959   2.66244   2.70881   2.71423   2.72615
 Alpha virt. eigenvalues --    2.78915   2.80422   2.83306   2.83655   2.85225
 Alpha virt. eigenvalues --    2.88230   2.89932   2.90334   2.91493   2.92691
 Alpha virt. eigenvalues --    2.93275   2.94505   2.96419   2.98423   2.99087
 Alpha virt. eigenvalues --    3.02292   3.03499   3.04413   3.05749   3.06828
 Alpha virt. eigenvalues --    3.08146   3.11935   3.13067   3.13791   3.14049
 Alpha virt. eigenvalues --    3.15155   3.15534   3.16741   3.18796   3.21634
 Alpha virt. eigenvalues --    3.22414   3.23948   3.26516   3.27438   3.28990
 Alpha virt. eigenvalues --    3.29627   3.31111   3.33981   3.38983   3.40108
 Alpha virt. eigenvalues --    3.41722   3.43167   3.43698   3.44794   3.50867
 Alpha virt. eigenvalues --    3.51825   3.53639   3.55379   3.56415   3.57433
 Alpha virt. eigenvalues --    3.59500   3.60456   3.62619   3.63898   3.66306
 Alpha virt. eigenvalues --    3.68125   3.70322   3.71364   3.76856   3.78640
 Alpha virt. eigenvalues --    3.79824   3.81780   3.82898   3.84492   3.87591
 Alpha virt. eigenvalues --    3.89014   3.89934   3.91594   3.92047   3.94892
 Alpha virt. eigenvalues --    3.96737   3.97286   3.99079   4.01090   4.02855
 Alpha virt. eigenvalues --    4.04488   4.06774   4.08066   4.09050   4.10310
 Alpha virt. eigenvalues --    4.14085   4.15732   4.15955   4.18597   4.19491
 Alpha virt. eigenvalues --    4.20038   4.22991   4.24715   4.26915   4.28266
 Alpha virt. eigenvalues --    4.31600   4.33237   4.37268   4.38592   4.42358
 Alpha virt. eigenvalues --    4.47360   4.48768   4.49815   4.52704   4.54031
 Alpha virt. eigenvalues --    4.60873   4.65761   4.67932   4.72633   4.72973
 Alpha virt. eigenvalues --    4.73677   4.79704   4.81921   4.84557   4.84837
 Alpha virt. eigenvalues --    4.89035   4.94664   4.96513   4.97783   4.99902
 Alpha virt. eigenvalues --    5.00655   5.02511   5.06124   5.06709   5.10135
 Alpha virt. eigenvalues --    5.13844   5.17139   5.19349   5.20803   5.27046
 Alpha virt. eigenvalues --    5.28009   5.29851   5.31747   5.35247   5.36942
 Alpha virt. eigenvalues --    5.38042   5.39169   5.41220   5.42698   5.48925
 Alpha virt. eigenvalues --    5.49187   5.58375   5.63800   5.70471   5.80619
 Alpha virt. eigenvalues --    5.92550   5.95319   5.97894   6.01804   6.05968
 Alpha virt. eigenvalues --    6.09427   6.11306   6.14055   6.20750   6.30504
 Alpha virt. eigenvalues --    6.34666   6.41922   6.46781   6.66819   6.70191
 Alpha virt. eigenvalues --    6.78126   6.80221   6.88670   6.98462   7.06690
 Alpha virt. eigenvalues --    7.07237   7.23118   7.42179   7.45674   7.63706
 Alpha virt. eigenvalues --    7.80066  10.03769  10.41428  11.03960  11.95185
 Alpha virt. eigenvalues --   13.46616  14.47947  14.84521
  Beta  occ. eigenvalues --  -19.78794 -19.77354 -10.66013 -10.64251 -10.64019
  Beta  occ. eigenvalues --  -10.62802 -10.62714  -1.27476  -1.00027  -0.93119
  Beta  occ. eigenvalues --   -0.86195  -0.77536  -0.71191  -0.62519  -0.58241
  Beta  occ. eigenvalues --   -0.55651  -0.55369  -0.54958  -0.52293  -0.48258
  Beta  occ. eigenvalues --   -0.46367  -0.44522  -0.43657  -0.39389  -0.35776
  Beta  occ. eigenvalues --   -0.33885  -0.29269
  Beta virt. eigenvalues --   -0.05450   0.01276   0.09160   0.10003   0.10520
  Beta virt. eigenvalues --    0.12296   0.13900   0.14318   0.14933   0.16316
  Beta virt. eigenvalues --    0.16641   0.17899   0.21172   0.24152   0.26449
  Beta virt. eigenvalues --    0.29323   0.31194   0.32626   0.34247   0.35695
  Beta virt. eigenvalues --    0.36887   0.38718   0.39345   0.39898   0.42614
  Beta virt. eigenvalues --    0.44528   0.45852   0.46525   0.48431   0.49565
  Beta virt. eigenvalues --    0.50417   0.51186   0.51904   0.52405   0.54136
  Beta virt. eigenvalues --    0.54564   0.55310   0.56574   0.57734   0.59066
  Beta virt. eigenvalues --    0.61268   0.61971   0.64356   0.68422   0.69047
  Beta virt. eigenvalues --    0.70230   0.70776   0.72115   0.73104   0.75312
  Beta virt. eigenvalues --    0.76258   0.78619   0.79211   0.82314   0.82767
  Beta virt. eigenvalues --    0.85502   0.88749   0.89210   0.91958   0.95754
  Beta virt. eigenvalues --    0.97177   0.98417   0.99333   0.99763   1.03665
  Beta virt. eigenvalues --    1.04269   1.04464   1.06611   1.07639   1.09056
  Beta virt. eigenvalues --    1.10313   1.11844   1.12352   1.14717   1.16774
  Beta virt. eigenvalues --    1.19465   1.21042   1.21783   1.24546   1.27104
  Beta virt. eigenvalues --    1.28435   1.31122   1.32409   1.33595   1.35447
  Beta virt. eigenvalues --    1.36566   1.37551   1.39491   1.40632   1.41517
  Beta virt. eigenvalues --    1.43715   1.47490   1.49698   1.50876   1.54083
  Beta virt. eigenvalues --    1.54395   1.56888   1.58417   1.61259   1.63038
  Beta virt. eigenvalues --    1.63347   1.67563   1.75229   1.78203   1.81298
  Beta virt. eigenvalues --    1.89743   1.94350   1.96263   2.02924   2.05609
  Beta virt. eigenvalues --    2.09971   2.13003   2.14950   2.20801   2.22502
  Beta virt. eigenvalues --    2.23772   2.27801   2.30913   2.34956   2.36419
  Beta virt. eigenvalues --    2.37726   2.39451   2.41332   2.42951   2.45312
  Beta virt. eigenvalues --    2.50950   2.51711   2.53104   2.56400   2.59968
  Beta virt. eigenvalues --    2.63527   2.65263   2.66392   2.71096   2.71789
  Beta virt. eigenvalues --    2.73175   2.79094   2.80754   2.83843   2.84126
  Beta virt. eigenvalues --    2.85428   2.88567   2.90618   2.91009   2.91661
  Beta virt. eigenvalues --    2.92928   2.93911   2.94668   2.96599   2.98674
  Beta virt. eigenvalues --    2.99392   3.02464   3.03883   3.04540   3.06012
  Beta virt. eigenvalues --    3.07627   3.08604   3.12104   3.13801   3.14029
  Beta virt. eigenvalues --    3.14345   3.15332   3.15927   3.17118   3.19050
  Beta virt. eigenvalues --    3.22006   3.22631   3.24399   3.27052   3.27852
  Beta virt. eigenvalues --    3.29323   3.30197   3.32225   3.35515   3.39338
  Beta virt. eigenvalues --    3.40658   3.42074   3.43233   3.43879   3.45679
  Beta virt. eigenvalues --    3.50930   3.52203   3.53760   3.55657   3.56829
  Beta virt. eigenvalues --    3.57588   3.59892   3.60824   3.62969   3.64103
  Beta virt. eigenvalues --    3.66632   3.68589   3.70799   3.71374   3.77488
  Beta virt. eigenvalues --    3.78995   3.80677   3.82065   3.83252   3.84854
  Beta virt. eigenvalues --    3.87955   3.88915   3.90213   3.91533   3.92246
  Beta virt. eigenvalues --    3.95171   3.96819   3.97594   3.99342   4.01400
  Beta virt. eigenvalues --    4.03187   4.04988   4.07179   4.08558   4.09390
  Beta virt. eigenvalues --    4.10586   4.14247   4.15879   4.16242   4.18915
  Beta virt. eigenvalues --    4.19658   4.20310   4.23187   4.25535   4.26903
  Beta virt. eigenvalues --    4.28520   4.32242   4.33815   4.37590   4.39204
  Beta virt. eigenvalues --    4.42737   4.47876   4.49166   4.50564   4.53119
  Beta virt. eigenvalues --    4.54496   4.61465   4.65991   4.68364   4.73091
  Beta virt. eigenvalues --    4.73731   4.74147   4.80132   4.82155   4.84880
  Beta virt. eigenvalues --    4.85117   4.89632   4.94835   4.96869   4.98000
  Beta virt. eigenvalues --    5.00083   5.00985   5.02690   5.06540   5.06921
  Beta virt. eigenvalues --    5.10277   5.14270   5.17607   5.19667   5.21062
  Beta virt. eigenvalues --    5.27529   5.28227   5.30511   5.31900   5.35632
  Beta virt. eigenvalues --    5.37183   5.38815   5.39573   5.41688   5.43464
  Beta virt. eigenvalues --    5.49238   5.49566   5.58801   5.64768   5.71137
  Beta virt. eigenvalues --    5.80952   5.92825   5.95905   5.98142   6.02777
  Beta virt. eigenvalues --    6.06418   6.09839   6.11697   6.14939   6.21466
  Beta virt. eigenvalues --    6.30774   6.36704   6.42503   6.47873   6.67506
  Beta virt. eigenvalues --    6.71216   6.80647   6.81669   6.89654   7.00129
  Beta virt. eigenvalues --    7.07294   7.08654   7.25131   7.43389   7.46669
  Beta virt. eigenvalues --    7.65213   7.80952  10.04493  10.42293  11.04879
  Beta virt. eigenvalues --   11.95341  13.46618  14.48061  14.84735
          Condensed to atoms (all electrons):
               1          2          3          4          5          6
     1  C    5.135877   0.593684  -0.004577   0.005972   0.000417  -0.000530
     2  C    0.593684   4.997666  -0.003438  -0.002499   0.000126   0.000293
     3  C   -0.004577  -0.003438   4.604140   0.398566   0.396204   0.412786
     4  H    0.005972  -0.002499   0.398566   0.666937  -0.036042  -0.056891
     5  H    0.000417   0.000126   0.396204  -0.036042   0.593189  -0.027182
     6  H   -0.000530   0.000293   0.412786  -0.056891  -0.027182   0.609617
     7  O   -0.000603  -0.000486   0.300904  -0.050696  -0.026748  -0.037544
     8  O   -0.079318   0.003114  -0.037702  -0.005750   0.007174   0.004236
     9  H    0.195627  -0.017301   0.005583   0.005294  -0.001591  -0.000249
    10  H   -0.049146   0.397560  -0.000093  -0.000100  -0.000004   0.000008
    11  H   -0.050280   0.410760  -0.001592  -0.001637  -0.000200   0.000531
    12  C    0.360402  -0.053002   0.000636  -0.000481  -0.000064   0.000163
    13  C   -0.063963   0.002856  -0.000081   0.000400   0.000022  -0.000210
    14  H   -0.036386  -0.002974  -0.000005   0.000026  -0.000001   0.000001
    15  H    0.006726  -0.000316  -0.000001   0.000014   0.000000  -0.000001
    16  H   -0.000763   0.000545   0.000254  -0.000158   0.000023   0.000253
               7          8          9         10         11         12
     1  C   -0.000603  -0.079318   0.195627  -0.049146  -0.050280   0.360402
     2  C   -0.000486   0.003114  -0.017301   0.397560   0.410760  -0.053002
     3  C    0.300904  -0.037702   0.005583  -0.000093  -0.001592   0.000636
     4  H   -0.050696  -0.005750   0.005294  -0.000100  -0.001637  -0.000481
     5  H   -0.026748   0.007174  -0.001591  -0.000004  -0.000200  -0.000064
     6  H   -0.037544   0.004236  -0.000249   0.000008   0.000531   0.000163
     7  O    7.952859   0.062806  -0.035853   0.000225   0.014601   0.000200
     8  O    0.062806   8.024893   0.231119  -0.000318  -0.001304  -0.001489
     9  H   -0.035853   0.231119   0.409828   0.002287  -0.004130  -0.003776
    10  H    0.000225  -0.000318   0.002287   0.553775  -0.033032  -0.005189
    11  H    0.014601  -0.001304  -0.004130  -0.033032   0.503196   0.005584
    12  C    0.000200  -0.001489  -0.003776  -0.005189   0.005584   4.877708
    13  C    0.000037   0.000386  -0.004835  -0.000236  -0.000198   0.595911
    14  H   -0.000002  -0.000302   0.001831   0.004936  -0.000462   0.404433
    15  H   -0.000002   0.000029   0.000043  -0.000005   0.000012  -0.048437
    16  H   -0.000218   0.005411  -0.000693   0.000025   0.000040  -0.047751
              13         14         15         16
     1  C   -0.063963  -0.036386   0.006726  -0.000763
     2  C    0.002856  -0.002974  -0.000316   0.000545
     3  C   -0.000081  -0.000005  -0.000001   0.000254
     4  H    0.000400   0.000026   0.000014  -0.000158
     5  H    0.000022  -0.000001   0.000000   0.000023
     6  H   -0.000210   0.000001  -0.000001   0.000253
     7  O    0.000037  -0.000002  -0.000002  -0.000218
     8  O    0.000386  -0.000302   0.000029   0.005411
     9  H   -0.004835   0.001831   0.000043  -0.000693
    10  H   -0.000236   0.004936  -0.000005   0.000025
    11  H   -0.000198  -0.000462   0.000012   0.000040
    12  C    0.595911   0.404433  -0.048437  -0.047751
    13  C    4.976212  -0.044655   0.419315   0.407795
    14  H   -0.044655   0.538034  -0.007085   0.005398
    15  H    0.419315  -0.007085   0.529050  -0.030762
    16  H    0.407795   0.005398  -0.030762   0.522541
          Atomic-Atomic Spin Densities.
               1          2          3          4          5          6
     1  C    0.795386  -0.015594   0.000502  -0.005568   0.000112   0.001363
     2  C   -0.015594  -0.176912  -0.000034   0.000826  -0.000042  -0.000170
     3  C    0.000502  -0.000034  -0.005133   0.004959   0.000274  -0.002506
     4  H   -0.005568   0.000826   0.004959   0.000933  -0.000702  -0.000940
     5  H    0.000112  -0.000042   0.000274  -0.000702  -0.001458   0.001031
     6  H    0.001363  -0.000170  -0.002506  -0.000940   0.001031   0.003860
     7  O    0.014049  -0.002758  -0.000488  -0.000841   0.000161  -0.000637
     8  O   -0.085186   0.006849  -0.001744   0.004016  -0.000214  -0.000507
     9  H    0.049695  -0.003744   0.000848  -0.003659   0.000170   0.001418
    10  H   -0.008792  -0.005713   0.000066  -0.000368   0.000012   0.000024
    11  H   -0.007977   0.013818  -0.000303   0.001067  -0.000084  -0.000160
    12  C   -0.007119   0.008189  -0.000068   0.000538   0.000000  -0.000077
    13  C   -0.013750   0.000303   0.000055   0.000026  -0.000002  -0.000008
    14  H   -0.008222  -0.001869   0.000003  -0.000095   0.000001   0.000008
    15  H   -0.000262   0.000013   0.000000  -0.000003  -0.000000   0.000000
    16  H    0.005789  -0.000242  -0.000065  -0.000074  -0.000001   0.000046
               7          8          9         10         11         12
     1  C    0.014049  -0.085186   0.049695  -0.008792  -0.007977  -0.007119
     2  C   -0.002758   0.006849  -0.003744  -0.005713   0.013818   0.008189
     3  C   -0.000488  -0.001744   0.000848   0.000066  -0.000303  -0.000068
     4  H   -0.000841   0.004016  -0.003659  -0.000368   0.001067   0.000538
     5  H    0.000161  -0.000214   0.000170   0.000012  -0.000084   0.000000
     6  H   -0.000637  -0.000507   0.001418   0.000024  -0.000160  -0.000077
     7  O    0.060468  -0.041465   0.009953   0.000438  -0.003807  -0.000390
     8  O   -0.041465   0.518766  -0.038923  -0.000803   0.002712   0.003557
     9  H    0.009953  -0.038923  -0.096290   0.001042  -0.000549   0.000465
    10  H    0.000438  -0.000803   0.001042   0.084567  -0.009422  -0.004472
    11  H   -0.003807   0.002712  -0.000549  -0.009422   0.027052   0.000905
    12  C   -0.000390   0.003557   0.000465  -0.004472   0.000905  -0.071995
    13  C   -0.000072   0.001849  -0.003322  -0.000477   0.000132   0.015564
    14  H    0.000043  -0.000439   0.000826   0.005060  -0.000414  -0.002617
    15  H    0.000000   0.000008  -0.000037  -0.000004   0.000002   0.000497
    16  H    0.000092  -0.001885   0.002089   0.000080  -0.000051  -0.002062
              13         14         15         16
     1  C   -0.013750  -0.008222  -0.000262   0.005789
     2  C    0.000303  -0.001869   0.000013  -0.000242
     3  C    0.000055   0.000003   0.000000  -0.000065
     4  H    0.000026  -0.000095  -0.000003  -0.000074
     5  H   -0.000002   0.000001  -0.000000  -0.000001
     6  H   -0.000008   0.000008   0.000000   0.000046
     7  O   -0.000072   0.000043   0.000000   0.000092
     8  O    0.001849  -0.000439   0.000008  -0.001885
     9  H   -0.003322   0.000826  -0.000037   0.002089
    10  H   -0.000477   0.005060  -0.000004   0.000080
    11  H    0.000132  -0.000414   0.000002  -0.000051
    12  C    0.015564  -0.002617   0.000497  -0.002062
    13  C    0.095945  -0.008783   0.001071  -0.004113
    14  H   -0.008783   0.055693   0.000093   0.001067
    15  H    0.001071   0.000093  -0.008276   0.001016
    16  H   -0.004113   0.001067   0.001016  -0.002808
 Mulliken charges and spin densities:
               1          2
     1  C   -0.013138   0.714424
     2  C   -0.326588  -0.177079
     3  C   -0.071583  -0.003633
     4  H    0.077044   0.000115
     5  H    0.094678  -0.000741
     6  H    0.094719   0.002746
     7  O   -0.179478   0.034748
     8  O   -0.212983   0.366592
     9  H    0.216815  -0.080016
    10  H    0.129306   0.061236
    11  H    0.158113   0.022921
    12  C   -0.084848  -0.059084
    13  C   -0.288756   0.084418
    14  H    0.137214   0.040355
    15  H    0.131421  -0.005881
    16  H    0.138063  -0.001122
 Sum of Mulliken charges =  -0.00000   1.00000
 Mulliken charges and spin densities with hydrogens summed into heavy atoms:
               1          2
     1  C   -0.013138   0.714424
     2  C   -0.039168  -0.092922
     3  C    0.194859  -0.001512
     7  O   -0.179478   0.034748
     8  O    0.003832   0.286575
    12  C    0.052365  -0.018729
    13  C   -0.019272   0.077416
 APT charges:
               1
     1  C    0.426793
     2  C   -0.292685
     3  C    0.423479
     4  H   -0.035373
     5  H   -0.003408
     6  H   -0.028385
     7  O   -0.429312
     8  O    0.177710
     9  H   -0.330701
    10  H    0.050257
    11  H    0.086631
    12  C   -0.048221
    13  C   -0.088540
    14  H   -0.005852
    15  H    0.040365
    16  H    0.057242
 Sum of APT charges =  -0.00000
 APT charges with hydrogens summed into heavy atoms:
               1
     1  C    0.426793
     2  C   -0.155797
     3  C    0.356313
     7  O   -0.429312
     8  O   -0.152991
    12  C   -0.054073
    13  C    0.009067
 Electronic spatial extent (au):  <R**2>=           1034.8043
 Charge=             -0.0000 electrons
 Dipole moment (field-independent basis, Debye):
    X=              1.2141    Y=              0.7447    Z=              2.2422  Tot=              2.6564
 Quadrupole moment (field-independent basis, Debye-Ang):
   XX=            -38.6608   YY=            -40.3057   ZZ=            -46.6282
   XY=             -0.5990   XZ=             -2.9406   YZ=             -0.5235
 Traceless Quadrupole moment (field-independent basis, Debye-Ang):
   XX=              3.2041   YY=              1.5592   ZZ=             -4.7633
   XY=             -0.5990   XZ=             -2.9406   YZ=             -0.5235
 Octapole moment (field-independent basis, Debye-Ang**2):
  XXX=             -8.3972  YYY=              0.1410  ZZZ=             -2.8379  XYY=             -0.0962
  XXY=             -2.7377  XXZ=             12.7609  XZZ=             -8.7513  YZZ=             -1.2612
  YYZ=              0.5814  XYZ=              2.3567
 Hexadecapole moment (field-independent basis, Debye-Ang**3):
 XXXX=           -841.9217 YYYY=           -315.8032 ZZZZ=           -134.8302 XXXY=             -4.5698
 XXXZ=              0.3402 YYYX=              3.0587 YYYZ=              4.3818 ZZZX=              1.6142
 ZZZY=              2.9878 XXYY=           -189.4559 XXZZ=           -180.7330 YYZZ=            -83.7654
 XXYZ=             -0.2497 YYXZ=              4.8611 ZZXY=              1.5678
 N-N= 2.891827814878D+02 E-N=-1.386887032153D+03  KE= 3.441689291630D+02
  Exact polarizability: 106.748  -3.218  96.000   2.202   1.185  49.356
 Approx polarizability:  94.527 -11.909 113.994   3.794   3.370  60.144
                          Isotropic Fermi Contact Couplings
        Atom                 a.u.       MegaHertz       Gauss      10(-4) cm-1
     1  C(13)              0.15379     172.89497      61.69322      57.67155
     2  C(13)              0.01638      18.41639       6.57143       6.14305
     3  C(13)             -0.00387      -4.34919      -1.55190      -1.45073
     4  H(1)               0.00290      12.97967       4.63147       4.32955
     5  H(1)              -0.00008      -0.37006      -0.13205      -0.12344
     6  H(1)               0.00093       4.14099       1.47761       1.38129
     7  O(17)              0.01666     -10.09881      -3.60351      -3.36860
     8  O(17)              0.03067     -18.58993      -6.63335      -6.20093
     9  H(1)              -0.02527    -112.93235     -40.29707     -37.67018
    10  H(1)               0.02330     104.13853      37.15922      34.73688
    11  H(1)               0.01172      52.40487      18.69936      17.48038
    12  C(13)              0.02697      30.32184      10.81959      10.11428
    13  C(13)              0.00268       3.01188       1.07472       1.00466
    14  H(1)               0.01389      62.08974      22.15516      20.71091
    15  H(1)               0.00116       5.16298       1.84228       1.72218
    16  H(1)               0.00154       6.88826       2.45790       2.29768
 --------------------------------------------------------
       Center         ----  Spin Dipole Couplings  ----
                      3XX-RR        3YY-RR        3ZZ-RR
 --------------------------------------------------------
     1   Atom        0.150145      0.125231     -0.275376
     2   Atom       -0.034579      0.022813      0.011766
     3   Atom        0.003195     -0.007875      0.004680
     4   Atom       -0.000503     -0.005779      0.006282
     5   Atom        0.002314     -0.003022      0.000708
     6   Atom        0.000710     -0.002869      0.002159
     7   Atom        0.186019     -0.033779     -0.152240
     8   Atom        0.325935      0.231519     -0.557453
     9   Atom        0.101518     -0.006180     -0.095337
    10   Atom       -0.002700      0.008047     -0.005347
    11   Atom        0.005706      0.003676     -0.009382
    12   Atom        0.018870     -0.060988      0.042118
    13   Atom        0.034150      0.052782     -0.086932
    14   Atom        0.009317     -0.003555     -0.005762
    15   Atom       -0.002527      0.005949     -0.003422
    16   Atom       -0.001937      0.009125     -0.007188
 --------------------------------------------------------
                        XY            XZ            YZ
 --------------------------------------------------------
     1   Atom        0.479757      0.248968      0.234983
     2   Atom       -0.004268     -0.016193     -0.000156
     3   Atom        0.000407     -0.004542      0.000347
     4   Atom        0.001747     -0.005004      0.001022
     5   Atom       -0.000779     -0.004638      0.001401
     6   Atom        0.002700     -0.005534     -0.003112
     7   Atom        0.312189      0.136128      0.091005
     8   Atom        1.101107      0.559501      0.530641
     9   Atom        0.158044      0.075300      0.057005
    10   Atom        0.007061      0.002134      0.004344
    11   Atom       -0.011610      0.002795     -0.002172
    12   Atom       -0.018048     -0.005294     -0.011340
    13   Atom       -0.012038      0.038454     -0.001135
    14   Atom        0.006357      0.005053      0.001683
    15   Atom       -0.000052      0.000618      0.000383
    16   Atom       -0.011061      0.000914     -0.002613
 --------------------------------------------------------


 ---------------------------------------------------------------------------------
              Anisotropic Spin Dipole Couplings in Principal Axis System
 ---------------------------------------------------------------------------------

       Atom             a.u.   MegaHertz   Gauss  10(-4) cm-1        Axes

              Baa    -0.3920   -52.606   -18.771   -17.548 -0.3006 -0.1491  0.9420
     1 C(13)  Bbb    -0.3417   -45.853   -16.361   -15.295 -0.6694  0.7366 -0.0970
              Bcc     0.7337    98.459    35.133    32.842  0.6794  0.6597  0.3212
 
              Baa    -0.0399    -5.360    -1.913    -1.788  0.9522  0.0655  0.2984
     2 C(13)  Bbb     0.0167     2.236     0.798     0.746 -0.2837 -0.1729  0.9432
              Bcc     0.0233     3.124     1.115     1.042 -0.1134  0.9828  0.1461
 
              Baa    -0.0079    -1.062    -0.379    -0.354 -0.0560  0.9973 -0.0476
     3 C(13)  Bbb    -0.0006    -0.084    -0.030    -0.028  0.7600  0.0735  0.6458
              Bcc     0.0085     1.146     0.409     0.382 -0.6475  0.0001  0.7620
 
              Baa    -0.0069    -3.670    -1.310    -1.224 -0.4195  0.8787 -0.2278
     4 H(1)   Bbb    -0.0021    -1.098    -0.392    -0.366  0.7781  0.4773  0.4084
              Bcc     0.0089     4.768     1.701     1.590 -0.4676  0.0059  0.8839
 
              Baa    -0.0038    -2.023    -0.722    -0.675 -0.3604  0.7183 -0.5951
     5 H(1)   Bbb    -0.0027    -1.422    -0.507    -0.474  0.5552  0.6779  0.4819
              Bcc     0.0065     3.444     1.229     1.149  0.7496 -0.1567 -0.6431
 
              Baa    -0.0044    -2.328    -0.831    -0.777 -0.1475  0.9354  0.3213
     6 H(1)   Bbb    -0.0041    -2.211    -0.789    -0.738  0.7708 -0.0948  0.6299
              Bcc     0.0085     4.539     1.620     1.514 -0.6197 -0.3406  0.7071
 
              Baa    -0.2552    18.463     6.588     6.159 -0.5906  0.8039  0.0703
     7 O(17)  Bbb    -0.1963    14.205     5.069     4.738 -0.1713 -0.2099  0.9626
              Bcc     0.4515   -32.668   -11.657   -10.897  0.7886  0.5564  0.2617
 
              Baa    -0.8291    59.996    21.408    20.012 -0.5729  0.1967  0.7957
     8 O(17)  Bbb    -0.8210    59.410    21.199    19.817 -0.4545  0.7316 -0.5081
              Bcc     1.6502  -119.406   -42.607   -39.830  0.6821  0.6527  0.3298
 
              Baa    -0.1233   -65.791   -23.476   -21.946  0.1151 -0.5560  0.8232
     9 H(1)   Bbb    -0.1178   -62.862   -22.431   -20.969  0.6128 -0.6125 -0.4994
              Bcc     0.2411   128.654    45.907    42.914  0.7818  0.5619  0.2702
 
              Baa    -0.0066    -3.541    -1.263    -1.181 -0.0807 -0.2469  0.9657
    10 H(1)   Bbb    -0.0062    -3.308    -1.180    -1.103  0.8997 -0.4349 -0.0360
              Bcc     0.0128     6.848     2.444     2.284  0.4289  0.8659  0.2573
 
              Baa    -0.0099    -5.274    -1.882    -1.759 -0.1634  0.0181  0.9864
    11 H(1)   Bbb    -0.0069    -3.700    -1.320    -1.234  0.6617  0.7436  0.0960
              Bcc     0.0168     8.974     3.202     2.994  0.7317 -0.6684  0.1335
 
              Baa    -0.0663    -8.890    -3.172    -2.966  0.2128  0.9707  0.1120
    12 C(13)  Bbb     0.0224     3.005     1.072     1.003  0.9654 -0.2265  0.1289
              Bcc     0.0439     5.885     2.100     1.963 -0.1505 -0.0807  0.9853
 
              Baa    -0.0981   -13.170    -4.699    -4.393 -0.2804 -0.0151  0.9598
    13 C(13)  Bbb     0.0366     4.914     1.754     1.639  0.7716  0.5913  0.2347
              Bcc     0.0615     8.256     2.946     2.754 -0.5710  0.8063 -0.1541
 
              Baa    -0.0073    -3.916    -1.397    -1.306 -0.3441  0.1673  0.9239
    14 H(1)   Bbb    -0.0061    -3.234    -1.154    -1.079 -0.2892  0.9173 -0.2738
              Bcc     0.0134     7.150     2.551     2.385  0.8933  0.3614  0.2673
 
              Baa    -0.0038    -2.002    -0.714    -0.668 -0.4516 -0.0376  0.8914
    15 H(1)   Bbb    -0.0022    -1.181    -0.421    -0.394  0.8922 -0.0154  0.4513
              Bcc     0.0060     3.182     1.136     1.062 -0.0032  0.9992  0.0405
 
              Baa    -0.0090    -4.805    -1.715    -1.603  0.7709  0.5227  0.3640
    16 H(1)   Bbb    -0.0073    -3.877    -1.383    -1.293 -0.3680 -0.1010  0.9243
              Bcc     0.0163     8.682     3.098     2.896 -0.5199  0.8465 -0.1145
 

 ---------------------------------------------------------------------------------

 Calling FoFJK, ICntrl=  10100127 FMM=F ISym2X=0 I1Cent= 0 IOpClX= 1 NMat=1 NMatS=1 NMatT=0.
 ***** Axes restored to original set *****
 -------------------------------------------------------------------
 Center     Atomic                   Forces (Hartrees/Bohr)
 Number     Number              X              Y              Z
 -------------------------------------------------------------------
      1        6           0.001192285    0.005935893    0.001101923
      2        6          -0.000945337   -0.004057336   -0.000084378
      3        6          -0.000366105    0.001612639   -0.005139356
      4        1          -0.001165226    0.000367235    0.000037018
      5        1           0.000354567    0.000176510    0.000338586
      6        1           0.000021010   -0.000597670   -0.000431073
      7        8          -0.010777187   -0.008557601    0.001196548
      8        8           0.006265223    0.009895957    0.004993979
      9        1           0.005895511   -0.004268492   -0.002009984
     10        1          -0.000664483    0.000207690    0.000285220
     11        1           0.001282736    0.000020998   -0.000470375
     12        6          -0.002298011   -0.007322097    0.000230650
     13        6           0.001081814    0.006789999    0.000172701
     14        1          -0.000238083    0.000600934   -0.000026463
     15        1          -0.000797347   -0.000237175    0.000222367
     16        1           0.001158632   -0.000567484   -0.000417363
 -------------------------------------------------------------------
 Cartesian Forces:  Max     0.010777187 RMS     0.003559977
 FormGI is forming the generalized inverse of G from B-inverse, IUseBI=4.

 GradGradGradGradGradGradGradGradGradGradGradGradGradGradGradGradGradGrad
 Berny optimization.
 Internal  Forces:  Max     0.014293443 RMS     0.002646393
 Search for a saddle point.
 Step number   1 out of a maximum of  100
 All quantities printed in internal units (Hartrees-Bohrs-Radians)
 Swapping is turned off.
 Second derivative matrix not updated -- analytic derivatives used.
 ITU=  0
     Eigenvalues ---   -0.06568   0.00333   0.00399   0.00715   0.01082
     Eigenvalues ---    0.01414   0.02056   0.02403   0.03208   0.03899
     Eigenvalues ---    0.04226   0.04540   0.05215   0.06538   0.08455
     Eigenvalues ---    0.08567   0.08990   0.09985   0.10585   0.10908
     Eigenvalues ---    0.12021   0.13249   0.13512   0.16548   0.16792
     Eigenvalues ---    0.18535   0.20243   0.21514   0.29194   0.32870
     Eigenvalues ---    0.33586   0.34097   0.34456   0.34570   0.35445
     Eigenvalues ---    0.35587   0.36092   0.36372   0.36480   0.43926
     Eigenvalues ---    0.64302   0.67491
 Eigenvectors required to have negative eigenvalues:
                          R2        R11       A2        R10       A1
   1                    0.75876  -0.59250   0.15450   0.14918  -0.08849
                          A3        A14       D14       A22       A13
   1                   -0.06601  -0.06051  -0.04217   0.04000  -0.03643
 RFO step:  Lambda0=1.713067933D-04 Lambda=-1.12430155D-03.
 Linear search not attempted -- option 19 set.
 Iteration  1 RMS(Cart)=  0.04991849 RMS(Int)=  0.00049841
 Iteration  2 RMS(Cart)=  0.00099899 RMS(Int)=  0.00001711
 Iteration  3 RMS(Cart)=  0.00000099 RMS(Int)=  0.00001711
 Variable       Old X    -DE/DX   Delta X   Delta X   Delta X     New X
                                 (Linear)    (Quad)   (Total)
    R1        2.48357   0.00371   0.00000   0.00374   0.00374   2.48731
    R2        2.65737  -0.00136   0.00000   0.03541   0.03541   2.69277
    R3        2.72926  -0.00131   0.00000  -0.00731  -0.00731   2.72196
    R4        2.05638  -0.00063   0.00000  -0.00169  -0.00169   2.05469
    R5        2.04881  -0.00134   0.00000  -0.00395  -0.00395   2.04487
    R6        2.06523  -0.00103   0.00000  -0.00332  -0.00332   2.06191
    R7        2.05677  -0.00046   0.00000  -0.00053  -0.00053   2.05624
    R8        2.05916  -0.00054   0.00000  -0.00201  -0.00201   2.05715
    R9        2.67194   0.00553   0.00000   0.01234   0.01234   2.68428
   R10        2.61812   0.01429   0.00000   0.05174   0.05174   2.66986
   R11        2.11656   0.00639   0.00000  -0.01839  -0.01839   2.09817
   R12        2.51140   0.00613   0.00000   0.00950   0.00950   2.52089
   R13        2.05692  -0.00055   0.00000  -0.00130  -0.00130   2.05562
   R14        2.04171  -0.00085   0.00000  -0.00253  -0.00253   2.03918
   R15        2.04597  -0.00131   0.00000  -0.00388  -0.00388   2.04209
    A1        1.94617   0.00096   0.00000  -0.00364  -0.00364   1.94253
    A2        2.34596  -0.00130   0.00000   0.00652   0.00652   2.35247
    A3        1.99105   0.00034   0.00000  -0.00287  -0.00287   1.98818
    A4        2.11472   0.00037   0.00000   0.00004   0.00004   2.11475
    A5        2.11439   0.00011   0.00000   0.00239   0.00239   2.11678
    A6        2.05407  -0.00048   0.00000  -0.00243  -0.00243   2.05165
    A7        1.92131  -0.00028   0.00000  -0.00154  -0.00154   1.91978
    A8        1.92081  -0.00046   0.00000   0.00006   0.00003   1.92084
    A9        1.92378   0.00100   0.00000   0.00760   0.00759   1.93137
   A10        1.92627  -0.00022   0.00000  -0.00188  -0.00188   1.92439
   A11        1.84469  -0.00074   0.00000  -0.00884  -0.00883   1.83586
   A12        1.92580   0.00070   0.00000   0.00437   0.00435   1.93015
   A13        1.88541   0.00109   0.00000  -0.00904  -0.00904   1.87637
   A14        1.80080   0.00516   0.00000  -0.00170  -0.00170   1.79910
   A15        2.16287   0.00096   0.00000   0.00692   0.00692   2.16979
   A16        2.02106  -0.00014   0.00000  -0.00084  -0.00085   2.02022
   A17        2.09925  -0.00081   0.00000  -0.00607  -0.00607   2.09318
   A18        2.11737  -0.00008   0.00000  -0.00314  -0.00314   2.11422
   A19        2.11065   0.00038   0.00000   0.00294   0.00294   2.11359
   A20        2.05517  -0.00030   0.00000   0.00020   0.00020   2.05537
   A21        3.01004   0.00266   0.00000   0.03245   0.03247   3.04251
   A22        3.03608   0.00194   0.00000   0.04012   0.04012   3.07619
    D1        3.13594   0.00000   0.00000   0.00272   0.00273   3.13866
    D2       -0.00400   0.00002   0.00000   0.00341   0.00343  -0.00057
    D3       -0.00158   0.00006   0.00000  -0.00034  -0.00035  -0.00194
    D4       -3.14152   0.00007   0.00000   0.00036   0.00035  -3.14117
    D5       -0.41864  -0.00050   0.00000   0.00489   0.00497  -0.41367
    D6        2.68599   0.00017   0.00000   0.01468   0.01460   2.70060
    D7        3.03793   0.00001   0.00000   0.00855   0.00856   3.04649
    D8       -0.10394   0.00004   0.00000   0.00932   0.00933  -0.09461
    D9       -0.09952   0.00007   0.00000   0.00544   0.00542  -0.09409
   D10        3.04180   0.00009   0.00000   0.00620   0.00619   3.04799
   D11        1.12573   0.00032   0.00000   0.00954   0.00957   1.13530
   D12       -3.08187   0.00008   0.00000   0.00660   0.00659  -3.07528
   D13       -0.99932  -0.00024   0.00000   0.00152   0.00150  -0.99782
   D14       -1.53116  -0.00126   0.00000  -0.03146  -0.03146  -1.56262
   D15       -3.13778   0.00000   0.00000  -0.00073  -0.00073  -3.13851
   D16        0.00337  -0.00004   0.00000  -0.00178  -0.00178   0.00159
   D17        0.00410  -0.00002   0.00000  -0.00153  -0.00153   0.00257
   D18       -3.13794  -0.00007   0.00000  -0.00258  -0.00258  -3.14051
         Item               Value     Threshold  Converged?
 Maximum Force            0.014293     0.000450     NO 
 RMS     Force            0.002646     0.000300     NO 
 Maximum Displacement     0.144153     0.001800     NO 
 RMS     Displacement     0.050325     0.001200     NO 
 Predicted change in Energy=-4.800676D-04
 GradGradGradGradGradGradGradGradGradGradGradGradGradGradGradGradGradGrad

                          Input orientation:                          
 ---------------------------------------------------------------------
 Center     Atomic      Atomic             Coordinates (Angstroms)
 Number     Number       Type             X           Y           Z
 ---------------------------------------------------------------------
      1          6           0        0.960416   -0.688657    0.120025
      2          6           0        0.523136   -1.929737    0.089099
      3          6           0       -2.334058    0.335250   -0.919286
      4          1           0       -1.510279    0.044555   -1.573061
      5          1           0       -3.219978   -0.251399   -1.153765
      6          1           0       -2.544187    1.397281   -1.033228
      7          8           0       -2.031951    0.028214    0.434292
      8          8           0       -0.936801    0.833820    0.818645
      9          1           0       -0.058976    0.208697    0.551408
     10          1           0        1.170261   -2.746802   -0.220484
     11          1           0       -0.493232   -2.174506    0.368412
     12          6           0        2.214594   -0.046920   -0.179902
     13          6           0        2.404489    1.273475   -0.172729
     14          1           0        3.039465   -0.712558   -0.424425
     15          1           0        3.367187    1.700020   -0.408733
     16          1           0        1.598722    1.951976    0.068380
 ---------------------------------------------------------------------
                    Distance matrix (angstroms):
                    1          2          3          4          5
     1  C    0.000000
     2  C    1.316226   0.000000
     3  C    3.603070   3.782931   0.000000
     4  H    3.083582   3.285633   1.091117   0.000000
     5  H    4.391974   4.286308   1.088114   1.785068   0.000000
     6  H    4.238322   4.662310   1.088599   1.786127   1.785880
     7  O    3.093045   3.237469   1.420462   2.074096   2.002877
     8  O    2.530897   3.209502   2.285017   2.583036   3.206399
     9  H    1.424955   2.263953   2.712002   2.578099   3.620944
    10  H    2.096651   1.087293   4.718858   4.099566   5.135392
    11  H    2.093451   1.082096   3.368335   3.118964   3.667494
    12  C    1.440397   2.545268   4.624173   3.977932   5.524925
    13  C    2.453775   3.724058   4.887887   4.335503   5.909510
    14  H    2.149288   2.842030   5.497048   4.753184   6.318642
    15  H    3.431895   4.638059   5.884509   5.280710   6.910416
    16  H    2.717175   4.028028   4.365323   3.999809   5.437681
                    6          7          8          9         10
     6  H    0.000000
     7  O    2.071315   0.000000
     8  O    2.516070   1.412828   0.000000
     9  H    3.178062   1.984671   1.110303   0.000000
    10  H    5.624153   4.287611   4.282564   3.292691   0.000000
    11  H    4.350710   2.687745   3.074003   2.429346   1.855136
    12  C    5.045779   4.291390   3.421125   2.401932   2.895106
    13  C    5.024458   4.647704   3.512882   2.779710   4.205738
    14  H    5.999936   5.196672   4.443782   3.376580   2.770138
    15  H    5.951973   5.714570   4.558626   3.858045   4.963482
    16  H    4.322606   4.125111   2.870896   2.453630   4.727107
                   11         12         13         14         15
    11  H    0.000000
    12  C    3.487061   0.000000
    13  C    4.536320   1.334000   0.000000
    14  H    3.904590   1.087785   2.100208   0.000000
    15  H    5.524377   2.105382   1.079085   2.434786   0.000000
    16  H    4.636178   2.106307   1.080629   3.068932   1.848942
                   16
    16  H    0.000000
 Stoichiometry    C5H9O2(2)
 Framework group  C1[X(C5H9O2)]
 Deg. of freedom    42
 Full point group                 C1      NOp   1
 Largest Abelian subgroup         C1      NOp   1
 Largest concise Abelian subgroup C1      NOp   1
                         Standard orientation:                         
 ---------------------------------------------------------------------
 Center     Atomic      Atomic             Coordinates (Angstroms)
 Number     Number       Type             X           Y           Z
 ---------------------------------------------------------------------
      1          6           0        0.968341    0.674583   -0.105416
      2          6           0        0.550410    1.921889   -0.060541
      3          6           0       -2.350720   -0.311439    0.891434
      4          1           0       -1.528152   -0.043087    1.556195
      5          1           0       -3.229286    0.285836    1.126752
      6          1           0       -2.578526   -1.371501    0.988497
      7          8           0       -2.032115    0.009787   -0.455048
      8          8           0       -0.946504   -0.807608   -0.841568
      9          1           0       -0.061287   -0.200318   -0.558085
     10          1           0        1.207619    2.724142    0.266065
     11          1           0       -0.459523    2.186665   -0.344905
     12          6           0        2.209614    0.008866    0.195922
     13          6           0        2.378746   -1.314145    0.171585
     14          1           0        3.042719    0.657821    0.456823
     15          1           0        3.332528   -1.759195    0.409609
     16          1           0        1.564508   -1.976312   -0.085926
 ---------------------------------------------------------------------
 Rotational constants (GHZ):           3.7595262           1.3925605           1.1582719
 Standard basis: CC-pVTZ (5D, 7F)
 There are   380 symmetry adapted cartesian basis functions of A   symmetry.
 There are   336 symmetry adapted basis functions of A   symmetry.
   336 basis functions,   517 primitive gaussians,   380 cartesian basis functions
    28 alpha electrons       27 beta electrons
       nuclear repulsion energy       287.1256071315 Hartrees.
 NAtoms=   16 NActive=   16 NUniq=   16 SFac= 1.00D+00 NAtFMM=   60 NAOKFM=F Big=F
 Integral buffers will be    131072 words long.
 Raffenetti 2 integral format.
 Two-electron integral symmetry is turned on.
 Nuclear repulsion after empirical dispersion term =      287.1168478114 Hartrees.
 One-electron integrals computed using PRISM.
 NBasis=   336 RedAO= T EigKep=  2.87D-04  NBF=   336
 NBsUse=   336 1.00D-06 EigRej= -1.00D+00 NBFU=   336
 Initial guess from the checkpoint file:  "/localscratch/341085/Gau-7727.chk"
 B after Tr=     0.000000   -0.000000    0.000000
         Rot=    0.999950   -0.006042    0.003384    0.007202 Ang=  -1.14 deg.
 Initial guess <Sx>= 0.0000 <Sy>= 0.0000 <Sz>= 0.5000 <S**2>= 0.7868 S= 0.5183
 ExpMin= 1.03D-01 ExpMax= 1.53D+04 ExpMxC= 5.22D+02 IAcc=3 IRadAn=         5 AccDes= 0.00D+00
 Harris functional with IExCor=  419 and IRadAn=       5 diagonalized for initial guess.
 HarFok:  IExCor=  419 AccDes= 0.00D+00 IRadAn=         5 IDoV= 1 UseB2=F ITyADJ=14
 ICtDFT=  3500011 ScaDFX=  1.000000  1.000000  1.000000  1.000000
 FoFCou: FMM=F IPFlag=           0 FMFlag=      100000 FMFlg1=           0
         NFxFlg=           0 DoJE=T BraDBF=F KetDBF=T FulRan=T
         wScrn=  0.000000 ICntrl=       500 IOpCl=  0 I1Cent=   200000004 NGrid=           0
         NMat0=    1 NMatS0=      1 NMatT0=    0 NMatD0=    1 NMtDS0=    0 NMtDT0=    0
 Petite list used in FoFCou.
 Requested convergence on RMS density matrix=1.00D-08 within 128 cycles.
 Requested convergence on MAX density matrix=1.00D-06.
 Requested convergence on             energy=1.00D-06.
 No special actions if energy rises.
 Integral accuracy reduced to 1.0D-05 until final iterations.
 Initial convergence to 1.0D-05 achieved.  Increase integral accuracy.
 SCF Done:  E(UB2PLYPD3) =  -345.587857442     A.U. after   19 cycles
            NFock= 19  Conv=0.50D-08     -V/T= 2.0043
 <Sx>= 0.0000 <Sy>= 0.0000 <Sz>= 0.5000 <S**2>= 0.7894 S= 0.5195
 <L.S>=  0.00000000000    
 Annihilation of the first spin contaminant:
 S**2 before annihilation     0.7894,   after     0.7511
 DoSCS=T DFT=T ScalE2(SS,OS)=  0.270000  0.270000
 ExpMin= 1.03D-01 ExpMax= 1.53D+04 ExpMxC= 5.22D+02 IAcc=3 IRadAn=         5 AccDes= 0.00D+00
 HarFok:  IExCor=  205 AccDes= 0.00D+00 IRadAn=         5 IDoV=-2 UseB2=F ITyADJ=14
 ICtDFT= 12500011 ScaDFX=  1.000000  1.000000  1.000000  1.000000
 Range of M.O.s used for correlation:     8   336
 NBasis=   336 NAE=    28 NBE=    27 NFC=     7 NFV=     0
 NROrb=    329 NOA=    21 NOB=    20 NVA=   308 NVB=   309

 **** Warning!!: The largest alpha MO coefficient is  0.13952020D+02


 **** Warning!!: The largest beta MO coefficient is  0.14300392D+02

 DoSCS=T DFT=T ScalE2(SS,OS)=  0.270000  0.270000
 Disk-based method using ON**2 memory for 21 occupieds at a time.
 Estimated scratch disk usage=  1997920120 words.
 Actual    scratch disk usage=  1831350648 words.
 JobTyp=2 Pass  1:  I=   8 to  28 NPSUse= 40 ParTrn=T ParDer=T DoDerP=T.
 (rs|ai) integrals will be sorted in core.
 Actual    scratch disk usage=  1831350648 words.
 JobTyp=3 Pass  1:  I=   8 to  27 NPSUse= 40 ParTrn=T ParDer=T DoDerP=T.
 (rs|ai) integrals will be sorted in core.
 Spin components of T(2) and E(2):
     alpha-alpha T2 =       0.7678092229D-01 E2=     -0.5315137591D-01
     alpha-beta  T2 =       0.4685766919D+00 E2=     -0.3251970396D+00
     beta-beta   T2 =       0.8198622961D-01 E2=     -0.5197332601D-01
 (S**2,0)=  0.78937D+00           (S**2,1)=  0.75665D+00
 Scaling Projection term by:   0.270000
 E(PUHF)=      -0.34559473286D+03        E(PMP2)=      -0.34601927665D+03
 E2(B2PLYPD3) =    -0.4303217415D+00 E(B2PLYPD3) =    -0.34601817918385D+03
          IDoAtm=1111111111111111
          Differentiating once with respect to electric field.
                with respect to dipole field.
          Differentiating once with respect to nuclear coordinates.
 Keep R1 and R2 ints in memory in canonical form, NReq=3251778068.
          There are     1 degrees of freedom in the 1st order CPHF.  IDoFFX=0 NUNeed=     1.
 LinEq1:  Iter=  0 NonCon=     1 RMS=9.60D-04 Max=7.13D-02 NDo=     1
 AX will form     1 AO Fock derivatives at one time.
 LinEq1:  Iter=  1 NonCon=     1 RMS=3.59D-04 Max=1.48D-02 NDo=     1
 LinEq1:  Iter=  2 NonCon=     1 RMS=2.64D-04 Max=1.34D-02 NDo=     1
 LinEq1:  Iter=  3 NonCon=     1 RMS=1.54D-04 Max=6.29D-03 NDo=     1
 LinEq1:  Iter=  4 NonCon=     1 RMS=9.44D-05 Max=3.71D-03 NDo=     1
 LinEq1:  Iter=  5 NonCon=     1 RMS=3.27D-05 Max=9.15D-04 NDo=     1
 LinEq1:  Iter=  6 NonCon=     1 RMS=2.48D-05 Max=1.16D-03 NDo=     1
 LinEq1:  Iter=  7 NonCon=     1 RMS=1.10D-05 Max=5.15D-04 NDo=     1
 LinEq1:  Iter=  8 NonCon=     1 RMS=8.88D-06 Max=4.71D-04 NDo=     1
 LinEq1:  Iter=  9 NonCon=     1 RMS=4.15D-06 Max=1.36D-04 NDo=     1
 LinEq1:  Iter= 10 NonCon=     1 RMS=1.05D-06 Max=2.10D-05 NDo=     1
 LinEq1:  Iter= 11 NonCon=     1 RMS=4.71D-07 Max=1.40D-05 NDo=     1
 LinEq1:  Iter= 12 NonCon=     1 RMS=2.47D-07 Max=9.47D-06 NDo=     1
 LinEq1:  Iter= 13 NonCon=     1 RMS=1.25D-07 Max=4.46D-06 NDo=     1
 LinEq1:  Iter= 14 NonCon=     1 RMS=6.37D-08 Max=1.91D-06 NDo=     1
 LinEq1:  Iter= 15 NonCon=     1 RMS=2.77D-08 Max=5.32D-07 NDo=     1
 LinEq1:  Iter= 16 NonCon=     1 RMS=1.02D-08 Max=1.99D-07 NDo=     1
 LinEq1:  Iter= 17 NonCon=     1 RMS=4.81D-09 Max=9.26D-08 NDo=     1
 LinEq1:  Iter= 18 NonCon=     1 RMS=2.19D-09 Max=5.63D-08 NDo=     1
 LinEq1:  Iter= 19 NonCon=     1 RMS=8.54D-10 Max=1.41D-08 NDo=     1
 LinEq1:  Iter= 20 NonCon=     1 RMS=2.83D-10 Max=4.74D-09 NDo=     1
 LinEq1:  Iter= 21 NonCon=     1 RMS=8.18D-11 Max=2.02D-09 NDo=     1
[...]
   zz         0.492270D+02      0.729468D+01      0.811643D+01

 ----------------------------------------------------------------------

 Dipole orientation:
     6          1.66071417          1.20809280          0.94611921
     6          0.75717320          3.49628235          1.31308638
     6         -4.69339446         -0.83914085         -0.55454465
     1         -3.85506201         -0.76300717          1.32761636
     1         -6.47258911          0.19158983         -0.57392363
     1         -4.99764972         -2.79551744         -1.11296171
     8         -3.13266528          0.42042981         -2.33889276
     8         -0.84405776         -0.95152318         -2.51373893
     1          0.35829361         -0.05718553         -1.04466425
     1          1.53250746          4.72475870          2.76618314
     1         -0.78563985          4.22354689          0.18528710
     6          3.63684416         -0.27762775          2.08502430
     6          4.11287022         -2.68655471          1.51421712
     1          4.77884090          0.68700424          3.49601401
     1          5.61822970         -3.71004477          2.43326332
     1          3.00186817         -3.67897657          0.11746666

 Electric dipole moment (dipole orientation):
 (Debye = 10**-18 statcoulomb cm , SI units = C m)
                  (au)            (Debye)         (10**-30 SI)
   Tot        0.991528D+00      0.252021D+01      0.840652D+01
   x          0.000000D+00      0.000000D+00      0.000000D+00
   y          0.000000D+00      0.000000D+00      0.000000D+00
   z          0.991528D+00      0.252021D+01      0.840652D+01

 Dipole polarizability, Alpha (dipole orientation).
 (esu units = cm**3 , SI units = C**2 m**2 J**-1)
 Alpha(0;0):
               (au)            (10**-24 esu)      (10**-40 SI)
   iso        0.838841D+02      0.124303D+02      0.138306D+02
   aniso      0.528676D+02      0.783417D+01      0.871669D+01
   xx         0.941482D+02      0.139513D+02      0.155229D+02
   yx        -0.986417D+01     -0.146172D+01     -0.162638D+01
   yy         0.937067D+02      0.138859D+02      0.154501D+02
   zx         0.206530D+02      0.306046D+01      0.340522D+01
   zy         0.102547D+02      0.151959D+01      0.169077D+01
   zz         0.637975D+02      0.945381D+01      0.105188D+02

 ----------------------------------------------------------------------
 1\1\GINC-N58\Freq\UB2PLYPD3-FC\CC-pVTZ\C5H9O2(2)\ROOT\05-Jun-2019\0\\#
 N Geom=AllCheck Guess=TCheck SCRF=Check GenChk UB2PLYPD3(FC)/CC-pVTZ F
 req\\Title Card Required\\0,2\C,0.9648097147,-0.6971475719,0.121662072
 \C,0.5364372738,-1.9414804971,0.0965502352\C,-2.3409734612,0.348081214
 4,-0.9221907979\H,-1.5219034059,0.0552242386,-1.5808227449\H,-3.231763
 9213,-0.2314775726,-1.1559700426\H,-2.5445991319,1.4120229667,-1.02985
 73436\O,-2.0358450382,0.0318805885,0.428690806\O,-0.9330706451,0.83074
 55746,0.8134783606\H,-0.0600295464,0.1981928339,0.5473407939\H,1.19019
 36725,-2.7553476401,-0.2074954409\H,-0.4785607264,-2.1927457708,0.3748
 968605\C,2.2154899574,-0.0488171605,-0.1789286061\C,2.397878412,1.2726
 953989,-0.1746309165\H,3.0442769206,-0.7102829479,-0.4215259137\H,3.35
 84158184,1.7040202001,-0.4107774761\H,1.5880511069,1.9471461452,0.0642
 28154\\Version=ES64L-G16RevB.01\State=2-A\HF=-345.5878567\MP2=-346.018
 1868\PUHF=-345.5947283\PMP2-0=-346.0192845\S2=0.789417\S2-1=0.756696\S
 2A=0.751094\RMSD=4.420e-09\RMSF=1.424e-06\ZeroPoint=0.123243\Thermal=0
 .1326527\Dipole=0.4186557,-0.2816384,-0.8535421\DipoleDeriv=0.8261931,
 -0.1111257,-0.0759302,-0.7523947,0.4941513,0.046516,-0.3672491,0.08343
 95,-0.0368894,-0.3340665,-0.0754528,-0.0689684,0.0134576,-0.3079679,0.
 0517516,0.0235533,0.0148903,-0.2285707,0.4342823,-0.0588466,0.0328593,
 -0.1414273,0.3330188,-0.056238,0.346642,-0.147085,0.4979513,-0.0747236
 ,0.0419609,0.1131415,0.0698446,0.0082004,-0.0257305,-0.0399775,0.00901
 8,-0.0471077,-0.0635864,-0.057315,-0.0532696,-0.0836907,0.0251176,-0.0
 094229,-0.0691076,0.0176231,0.023558,0.0355046,0.0166017,-0.0084516,0.
 1165264,-0.1252771,0.0653863,-0.0533088,-0.0092062,0.0074518,-0.812132
 ,0.3004232,0.0616063,-0.4285152,-0.0491418,0.0601768,-0.3465939,0.1899
 377,-0.375641,0.8500551,-0.4270779,-0.1429529,0.2163341,-0.240958,-0.0
 003884,0.0466604,0.0068084,-0.2760182,-0.8130298,0.3508845,0.0440621,0
 .6106972,-0.1728137,-0.0617435,0.2722234,-0.1312199,0.1279112,0.040483
 9,0.0585691,0.0436753,0.1116161,-0.0129196,-0.0279757,0.0275464,-0.043
 2414,0.1235753,0.0483642,-0.0287627,0.0403339,-0.0069317,0.0843782,-0.
 0204622,0.0456026,-0.0033301,0.1293537,0.004429,0.0057215,-0.0408676,0
 .329317,-0.0758582,-0.0148533,0.0211617,0.0103271,-0.0949848,0.0238068
 ,-0.0732449,-0.0799194,-0.0444435,-0.0540242,0.009303,-0.0777095,0.024
 0455,-0.2221044,-0.1279557,0.0529828,0.0489448,-0.006282,0.0001559,-0.
 0161608,0.084487,-0.0172172,0.1230679,-0.0492079,-0.0603174,0.0402448,
 -0.0297157,0.0531345,0.0029608,0.04222,0.0079619,0.1216856,0.0115829,0
 .0649993,0.0454918,0.0256077,0.0408039,-0.0031191,0.0438497,-0.0127516
 ,0.1267612\Polar=105.0968186,3.4895152,97.3285954,-1.8198781,0.4971772
 ,49.2269686\PG=C01 [X(C5H9O2)]\NImag=1\\0.40484284,0.28911833,0.702348
 32,-0.05660272,-0.01360792,0.10582343,-0.13231002,-0.15285964,0.008143
 25,0.59235560,-0.18175779,-0.52792100,-0.00571701,0.11401169,0.8107212
 6,0.00394205,-0.01441327,-0.04493510,-0.13652264,0.05488245,0.14792700
 ,-0.00233015,0.00306903,0.00018508,0.00063068,-0.00028923,-0.00015226,
 0.59591951,0.00155147,-0.00215467,0.00017089,-0.00025805,0.00064545,0.
 00016768,0.02767402,0.60071913,-0.00716500,0.00905997,0.00367052,0.001
 89486,-0.00226887,-0.00136083,-0.03587650,0.02081230,0.45183294,-0.000
 10642,0.00009053,0.00013780,-0.00020994,0.00014147,-0.00008035,-0.2071
 3923,0.05619123,0.11572915,0.21463839,-0.00034988,0.00096602,0.0001250
 8,0.00010268,-0.00056328,-0.00031751,0.05809920,-0.07516185,-0.0425641
 9,-0.06145434,0.07158427,0.00179696,-0.00270028,-0.00053020,-0.0003746
 9,0.00082952,0.00044346,0.10904366,-0.04301142,-0.12722918,-0.12526435
 ,0.04249407,0.15615017,0.00036557,-0.00048058,-0.00024955,-0.00024802,
 0.00015566,0.00015353,-0.22953127,-0.11739223,-0.04359275,-0.01710474,
 -0.01340135,-0.00505404,0.24701442,-0.00003112,0.00005356,0.00002227,0
 .00002390,-0.00001116,-0.00003824,-0.12080255,-0.13063544,-0.02921138,
 0.00860132,0.00561851,0.00243010,0.13038847,0.13253215,0.00075255,-0.0
 0086206,-0.00018193,-0.00030801,0.00039876,0.00017222,-0.03441348,-0.0
 2216553,-0.05925528,0.01434456,0.01083311,0.00619802,0.05280123,0.0307
 8559,0.06959603,0.00011106,0.00012220,0.00001457,-0.00019510,-0.000241
 27,-0.00009048,-0.06141806,0.04551698,0.00058938,-0.00357235,0.0252582
 9,-0.00058333,0.00690326,-0.02581855,0.00275065,0.05749925,-0.00094485
 ,0.00087806,0.00050065,0.00031090,-0.00017466,-0.00008867,0.04798033,-
 0.30627201,0.01488490,0.00023196,-0.00734088,-0.00010526,0.00391920,-0
 .01323303,0.00022455,-0.05304866,0.32902200,0.00066853,-0.00102663,-0.
 00039658,-0.00011468,0.00022787,0.00025037,-0.00139265,0.00652933,-0.0
 4751694,0.00282467,-0.01793996,0.00371948,0.00256250,-0.00609050,0.001
 50800,0.00446950,-0.02376636,0.06114362,0.01798310,-0.02262358,-0.0072
 9452,-0.00494297,0.00377195,0.00190967,-0.06701126,0.00471975,-0.02203
 071,0.00842160,-0.00897829,0.01850869,-0.00923679,0.00565363,-0.030213
 72,-0.00115908,0.00152721,-0.01310300,0.25063895,0.01716766,-0.0196890
 5,-0.00847546,-0.00405279,0.00463507,0.00254699,-0.00679763,-0.0889238
 5,0.04476493,-0.00470423,0.00620417,-0.00450192,-0.00541771,0.00334277
 ,-0.01963297,0.00552854,-0.00455742,0.04048565,0.09465489,0.17469882,0
 .01139030,-0.01205649,-0.00516695,-0.00321968,0.00256562,0.00168513,0.
 00929026,0.06838787,-0.20329676,-0.00785898,0.00799544,-0.04310509,-0.
 00426955,0.00081173,-0.01010667,-0.00908531,0.01037352,-0.02245429,0.0
 6796779,-0.05766131,0.33435645,-0.09288176,0.09754812,0.04095557,0.009
 95571,-0.01609894,-0.00545243,-0.03306018,-0.01700741,-0.02147186,0.00
 499791,0.00012805,0.00565362,0.00180201,0.00205590,-0.00520286,0.00244
 441,-0.00136308,0.00536614,-0.12880553,-0.06780209,-0.04594966,0.19326
 577,0.03663864,-0.02799154,-0.01345954,0.00294026,0.00293750,-0.000852
 26,-0.00440599,0.00089568,-0.00786751,-0.00005781,-0.00073912,0.001790
 03,0.00191113,0.00231966,0.00023589,0.00241715,0.00299902,0.00093078,-
 0.08588790,-0.11162648,-0.03790843,0.03241845,0.19900898,0.01699113,-0
 .01412897,-0.00146773,0.00062668,0.00155592,-0.00074214,-0.04102618,-0
 .03207271,-0.01532310,-0.00074351,-0.00038509,0.00391759,-0.00256360,0
 .00140452,-0.00719312,0.00152866,-0.00147826,0.00358858,-0.01969722,-0
 .01201872,-0.05745852,0.04273004,0.07999752,0.09511867,0.06110290,-0.0
 8490357,-0.03618030,-0.00912833,0.02006087,0.00684586,0.00329825,-0.00
 057470,0.01065463,0.00002220,0.00062771,-0.00338618,0.00008030,-0.0000
 9448,-0.00033875,-0.00057534,0.00124518,-0.00121969,-0.06245495,-0.027
 08816,-0.01718966,0.03648217,0.01307992,0.00248869,-0.01472731,-0.0559
 7480,0.03920689,0.02315244,0.01298228,-0.02402964,-0.00757694,-0.00387
 870,0.00009205,-0.00538037,0.00083294,-0.00009104,0.00196517,0.0000565
 3,0.00009128,-0.00020205,0.00028196,-0.00108563,0.00049848,-0.00049888
 ,0.02878104,0.01351483,-0.01681727,-0.06454754,-0.02112836,0.06491710,
 0.02923333,-0.02572948,0.02493949,-0.01079623,0.00465540,-0.00786944,0
 .00125412,-0.00507530,0.00077728,-0.00132168,0.00066191,-0.00037807,0.
 00055157,0.00025836,-0.00015201,-0.00075790,0.00031494,-0.00038349,0.0
 0025808,0.00254371,0.01363855,0.00538306,-0.01365257,-0.02212585,-0.01
 911891,0.03154961,-0.00429357,0.02163215,0.00597639,-0.00790893,0.0005
 1778,-0.14872581,0.12036112,0.05114042,0.00010894,-0.00000836,-0.00023
 359,-0.00006261,0.00001000,0.00011781,0.00002763,-0.00000382,0.0000491
 4,-0.00003009,0.00000258,0.00000622,0.00066321,0.00133986,0.00056686,-
 0.00229956,-0.00064522,-0.00002606,0.00289939,-0.00201087,-0.00031218,
 0.15185536,0.01507847,-0.02739416,-0.00953271,0.12367036,-0.19491029,-
 0.05861975,-0.00021898,0.00015130,-0.00062768,0.00007393,-0.00010398,0
 .00017707,0.00005799,-0.00002000,0.00009703,0.00001979,-0.00007876,0.0
 0007225,0.00182151,0.00161511,0.00103775,-0.00198907,-0.00107517,-0.00
 075608,-0.00021582,-0.00233251,-0.00032933,-0.13240946,0.21410551,0.00
 328646,-0.00322209,0.00955326,0.05151303,-0.05710446,-0.05494506,0.000
 31798,-0.00001929,-0.00057100,-0.00030344,0.00021361,0.00004897,-0.000
 03186,0.00001028,0.00001072,-0.00008140,0.00001015,0.00007016,0.000265
 42,-0.00033796,0.00003697,0.00053768,-0.00015133,0.00070497,-0.0003303
 2,0.00033880,0.00211883,-0.05900103,0.06597661,0.04088628,-0.00685804,
 -0.00594073,0.00147420,-0.30135641,-0.05929977,0.07455834,-0.00018270,
 -0.00001145,-0.00057550,0.00007411,-0.00003039,0.00011629,-0.00002969,
 0.00002271,-0.00002673,0.00006097,-0.00009473,0.00016413,0.00041113,0.
 00042445,0.00064728,-0.00043654,-0.00081953,-0.00053216,-0.00038738,0.
 00035910,-0.00020989,-0.01131832,-0.00555665,0.00501709,0.31823676,-0.
 02890377,-0.00901306,0.00764512,-0.05953665,-0.06205944,0.01439996,0.0
 0041684,-0.00002800,0.00077078,-0.00002920,-0.00006423,-0.00000008,-0.
 00003078,-0.00002094,-0.00003105,-0.00007317,0.00011355,-0.00018126,0.
 00008114,0.00106970,-0.00003447,-0.00000472,-0.00070645,-0.00064603,-0
 .00209534,-0.00007722,0.00085244,0.02050418,0.00675148,-0.00634086,0.0
 7079713,0.06828256,-0.00133118,0.00101280,0.00074757,0.07475219,0.0140
 7578,-0.05441186,-0.00044708,0.00038434,0.00068485,0.00033669,0.000068
 41,-0.00026867,-0.00007676,0.00002658,-0.00002218,0.00010285,-0.000058
 87,-0.00021938,-0.00012406,-0.00049607,-0.00067068,0.00001136,0.000434
 12,-0.00069815,-0.00054785,-0.00022091,-0.00081213,0.00831155,0.001614
 68,0.00492233,-0.08271540,-0.01521738,0.04298312,-0.23041794,-0.090973
 14,0.03949011,-0.00189957,0.00128876,0.00247695,0.00015860,-0.00007771
 ,0.00122463,0.00005382,0.00003019,-0.00043542,-0.00001862,-0.00001873,
 -0.00011653,0.00006995,0.00005682,-0.00015248,-0.00248603,-0.00206626,
 -0.00134357,0.00610031,0.00052172,-0.00019684,-0.01443130,0.00151292,0
 .00456465,0.00079311,0.00112929,-0.00096465,0.00184381,0.00035342,0.00
 219626,0.55433282,-0.07691620,-0.12527972,0.01536308,-0.03232454,0.001
 00524,0.00987669,-0.00093948,0.00072053,-0.00321524,0.00012712,-0.0002
 5505,0.00082645,0.00024421,-0.00002560,0.00042510,0.00005058,-0.000364
 17,0.00032884,0.00747226,0.00583148,0.00408264,-0.01439665,-0.00209607
 ,-0.00049630,0.01944999,-0.00737373,-0.00612869,0.00043863,0.00358837,
 0.00090439,-0.00004903,-0.00386642,-0.00165923,0.03003159,0.85186555,0
 .04197245,0.02134958,-0.06823542,-0.00204236,-0.00149497,0.00408049,-0
 .00028246,-0.00000478,-0.00015714,0.00019554,-0.00012154,0.00010500,0.
 00003725,-0.00000627,0.00002998,0.00005549,-0.00007620,0.00002757,0.00
 083149,0.00141519,0.00060910,-0.00292836,-0.00068568,-0.00090626,0.006
 85781,-0.00113253,0.00093828,-0.00143660,0.00064481,-0.00380164,0.0025
 1030,-0.00177512,0.00915427,-0.11024909,0.02252985,0.15574097,-0.00457
 052,-0.03582065,0.00075200,-0.00647727,-0.00233942,0.00217044,0.000247
 43,-0.00007303,0.00003601,0.00000607,-0.00008244,0.00003419,0.00003429
 ,0.00000554,0.00002833,-0.00008904,0.00006326,0.00000899,-0.00012716,0
 .00014796,0.00008750,0.00059616,0.00020088,-0.00016788,-0.00044296,-0.
 00118465,-0.00040605,0.00012433,-0.00008190,-0.00038248,-0.00005578,-0
 .00141721,-0.00000039,-0.11349072,-0.05816906,0.01479578,0.62871489,-0
 .00753881,-0.00747956,0.00239834,-0.00388834,-0.01064358,-0.00044389,-
 0.00003345,0.00000411,0.00041121,-0.00001596,-0.00000510,-0.00005464,-
 0.00001065,-0.00001202,-0.00006651,0.00005475,0.00002555,-0.00003777,-
 0.00039649,-0.00060112,-0.00011995,0.00060914,-0.00043637,-0.00028184,
 -0.00059771,0.00170570,0.00017714,-0.00017580,-0.00027956,-0.00030279,
 0.00002252,-0.00023522,0.00021505,-0.05458775,-0.54922195,-0.00539835,
 0.03878741,0.85119007,0.00193520,0.00840270,0.00445068,0.00215652,0.00
 031618,0.00144872,0.00000525,0.00011362,-0.00020273,0.00000170,0.00011
 209,0.00001647,-0.00002886,-0.00001770,0.00004503,0.00006194,-0.000041
 14,-0.00001670,0.00004384,-0.00016900,0.00014850,-0.00002528,-0.000192
 80,0.00028690,-0.00036885,0.00051506,-0.00069358,-0.00025997,0.0001101
 4,-0.00061337,0.00013230,0.00033167,0.00047551,0.01444953,-0.00453946,
 -0.05488481,-0.13491994,0.01880164,0.14696387,-0.02335053,0.01280627,0
 .00813037,0.00251159,0.00044416,-0.00081148,0.00032000,-0.00022089,0.0
 0083634,-0.00002640,0.00004397,-0.00018968,-0.00006031,0.00000775,-0.0
 0010365,-0.00002664,0.00010494,-0.00009261,-0.00175605,-0.00129165,-0.
 00093749,0.00211933,0.00158785,0.00043629,-0.00235008,-0.00041671,0.00
 074398,0.00003770,-0.00136255,-0.00003975,0.00004638,-0.00014653,-0.00
 017651,-0.20759559,0.12727171,0.04884091,0.00644409,-0.00477597,-0.000
 08483,0.22168201,-0.01023769,0.00713588,0.00272042,0.00085983,0.000508
 35,-0.00012936,0.00016695,-0.00013409,0.00052259,-0.00000243,0.0000201
 3,-0.00013139,-0.00003540,0.00000579,-0.00006112,-0.00002553,0.0000702
 4,-0.00005428,-0.00125749,-0.00077737,-0.00065025,0.00232147,0.0003002
 7,0.00007184,-0.00296991,0.00140118,0.00084559,0.00041418,-0.00024873,
 0.00001188,0.00025235,0.00024464,-0.00014744,0.11769266,-0.14920893,-0
 .03502873,0.02724676,-0.01794640,-0.00799085,-0.13262769,0.16214854,0.
 00734151,-0.00237830,0.00273553,-0.00100783,-0.00057853,-0.00057503,-0
 .00006967,0.00002062,-0.00020280,-0.00001051,-0.00003964,0.00002463,0.
 00003004,0.00000158,0.00001778,0.00000603,-0.00003248,0.00002589,0.000
 39164,0.00040954,0.00027661,-0.00078768,-0.00032793,-0.00030292,0.0012
 4826,-0.00015882,0.00081067,0.00032621,0.00021803,0.00091182,-0.000232
 80,0.00012360,-0.00078808,0.04804790,-0.03788280,-0.05335589,0.0012586
 1,0.00063511,0.00649029,-0.05689167,0.03987338,0.04032574,0.00179172,-
 0.00061279,0.00304080,0.00012135,-0.00003349,-0.00016182,0.00005484,-0
 .00004997,0.00015274,0.00001086,0.00002044,-0.00001460,-0.00001807,-0.
 00000194,-0.00002017,0.00001421,0.00001800,-0.00001396,-0.00017525,-0.
 00014530,-0.00004263,0.00009336,-0.00009096,-0.00003027,0.00009412,0.0
 0037130,-0.00009257,0.00000295,-0.00005923,0.00003319,-0.00007138,0.00
 005775,-0.00032119,0.00037305,0.00274442,0.00126969,-0.28972221,-0.102
 89857,0.06294547,0.00051584,-0.00019462,-0.00216273,0.29996879,0.00124
 846,-0.00521040,-0.00111776,-0.00169358,-0.00009068,0.00050939,0.00004
 009,-0.00002703,0.00005762,-0.00000843,-0.00001734,-0.00001134,0.00000
 201,0.00000143,-0.00000190,-0.00002802,0.00002024,-0.00000308,-0.00021
 156,-0.00007271,-0.00019469,0.00054943,0.00027265,0.00008050,-0.000449
 09,-0.00004260,0.00016386,0.00008824,0.00004406,-0.00001197,-0.0000598
 9,-0.00039524,-0.00002582,-0.03054754,-0.00893654,0.00751318,-0.096506
 14,-0.10052130,0.02299828,0.00017469,0.00130198,0.00032601,0.11115190,
 0.10364336,0.00316892,-0.00065663,0.01237344,-0.00002188,0.00006500,-0
 .00050839,-0.00002319,0.00000674,0.00001148,0.00000924,-0.00002210,0.0
 0000287,0.00000921,-0.00000047,0.00000026,-0.00000798,0.00000320,0.000
 00691,0.00003588,0.00004918,-0.00003484,-0.00009354,0.00004468,0.00003
 395,-0.00004815,-0.00009730,-0.00001021,0.00003345,-0.00001212,0.00013
 792,-0.00034571,0.00016310,-0.00111935,-0.00015794,-0.00115355,0.00495
 248,0.06313082,0.02453470,-0.05115057,-0.00211767,0.00030580,-0.007069
 86,-0.06839654,-0.02621339,0.04068058,0.00065182,-0.00063088,-0.002514
 43,-0.00008149,-0.00017577,0.00007421,-0.00006541,0.00002035,-0.000171
 81,-0.00000327,-0.00002384,0.00003108,0.00002004,0.00001198,0.00001744
 ,-0.00003739,-0.00000907,0.00001840,0.00003706,0.00010246,-0.00005344,
 -0.00037357,0.00019140,0.00018222,0.00051832,-0.00053225,0.00018548,-0
 .00005260,0.00004234,0.00016409,0.00002309,0.00002691,0.00002951,0.006
 61431,-0.00503555,-0.00042784,-0.22119159,0.13544568,0.05395599,0.0014
 8867,-0.00160343,0.00251269,-0.01305418,0.01624943,0.00482509,0.225506
 19,0.00185186,0.00154443,-0.00018788,-0.00028832,-0.00004914,0.0000967
 1,-0.00008045,0.00010868,-0.00014907,-0.00001808,-0.00005124,0.0000039
 0,0.00003352,-0.00000694,0.00002314,-0.00001505,-0.00002208,0.00002665
 ,0.00015185,0.00006985,-0.00014382,-0.00015133,0.00048498,0.00028205,-
 0.00039198,-0.00093154,0.00026610,0.00000365,0.00018734,0.00002503,-0.
 00001610,0.00000431,-0.00000605,0.02565376,-0.01638298,-0.00772843,0.1
 2922269,-0.16554325,-0.03875046,-0.00159935,-0.00482149,-0.00020936,-0
 .01027694,0.01003010,0.00298316,-0.14407974,0.17537898,-0.00241767,0.0
 0028809,-0.00764428,-0.00013017,0.00011618,0.00021690,-0.00008345,-0.0
 0009695,0.00023766,0.00001990,-0.00007371,-0.00004509,0.00001485,0.000
 02390,-0.00006095,-0.00004550,0.00003377,0.00000524,-0.00003489,-0.000
 01662,-0.00020199,0.00030983,0.00013829,-0.00043981,-0.00003508,0.0002
 0607,0.00056387,0.00019999,-0.00007070,0.00052884,0.00001826,-0.000060
 42,0.00004282,0.00116648,0.00073823,0.00570301,0.05357408,-0.04046746,
 -0.05276424,0.00245747,-0.00015810,0.01067561,0.00381459,-0.00406890,0
 .00169335,-0.05882868,0.04346834,0.04148906\\0.00000050,-0.00000126,-0
 .00000198,-0.00000019,0.00000155,0.00000273,-0.00000010,0.00000086,0.0
 0000167,-0.00000004,-0.00000034,-0.00000010,-0.00000013,0.00000022,0.0
 0000027,0.00000016,0.00000021,-0.00000016,0.00000101,-0.00000275,-0.00
 000183,0.00000473,0.00000007,-0.00000109,-0.00000564,0.00000103,0.0000
 0117,-0.00000009,0.00000004,-0.00000016,-0.00000040,0.00000013,-0.0000
 0042,0.00000056,0.00000151,0.00000063,0.00000003,-0.00000108,0.0000010
 1,-0.00000049,-0.00000005,-0.00000145,0.00000006,-0.00000014,0.,0.0000
 0004,0.,-0.00000029\\\@


 Just remember, when you're over the hill, you begin to pick up speed.
 -- Charles Schulz
 Job cpu time:       2 days  7 hours 16 minutes 28.6 seconds.
 Elapsed time:       0 days  1 hours 26 minutes  2.5 seconds.
 File lengths (MBytes):  RWF=  83473 Int=      0 D2E=      0 Chk=     18 Scr=      1
 Normal termination of Gaussian 16 at Wed Jun  5 23:49:38 2019.
