 Entering Gaussian System, Link 0=g16
 Initial command:
 /ichec/packages/gaussian/16b01/l1.exe "/localscratch/339753/Gau-13376.inp" -scrdir="/localscratch/339753/"
 Entering Link 1 = /ichec/packages/gaussian/16b01/l1.exe PID=     13538.
  
 Copyright (c) 1988-2017, Gaussian, Inc.  All Rights Reserved.
  
 This is part of the Gaussian(R) 16 program.  It is based on
 the Gaussian(R) 09 system (copyright 2009, Gaussian, Inc.),
 the Gaussian(R) 03 system (copyright 2003, Gaussian, Inc.),
 the Gaussian(R) 98 system (copyright 1998, Gaussian, Inc.),
 the Gaussian(R) 94 system (copyright 1995, Gaussian, Inc.),
 the Gaussian 92(TM) system (copyright 1992, Gaussian, Inc.),
 the Gaussian 90(TM) system (copyright 1990, Gaussian, Inc.),
 the Gaussian 88(TM) system (copyright 1988, Gaussian, Inc.),
 the Gaussian 86(TM) system (copyright 1986, Carnegie Mellon
 University), and the Gaussian 82(TM) system (copyright 1983,
 Carnegie Mellon University). Gaussian is a federally registered
 trademark of Gaussian, Inc.
  
 This software contains proprietary and confidential information,
 including trade secrets, belonging to Gaussian, Inc.
  
 This software is provided under written license and may be
 used, copied, transmitted, or stored only in accord with that
 written license.
  
 The following legend is applicable only to US Government
 contracts under FAR:
  
                    RESTRICTED RIGHTS LEGEND
  
 Use, reproduction and disclosure by the US Government is
 subject to restrictions as set forth in subparagraphs (a)
 and (c) of the Commercial Computer Software - Restricted
 Rights clause in FAR 52.227-19.
  
 Gaussian, Inc.
 340 Quinnipiac St., Bldg. 40, Wallingford CT 06492
  
  
 ---------------------------------------------------------------
 Warning -- This program may not be used in any manner that
 competes with the business of Gaussian, Inc. or will provide
 assistance to any competitor of Gaussian, Inc.  The licensee
 of this program is prohibited from giving any competitor of
 Gaussian, Inc. access to this program.  By using this program,
 the user acknowledges that Gaussian, Inc. is engaged in the
 business of creating and licensing software in the field of
 computational chemistry and represents and warrants to the
 licensee that it is not a competitor of Gaussian, Inc. and that
 it will not use this program in any manner prohibited above.
 ---------------------------------------------------------------
  

 Cite this work as:
 Gaussian 16, Revision B.01,
 M. J. Frisch, G. W. Trucks, H. B. Schlegel, G. E. Scuseria, 
 M. A. Robb, J. R. Cheeseman, G. Scalmani, V. Barone, 
 G. A. Petersson, H. Nakatsuji, X. Li, M. Caricato, A. V. Marenich, 
 J. Bloino, B. G. Janesko, R. Gomperts, B. Mennucci, H. P. Hratchian, 
 J. V. Ortiz, A. F. Izmaylov, J. L. Sonnenberg, D. Williams-Young, 
 F. Ding, F. Lipparini, F. Egidi, J. Goings, B. Peng, A. Petrone, 
 T. Henderson, D. Ranasinghe, V. G. Zakrzewski, J. Gao, N. Rega, 
 G. Zheng, W. Liang, M. Hada, M. Ehara, K. Toyota, R. Fukuda, 
 J. Hasegawa, M. Ishida, T. Nakajima, Y. Honda, O. Kitao, H. Nakai, 
 T. Vreven, K. Throssell, J. A. Montgomery, Jr., J. E. Peralta, 
 F. Ogliaro, M. J. Bearpark, J. J. Heyd, E. N. Brothers, K. N. Kudin, 
 V. N. Staroverov, T. A. Keith, R. Kobayashi, J. Normand, 
 K. Raghavachari, A. P. Rendell, J. C. Burant, S. S. Iyengar, 
 J. Tomasi, M. Cossi, J. M. Millam, M. Klene, C. Adamo, R. Cammi, 
 J. W. Ochterski, R. L. Martin, K. Morokuma, O. Farkas, 
 J. B. Foresman, and D. J. Fox, Gaussian, Inc., Wallingford CT, 2016.
 
 ******************************************
 Gaussian 16:  ES64L-G16RevB.01 20-Dec-2017
                 4-Jun-2019 
 ******************************************
 %mem=80GB
 %nproc=40
 Will use up to   40 processors via shared memory.
 ----------------------------------------------------------------------
 # opt=(calcfc,ts,noeigentest,maxcyc=500) freq=noraman uB2PLYPD3/cc-pvt
 z
 ----------------------------------------------------------------------
 1/5=1,6=500,10=4,11=1,18=20,38=1/1,3;
 2/9=110,12=2,17=6,18=5,40=1/2;
 3/5=16,6=1,11=2,25=1,30=1,71=2,74=-60,116=2,140=1/1,2,3;
 4//1;
 5/5=2,38=5/2;
 8/6=3,8=1,10=1,19=11,30=-1/1;
 9/15=3,16=-3/6;
 11/6=1,8=1,15=11,17=12,24=-1,27=1,28=-2,29=300,32=6,42=3/1,2,10;
 10/6=2,21=1/2;
 8/6=4,8=1,10=1,19=11,30=-1/11,4;
 10/5=1,20=4/2;
 11/12=2,14=11,16=1,17=2,28=-2,42=3,76=2/2,10,12;
 6/7=2,8=2,9=2,10=2/1;
 7/10=1,12=2,25=1,44=2/1,2,3,16;
 1/5=1,6=500,10=4,11=1,18=20/3(2);
 2/9=110/2;
 99//99;
 2/9=110/2;
 3/5=16,6=1,11=2,25=1,30=1,71=1,74=-60,116=2/1,2,3;
 4/5=5,16=3,69=1/1;
 5/5=2,38=5/2;
 8/6=4,10=1/1;
 9/15=2,16=-3/6;
 10/5=1/2;
 7/12=2/1,2,3,16;
 1/5=1,6=500,11=1,18=20/3(-8);
 2/9=110/2;
 6/7=2,8=2,9=2,10=2/1;
 99/9=10/99;
 -------------------
 Title Card Required
 -------------------
 Symbolic Z-matrix:
 Charge =  0 Multiplicity = 2
 C                    -0.43072   0.65428   0.44074 
 C                    -1.75786   0.65428   0.44074 
 H                     0.13563   1.57465   0.4407 
 C                     1.90391  -1.60213   2.64937 
 H                     2.24805  -0.57067   2.73801 
 H                     1.65591  -1.99558   3.63356 
 H                     2.68246  -2.21306   2.19354 
 O                     0.69786  -1.68454   1.91541 
 O                     1.0175   -1.22604   0.5733 
 H                     0.36454  -0.27615   0.52689 
 C                    -2.5649   -0.65732   0.44068 
 H                    -2.00773  -1.41895   0.94505 
 H                    -2.75181  -0.96104  -0.56814 
 H                    -2.27983   1.58832   0.44078 
 C                    -3.90482  -0.43561   1.16666 
 H                    -3.78453   0.32017   1.91447 
 H                    -4.64578  -0.12388   0.46046 
 H                    -4.21515  -1.34908   1.62945 
 
 Add virtual bond connecting atoms H10        and O9         Dist= 2.18D+00.

 GradGradGradGradGradGradGradGradGradGradGradGradGradGradGradGradGradGrad
 Berny optimization.
 Initialization pass.
                           ----------------------------
                           !    Initial Parameters    !
                           ! (Angstroms and Degrees)  !
 --------------------------                            --------------------------
 ! Name  Definition              Value          Derivative Info.                !
 --------------------------------------------------------------------------------
 ! R1    R(1,2)                  1.3271         calculate D2E/DX2 analytically  !
 ! R2    R(1,3)                  1.0807         calculate D2E/DX2 analytically  !
 ! R3    R(1,10)                 1.227          calculate D2E/DX2 analytically  !
 ! R4    R(2,11)                 1.54           calculate D2E/DX2 analytically  !
 ! R5    R(2,14)                 1.07           calculate D2E/DX2 analytically  !
 ! R6    R(4,5)                  1.091          calculate D2E/DX2 analytically  !
 ! R7    R(4,6)                  1.0885         calculate D2E/DX2 analytically  !
 ! R8    R(4,7)                  1.0896         calculate D2E/DX2 analytically  !
 ! R9    R(4,8)                  1.4142         calculate D2E/DX2 analytically  !
 ! R10   R(8,9)                  1.4538         calculate D2E/DX2 analytically  !
 ! R11   R(9,10)                 1.1536         calculate D2E/DX2 analytically  !
 ! R12   R(11,12)                1.07           calculate D2E/DX2 analytically  !
 ! R13   R(11,13)                1.07           calculate D2E/DX2 analytically  !
 ! R14   R(11,15)                1.54           calculate D2E/DX2 analytically  !
 ! R15   R(15,16)                1.07           calculate D2E/DX2 analytically  !
 ! R16   R(15,17)                1.07           calculate D2E/DX2 analytically  !
 ! R17   R(15,18)                1.07           calculate D2E/DX2 analytically  !
 ! A1    A(2,1,3)              121.6058         calculate D2E/DX2 analytically  !
 ! A2    A(2,1,10)             130.4009         calculate D2E/DX2 analytically  !
 ! A3    A(3,1,10)             107.8272         calculate D2E/DX2 analytically  !
 ! A4    A(1,2,11)             121.6043         calculate D2E/DX2 analytically  !
 ! A5    A(1,2,14)             119.1978         calculate D2E/DX2 analytically  !
 ! A6    A(11,2,14)            119.1978         calculate D2E/DX2 analytically  !
 ! A7    A(5,4,6)              109.8854         calculate D2E/DX2 analytically  !
 ! A8    A(5,4,7)              109.7989         calculate D2E/DX2 analytically  !
 ! A9    A(5,4,8)              111.4858         calculate D2E/DX2 analytically  !
 ! A10   A(6,4,7)              109.7781         calculate D2E/DX2 analytically  !
 ! A11   A(6,4,8)              104.7067         calculate D2E/DX2 analytically  !
 ! A12   A(7,4,8)              111.0739         calculate D2E/DX2 analytically  !
 ! A13   A(4,8,9)              105.8563         calculate D2E/DX2 analytically  !
 ! A14   A(8,9,10)              99.9257         calculate D2E/DX2 analytically  !
 ! A15   A(2,11,12)            109.4712         calculate D2E/DX2 analytically  !
 ! A16   A(2,11,13)            109.4712         calculate D2E/DX2 analytically  !
 ! A17   A(2,11,15)            109.4712         calculate D2E/DX2 analytically  !
 ! A18   A(12,11,13)           109.4712         calculate D2E/DX2 analytically  !
 ! A19   A(12,11,15)           109.4712         calculate D2E/DX2 analytically  !
 ! A20   A(13,11,15)           109.4712         calculate D2E/DX2 analytically  !
 ! A21   A(11,15,16)           109.4712         calculate D2E/DX2 analytically  !
 ! A22   A(11,15,17)           109.4712         calculate D2E/DX2 analytically  !
 ! A23   A(11,15,18)           109.4712         calculate D2E/DX2 analytically  !
 ! A24   A(16,15,17)           109.4712         calculate D2E/DX2 analytically  !
 ! A25   A(16,15,18)           109.4712         calculate D2E/DX2 analytically  !
 ! A26   A(17,15,18)           109.4712         calculate D2E/DX2 analytically  !
 ! A27   L(1,10,9,12,-1)       174.3762         calculate D2E/DX2 analytically  !
 ! A28   L(1,10,9,12,-2)       177.2223         calculate D2E/DX2 analytically  !
 ! D1    D(3,1,2,11)           179.9948         calculate D2E/DX2 analytically  !
 ! D2    D(3,1,2,14)            -0.0052         calculate D2E/DX2 analytically  !
 ! D3    D(10,1,2,11)           -5.2925         calculate D2E/DX2 analytically  !
 ! D4    D(10,1,2,14)          174.7075         calculate D2E/DX2 analytically  !
 ! D5    D(2,1,9,8)            -65.7114         calculate D2E/DX2 analytically  !
 ! D6    D(3,1,9,8)            110.6189         calculate D2E/DX2 analytically  !
 ! D7    D(1,2,11,12)           29.9999         calculate D2E/DX2 analytically  !
 ! D8    D(1,2,11,13)          -90.0001         calculate D2E/DX2 analytically  !
 ! D9    D(1,2,11,15)          149.9999         calculate D2E/DX2 analytically  !
 ! D10   D(14,2,11,12)        -150.0001         calculate D2E/DX2 analytically  !
 ! D11   D(14,2,11,13)          89.9999         calculate D2E/DX2 analytically  !
 ! D12   D(14,2,11,15)         -30.0001         calculate D2E/DX2 analytically  !
 ! D13   D(5,4,8,9)             63.9852         calculate D2E/DX2 analytically  !
 ! D14   D(6,4,8,9)           -177.2485         calculate D2E/DX2 analytically  !
 ! D15   D(7,4,8,9)            -58.8202         calculate D2E/DX2 analytically  !
 ! D16   D(4,8,9,10)          -115.5378         calculate D2E/DX2 analytically  !
 ! D17   D(2,11,15,16)         -29.7626         calculate D2E/DX2 analytically  !
 ! D18   D(2,11,15,17)          90.2374         calculate D2E/DX2 analytically  !
 ! D19   D(2,11,15,18)        -149.7626         calculate D2E/DX2 analytically  !
 ! D20   D(12,11,15,16)         90.2374         calculate D2E/DX2 analytically  !
 ! D21   D(12,11,15,17)       -149.7626         calculate D2E/DX2 analytically  !
 ! D22   D(12,11,15,18)        -29.7626         calculate D2E/DX2 analytically  !
 ! D23   D(13,11,15,16)       -149.7626         calculate D2E/DX2 analytically  !
 ! D24   D(13,11,15,17)        -29.7626         calculate D2E/DX2 analytically  !
 ! D25   D(13,11,15,18)         90.2374         calculate D2E/DX2 analytically  !
 --------------------------------------------------------------------------------
 Trust Radius=3.00D-01 FncErr=1.00D-07 GrdErr=1.00D-07 EigMax=2.50D+02 EigMin=1.00D-04
 Number of steps in this run=    108 maximum allowed number of steps=    108.
 Search for a saddle point of order  1.
 GradGradGradGradGradGradGradGradGradGradGradGradGradGradGradGradGradGrad

                          Input orientation:                          
 ---------------------------------------------------------------------
 Center     Atomic      Atomic             Coordinates (Angstroms)
 Number     Number       Type             X           Y           Z
 ---------------------------------------------------------------------
      1          6           0       -0.430719    0.654275    0.440743
      2          6           0       -1.757857    0.654276    0.440742
      3          1           0        0.135628    1.574650    0.440701
      4          6           0        1.903913   -1.602129    2.649370
      5          1           0        2.248051   -0.570674    2.738009
      6          1           0        1.655907   -1.995578    3.633556
      7          1           0        2.682461   -2.213062    2.193545
      8          8           0        0.697859   -1.684538    1.915406
      9          8           0        1.017501   -1.226037    0.573296
     10          1           0        0.364545   -0.276149    0.526892
     11          6           0       -2.564895   -0.657322    0.440682
     12          1           0       -2.007729   -1.418951    0.945050
     13          1           0       -2.751806   -0.961045   -0.568137
     14          1           0       -2.279831    1.588323    0.440784
     15          6           0       -3.904823   -0.435611    1.166655
     16          1           0       -3.784526    0.320171    1.914467
     17          1           0       -4.645780   -0.123880    0.460463
     18          1           0       -4.215153   -1.349077    1.629445
 ---------------------------------------------------------------------
                    Distance matrix (angstroms):
                    1          2          3          4          5
     1  C    0.000000
     2  C    1.327138   0.000000
     3  H    1.080666   2.105320   0.000000
     4  C    3.926818   4.835076   4.254054   0.000000
     5  H    3.735470   4.777576   3.787132   1.090958   0.000000
     6  H    4.644328   5.373041   5.025147   1.088545   1.784094
     7  H    4.581029   5.568695   4.889333   1.089566   1.783983
     8  O    2.986363   3.698003   3.621210   1.414235   2.078573
     9  O    2.377075   3.354961   2.939240   2.288505   2.574827
    10  H    1.227011   2.318987   1.866893   2.938161   2.919483
    11  C    2.504994   1.540000   3.503502   5.073579   5.333823
    12  H    2.653215   2.148263   3.716180   4.270738   4.695310
    13  H    3.002423   2.148263   3.973006   5.695530   6.006793
    14  H    2.071632   1.070000   2.415498   5.706185   5.517266
    15  C    3.712708   2.514809   4.570930   6.107423   6.351791
    16  H    3.678520   2.528019   4.371877   6.049269   6.153357
    17  H    4.286333   2.990989   5.074175   7.062224   7.274046
    18  H    4.443914   3.385963   5.374996   6.208643   6.603622
                    6          7          8          9         10
     6  H    0.000000
     7  H    1.781782   0.000000
     8  O    1.991643   2.072521   0.000000
     9  O    3.219464   2.524186   1.453841   0.000000
    10  H    3.778282   3.449942   2.005649   1.153600   0.000000
    11  C    5.458987   5.746964   3.724989   3.629681   2.955392
    12  H    4.580697   4.918051   2.886578   3.054085   2.666183
    13  H    6.176765   6.222997   4.311800   3.947249   3.373398
    14  H    6.207106   6.492075   4.663986   4.337117   3.236726
    15  C    6.280192   6.899720   4.827538   5.020570   4.319980
    16  H    6.157618   6.951048   4.910257   5.220054   4.415399
    17  H    7.299522   7.814817   5.753867   5.770635   5.013078
    18  H    6.237288   6.974364   4.932747   5.339593   4.831193
                   11         12         13         14         15
    11  C    0.000000
    12  H    1.070000   0.000000
    13  H    1.070000   1.747303   0.000000
    14  H    2.263666   3.061375   2.782078   0.000000
    15  C    1.540000   2.148263   2.148263   2.695143   0.000000
    16  H    2.148263   2.668580   2.978481   2.458467   1.070000
    17  H    2.148263   2.978481   2.312142   2.920572   1.070000
    18  H    2.148263   2.312142   2.668580   3.713045   1.070000
                   16         17         18
    16  H    0.000000
    17  H    1.747303   0.000000
    18  H    1.747303   1.747303   0.000000
 Stoichiometry    C5H11O2(2)
 Framework group  C1[X(C5H11O2)]
 Deg. of freedom    48
 Full point group                 C1      NOp   1
 Largest Abelian subgroup         C1      NOp   1
 Largest concise Abelian subgroup C1      NOp   1
                         Standard orientation:                         
 ---------------------------------------------------------------------
 Center     Atomic      Atomic             Coordinates (Angstroms)
 Number     Number       Type             X           Y           Z
 ---------------------------------------------------------------------
      1          6           0        0.282190    1.449098   -0.283342
      2          6           0        1.517411    0.964571   -0.310847
      3          1           0        0.003040    2.321269   -0.857130
      4          6           0       -3.044763   -0.625304   -0.502756
      5          1           0       -3.109094    0.194027   -1.220214
      6          1           0       -3.163286   -1.577583   -1.016612
      7          1           0       -3.821275   -0.515356    0.253613
      8          8           0       -1.762961   -0.694681    0.090735
      9          8           0       -1.605086    0.540727    0.840731
     10          1           0       -0.729965    1.016270    0.258651
     11          6           0        1.915205   -0.278246    0.506934
     12          1           0        1.066724   -0.921288    0.614058
     13          1           0        2.256787    0.025683    1.474327
     14          1           0        2.254869    1.449238   -0.915954
     15          6           0        3.042557   -1.032994   -0.221786
     16          1           0        2.949305   -0.881332   -1.276870
     17          1           0        3.990795   -0.663918    0.109166
     18          1           0        2.970862   -2.078133   -0.003973
 ---------------------------------------------------------------------
 Rotational constants (GHZ):           4.4482227           1.0219188           0.9173487
 Standard basis: CC-pVTZ (5D, 7F)
 There are   410 symmetry adapted cartesian basis functions of A   symmetry.
 There are   364 symmetry adapted basis functions of A   symmetry.
   364 basis functions,   551 primitive gaussians,   410 cartesian basis functions
    29 alpha electrons       28 beta electrons
       nuclear repulsion energy       297.6299712153 Hartrees.
 NAtoms=   18 NActive=   18 NUniq=   18 SFac= 1.00D+00 NAtFMM=   60 NAOKFM=F Big=F
 Integral buffers will be    131072 words long.
 Raffenetti 2 integral format.
 Two-electron integral symmetry is turned on.
 Nuclear repulsion after empirical dispersion term =      297.6210537608 Hartrees.
 One-electron integrals computed using PRISM.
 NBasis=   364 RedAO= T EigKep=  3.80D-04  NBF=   364
 NBsUse=   364 1.00D-06 EigRej= -1.00D+00 NBFU=   364
 ExpMin= 1.03D-01 ExpMax= 1.53D+04 ExpMxC= 5.22D+02 IAcc=3 IRadAn=         5 AccDes= 0.00D+00
 Harris functional with IExCor=  419 and IRadAn=       5 diagonalized for initial guess.
 HarFok:  IExCor=  419 AccDes= 0.00D+00 IRadAn=         5 IDoV= 1 UseB2=F ITyADJ=14
 ICtDFT=  3500011 ScaDFX=  1.000000  1.000000  1.000000  1.000000
 FoFCou: FMM=F IPFlag=           0 FMFlag=      100000 FMFlg1=           0
         NFxFlg=           0 DoJE=T BraDBF=F KetDBF=T FulRan=T
         wScrn=  0.000000 ICntrl=       500 IOpCl=  0 I1Cent=   200000004 NGrid=           0
         NMat0=    1 NMatS0=      1 NMatT0=    0 NMatD0=    1 NMtDS0=    0 NMtDT0=    0
 Petite list used in FoFCou.
 Initial guess <Sx>= 0.0000 <Sy>= 0.0000 <Sz>= 0.5000 <S**2>= 0.7500 S= 0.5000
 Requested convergence on RMS density matrix=1.00D-08 within 128 cycles.
 Requested convergence on MAX density matrix=1.00D-06.
 Requested convergence on             energy=1.00D-06.
 No special actions if energy rises.
 Integral accuracy reduced to 1.0D-05 until final iterations.
 Initial convergence to 1.0D-05 achieved.  Increase integral accuracy.
 SCF Done:  E(UB2PLYPD3) =  -346.781143907     A.U. after   24 cycles
            NFock= 24  Conv=0.89D-08     -V/T= 2.0039
 <Sx>= 0.0000 <Sy>= 0.0000 <Sz>= 0.5000 <S**2>= 0.7787 S= 0.5143
 <L.S>=  0.00000000000    
 Annihilation of the first spin contaminant:
 S**2 before annihilation     0.7787,   after     0.7506
 DoSCS=T DFT=T ScalE2(SS,OS)=  0.270000  0.270000
 ExpMin= 1.03D-01 ExpMax= 1.53D+04 ExpMxC= 5.22D+02 IAcc=3 IRadAn=         5 AccDes= 0.00D+00
 HarFok:  IExCor=  205 AccDes= 0.00D+00 IRadAn=         5 IDoV=-2 UseB2=F ITyADJ=14
 ICtDFT= 12500011 ScaDFX=  1.000000  1.000000  1.000000  1.000000
 Range of M.O.s used for correlation:     8   364
 NBasis=   364 NAE=    29 NBE=    28 NFC=     7 NFV=     0
 NROrb=    357 NOA=    22 NOB=    21 NVA=   335 NVB=   336

 **** Warning!!: The largest alpha MO coefficient is  0.11981721D+02


 **** Warning!!: The largest beta MO coefficient is  0.11981755D+02

 DoSCS=T DFT=T ScalE2(SS,OS)=  0.270000  0.270000
 Disk-based method using ON**2 memory for 22 occupieds at a time.
 Permanent disk used for amplitudes=   135386230 words.
 Estimated scratch disk usage=  2442010864 words.
 Actual    scratch disk usage=  2361309424 words.
 JobTyp=2 Pass  1:  I=   8 to  29 NPSUse= 40 ParTrn=T ParDer=T DoDerP=T.
 (rs|ai) integrals will be sorted in core.
 Actual    scratch disk usage=  2361309424 words.
 JobTyp=3 Pass  1:  I=   8 to  28 NPSUse= 40 ParTrn=T ParDer=T DoDerP=T.
 (rs|ai) integrals will be sorted in core.
 Spin components of T(2) and E(2):
     alpha-alpha T2 =       0.7453993075D-01 E2=     -0.5303399496D-01
     alpha-beta  T2 =       0.4667768960D+00 E2=     -0.3348916862D+00
     beta-beta   T2 =       0.8159107427D-01 E2=     -0.5223278886D-01
 (S**2,0)=  0.77874D+00           (S**2,1)=  0.74968D+00
 Scaling Projection term by:   0.270000
 E(PUHF)=      -0.34678818978D+03        E(PMP2)=      -0.34722225465D+03
 E2(B2PLYPD3) =    -0.4401584700D+00 E(B2PLYPD3) =    -0.34722130237704D+03
 G2DrvN: will do    19 centers at a time, making    1 passes.
 Calling FoFCou, ICntrl=  3107 FMM=F I1Cent=   0 AccDes= 0.00D+00.
 End of G2Drv F.D. properties file   721 does not exist.
 End of G2Drv F.D. properties file   722 does not exist.
 End of G2Drv F.D. properties file   788 does not exist.
          IDoAtm=111111111111111111
          Differentiating once with respect to electric field.
                with respect to dipole field.
          Differentiating once with respect to nuclear coordinates.
 Keep R1 and R2 ints in memory in canonical form, NReq=4459304659.
          There are    57 degrees of freedom in the 1st order CPHF.  IDoFFX=6 NUNeed=    57.
     54 vectors produced by pass  0 Test12= 3.35D-14 1.75D-09 XBig12= 8.95D+01 3.31D+00.
 AX will form    54 AO Fock derivatives at one time.
     54 vectors produced by pass  1 Test12= 3.35D-14 1.75D-09 XBig12= 8.26D+00 5.39D-01.
     54 vectors produced by pass  2 Test12= 3.35D-14 1.75D-09 XBig12= 4.57D-01 1.23D-01.
     54 vectors produced by pass  3 Test12= 3.35D-14 1.75D-09 XBig12= 7.33D-03 1.05D-02.
     54 vectors produced by pass  4 Test12= 3.35D-14 1.75D-09 XBig12= 8.72D-05 7.98D-04.
     54 vectors produced by pass  5 Test12= 3.35D-14 1.75D-09 XBig12= 9.33D-07 9.61D-05.
     52 vectors produced by pass  6 Test12= 3.35D-14 1.75D-09 XBig12= 8.24D-09 9.27D-06.
     23 vectors produced by pass  7 Test12= 3.35D-14 1.75D-09 XBig12= 5.01D-11 6.55D-07.
      4 vectors produced by pass  8 Test12= 3.35D-14 1.75D-09 XBig12= 3.25D-13 5.21D-08.
      3 vectors produced by pass  9 Test12= 3.35D-14 1.75D-09 XBig12= 2.72D-15 4.89D-09.
 InvSVY:  IOpt=1 It=  1 EMax= 5.33D-15
 Solved reduced A of dimension   406 with    57 vectors.
 End of Minotr F.D. properties file   721 does not exist.
 End of Minotr F.D. properties file   722 does not exist.
 End of Minotr F.D. properties file   788 does not exist.
 MDV= 10737418240.
 DoSCS=T DFT=T ScalE2(SS,OS)=  0.270000  0.270000
 Form MO integral derivatives with frozen-active canonical formalism.
 Discarding MO integrals.
 Reordered first order wavefunction length =    545006183
 In DefCFB: NBatch=  1 ICI= 29 ICA=336 LFMax= 68
            Large arrays: LIAPS= 11415666080 LIARS=  1957569600 words.
 In DefCFB: NBatch=  1 ICI= 29 ICA=336 LFMax= 68
            Large arrays: LIAPS= 11415666080 LIARS=  1957569600 words.
 Semi-Direct transformation.
 ModeAB=           4 MOrb=            29 LenV=   10733580177
 LASXX=    664627481 LTotXX=   664627481 LenRXX=  1338891981
 LTotAB=   674264500 MaxLAS=   745042480 LenRXY=           0
 NonZer=  2003519462 LenScr=  3017065472 LnRSAI=   745042480
 LnScr1=  1121946624 LExtra=           0 Total=   6222946557
 MaxDsk=          -1 SrtSym=           T ITran=            4
 JobTyp=1 Pass  1:  I=   1 to  29.
 (rs|ai) integrals will be sorted in core.
 ModeAB=           4 MOrb=            28 LenV=   10733580177
 LASXX=    642894399 LTotXX=   642894399 LenRXX=  1195226319
 LTotAB=   552331920 MaxLAS=   719351360 LenRXY=           0
 NonZer=  1838120718 LenScr=  2767993856 LnRSAI=   719351360
 LnScr1=  1083258880 LExtra=           0 Total=   5765830415
 MaxDsk=          -1 SrtSym=           T ITran=            4
 JobTyp=2 Pass  1:  I=   1 to  28.
 (rs|ai) integrals will be sorted in core.
 SymMOI:  orbitals are not symmetric.
 DoSCS=T DFT=T ScalE2(SS,OS)=  0.270000  0.270000
 Spin components of T(2) and E(2):
     alpha-alpha T2 =       0.7453993075D-01 E2=     -0.5303399496D-01
     alpha-beta  T2 =       0.4667768960D+00 E2=     -0.3348916862D+00
     beta-beta   T2 =       0.8159107427D-01 E2=     -0.5223278886D-01
 E2(B2PLYPD3) =    -0.4401584700D+00 E(B2PLYPD3) =    -0.34722130237704D+03
 (S**2,0)=  0.77874D+00           (S**2,1)=  0.74968D+00
 Scaling Projection term by:   0.270000
 E(PUHF)=      -0.34678818978D+03        E(PMP2)=      -0.34722225465D+03
          IDoAtm=111111111111111111
          Differentiating once with respect to electric field.
                with respect to dipole field.
          Differentiating once with respect to nuclear coordinates.
 Keep R1 and R2 ints in memory in canonical form, NReq=4459439664.
          There are     1 degrees of freedom in the 1st order CPHF.  IDoFFX=0 NUNeed=     1.
 LinEq1:  Iter=  0 NonCon=     1 RMS=8.33D-04 Max=4.56D-02 NDo=     1
 AX will form     1 AO Fock derivatives at one time.
 LinEq1:  Iter=  1 NonCon=     1 RMS=2.60D-04 Max=8.00D-03 NDo=     1
 LinEq1:  Iter=  2 NonCon=     1 RMS=1.81D-04 Max=7.15D-03 NDo=     1
 LinEq1:  Iter=  3 NonCon=     1 RMS=1.16D-04 Max=4.37D-03 NDo=     1
 LinEq1:  Iter=  4 NonCon=     1 RMS=8.65D-05 Max=3.74D-03 NDo=     1
 LinEq1:  Iter=  5 NonCon=     1 RMS=3.99D-05 Max=1.59D-03 NDo=     1
 LinEq1:  Iter=  6 NonCon=     1 RMS=2.35D-05 Max=7.90D-04 NDo=     1
 LinEq1:  Iter=  7 NonCon=     1 RMS=8.66D-06 Max=3.40D-04 NDo=     1
 LinEq1:  Iter=  8 NonCon=     1 RMS=5.57D-06 Max=3.60D-04 NDo=     1
 LinEq1:  Iter=  9 NonCon=     1 RMS=3.30D-06 Max=1.45D-04 NDo=     1
 LinEq1:  Iter= 10 NonCon=     1 RMS=1.44D-06 Max=4.15D-05 NDo=     1
 LinEq1:  Iter= 11 NonCon=     1 RMS=7.11D-07 Max=2.66D-05 NDo=     1
 LinEq1:  Iter= 12 NonCon=     1 RMS=3.10D-07 Max=1.47D-05 NDo=     1
 LinEq1:  Iter= 13 NonCon=     1 RMS=1.25D-07 Max=4.91D-06 NDo=     1
 LinEq1:  Iter= 14 NonCon=     1 RMS=4.07D-08 Max=1.62D-06 NDo=     1
 LinEq1:  Iter= 15 NonCon=     1 RMS=1.54D-08 Max=5.87D-07 NDo=     1
 LinEq1:  Iter= 16 NonCon=     1 RMS=8.08D-09 Max=4.44D-07 NDo=     1
 LinEq1:  Iter= 17 NonCon=     1 RMS=3.38D-09 Max=1.18D-07 NDo=     1
 LinEq1:  Iter= 18 NonCon=     1 RMS=1.30D-09 Max=4.15D-08 NDo=     1
 LinEq1:  Iter= 19 NonCon=     1 RMS=4.47D-10 Max=1.26D-08 NDo=     1
 LinEq1:  Iter= 20 NonCon=     1 RMS=1.65D-10 Max=3.61D-09 NDo=     1
 LinEq1:  Iter= 21 NonCon=     1 RMS=7.75D-11 Max=1.98D-09 NDo=     1
 LinEq1:  Iter= 22 NonCon=     0 RMS=2.74D-11 Max=5.82D-10 NDo=     1
 Linear equations converged to 1.000D-10 1.000D-09 after    22 iterations.
 End of Minotr F.D. properties file   721 does not exist.
 End of Minotr F.D. properties file   722 does not exist.
 End of Minotr F.D. properties file   788 does not exist.
 Symmetrizing basis deriv contribution to polar:
 IMax=3 JMax=2 DiffMx= 0.00D+00
 G2DrvN: will do    19 centers at a time, making    1 passes.
 Calling FoFCou, ICntrl=  3107 FMM=F I1Cent=   0 AccDes= 0.00D+00.
 End of G2Drv F.D. properties file   721 does not exist.
 End of G2Drv F.D. properties file   722 does not exist.
 End of G2Drv F.D. properties file   788 does not exist.
 DoSCS=T DFT=T ScalE2(SS,OS)=  0.270000  0.270000
 R2 and R3 integrals will be kept in memory, NReq=  7133702340.
 DD1Dir will call FoFMem   1 times, MxPair=      2408
 NAB=   812 NAA=   406 NBB=   378.
 Discarding MO integrals.

 **********************************************************************

            Population analysis using the SCF Density.

 **********************************************************************

 Orbital symmetries:
 Alpha Orbitals:
       Occupied  (A) (A) (A) (A) (A) (A) (A) (A) (A) (A) (A) (A)
                 (A) (A) (A) (A) (A) (A) (A) (A) (A) (A) (A) (A)
                 (A) (A) (A) (A) (A)
       Virtual   (A) (A) (A) (A) (A) (A) (A) (A) (A) (A) (A) (A)
                 (A) (A) (A) (A) (A) (A) (A) (A) (A) (A) (A) (A)
                 (A) (A) (A) (A) (A) (A) (A) (A) (A) (A) (A) (A)
                 (A) (A) (A) (A) (A) (A) (A) (A) (A) (A) (A) (A)
                 (A) (A) (A) (A) (A) (A) (A) (A) (A) (A) (A) (A)
                 (A) (A) (A) (A) (A) (A) (A) (A) (A) (A) (A) (A)
                 (A) (A) (A) (A) (A) (A) (A) (A) (A) (A) (A) (A)
                 (A) (A) (A) (A) (A) (A) (A) (A) (A) (A) (A) (A)
                 (A) (A) (A) (A) (A) (A) (A) (A) (A) (A) (A) (A)
                 (A) (A) (A) (A) (A) (A) (A) (A) (A) (A) (A) (A)
                 (A) (A) (A) (A) (A) (A) (A) (A) (A) (A) (A) (A)
                 (A) (A) (A) (A) (A) (A) (A) (A) (A) (A) (A) (A)
                 (A) (A) (A) (A) (A) (A) (A) (A) (A) (A) (A) (A)
                 (A) (A) (A) (A) (A) (A) (A) (A) (A) (A) (A) (A)
                 (A) (A) (A) (A) (A) (A) (A) (A) (A) (A) (A) (A)
                 (A) (A) (A) (A) (A) (A) (A) (A) (A) (A) (A) (A)
                 (A) (A) (A) (A) (A) (A) (A) (A) (A) (A) (A) (A)
                 (A) (A) (A) (A) (A) (A) (A) (A) (A) (A) (A) (A)
                 (A) (A) (A) (A) (A) (A) (A) (A) (A) (A) (A) (A)
                 (A) (A) (A) (A) (A) (A) (A) (A) (A) (A) (A) (A)
                 (A) (A) (A) (A) (A) (A) (A) (A) (A) (A) (A) (A)
                 (A) (A) (A) (A) (A) (A) (A) (A) (A) (A) (A) (A)
                 (A) (A) (A) (A) (A) (A) (A) (A) (A) (A) (A) (A)
                 (A) (A) (A) (A) (A) (A) (A) (A) (A) (A) (A) (A)
                 (A) (A) (A) (A) (A) (A) (A) (A) (A) (A) (A) (A)
                 (A) (A) (A) (A) (A) (A) (A) (A) (A) (A) (A) (A)
                 (A) (A) (A) (A) (A) (A) (A) (A) (A) (A) (A) (A)
                 (A) (A) (A) (A) (A) (A) (A) (A) (A) (A) (A)
 Beta  Orbitals:
       Occupied  (A) (A) (A) (A) (A) (A) (A) (A) (A) (A) (A) (A)
                 (A) (A) (A) (A) (A) (A) (A) (A) (A) (A) (A) (A)
                 (A) (A) (A) (A)
       Virtual   (A) (A) (A) (A) (A) (A) (A) (A) (A) (A) (A) (A)
                 (A) (A) (A) (A) (A) (A) (A) (A) (A) (A) (A) (A)
                 (A) (A) (A) (A) (A) (A) (A) (A) (A) (A) (A) (A)
                 (A) (A) (A) (A) (A) (A) (A) (A) (A) (A) (A) (A)
                 (A) (A) (A) (A) (A) (A) (A) (A) (A) (A) (A) (A)
                 (A) (A) (A) (A) (A) (A) (A) (A) (A) (A) (A) (A)
                 (A) (A) (A) (A) (A) (A) (A) (A) (A) (A) (A) (A)
                 (A) (A) (A) (A) (A) (A) (A) (A) (A) (A) (A) (A)
                 (A) (A) (A) (A) (A) (A) (A) (A) (A) (A) (A) (A)
                 (A) (A) (A) (A) (A) (A) (A) (A) (A) (A) (A) (A)
                 (A) (A) (A) (A) (A) (A) (A) (A) (A) (A) (A) (A)
                 (A) (A) (A) (A) (A) (A) (A) (A) (A) (A) (A) (A)
                 (A) (A) (A) (A) (A) (A) (A) (A) (A) (A) (A) (A)
                 (A) (A) (A) (A) (A) (A) (A) (A) (A) (A) (A) (A)
                 (A) (A) (A) (A) (A) (A) (A) (A) (A) (A) (A) (A)
                 (A) (A) (A) (A) (A) (A) (A) (A) (A) (A) (A) (A)
                 (A) (A) (A) (A) (A) (A) (A) (A) (A) (A) (A) (A)
                 (A) (A) (A) (A) (A) (A) (A) (A) (A) (A) (A) (A)
                 (A) (A) (A) (A) (A) (A) (A) (A) (A) (A) (A) (A)
                 (A) (A) (A) (A) (A) (A) (A) (A) (A) (A) (A) (A)
                 (A) (A) (A) (A) (A) (A) (A) (A) (A) (A) (A) (A)
                 (A) (A) (A) (A) (A) (A) (A) (A) (A) (A) (A) (A)
                 (A) (A) (A) (A) (A) (A) (A) (A) (A) (A) (A) (A)
                 (A) (A) (A) (A) (A) (A) (A) (A) (A) (A) (A) (A)
                 (A) (A) (A) (A) (A) (A) (A) (A) (A) (A) (A) (A)
                 (A) (A) (A) (A) (A) (A) (A) (A) (A) (A) (A) (A)
                 (A) (A) (A) (A) (A) (A) (A) (A) (A) (A) (A) (A)
                 (A) (A) (A) (A) (A) (A) (A) (A) (A) (A) (A) (A)
 The electronic state is 2-A.
 Alpha  occ. eigenvalues --  -19.80663 -19.79606 -10.66507 -10.62566 -10.62418
 Alpha  occ. eigenvalues --  -10.60937 -10.59431  -1.27200  -1.04529  -0.91961
 Alpha  occ. eigenvalues --   -0.84792  -0.77992  -0.72600  -0.67427  -0.59870
 Alpha  occ. eigenvalues --   -0.56245  -0.55219  -0.53986  -0.51899  -0.51518
 Alpha  occ. eigenvalues --   -0.48688  -0.44459  -0.42653  -0.41920  -0.40793
 Alpha  occ. eigenvalues --   -0.40134  -0.36195  -0.33001  -0.31380
 Alpha virt. eigenvalues --    0.05613   0.08614   0.09357   0.10402   0.10966
 Alpha virt. eigenvalues --    0.12848   0.13895   0.14483   0.15797   0.17232
 Alpha virt. eigenvalues --    0.17381   0.18779   0.20982   0.22854   0.25964
 Alpha virt. eigenvalues --    0.27442   0.28877   0.30759   0.31640   0.32987
 Alpha virt. eigenvalues --    0.34204   0.36794   0.37923   0.39379   0.42589
 Alpha virt. eigenvalues --    0.43891   0.45029   0.46336   0.48960   0.49831
 Alpha virt. eigenvalues --    0.50265   0.50849   0.51707   0.51780   0.51956
 Alpha virt. eigenvalues --    0.53327   0.54010   0.55121   0.56679   0.56946
 Alpha virt. eigenvalues --    0.57289   0.57955   0.58791   0.59190   0.62092
 Alpha virt. eigenvalues --    0.63329   0.64145   0.68454   0.69301   0.70731
 Alpha virt. eigenvalues --    0.73097   0.75067   0.76670   0.78757   0.81102
 Alpha virt. eigenvalues --    0.82918   0.87176   0.89590   0.91855   0.93717
 Alpha virt. eigenvalues --    0.94401   0.96296   0.96869   0.97791   0.99271
 Alpha virt. eigenvalues --    1.01369   1.02806   1.04221   1.04775   1.05346
 Alpha virt. eigenvalues --    1.07302   1.07613   1.09840   1.11041   1.12852
 Alpha virt. eigenvalues --    1.14195   1.15279   1.15917   1.18254   1.18842
 Alpha virt. eigenvalues --    1.20692   1.21085   1.23472   1.24517   1.25793
 Alpha virt. eigenvalues --    1.28632   1.30247   1.32881   1.34288   1.35651
 Alpha virt. eigenvalues --    1.36367   1.36923   1.38597   1.39369   1.39912
 Alpha virt. eigenvalues --    1.41278   1.44264   1.46157   1.46780   1.49729
 Alpha virt. eigenvalues --    1.50837   1.51348   1.52584   1.55540   1.57556
 Alpha virt. eigenvalues --    1.59687   1.61732   1.64603   1.64981   1.67454
 Alpha virt. eigenvalues --    1.70609   1.73097   1.77229   1.82238   1.90010
 Alpha virt. eigenvalues --    1.94412   2.00057   2.03705   2.10102   2.13071
 Alpha virt. eigenvalues --    2.17428   2.20279   2.22333   2.22607   2.25622
 Alpha virt. eigenvalues --    2.30253   2.36997   2.38347   2.40079   2.41557
 Alpha virt. eigenvalues --    2.42348   2.47799   2.48686   2.49527   2.52467
 Alpha virt. eigenvalues --    2.53873   2.57961   2.59166   2.61547   2.64182
 Alpha virt. eigenvalues --    2.65690   2.69039   2.69229   2.71523   2.76058
 Alpha virt. eigenvalues --    2.81591   2.82453   2.83856   2.87510   2.88182
 Alpha virt. eigenvalues --    2.89700   2.91544   2.91805   2.94401   2.94950
 Alpha virt. eigenvalues --    2.97495   2.98479   2.99966   3.00915   3.02720
 Alpha virt. eigenvalues --    3.03550   3.05062   3.05656   3.07366   3.09777
 Alpha virt. eigenvalues --    3.11149   3.11977   3.13350   3.14122   3.14839
 Alpha virt. eigenvalues --    3.16459   3.16986   3.19274   3.19740   3.20242
 Alpha virt. eigenvalues --    3.21090   3.24579   3.26613   3.28293   3.31093
 Alpha virt. eigenvalues --    3.32649   3.34079   3.35296   3.38188   3.40528
 Alpha virt. eigenvalues --    3.40571   3.41578   3.43215   3.44231   3.45824
 Alpha virt. eigenvalues --    3.47781   3.49271   3.51457   3.53054   3.53742
 Alpha virt. eigenvalues --    3.55937   3.58011   3.59691   3.60712   3.61444
 Alpha virt. eigenvalues --    3.62357   3.63467   3.65982   3.69775   3.71115
 Alpha virt. eigenvalues --    3.75511   3.77206   3.77985   3.81070   3.83384
 Alpha virt. eigenvalues --    3.84309   3.84793   3.85438   3.87842   3.88114
 Alpha virt. eigenvalues --    3.90640   3.94279   3.94544   3.95817   3.96701
 Alpha virt. eigenvalues --    3.98834   4.00763   4.02141   4.03845   4.05918
 Alpha virt. eigenvalues --    4.06927   4.08012   4.08924   4.09914   4.12800
 Alpha virt. eigenvalues --    4.16013   4.16267   4.17988   4.18733   4.21224
 Alpha virt. eigenvalues --    4.21336   4.23191   4.25319   4.27860   4.28099
 Alpha virt. eigenvalues --    4.30601   4.31715   4.35599   4.36349   4.36549
 Alpha virt. eigenvalues --    4.38010   4.39904   4.43303   4.45004   4.45675
 Alpha virt. eigenvalues --    4.47144   4.49469   4.52625   4.58277   4.60319
 Alpha virt. eigenvalues --    4.62506   4.64017   4.69295   4.70204   4.75545
 Alpha virt. eigenvalues --    4.79122   4.81345   4.83364   4.88629   4.90379
 Alpha virt. eigenvalues --    4.93067   4.98205   4.98613   4.99522   5.00981
 Alpha virt. eigenvalues --    5.01807   5.04800   5.07288   5.10093   5.10624
 Alpha virt. eigenvalues --    5.16575   5.17395   5.20371   5.21351   5.23742
 Alpha virt. eigenvalues --    5.24804   5.28518   5.30310   5.31110   5.32142
 Alpha virt. eigenvalues --    5.34368   5.35235   5.36521   5.39711   5.42365
 Alpha virt. eigenvalues --    5.44639   5.49430   5.50010   5.53669   5.56289
 Alpha virt. eigenvalues --    5.58782   5.61997   5.63633   5.65985   5.68216
 Alpha virt. eigenvalues --    5.81889   5.84379   5.90186   5.93720   5.97922
 Alpha virt. eigenvalues --    6.02891   6.04436   6.05170   6.07087   6.09621
 Alpha virt. eigenvalues --    6.12309   6.16014   6.21420   6.33445   6.35168
 Alpha virt. eigenvalues --    6.53248   6.60804   6.71254   6.82529   6.87766
 Alpha virt. eigenvalues --    6.95247   7.03575   7.09805   7.14464   7.36762
 Alpha virt. eigenvalues --    7.43138   7.51998   7.82499   9.95078  10.38594
 Alpha virt. eigenvalues --   10.91865  12.72518  13.40739  13.95517  14.26595
  Beta  occ. eigenvalues --  -19.79561 -19.78547 -10.66505 -10.62671 -10.61188
  Beta  occ. eigenvalues --  -10.60876 -10.59438  -1.24829  -1.00684  -0.91400
  Beta  occ. eigenvalues --   -0.83601  -0.77661  -0.71709  -0.64226  -0.56977
  Beta  occ. eigenvalues --   -0.54938  -0.54538  -0.53435  -0.51337  -0.50045
  Beta  occ. eigenvalues --   -0.46211  -0.43571  -0.42691  -0.41207  -0.40263
  Beta  occ. eigenvalues --   -0.38183  -0.33992  -0.30598
  Beta virt. eigenvalues --   -0.05721   0.06177   0.08768   0.09437   0.10948
  Beta virt. eigenvalues --    0.11842   0.12901   0.13987   0.14574   0.15891
  Beta virt. eigenvalues --    0.17289   0.17500   0.19061   0.21050   0.23027
  Beta virt. eigenvalues --    0.26041   0.27865   0.29362   0.30863   0.31732
  Beta virt. eigenvalues --    0.33149   0.34323   0.37036   0.38458   0.39905
  Beta virt. eigenvalues --    0.42837   0.44187   0.45092   0.46571   0.49400
  Beta virt. eigenvalues --    0.49874   0.50530   0.51002   0.51739   0.51913
  Beta virt. eigenvalues --    0.52117   0.53427   0.54378   0.55301   0.56775
  Beta virt. eigenvalues --    0.57305   0.57804   0.58192   0.59329   0.60750
  Beta virt. eigenvalues --    0.62337   0.64002   0.66364   0.68968   0.69961
  Beta virt. eigenvalues --    0.70931   0.73586   0.75486   0.77052   0.79417
  Beta virt. eigenvalues --    0.81744   0.83047   0.87371   0.89992   0.91913
  Beta virt. eigenvalues --    0.93956   0.94564   0.96447   0.97204   0.98112
  Beta virt. eigenvalues --    0.99628   1.01508   1.03257   1.04782   1.04992
  Beta virt. eigenvalues --    1.05591   1.07369   1.07758   1.10052   1.11136
  Beta virt. eigenvalues --    1.13017   1.14380   1.15418   1.16073   1.18557
  Beta virt. eigenvalues --    1.18971   1.20885   1.21180   1.23664   1.24788
  Beta virt. eigenvalues --    1.25973   1.28804   1.30991   1.33137   1.34495
  Beta virt. eigenvalues --    1.35705   1.36618   1.37131   1.38676   1.39516
  Beta virt. eigenvalues --    1.40001   1.41391   1.44413   1.46593   1.47202
  Beta virt. eigenvalues --    1.49930   1.51465   1.51643   1.52984   1.56027
  Beta virt. eigenvalues --    1.57884   1.59902   1.61915   1.64799   1.65297
  Beta virt. eigenvalues --    1.67539   1.70656   1.73310   1.77743   1.82806
  Beta virt. eigenvalues --    1.90766   1.95624   2.00617   2.05641   2.10992
  Beta virt. eigenvalues --    2.14020   2.19013   2.21160   2.22696   2.23538
  Beta virt. eigenvalues --    2.26159   2.31646   2.37274   2.38958   2.40384
  Beta virt. eigenvalues --    2.42188   2.42505   2.47972   2.49210   2.49700
  Beta virt. eigenvalues --    2.52860   2.54471   2.58477   2.59363   2.61612
  Beta virt. eigenvalues --    2.64411   2.66200   2.69153   2.70027   2.71742
  Beta virt. eigenvalues --    2.76224   2.81645   2.82701   2.84065   2.87818
  Beta virt. eigenvalues --    2.88539   2.89833   2.91653   2.91948   2.95019
  Beta virt. eigenvalues --    2.95251   2.97710   2.98991   3.00470   3.01433
  Beta virt. eigenvalues --    3.03342   3.03990   3.05555   3.06300   3.07803
  Beta virt. eigenvalues --    3.10088   3.11683   3.12354   3.13836   3.14285
  Beta virt. eigenvalues --    3.15163   3.17002   3.17301   3.19462   3.20059
  Beta virt. eigenvalues --    3.20375   3.21531   3.24723   3.26964   3.28585
  Beta virt. eigenvalues --    3.31547   3.33064   3.35018   3.35664   3.39003
  Beta virt. eigenvalues --    3.40678   3.40707   3.41656   3.43567   3.44345
  Beta virt. eigenvalues --    3.46296   3.47901   3.49570   3.51500   3.53145
  Beta virt. eigenvalues --    3.54010   3.56060   3.58138   3.59877   3.60977
  Beta virt. eigenvalues --    3.61619   3.62679   3.63635   3.66258   3.69762
  Beta virt. eigenvalues --    3.71212   3.75563   3.77746   3.78281   3.81313
  Beta virt. eigenvalues --    3.83513   3.84452   3.84896   3.85628   3.87970
  Beta virt. eigenvalues --    3.88299   3.90722   3.94370   3.94738   3.96026
  Beta virt. eigenvalues --    3.96917   3.99194   4.00667   4.02319   4.03953
  Beta virt. eigenvalues --    4.06020   4.07071   4.08179   4.08995   4.10095
  Beta virt. eigenvalues --    4.13040   4.16033   4.16550   4.18033   4.18866
  Beta virt. eigenvalues --    4.21412   4.21572   4.23367   4.25507   4.27993
  Beta virt. eigenvalues --    4.28235   4.30815   4.31917   4.35709   4.36717
  Beta virt. eigenvalues --    4.36826   4.38521   4.40232   4.44018   4.45143
  Beta virt. eigenvalues --    4.45816   4.47342   4.49655   4.54334   4.58698
  Beta virt. eigenvalues --    4.60581   4.63000   4.64385   4.69894   4.70647
  Beta virt. eigenvalues --    4.76148   4.79507   4.81555   4.83707   4.89424
  Beta virt. eigenvalues --    4.90878   4.93234   4.98348   4.98883   4.99787
  Beta virt. eigenvalues --    5.01160   5.02186   5.05189   5.07470   5.10690
  Beta virt. eigenvalues --    5.10727   5.16800   5.17949   5.21087   5.21443
  Beta virt. eigenvalues --    5.23980   5.25527   5.29044   5.30577   5.31310
  Beta virt. eigenvalues --    5.32370   5.34730   5.35420   5.36844   5.40643
  Beta virt. eigenvalues --    5.42626   5.45770   5.50093   5.50378   5.53703
  Beta virt. eigenvalues --    5.56304   5.58922   5.62552   5.63732   5.66076
  Beta virt. eigenvalues --    5.68266   5.82063   5.84580   5.90378   5.94186
  Beta virt. eigenvalues --    5.98585   6.03892   6.05276   6.05859   6.07531
  Beta virt. eigenvalues --    6.10573   6.12951   6.16573   6.22095   6.33877
  Beta virt. eigenvalues --    6.36862   6.55198   6.63631   6.73280   6.83721
  Beta virt. eigenvalues --    6.90526   6.97177   7.05028   7.11143   7.17328
  Beta virt. eigenvalues --    7.37863   7.45431   7.54781   7.83143   9.95650
  Beta virt. eigenvalues --   10.40109  10.92622  12.72565  13.40745  13.95542
  Beta virt. eigenvalues --   14.27094
          Condensed to atoms (all electrons):
               1          2          3          4          5          6
     1  C    5.267468   0.561447   0.402734  -0.000950   0.000278   0.000029
     2  C    0.561447   5.021164  -0.060429  -0.000225   0.000625   0.000084
     3  H    0.402734  -0.060429   0.548320   0.000112  -0.000388  -0.000024
     4  C   -0.000950  -0.000225   0.000112   4.574104   0.397873   0.397071
     5  H    0.000278   0.000625  -0.000388   0.397873   0.657864  -0.029043
     6  H    0.000029   0.000084  -0.000024   0.397071  -0.029043   0.593682
     7  H   -0.000139  -0.000046   0.000043   0.408571  -0.059983  -0.034189
     8  O    0.004361  -0.000027   0.000590   0.299793  -0.045719  -0.027642
     9  O   -0.096626  -0.003574  -0.000099  -0.043774   0.002381   0.006469
    10  H    0.255864  -0.001336  -0.014675   0.002071   0.001446  -0.000197
    11  C   -0.057056   0.316991   0.007381   0.000042  -0.000121   0.000003
    12  H   -0.005689  -0.027283   0.000002  -0.000235   0.000140  -0.000079
    13  H   -0.002436  -0.035828  -0.000343   0.000005  -0.000002  -0.000000
    14  H   -0.051262   0.417902  -0.008752  -0.000003   0.000008   0.000002
    15  C    0.005621  -0.057435  -0.000456   0.000003  -0.000000  -0.000002
    16  H    0.001529  -0.005248  -0.000123   0.000002  -0.000000  -0.000000
    17  H   -0.000345   0.000923   0.000021   0.000000  -0.000000   0.000000
    18  H   -0.000214   0.007187   0.000025   0.000001   0.000000   0.000001
               7          8          9         10         11         12
     1  C   -0.000139   0.004361  -0.096626   0.255864  -0.057056  -0.005689
     2  C   -0.000046  -0.000027  -0.003574  -0.001336   0.316991  -0.027283
     3  H    0.000043   0.000590  -0.000099  -0.014675   0.007381   0.000002
     4  C    0.408571   0.299793  -0.043774   0.002071   0.000042  -0.000235
     5  H   -0.059983  -0.045719   0.002381   0.001446  -0.000121   0.000140
     6  H   -0.034189  -0.027642   0.006469  -0.000197   0.000003  -0.000079
     7  H    0.642879  -0.039227  -0.001523   0.000793  -0.000012   0.000035
     8  O   -0.039227   7.938747   0.077712  -0.022125  -0.004056   0.007881
     9  O   -0.001523   0.077712   8.054940   0.171931   0.006407  -0.001977
    10  H    0.000793  -0.022125   0.171931   0.393722  -0.006092   0.002727
    11  C   -0.000012  -0.004056   0.006407  -0.006092   4.875381   0.414864
    12  H    0.000035   0.007881  -0.001977   0.002727   0.414864   0.549925
    13  H    0.000003   0.000073  -0.000103  -0.000274   0.420124  -0.029609
    14  H   -0.000000   0.000015  -0.000270   0.001884  -0.034731   0.004435
    15  C   -0.000001  -0.000167   0.000151   0.000058   0.321501  -0.034178
    16  H    0.000000   0.000014  -0.000003  -0.000025  -0.040209  -0.000539
    17  H   -0.000000  -0.000002  -0.000000  -0.000012  -0.037783   0.006182
    18  H   -0.000000  -0.000019  -0.000002  -0.000022  -0.035147  -0.008704
              13         14         15         16         17         18
     1  C   -0.002436  -0.051262   0.005621   0.001529  -0.000345  -0.000214
     2  C   -0.035828   0.417902  -0.057435  -0.005248   0.000923   0.007187
     3  H   -0.000343  -0.008752  -0.000456  -0.000123   0.000021   0.000025
     4  C    0.000005  -0.000003   0.000003   0.000002   0.000000   0.000001
     5  H   -0.000002   0.000008  -0.000000  -0.000000  -0.000000   0.000000
     6  H   -0.000000   0.000002  -0.000002  -0.000000   0.000000   0.000001
     7  H    0.000003  -0.000000  -0.000001   0.000000  -0.000000  -0.000000
     8  O    0.000073   0.000015  -0.000167   0.000014  -0.000002  -0.000019
     9  O   -0.000103  -0.000270   0.000151  -0.000003  -0.000000  -0.000002
    10  H   -0.000274   0.001884   0.000058  -0.000025  -0.000012  -0.000022
    11  C    0.420124  -0.034731   0.321501  -0.040209  -0.037783  -0.035147
    12  H   -0.029609   0.004435  -0.034178  -0.000539   0.006182  -0.008704
    13  H    0.573786   0.001222  -0.036349   0.007550  -0.010546   0.000781
    14  H    0.001222   0.517458  -0.002531   0.001528   0.001427  -0.000078
    15  C   -0.036349  -0.002531   4.883942   0.410066   0.414095   0.414032
    16  H    0.007550   0.001528   0.410066   0.591936  -0.034261  -0.028854
    17  H   -0.010546   0.001427   0.414095  -0.034261   0.586553  -0.028185
    18  H    0.000781  -0.000078   0.414032  -0.028854  -0.028185   0.573116
          Atomic-Atomic Spin Densities.
               1          2          3          4          5          6
     1  C    0.659383  -0.016147  -0.009563   0.000462  -0.001587   0.000195
     2  C   -0.016147  -0.157433   0.010680  -0.000006   0.000036  -0.000026
     3  H   -0.009563   0.010680   0.020057  -0.000090   0.000406  -0.000018
     4  C    0.000462  -0.000006  -0.000090  -0.000745   0.002630   0.000129
     5  H   -0.001587   0.000036   0.000406   0.002630   0.003361  -0.001385
     6  H    0.000195  -0.000026  -0.000018   0.000129  -0.001385  -0.001709
     7  H    0.000632  -0.000025  -0.000070  -0.003133  -0.001465   0.001957
     8  O    0.010097  -0.000968  -0.000821   0.003924  -0.000387   0.000253
     9  O   -0.104077   0.007821   0.006710  -0.003585   0.001078  -0.000100
    10  H    0.063023  -0.006926  -0.001970  -0.000226  -0.001505   0.000134
    11  C   -0.014260   0.018850   0.001649   0.000001   0.000020  -0.000001
    12  H    0.001776   0.000358  -0.000121  -0.000012  -0.000009   0.000009
    13  H    0.001431   0.002021  -0.000117   0.000000  -0.000001   0.000000
    14  H   -0.002468   0.001951  -0.004859   0.000006  -0.000013   0.000001
    15  C   -0.000170   0.003123   0.000002   0.000000  -0.000000   0.000000
    16  H    0.000091  -0.000630  -0.000022   0.000000  -0.000000   0.000000
    17  H   -0.000012  -0.000161   0.000002  -0.000000   0.000000  -0.000000
    18  H   -0.000014  -0.000218   0.000002  -0.000000   0.000000  -0.000000
               7          8          9         10         11         12
     1  C    0.000632   0.010097  -0.104077   0.063023  -0.014260   0.001776
     2  C   -0.000025  -0.000968   0.007821  -0.006926   0.018850   0.000358
     3  H   -0.000070  -0.000821   0.006710  -0.001970   0.001649  -0.000121
     4  C   -0.003133   0.003924  -0.003585  -0.000226   0.000001  -0.000012
     5  H   -0.001465  -0.000387   0.001078  -0.001505   0.000020  -0.000009
     6  H    0.001957   0.000253  -0.000100   0.000134  -0.000001   0.000009
     7  H    0.002112  -0.001209   0.001868   0.000738  -0.000005   0.000007
     8  O   -0.001209   0.013511  -0.037447   0.010156  -0.000384   0.000217
     9  O    0.001868  -0.037447   0.750167  -0.062186   0.001473  -0.000598
    10  H    0.000738   0.010156  -0.062186  -0.082818  -0.001840   0.000307
    11  C   -0.000005  -0.000384   0.001473  -0.001840   0.032793  -0.002237
    12  H    0.000007   0.000217  -0.000598   0.000307  -0.002237  -0.002436
    13  H    0.000001   0.000023  -0.000201   0.000286  -0.004269   0.001150
    14  H    0.000002   0.000082  -0.000509   0.000880  -0.009347   0.000326
    15  C    0.000000   0.000008  -0.000019  -0.000014  -0.001546   0.000029
    16  H    0.000000   0.000005  -0.000008   0.000021  -0.000080   0.000153
    17  H   -0.000000  -0.000000   0.000001  -0.000002   0.000077  -0.000032
    18  H   -0.000000  -0.000001   0.000003  -0.000004   0.000227   0.000005
              13         14         15         16         17         18
     1  C    0.001431  -0.002468  -0.000170   0.000091  -0.000012  -0.000014
     2  C    0.002021   0.001951   0.003123  -0.000630  -0.000161  -0.000218
     3  H   -0.000117  -0.004859   0.000002  -0.000022   0.000002   0.000002
     4  C    0.000000   0.000006   0.000000   0.000000  -0.000000  -0.000000
     5  H   -0.000001  -0.000013  -0.000000  -0.000000   0.000000   0.000000
     6  H    0.000000   0.000001   0.000000   0.000000  -0.000000  -0.000000
     7  H    0.000001   0.000002   0.000000   0.000000  -0.000000  -0.000000
     8  O    0.000023   0.000082   0.000008   0.000005  -0.000000  -0.000001
     9  O   -0.000201  -0.000509  -0.000019  -0.000008   0.000001   0.000003
    10  H    0.000286   0.000880  -0.000014   0.000021  -0.000002  -0.000004
    11  C   -0.004269  -0.009347  -0.001546  -0.000080   0.000077   0.000227
    12  H    0.001150   0.000326   0.000029   0.000153  -0.000032   0.000005
    13  H   -0.004668   0.000743   0.000633  -0.000092  -0.000033  -0.000121
    14  H    0.000743   0.047719   0.000211   0.000326  -0.000095  -0.000045
    15  C    0.000633   0.000211  -0.005022   0.000452   0.000256   0.000328
    16  H   -0.000092   0.000326   0.000452   0.000257  -0.000039  -0.000246
    17  H   -0.000033  -0.000095   0.000256  -0.000039   0.000274  -0.000046
    18  H   -0.000121  -0.000045   0.000328  -0.000246  -0.000046  -0.000075
 Mulliken charges and spin densities:
               1          2
     1  C   -0.284613   0.588792
     2  C   -0.134890  -0.137699
     3  H    0.126061   0.021861
     4  C   -0.034462  -0.000643
     5  H    0.074641   0.001178
     6  H    0.093836  -0.000561
     7  H    0.082797   0.001409
     8  O   -0.190202  -0.002942
     9  O   -0.172040   0.560392
    10  H    0.214261  -0.081943
    11  C   -0.147488   0.021121
    12  H    0.122102  -0.001107
    13  H    0.111947  -0.003214
    14  H    0.151745   0.034913
    15  C   -0.318350  -0.001728
    16  H    0.096637   0.000187
    17  H    0.101933   0.000188
    18  H    0.106083  -0.000203
 Sum of Mulliken charges =  -0.00000   1.00000
 Mulliken charges and spin densities with hydrogens summed into heavy atoms:
               1          2
     1  C   -0.158551   0.610653
     2  C    0.016855  -0.102786
     4  C    0.216812   0.001384
     8  O   -0.190202  -0.002942
     9  O    0.042221   0.478449
    11  C    0.086561   0.016799
    15  C   -0.013697  -0.001556
 APT charges:
               1
     1  C    0.330864
     2  C   -0.123765
     3  H   -0.076524
     4  C    0.498592
     5  H   -0.039270
     6  H   -0.010418
     7  H   -0.045180
     8  O   -0.408679
     9  O    0.201064
    10  H   -0.417809
    11  C    0.102614
    12  H   -0.008815
    13  H   -0.031195
    14  H    0.017186
    15  C    0.065622
    16  H   -0.008270
    17  H   -0.022167
    18  H   -0.023850
 Sum of APT charges =  -0.00000
 APT charges with hydrogens summed into heavy atoms:
               1
     1  C    0.254340
     2  C   -0.106579
     4  C    0.403724
     8  O   -0.408679
     9  O   -0.216746
    11  C    0.062605
    15  C    0.011335
 Electronic spatial extent (au):  <R**2>=           1316.7034
 Charge=             -0.0000 electrons
 Dipole moment (field-independent basis, Debye):
    X=             -0.1591    Y=             -0.0145    Z=             -1.4071  Tot=              1.4161
 Quadrupole moment (field-independent basis, Debye-Ang):
   XX=            -37.1293   YY=            -43.9096   ZZ=            -45.5204
   XY=              1.9598   XZ=              3.0595   YZ=             -1.1941
 Traceless Quadrupole moment (field-independent basis, Debye-Ang):
   XX=              5.0571   YY=             -1.7232   ZZ=             -3.3340
   XY=              1.9598   XZ=              3.0595   YZ=             -1.1941
 Octapole moment (field-independent basis, Debye-Ang**2):
  XXX=            -36.9286  YYY=             -2.7777  ZZZ=              2.9848  XYY=             -7.5226
  XXY=             -4.7531  XXZ=             -4.6249  XZZ=             -4.7568  YZZ=             -0.7681
  YYZ=             -3.3574  XYZ=             -2.8335
 Hexadecapole moment (field-independent basis, Debye-Ang**3):
 XXXX=          -1254.9969 YYYY=           -285.4670 ZZZZ=           -130.6794 XXXY=             40.4653
 XXXZ=             15.1355 YYYX=              2.3174 YYYZ=             -5.3589 ZZZX=             -1.3563
 ZZZY=              1.3935 XXYY=           -270.8615 XXZZ=           -238.9066 YYZZ=            -68.2194
 XXYZ=             -1.3790 YYXZ=              1.4428 ZZXY=              4.3606
 N-N= 2.976210537608D+02 E-N=-1.406521399226D+03  KE= 3.454452793337D+02
  Exact polarizability: 115.608   7.159  74.186  -3.982  -3.257  60.220
 Approx polarizability:  96.725   1.513  81.520  -4.296  -0.519  71.861
                          Isotropic Fermi Contact Couplings
        Atom                 a.u.       MegaHertz       Gauss      10(-4) cm-1
     1  C(13)              0.20631     231.93740      82.76103      77.36599
     2  C(13)              0.00599       6.73202       2.40215       2.24556
     3  H(1)               0.01452      64.88678      23.15321      21.64390
     4  C(13)             -0.00019      -0.21427      -0.07646      -0.07147
     5  H(1)               0.00184       8.23494       2.93843       2.74688
     6  H(1)               0.00031       1.39036       0.49611       0.46377
     7  H(1)              -0.00011      -0.50113      -0.17881      -0.16716
     8  O(17)              0.01445      -8.76199      -3.12650      -2.92268
     9  O(17)              0.06361     -38.55876     -13.75872     -12.86182
    10  H(1)              -0.02178     -97.37490     -34.74579     -32.48077
    11  C(13)              0.01304      14.66222       5.23184       4.89079
    12  H(1)              -0.00033      -1.48323      -0.52925      -0.49475
    13  H(1)              -0.00048      -2.16268      -0.77170      -0.72139
    14  H(1)               0.01682      75.19887      26.83283      25.08364
    15  C(13)             -0.00093      -1.04095      -0.37144      -0.34722
    16  H(1)              -0.00001      -0.06677      -0.02382      -0.02227
    17  H(1)               0.00010       0.44075       0.15727       0.14702
    18  H(1)              -0.00006      -0.26868      -0.09587      -0.08962
 --------------------------------------------------------
       Center         ----  Spin Dipole Couplings  ----
                      3XX-RR        3YY-RR        3ZZ-RR
 --------------------------------------------------------
     1   Atom        0.131334     -0.119784     -0.011550
     2   Atom        0.053645     -0.023639     -0.030006
     3   Atom       -0.003424      0.015159     -0.011735
     4   Atom        0.003878     -0.002812     -0.001067
     5   Atom        0.002323     -0.005312      0.002989
     6   Atom        0.000571      0.000068     -0.000639
     7   Atom        0.008101     -0.003170     -0.004930
     8   Atom       -0.003826     -0.033696      0.037521
     9   Atom        0.731638     -0.840091      0.108453
    10   Atom        0.143797     -0.081586     -0.062211
    11   Atom       -0.001337      0.008189     -0.006852
    12   Atom        0.001772      0.004395     -0.006167
    13   Atom        0.002577     -0.002602      0.000025
    14   Atom        0.006331     -0.003737     -0.002594
    15   Atom        0.002216     -0.000169     -0.002047
    16   Atom        0.001125      0.000318     -0.001443
    17   Atom        0.001871     -0.000494     -0.001378
    18   Atom        0.000713      0.000672     -0.001385
 --------------------------------------------------------
                        XY            XZ            YZ
 --------------------------------------------------------
     1   Atom        0.275292     -0.338097     -0.207704
     2   Atom       -0.010007     -0.016646     -0.011984
     3   Atom       -0.017475      0.003859     -0.030620
     4   Atom        0.006414      0.009696      0.005333
     5   Atom        0.001240      0.007286      0.000602
     6   Atom        0.003914      0.002982      0.003180
     7   Atom        0.005514      0.003274      0.001722
     8   Atom        0.166313     -0.175643     -0.209939
     9   Atom        0.742955     -1.521804     -0.606471
    10   Atom        0.134365     -0.154213     -0.069490
    11   Atom       -0.016740      0.008992     -0.016003
    12   Atom       -0.005509      0.000824     -0.003494
    13   Atom       -0.002539      0.004081     -0.001741
    14   Atom        0.001505     -0.005377     -0.003309
    15   Atom       -0.002705     -0.001070      0.000265
    16   Atom       -0.002166     -0.001490      0.000974
    17   Atom       -0.001378      0.000137     -0.000144
    18   Atom       -0.001793     -0.000254      0.000015
 --------------------------------------------------------


 ---------------------------------------------------------------------------------
              Anisotropic Spin Dipole Couplings in Principal Axis System
 ---------------------------------------------------------------------------------

       Atom             a.u.   MegaHertz   Gauss  10(-4) cm-1        Axes

              Baa    -0.2991   -40.141   -14.323   -13.389 -0.6605  0.7003 -0.2707
     1 C(13)  Bbb    -0.2770   -37.176   -13.265   -12.401  0.2717  0.5590  0.7834
              Bcc     0.5762    77.317    27.589    25.790  0.6999  0.4439 -0.5595
 
              Baa    -0.0431    -5.781    -2.063    -1.928  0.1960  0.5857  0.7865
     2 C(13)  Bbb    -0.0145    -1.943    -0.693    -0.648 -0.0266  0.8049 -0.5928
              Bcc     0.0576     7.724     2.756     2.576  0.9803 -0.0952 -0.1733
 
              Baa    -0.0333   -17.758    -6.337    -5.924  0.2380  0.5788  0.7799
     3 H(1)   Bbb    -0.0082    -4.371    -1.560    -1.458  0.9049  0.1597 -0.3946
              Bcc     0.0415    22.129     7.896     7.381 -0.3530  0.7996 -0.4858
 
              Baa    -0.0086    -1.158    -0.413    -0.386 -0.5704 -0.1164  0.8131
     4 C(13)  Bbb    -0.0066    -0.889    -0.317    -0.297 -0.4059  0.9005 -0.1559
              Bcc     0.0153     2.048     0.731     0.683  0.7140  0.4190  0.5609
 
              Baa    -0.0056    -3.013    -1.075    -1.005 -0.3616  0.9003  0.2423
     5 H(1)   Bbb    -0.0044    -2.353    -0.840    -0.785 -0.6267 -0.4271  0.6518
              Bcc     0.0101     5.366     1.915     1.790  0.6903  0.0838  0.7186
 
              Baa    -0.0037    -1.982    -0.707    -0.661 -0.4765  0.7998 -0.3650
     6 H(1)   Bbb    -0.0031    -1.641    -0.586    -0.548 -0.6234 -0.0146  0.7818
              Bcc     0.0068     3.623     1.293     1.209  0.6200  0.6000  0.5056
 
              Baa    -0.0060    -3.194    -1.140    -1.065  0.0248 -0.5564  0.8306
     7 H(1)   Bbb    -0.0052    -2.777    -0.991    -0.926 -0.4334  0.7427  0.5104
              Bcc     0.0112     5.971     2.131     1.992  0.9009  0.3726  0.2227
 
              Baa    -0.2136    15.454     5.515     5.155 -0.1822  0.8133  0.5526
     8 O(17)  Bbb    -0.1571    11.370     4.057     3.792  0.8203 -0.1842  0.5415
              Bcc     0.3707   -26.824    -9.571    -8.948 -0.5422 -0.5519  0.6336
 
              Baa    -1.1359    82.194    29.329    27.417 -0.1874  0.9536  0.2356
     9 O(17)  Bbb    -1.1333    82.006    29.262    27.354  0.6456 -0.0612  0.7612
              Bcc     2.2692  -164.200   -58.591   -54.771  0.7404  0.2947 -0.6041
 
              Baa    -0.1461   -77.934   -27.809   -25.996  0.5765 -0.5494  0.6049
    10 H(1)   Bbb    -0.1421   -75.796   -27.046   -25.283  0.0098  0.7449  0.6671
              Bcc     0.2881   153.730    54.855    51.279  0.8171  0.3787 -0.4348
 
              Baa    -0.0173    -2.326    -0.830    -0.776  0.2252  0.6193  0.7522
    11 C(13)  Bbb    -0.0125    -1.683    -0.600    -0.561  0.8243  0.2905 -0.4860
              Bcc     0.0299     4.009     1.430     1.337 -0.5195  0.7294 -0.4450
 
              Baa    -0.0073    -3.902    -1.392    -1.302  0.1180  0.3345  0.9350
    12 H(1)   Bbb    -0.0021    -1.131    -0.404    -0.377  0.8018  0.5233 -0.2885
              Bcc     0.0094     5.033     1.796     1.679 -0.5858  0.7837 -0.2065
 
              Baa    -0.0036    -1.944    -0.694    -0.649  0.3367  0.9389  0.0710
    13 H(1)   Bbb    -0.0030    -1.580    -0.564    -0.527 -0.5474  0.1338  0.8261
              Bcc     0.0066     3.524     1.258     1.176  0.7661 -0.3170  0.5591
 
              Baa    -0.0071    -3.771    -1.345    -1.258  0.2259  0.6334  0.7401
    14 H(1)   Bbb    -0.0024    -1.274    -0.455    -0.425 -0.4388  0.7445 -0.5032
              Bcc     0.0095     5.045     1.800     1.683  0.8697  0.2112 -0.4461
 
              Baa    -0.0025    -0.330    -0.118    -0.110  0.4162  0.3963  0.8184
    15 C(13)  Bbb    -0.0017    -0.227    -0.081    -0.076  0.3681  0.7495 -0.5502
              Bcc     0.0042     0.558     0.199     0.186  0.8314 -0.5303 -0.1661
 
              Baa    -0.0021    -1.134    -0.405    -0.378  0.4262  0.0173  0.9045
    16 H(1)   Bbb    -0.0014    -0.761    -0.271    -0.254  0.5295  0.8059 -0.2650
              Bcc     0.0036     1.895     0.676     0.632  0.7335 -0.5919 -0.3343
 
              Baa    -0.0014    -0.750    -0.268    -0.250  0.0648  0.2504  0.9660
    17 H(1)   Bbb    -0.0011    -0.591    -0.211    -0.197  0.4157  0.8732 -0.2543
              Bcc     0.0025     1.341     0.479     0.447  0.9072 -0.4180  0.0475
 
              Baa    -0.0015    -0.784    -0.280    -0.262  0.3217  0.2629  0.9096
    18 H(1)   Bbb    -0.0010    -0.547    -0.195    -0.182  0.6243  0.6634 -0.4125
              Bcc     0.0025     1.331     0.475     0.444  0.7119 -0.7006 -0.0492
 

 ---------------------------------------------------------------------------------

 Calling FoFJK, ICntrl=  10100127 FMM=F ISym2X=0 I1Cent= 0 IOpClX= 1 NMat=1 NMatS=1 NMatT=0.
 ***** Axes restored to original set *****
 -------------------------------------------------------------------
 Center     Atomic                   Forces (Hartrees/Bohr)
 Number     Number              X              Y              Z
 -------------------------------------------------------------------
      1        6          -0.018184566    0.038769845    0.002412911
      2        6           0.018516432   -0.044548963   -0.004601746
      3        1           0.005456631    0.002053668   -0.000656758
      4        6           0.002767727    0.001896196    0.003747166
      5        1          -0.000757319   -0.000221790   -0.000254617
      6        1           0.000102604    0.000058967    0.000274601
      7        1          -0.000669334    0.000098853    0.000281279
      8        8           0.007228956    0.001026673   -0.023204174
      9        8           0.008925924   -0.033755352    0.024432023
     10        1          -0.015051991    0.008806031   -0.005516707
     11        6          -0.006274262    0.033155117    0.013788816
     12        1           0.009708828   -0.007390627    0.002030879
     13        1           0.000026044   -0.005590014   -0.012186695
     14        1          -0.006339570    0.008632272   -0.001649323
     15        6           0.015478805   -0.006439366   -0.010580237
     16        1          -0.001880430    0.007013416    0.010714610
     17        1          -0.011312738    0.005126519   -0.004792171
     18        1          -0.007741739   -0.008691448    0.005760144
 -------------------------------------------------------------------
 Cartesian Forces:  Max     0.044548963 RMS     0.013386666
 FormGI is forming the generalized inverse of G from B-inverse, IUseBI=4.

 GradGradGradGradGradGradGradGradGradGradGradGradGradGradGradGradGradGrad
 Berny optimization.
 Internal  Forces:  Max     0.035615796 RMS     0.007991734
 Search for a saddle point.
 Step number   1 out of a maximum of  108
 All quantities printed in internal units (Hartrees-Bohrs-Radians)
 Swapping is turned off.
 Second derivative matrix not updated -- analytic derivatives used.
 ITU=  0
     Eigenvalues ---   -0.05332  -0.00102  -0.00018   0.00010   0.00583
     Eigenvalues ---    0.00984   0.01378   0.01762   0.02107   0.02840
     Eigenvalues ---    0.03864   0.04409   0.04436   0.04766   0.04805
     Eigenvalues ---    0.06132   0.07268   0.08483   0.08547   0.09571
     Eigenvalues ---    0.10609   0.11492   0.12862   0.12883   0.14041
     Eigenvalues ---    0.14494   0.15146   0.16671   0.16786   0.18509
     Eigenvalues ---    0.21216   0.21300   0.26680   0.27501   0.31366
     Eigenvalues ---    0.31490   0.33470   0.34365   0.34999   0.35968
     Eigenvalues ---    0.37515   0.37828   0.37893   0.38220   0.38286
     Eigenvalues ---    0.38541   0.39712   0.61420
 Eigenvectors required to have negative eigenvalues:
                          R11       R3        D16       R10       A3
   1                    0.68895  -0.55094   0.26096  -0.24920   0.19475
                          A1        A14       A13       A27       A2
   1                   -0.14230   0.10852   0.07646   0.06645  -0.05124
 RFO step:  Lambda0=8.780833141D-03 Lambda=-1.98166730D-02.
 Linear search not attempted -- option 19 set.
 Maximum step size (   0.300) exceeded in Quadratic search.
    -- Step size scaled by   0.555
 Iteration  1 RMS(Cart)=  0.16517065 RMS(Int)=  0.01595674
 Iteration  2 RMS(Cart)=  0.06885166 RMS(Int)=  0.00135727
 Iteration  3 RMS(Cart)=  0.00182233 RMS(Int)=  0.00022862
 Iteration  4 RMS(Cart)=  0.00000280 RMS(Int)=  0.00022862
 Iteration  5 RMS(Cart)=  0.00000000 RMS(Int)=  0.00022862
 Variable       Old X    -DE/DX   Delta X   Delta X   Delta X     New X
                                 (Linear)    (Quad)   (Total)
    R1        2.50793  -0.01018   0.00000  -0.02017  -0.02017   2.48776
    R2        2.04216   0.00461   0.00000  -0.00060  -0.00060   2.04156
    R3        2.31871   0.01839   0.00000   0.20344   0.20344   2.52216
    R4        2.91018  -0.01359   0.00000  -0.03110  -0.03110   2.87908
    R5        2.02201   0.01063   0.00000   0.01976   0.01976   2.04177
    R6        2.06161  -0.00047   0.00000   0.00040   0.00040   2.06201
    R7        2.05705   0.00020   0.00000   0.00083   0.00083   2.05788
    R8        2.05898  -0.00065   0.00000   0.00041   0.00041   2.05939
    R9        2.67252   0.00344   0.00000  -0.00212  -0.00212   2.67040
   R10        2.74736  -0.02049   0.00000   0.00247   0.00247   2.74984
   R11        2.17999   0.03562   0.00000  -0.12861  -0.12861   2.05138
   R12        2.02201   0.01127   0.00000   0.01652   0.01652   2.03853
   R13        2.02201   0.01307   0.00000   0.01959   0.01959   2.04160
   R14        2.91018   0.00484   0.00000  -0.00898  -0.00898   2.90120
   R15        2.02201   0.01223   0.00000   0.01845   0.01845   2.04046
   R16        2.02201   0.01249   0.00000   0.01815   0.01815   2.04015
   R17        2.02201   0.01216   0.00000   0.01718   0.01718   2.03919
    A1        2.12242   0.01307   0.00000   0.10853   0.10848   2.23090
    A2        2.27592  -0.01886   0.00000  -0.09496  -0.09496   2.18096
    A3        1.88194   0.00585   0.00000  -0.01304  -0.01302   1.86892
    A4        2.12240   0.01085   0.00000   0.03344   0.03344   2.15584
    A5        2.08039  -0.00409   0.00000  -0.01508  -0.01508   2.06531
    A6        2.08039  -0.00676   0.00000  -0.01836  -0.01836   2.06204
    A7        1.91786   0.00007   0.00000  -0.00100  -0.00100   1.91687
    A8        1.91635   0.00059   0.00000  -0.00018  -0.00018   1.91617
    A9        1.94579  -0.00102   0.00000  -0.00069  -0.00069   1.94510
   A10        1.91599   0.00000   0.00000  -0.00085  -0.00085   1.91514
   A11        1.82748   0.00042   0.00000   0.00133   0.00133   1.82881
   A12        1.93861  -0.00008   0.00000   0.00141   0.00141   1.94001
   A13        1.84754   0.00437   0.00000  -0.00047  -0.00047   1.84707
   A14        1.74403   0.01066   0.00000   0.01932   0.01932   1.76335
   A15        1.91063  -0.00453   0.00000  -0.00702  -0.00732   1.90331
   A16        1.91063  -0.00391   0.00000  -0.01291  -0.01304   1.89759
   A17        1.91063   0.00959   0.00000   0.02326   0.02317   1.93380
   A18        1.91063  -0.00058   0.00000  -0.01679  -0.01691   1.89373
   A19        1.91063   0.00047   0.00000   0.01017   0.01013   1.92077
   A20        1.91063  -0.00104   0.00000   0.00330   0.00338   1.91401
   A21        1.91063   0.00359   0.00000   0.01222   0.01214   1.92277
   A22        1.91063   0.00468   0.00000   0.01593   0.01582   1.92646
   A23        1.91063   0.00452   0.00000   0.01253   0.01244   1.92307
   A24        1.91063  -0.00404   0.00000  -0.01338  -0.01349   1.89715
   A25        1.91063  -0.00431   0.00000  -0.01434  -0.01440   1.89623
   A26        1.91063  -0.00444   0.00000  -0.01297  -0.01308   1.89755
   A27        3.04344   0.00374   0.00000   0.00838   0.00830   3.05174
   A28        3.09311   0.00176   0.00000   0.02644   0.02691   3.12003
    D1        3.14150   0.00011   0.00000   0.00225   0.00271  -3.13897
    D2       -0.00009  -0.00015   0.00000   0.00054   0.00099   0.00090
    D3       -0.09237   0.00143   0.00000   0.01118   0.01075  -0.08163
    D4        3.04922   0.00116   0.00000   0.00947   0.00903   3.05825
    D5       -1.14688   0.00019   0.00000   0.28709   0.28601  -0.86087
    D6        1.93066   0.00081   0.00000   0.28230   0.28338   2.21405
    D7        0.52360  -0.00409   0.00000   0.01557   0.01568   0.53927
    D8       -1.57080   0.00180   0.00000   0.04835   0.04823  -1.52257
    D9        2.61799  -0.00041   0.00000   0.03797   0.03799   2.65598
   D10       -2.61799  -0.00382   0.00000   0.01728   0.01739  -2.60061
   D11        1.57080   0.00206   0.00000   0.05005   0.04994   1.62073
   D12       -0.52360  -0.00015   0.00000   0.03968   0.03970  -0.48390
   D13        1.11675  -0.00009   0.00000   0.00515   0.00515   1.12191
   D14       -3.09357  -0.00028   0.00000   0.00440   0.00440  -3.08917
   D15       -1.02661  -0.00007   0.00000   0.00487   0.00487  -1.02173
   D16       -2.01652   0.00710   0.00000   0.01945   0.01945  -1.99707
   D17       -0.51946  -0.00111   0.00000  -0.09990  -0.09995  -0.61941
   D18        1.57494  -0.00100   0.00000  -0.09905  -0.09908   1.47585
   D19       -2.61385  -0.00080   0.00000  -0.09750  -0.09752  -2.71138
   D20        1.57494  -0.00050   0.00000  -0.08803  -0.08796   1.48698
   D21       -2.61385  -0.00039   0.00000  -0.08718  -0.08710  -2.70095
   D22       -0.51946  -0.00019   0.00000  -0.08563  -0.08554  -0.60499
   D23       -2.61385  -0.00157   0.00000  -0.10035  -0.10041  -2.71426
   D24       -0.51946  -0.00146   0.00000  -0.09950  -0.09954  -0.61900
   D25        1.57494  -0.00125   0.00000  -0.09795  -0.09798   1.47696
         Item               Value     Threshold  Converged?
 Maximum Force            0.035616     0.000450     NO 
 RMS     Force            0.007992     0.000300     NO 
 Maximum Displacement     0.785523     0.001800     NO 
 RMS     Displacement     0.230239     0.001200     NO 
 Predicted change in Energy=-5.619530D-03
 GradGradGradGradGradGradGradGradGradGradGradGradGradGradGradGradGradGrad

                          Input orientation:                          
 ---------------------------------------------------------------------
 Center     Atomic      Atomic             Coordinates (Angstroms)
 Number     Number       Type             X           Y           Z
 ---------------------------------------------------------------------
      1          6           0       -0.401207    0.793853    0.298753
      2          6           0       -1.708658    0.675680    0.397184
      3          1           0        0.176527    1.701654    0.202461
      4          6           0        1.627593   -1.632553    2.633922
      5          1           0        1.883724   -0.599668    2.875165
      6          1           0        1.240226   -2.133631    3.519785
      7          1           0        2.511577   -2.156909    2.271633
      8          8           0        0.574849   -1.697679    1.693505
      9          8           0        1.094393   -1.097595    0.473900
     10          1           0        0.467140   -0.215326    0.392937
     11          6           0       -2.424657   -0.662262    0.532997
     12          1           0       -1.783994   -1.352702    1.058854
     13          1           0       -2.614920   -1.055658   -0.455050
     14          1           0       -2.307368    1.574970    0.382562
     15          6           0       -3.751457   -0.496421    1.287375
     16          1           0       -3.651520    0.256045    2.055293
     17          1           0       -4.535028   -0.195907    0.608222
     18          1           0       -4.034477   -1.428250    1.752170
 ---------------------------------------------------------------------
                    Distance matrix (angstroms):
                    1          2          3          4          5
     1  C    0.000000
     2  C    1.316466   0.000000
     3  H    1.080348   2.155102   0.000000
     4  C    3.931474   4.632657   4.374304   0.000000
     5  H    3.714930   4.546660   3.918412   1.091171   0.000000
     6  H    4.651829   5.132132   5.181265   1.088983   1.784003
     7  H    4.591684   5.417334   4.962101   1.089785   1.784223
     8  O    3.017573   3.539447   3.733274   1.413116   2.077283
     9  O    2.417658   3.317753   2.958370   2.288269   2.576247
    10  H    1.334668   2.351171   1.948217   2.894339   2.883728
    11  C    2.503896   1.523544   3.530370   4.666485   4.904265
    12  H    2.664124   2.134904   3.729095   3.768034   4.161514
    13  H    2.981516   2.131934   3.978350   5.279533   5.615697
    14  H    2.061703   1.080458   2.493636   5.553444   5.339229
    15  C    3.723756   2.517793   4.630078   5.660226   5.855510
    16  H    3.733525   2.588461   4.491850   5.636545   5.660685
    17  H    4.261910   2.965226   5.095501   6.644193   6.819269
    18  H    4.500091   3.416422   5.470873   5.733956   6.080523
                    6          7          8          9         10
     6  H    0.000000
     7  H    1.781785   0.000000
     8  O    1.992004   2.072689   0.000000
     9  O    3.220567   2.522380   1.455150   0.000000
    10  H    3.748965   3.388063   1.974956   1.085542   0.000000
    11  C    4.951484   5.442723   3.378743   3.546367   2.929481
    12  H    3.976422   4.535363   2.466968   2.948281   2.608577
    13  H    5.641230   5.910036   3.899115   3.824095   3.305197
    14  H    6.015090   6.381046   4.553677   4.326999   3.301993
    15  C    5.707977   6.553745   4.508312   4.950294   4.321526
    16  H    5.637771   6.622153   4.670130   5.182358   4.466428
    17  H    6.751705   7.501140   5.435439   5.702759   5.006836
    18  H    5.607540   6.606936   4.617566   5.296094   4.856259
                   11         12         13         14         15
    11  C    0.000000
    12  H    1.078741   0.000000
    13  H    1.080369   1.752306   0.000000
    14  H    2.245350   3.050010   2.777839   0.000000
    15  C    1.535248   2.157857   2.154184   2.682301   0.000000
    16  H    2.160062   2.658686   3.016111   2.518797   1.079764
    17  H    2.162593   3.018183   2.357230   2.854715   1.079603
[...]
 27,-0.0074544,0.0199127,-0.1634017,-0.262003,0.0649175,0.0978426,-0.41
 11906,-0.039553,-0.5105356,0.4678327,-0.5824414,-0.2949787,0.0818274,-
 0.1095015,-0.4486595,0.4195074,-0.2942034,0.3284138,-0.5969463,0.05319
 97,-0.1353934,0.3981664,-0.1799273,0.5764502,-0.6722587,0.4248476,-0.1
 207997,0.1786952,0.0245683,0.1125342,-0.0291536,0.047098,0.091021,-0.0
 144838,0.0078572,0.0830896,-0.0218742,0.1777928,0.0057497,0.0601097,0.
 0569918,0.0023691,-0.0237935,-0.0141287,0.043801,0.0031813,0.0306693,-
 0.0606392,-0.0262855,-0.0966018,-0.061332,0.0493176,0.0230682,-0.08048
 59,0.001365,-0.0803591,-0.0483076,0.1415583,-0.0471838,0.0127342,-0.02
 04425,-0.0055106,-0.0186901,0.0129771,0.1097219,0.0950619,-0.0088813,0
 .002107,-0.1114857,0.117866,0.0019775,-0.0453812,0.0041435,0.0379923,-
 0.0171378,0.0032697,-0.1037027,-0.0011719,0.0471072,0.0029951,-0.04850
 69,0.0029966,-0.0705834,-0.0192347,0.0748106,0.0439145,0.1312185,-0.07
 67729,-0.0379209,0.0144397,0.00271,0.0291015,-0.045462,-0.0877914,0.02
 94997,-0.1285054,-0.0761922,0.0184083,0.0538425,-0.0033984,0.0423721\P
 olar=92.2393541,-9.494942,79.7864941,6.4766834,-13.2952977,70.312826\P
 G=C01 [X(C5H11O2)]\NImag=1\\0.77458053,0.22211058,0.32526245,-0.019499
 06,-0.01728422,0.06557437,-0.56991954,-0.06786945,0.00761822,0.8333497
 2,-0.03245407,-0.07569588,0.00154795,0.00499710,0.51422521,0.00529217,
 0.00249733,-0.03896135,-0.00870173,-0.01985947,0.14884260,-0.14985034,
 -0.14461427,0.01065192,-0.00873058,-0.02779187,0.00171243,0.16062337,-
 0.16810508,-0.23179501,0.01380909,0.01097048,0.00580386,-0.00029579,0.
 16129788,0.23426161,0.01141356,0.01387053,-0.02536582,-0.00149417,-0.0
 0005434,-0.00052385,-0.01086761,-0.01504831,0.01741045,-0.00409011,0.0
 0393376,-0.00074761,0.00101714,-0.00136894,-0.00002388,0.00104230,-0.0
 0085010,0.00019936,0.57143911,-0.00168846,0.00364080,-0.00024324,0.001
 24603,-0.00107725,-0.00010261,0.00016955,-0.00050665,0.00078238,-0.008
 29742,0.57329725,-0.00658151,0.00728170,-0.00070922,0.00174033,-0.0022
 8202,-0.00010025,0.00149813,-0.00145595,0.00051428,-0.06928518,-0.0530
 0205,0.50222252,0.00134851,-0.00102770,0.00028538,-0.00056687,0.000467
 26,0.00007653,-0.00030689,0.00020181,0.00008131,-0.05853402,0.04174949
 ,0.00233692,0.05775518,0.00112110,-0.00144732,0.00031039,-0.00032888,0
 .00031982,0.00002440,-0.00009919,0.00022285,-0.00024489,0.03926822,-0.
 29995809,-0.00545845,-0.03561778,0.32839453,0.00175217,-0.00116928,0.0
 0046929,-0.00059273,0.00040916,0.00005383,-0.00049789,0.00045652,-0.00
 016859,0.00483135,-0.00023083,-0.04938349,0.00362631,0.01543443,0.0545
 4230,0.00021782,-0.00025999,0.00004902,-0.00008158,0.00016758,0.000023
 71,-0.00009785,0.00006444,-0.00001223,-0.09806656,-0.05203954,0.091515
 29,0.00226503,0.00306214,-0.00437479,0.09704767,0.00021734,-0.00015945
 ,0.00027409,-0.00012829,0.00003364,0.00000193,-0.00006257,0.00010635,-
 0.00013753,-0.05139327,-0.10748606,0.10042236,-0.01321273,-0.01130800,
 0.02503749,0.05562202,0.10766406,0.00071998,-0.00089807,0.00015781,-0.
 00029614,0.00049916,0.00002200,-0.00023765,0.00018993,-0.00003052,0.08
 272158,0.09234067,-0.21314349,-0.00048199,-0.00047117,0.00346995,-0.09
 123038,-0.10314128,0.24402931,0.00095924,-0.00122731,0.00002290,-0.000
 26109,0.00040056,0.00001900,-0.00027624,0.00022773,-0.00001222,-0.2936
 0095,0.06300793,0.02813981,-0.00262774,0.00083929,0.00197509,-0.008845
 63,0.00351599,0.00121107,0.32379860,0.00029260,-0.00031314,0.00007599,
 -0.00026141,0.00003598,0.00007321,0.00004116,0.00000806,-0.00011227,0.
 06575150,-0.06908335,-0.00681334,0.03129859,-0.00655220,-0.00372322,-0
 .01474010,0.00395453,0.00100040,-0.06346152,0.06741442,0.00038492,-0.0
 0027305,0.00001587,-0.00006223,0.00006277,0.00002496,-0.00008584,0.000
 09963,-0.00004594,0.03644903,-0.00512016,-0.05213478,0.00055893,0.0014
 7350,0.00182009,0.02402185,-0.00724313,0.00010474,-0.02259803,0.011210
 69,0.05602738,-0.01057723,0.01493262,-0.00157749,0.00311143,-0.0046952
 5,0.00008766,0.00239274,-0.00202300,-0.00034586,-0.13198904,-0.0522374
 2,-0.04620290,0.00199536,-0.00745947,-0.00507020,0.00685511,0.00538970
 ,0.01174301,-0.02145913,-0.02029877,-0.03707109,0.21589270,-0.00669414
 ,0.00426152,-0.00098251,0.00050209,-0.00119482,0.00032479,0.00182491,-
 0.00115484,0.00083765,-0.05062770,-0.10033975,-0.03151470,-0.02511495,
 -0.01333580,-0.03459978,0.00795851,0.00545338,0.01249108,-0.00377120,0
 .00516296,0.00048521,0.11508505,0.18074431,0.02221151,-0.02757498,0.00
 354266,-0.00548486,0.00906194,-0.00038213,-0.00511112,0.00439763,-0.00
 103354,-0.07674599,-0.05982385,-0.12950154,-0.00867620,-0.01156503,-0.
 01680437,-0.01464331,-0.00997517,-0.02842214,-0.01144166,-0.00233235,-
 0.01173087,0.03613158,-0.00370155,0.36233010,-0.01766659,0.03483463,-0
 .00634269,0.00128905,0.00153335,0.00057159,-0.00016124,0.00208201,0.00
 051839,0.01098365,0.00670783,-0.00767695,-0.00071383,-0.00010025,-0.00
 002699,0.00063666,0.00014884,-0.00396026,0.00330498,0.00120952,-0.0015
 3382,-0.08454895,-0.02882327,0.08214664,0.13502408,0.07355043,-0.10355
 446,0.01526680,-0.01100006,0.00882750,-0.00102213,-0.00746190,0.005061
 60,-0.00153836,0.00766832,0.00198033,0.00287704,-0.00049815,0.00232478
 ,-0.00417254,0.00025037,0.00188228,-0.00192731,-0.00106199,-0.00048557
 ,-0.00139612,-0.02423992,-0.05926695,0.05140694,-0.04560049,0.13370220
 ,-0.03274485,0.04308829,0.00059907,0.00670959,-0.01001756,-0.00037169,
 0.00590392,-0.00482649,-0.00102057,0.02161349,0.02032661,-0.05953908,0
 .00258105,0.00189802,0.00644370,-0.00521211,-0.00447879,-0.00562952,0.
 00303715,0.00081866,0.00623882,0.04544829,0.02937661,-0.15292858,-0.08
 342514,-0.03222695,0.22004975,0.02104041,-0.05411585,0.00855198,-0.016
 05847,0.01585386,-0.00147892,-0.00301605,-0.00207860,0.00029728,0.0015
 9911,0.00135470,0.00437726,-0.00049945,-0.00064730,-0.00160825,0.00009
 102,-0.00015292,-0.00010584,-0.00097440,0.00014839,-0.00004328,0.01849
 832,-0.01150624,-0.01522776,-0.04585060,0.00854933,0.03356988,0.027881
 66,-0.07632425,0.08329995,-0.01380616,0.01934485,-0.01481692,0.0012418
 0,0.01439730,-0.01340736,0.00141668,-0.00419129,-0.00038546,-0.0102503
 0,0.00186111,0.00140636,0.00261915,-0.00007255,-0.00017517,-0.00006081
 ,0.00156272,-0.00014318,0.00070405,-0.02556820,-0.02065272,0.05132032,
 0.02828812,0.00968287,-0.04550388,0.04262643,-0.04577021,0.01640335,-0
 .02014558,-0.01904944,-0.00329640,0.00362708,0.00357819,-0.00270242,0.
 00230634,0.00349833,0.00099312,0.00503773,0.00181936,-0.00035872,-0.00
 142680,-0.00042466,-0.00010920,-0.00075783,-0.00049624,-0.00036541,-0.
 00020251,-0.00029808,-0.00226562,0.02737981,-0.02452679,0.01981142,-0.
 02697705,-0.01394850,-0.02802543,0.01147655,0.04912052,-0.02755842,-0.
 02560638,0.00117926,-0.10258328,-0.05200447,0.00016999,-0.00237775,0.0
 0005542,0.00085088,-0.00032790,-0.00028471,-0.00076888,0.00009689,0.00
 014718,0.00011167,0.00006728,-0.00003478,0.00012992,0.00010696,0.00005
 956,0.00007759,-0.00062336,-0.00007568,0.00115898,-0.00004189,0.001561
 69,-0.00097895,0.00079142,-0.00395477,0.00054563,0.54478612,-0.0153043
 4,0.00342008,-0.00045212,-0.04480298,-0.17739677,0.00390891,0.00379595
 ,-0.00039698,0.00066064,-0.00038814,0.00023328,0.00010428,0.00005192,-
 0.00010594,-0.00000745,0.00003454,-0.00000909,0.00006721,-0.00003722,-
 0.00010778,-0.00014858,-0.00174698,-0.00026320,0.00154485,-0.00075590,
 0.00253156,-0.00323104,0.00376006,-0.00331936,0.00118837,-0.06380887,0
 .53905008,0.00137766,0.00168828,0.00255951,-0.00119913,0.00123602,-0.0
 7109575,-0.00033193,0.00043557,0.01013079,-0.00031975,0.00062513,0.000
 22180,0.00007964,-0.00027326,0.00007015,0.00000905,-0.00001920,0.00001
 784,-0.00003178,-0.00013787,-0.00011960,-0.00118678,0.00010335,-0.0003
 9120,0.00030291,0.00058978,-0.00158810,0.00106904,-0.00141463,-0.00097
 256,0.04957886,0.01510373,0.48520745,0.00140056,-0.00096867,0.00007885
 ,0.01100687,-0.01576530,-0.00184892,0.00007640,0.00017811,-0.00001409,
 -0.00014614,-0.00009390,-0.00021300,0.00002855,0.00001898,0.00003600,0
 .00001492,0.00002379,0.00005901,0.00003263,0.00002971,-0.00001178,-0.0
 0104758,0.00047085,-0.00125931,-0.00064672,0.00046801,0.00051953,-0.00
 044002,-0.00095142,-0.00009920,-0.15275572,0.13241672,0.01675698,0.166
 28506,0.00197532,0.00071734,0.00016749,0.01545438,-0.02437723,-0.00189
 777,0.00002629,0.00040507,0.00005043,0.00004554,-0.00018294,-0.0000750
 3,-0.00003554,0.00001127,-0.00003231,-0.00000479,0.00000925,0.00002277
 ,0.00003297,0.00004385,0.00005375,0.00103284,0.00014001,-0.00040817,0.
 00042520,0.00002597,0.00113041,-0.00108293,-0.00023968,-0.00032788,0.1
 2820685,-0.21344523,-0.02423186,-0.13837962,0.23341491,0.00026256,-0.0
 0055033,-0.00033273,-0.00079129,0.00225010,-0.00049080,-0.00015302,0.0
 0014775,-0.00011285,0.00008384,-0.00010684,-0.00055239,0.00001457,0.00
 007903,0.00004212,-0.00003576,-0.00001655,-0.00003229,0.00013235,0.000
 07081,0.00014476,0.00027715,0.00015091,-0.00024009,-0.00033838,-0.0006
 5563,0.00060707,-0.00044712,0.00063404,0.00018585,0.01475836,-0.022740
 51,-0.05173808,-0.02157004,0.02375312,0.05600040,0.00112075,-0.0027341
 1,-0.00037921,-0.01632804,-0.00298740,-0.01194852,-0.00064142,-0.00007
 803,0.00105465,0.00009171,0.00010248,0.00032894,-0.00002077,-0.0000516
 6,-0.00000390,-0.00001138,0.00001934,-0.00004818,-0.00006456,-0.000028
 32,-0.00006217,-0.00016597,0.00007337,-0.00026059,-0.00016056,-0.00028
 952,-0.00009111,0.00008322,0.00041161,-0.00030431,-0.16033147,0.002126
 14,-0.13090194,-0.01280552,-0.00125696,-0.01445472,0.17638847,-0.00028
 728,-0.00386259,0.00019540,-0.02327664,-0.00253638,-0.02232846,-0.0009
 6401,0.00042594,0.00161486,0.00014051,-0.00010484,-0.00007149,-0.00000
 936,0.00000654,0.00002880,-0.00002264,0.00002119,-0.00003369,0.0000412
 6,0.00003609,0.00006063,0.00064372,0.00023286,-0.00052423,0.00006574,-
 0.00052432,0.00089788,-0.00054933,0.00028591,-0.00026948,0.00116447,-0
 .05036618,-0.00358605,0.01603737,0.00161489,0.01972776,0.00447937,0.05
 240976,0.00040278,-0.00020730,-0.00007588,0.00207426,0.00092621,0.0027
 5085,0.00014227,0.00004030,-0.00036563,0.00005194,-0.00001198,-0.00001
 616,0.00002581,0.00003060,-0.00001183,0.00002476,-0.00003160,0.0000275
 4,-0.00001759,0.00001095,0.00002150,-0.00006512,0.00003565,0.00001578,
 0.00004364,0.00003899,0.00007478,0.00002190,-0.00007753,-0.00000643,-0
 .12865762,-0.00284315,-0.18733419,0.00271686,0.00086285,0.00298664,0.1
 3868559,0.00117445,0.20901140,-0.02347419,0.02516491,-0.00089953,-0.11
 901180,0.11898471,-0.00458068,0.00197062,-0.00190940,-0.00002972,0.000
 46804,0.00027154,0.00069286,-0.00016289,-0.00008298,-0.00014614,-0.000
 04799,-0.00001450,-0.00013385,-0.00011993,-0.00003050,-0.00002432,0.00
 129943,0.00055349,-0.00244663,-0.00106499,-0.00109012,0.00235221,-0.00
 262760,0.00133608,-0.00033049,0.00883983,-0.01519698,0.00103859,-0.001
 44340,-0.00304643,0.00050063,0.00077994,0.00087881,-0.00020554,0.13380
 741,0.00115650,-0.00062035,0.00062505,0.11374725,-0.23076200,0.0085923
 0,0.00023333,0.00073084,-0.00017871,0.00017987,0.00004684,0.00013802,-
 0.00004769,-0.00000705,-0.00005287,-0.00001864,-0.00001189,-0.00005947
 ,-0.00002691,0.00001812,0.00002735,0.00062066,0.00014235,-0.00091234,-
 0.00006009,-0.00168986,0.00141621,-0.00128370,0.00348313,-0.00060714,0
 .01576855,-0.02182996,0.00056452,-0.00371477,-0.00366491,0.00042099,0.
 00009954,0.00126134,-0.00050576,-0.12660932,0.25158174,0.00044139,-0.0
 0029364,0.01145746,-0.00372972,0.00858337,-0.03845254,-0.00006726,-0.0
 0022229,-0.00297346,-0.00000861,-0.00052162,-0.00013947,-0.00015757,0.
 00025120,-0.00012472,-0.00000964,0.00000645,-0.00002807,-0.00001127,0.
 00008730,0.00001951,0.00064897,-0.00055276,0.00029707,-0.00014019,-0.0
 0037731,0.00106913,-0.00107060,0.00188759,0.00163552,-0.00090719,0.000
 97974,0.00697585,0.00024912,0.00009234,0.00140503,0.00106300,0.0007068
 1,0.00027372,0.00505547,-0.00949304,0.01794186,0.00196691,-0.00159328,
 0.00090656,-0.01709662,-0.00830150,0.01781220,-0.00046304,-0.00009361,
 -0.00133531,0.00008304,0.00001569,0.00009223,-0.00010813,-0.00007367,-
 0.00001142,-0.00006888,0.00009088,-0.00007554,0.00004617,-0.00003172,-
 0.00003826,0.00047011,-0.00000436,-0.00023321,-0.00024753,-0.00053828,
 0.00049070,-0.00044291,0.00081634,0.00010589,-0.09930671,0.00211346,0.
 04718151,-0.01001749,-0.00280013,0.01989052,0.01131810,0.00240180,-0.0
 1883673,0.00103350,0.00087686,-0.00135200,0.55025062,0.00065867,-0.003
 50918,0.00060120,-0.01867698,-0.00375816,0.02752562,-0.00090356,0.0002
 7733,-0.00183213,0.00002192,-0.00032682,0.00004828,-0.00001944,0.00008
 856,-0.00000434,-0.00003185,0.00004849,-0.00005961,-0.00001008,0.00008
 054,0.00001475,0.00064235,0.00023483,-0.00106679,0.00017434,-0.0005164
 8,0.00143436,-0.00089382,0.00078024,-0.00035920,0.00019387,-0.07885427
 ,0.00815750,0.01177591,0.00393045,-0.02367093,0.00005833,0.00020202,0.
 00038797,0.00011984,0.00073556,-0.00093478,-0.00124102,0.57457126,-0.0
 0207726,-0.00264566,-0.00045005,0.00653720,0.00780357,-0.00200378,-0.0
 0048744,0.00011145,-0.00014259,-0.00006952,0.00005308,0.00031056,-0.00
 021937,-0.00011863,0.00000869,-0.00009404,0.00015350,-0.00017795,-0.00
 000509,-0.00007069,-0.00010439,0.00062660,-0.00002997,-0.00112502,-0.0
 0011995,-0.00069123,0.00068610,-0.00042867,0.00106537,-0.00017380,0.04
 522013,0.00276330,-0.16073100,0.00251446,0.00027466,-0.00508083,0.0153
 2165,0.00182223,-0.02535676,-0.00074774,-0.00077337,0.00051364,0.04819
 903,0.00726887,0.48960009,-0.00000768,0.00020796,-0.00028059,0.0016956
 3,0.00078894,0.00026578,0.00000897,0.00003941,0.00002976,-0.00020228,0
 .00001463,-0.00024433,-0.00000049,-0.00002830,0.00001258,0.00001317,0.
 00001035,0.00000424,0.00004034,0.00000767,0.00003761,0.00012708,-0.000
 05011,0.00001527,-0.00001182,-0.00005437,0.00012521,-0.00005788,0.0000
 3471,0.00000939,0.01080311,-0.00153900,0.01464122,0.00090282,0.0000659
 1,-0.00082576,-0.00084536,-0.00058498,0.00399069,-0.00006154,-0.000023
 86,-0.00005358,-0.16499542,0.00676876,-0.13501661,0.17693661,-0.000455
 05,0.00046423,-0.00028752,0.00124488,0.00004130,0.00062587,0.00010744,
 -0.00008730,-0.00002378,0.00012193,0.00031628,0.00003600,-0.00004857,-
 0.00008286,0.00001250,0.00004740,-0.00002176,0.00007003,-0.00003684,-0
 .00008342,-0.00000986,-0.00021441,-0.00022780,0.00029231,-0.00012229,0
 .00023080,-0.00029217,0.00017965,-0.00029180,0.00012666,0.00100827,-0.
 00084792,0.00180089,-0.00037467,0.00005344,-0.00048678,-0.00019257,0.0
 0083090,0.00034766,0.00010213,-0.00000234,0.00004825,0.00667535,-0.049
 43193,0.00766431,-0.00698516,0.04798753,0.00031535,0.00066343,0.000535
 21,-0.00158715,-0.00142776,0.00108953,0.00017224,-0.00008456,-0.000215
 13,0.00024357,0.00003090,0.00026793,0.00010790,0.00000551,-0.00000557,
 0.00002719,-0.00002670,0.00003636,-0.00005719,0.00000818,-0.00003015,-
 0.00070932,0.00014942,0.00040658,0.00000483,0.00031519,-0.00036322,0.0
 0027600,-0.00045846,0.00003266,-0.01844314,0.00163731,-0.02440735,-0.0
 0035771,-0.00028016,0.00121695,0.00382660,0.00071866,-0.00456251,0.000
 05952,0.00009390,-0.00013421,-0.13252458,0.00764898,-0.19649360,0.1436
 4209,-0.00886250,0.21777293,-0.00013826,-0.00008599,-0.00005964,0.0004
 7267,0.00109530,-0.00076826,0.00001563,-0.00007221,0.00002217,0.000104
 74,0.00010420,0.00011860,0.00002198,-0.00001714,-0.00000240,0.00002052
 ,-0.00002414,0.00002613,-0.00003607,-0.00001928,-0.00000644,-0.0003390
 4,-0.00003186,0.00026552,-0.00009880,0.00012965,-0.00036602,0.00025338
 ,-0.00015277,0.00010510,-0.01064848,0.01216413,0.00214469,-0.00035533,
 -0.00077116,0.00324673,0.00075489,-0.00047974,-0.00016323,-0.00013179,
 -0.00060719,0.00021645,-0.14330802,0.12397624,0.02011818,-0.01275279,0
 .01705494,0.00382648,0.15389367,0.00003744,0.00019905,-0.00003693,-0.0
 0054104,0.00104959,-0.00008186,0.00002473,0.00000105,0.00005075,-0.000
 06244,-0.00004056,-0.00007818,0.00000884,0.00001712,-0.00000030,-0.000
 01102,-0.00000435,-0.00000955,0.00002595,0.00000742,0.00000578,0.00007
 825,0.00001061,0.00006067,0.00004174,-0.00003128,0.00001878,-0.0000645
 2,0.00003963,-0.00003127,-0.00279672,0.00254751,0.00022464,-0.00102130
 ,0.00111422,0.00067414,0.00005754,0.00008444,-0.00060362,0.00045147,0.
 00029718,-0.00006784,0.12458479,-0.21114777,-0.02731715,-0.00055994,-0
 .00074424,0.00031443,-0.13756960,0.22721080,-0.00023370,0.00034725,-0.
 00001249,-0.00073472,-0.00116849,0.00128780,0.00005549,0.00001202,-0.0
 0006612,0.00007988,0.00001356,-0.00005003,0.00003140,0.00001491,0.0000
 0842,0.00003061,-0.00002924,0.00005533,-0.00000880,0.00001279,0.000032
 20,-0.00014792,0.00008804,0.00005475,0.00006558,0.00014351,0.00014383,
 -0.00005649,-0.00028097,-0.00007355,0.01943149,-0.02483387,-0.00490043
 ,0.00285629,0.00127785,-0.00522578,-0.00079410,-0.00031314,0.00111886,
 0.00005724,0.00067342,0.00000655,0.01965464,-0.02668943,-0.05231257,-0
 .01393560,0.02064811,0.00409623,-0.02590644,0.03002209,0.05689530,0.00
 064762,-0.00108145,0.00044173,-0.00130464,0.00108014,0.00331986,-0.000
 20865,0.00009274,-0.00035615,0.00012813,-0.00010262,0.00013240,0.00002
 958,0.00004971,-0.00001046,-0.00000931,-0.00001503,-0.00004511,-0.0000
 2317,0.00003293,0.00000733,0.00010804,0.00023126,-0.00039886,-0.000024
 92,-0.00034300,0.00046715,-0.00027116,0.00053597,-0.00011670,-0.008936
 64,-0.01288249,-0.00020885,-0.00008989,0.00011226,-0.00055063,0.000837
 97,0.00032092,-0.00023466,-0.00005265,-0.00029040,-0.00016676,-0.12911
 369,-0.12261349,0.00072843,-0.01159249,-0.01811242,0.00117733,0.012271
 09,0.01731583,-0.00044484,0.13760478,0.00019268,-0.00030803,0.00021926
 ,-0.00062132,0.00127851,0.00077194,-0.00002117,0.00004357,-0.00011361,
 0.00004776,-0.00002303,0.00009383,-0.00000711,0.00000541,-0.00000511,-
 0.00000588,0.00000258,-0.00002028,-0.00002135,0.00000666,-0.00000723,0
 .00005824,0.00005302,-0.00020022,-0.00004902,-0.00018096,0.00017104,-0
 .00009721,0.00022377,-0.00003778,0.00040052,-0.00083983,-0.00086655,-0
 .00014978,0.00042931,0.00031892,0.00019084,-0.00001756,0.00042531,0.00
 011726,0.00029126,-0.00017977,-0.12289759,-0.23340466,0.00266635,0.001
 88738,0.00189686,-0.00044577,-0.01469336,-0.02061041,0.00006161,0.1356
 6915,0.25115352,0.00015899,0.00160532,0.00004575,0.00329068,-0.0011976
 9,-0.00526764,0.00040580,-0.00007283,0.00051075,-0.00006664,-0.0000468
 9,-0.00008656,0.00008808,0.00003624,-0.00000530,0.00001999,-0.00003881
 ,0.00003933,0.00001167,0.00002326,0.00001399,-0.00032097,-0.00004125,0
 .00043936,0.00009937,0.00034638,-0.00052300,0.00032905,-0.00051280,0.0
 0009962,0.01654302,0.02629837,-0.00190514,-0.00041305,-0.00043249,0.00
 121704,-0.00103168,0.00017903,0.00144833,-0.00021187,0.00003095,0.0002
 5714,0.00007377,0.00152969,-0.04696674,-0.01241738,-0.02170998,0.00075
 736,-0.00281761,-0.00314456,-0.00105830,-0.00374121,-0.00285194,0.0509
 8402\\0.00000109,-0.00000076,-0.00000037,-0.00000025,0.00000087,0.0000
 0022,0.00000018,-0.00000009,0.00000142,0.00000072,0.00000023,-0.000001
 23,0.00000005,-0.00000009,0.00000045,-0.00000028,-0.00000051,-0.000000
 46,0.00000004,-0.00000026,0.00000050,-0.00000019,-0.00000256,0.0000012
 1,0.00000006,0.00000109,0.00000114,-0.00000034,0.00000197,-0.00000171,
 -0.00000087,0.00000008,0.00000010,-0.00000010,0.00000003,-0.00000074,0
 .00000011,0.00000055,0.00000009,0.00000003,0.,-0.00000015,0.00000019,0
 .00000011,0.00000006,-0.00000040,-0.00000008,-0.00000023,-0.00000015,-
 0.00000033,-0.00000008,0.00000013,-0.00000023,-0.00000021\\\@


 THE UNDERLYING PHYSICAL LAWS NECESSARY FOR THE 
 MATHEMATICAL THEORY OF A LARGE PART OF PHYSICS AND THE
 WHOLE OF CHEMISTRY ARE THUS COMPLETELY KNOWN, AND THE
 DIFFICULTY IS ONLY THAT THE EXACT APPLICATION OF THESE
 LAWS LEADS TO EQUATIONS MUCH TOO COMPLICATED 
 TO BE SOLUBLE.

                                        -- P. A. M. DIRAC, 1929
 Job cpu time:       3 days  5 hours 44 minutes 56.3 seconds.
 Elapsed time:       0 days  2 hours  0 minutes 23.1 seconds.
 File lengths (MBytes):  RWF= 108510 Int=      0 D2E=      0 Chk=     21 Scr=      1
 Normal termination of Gaussian 16 at Tue Jun  4 22:23:43 2019.
