 Entering Gaussian System, Link 0=g16
 Initial command:
 /ichec/packages/gaussian/16b01/l1.exe "/localscratch/341085/Gau-92579.inp" -scrdir="/localscratch/341085/"
 Entering Link 1 = /ichec/packages/gaussian/16b01/l1.exe PID=     97910.
  
 Copyright (c) 1988-2017, Gaussian, Inc.  All Rights Reserved.
  
 This is part of the Gaussian(R) 16 program.  It is based on
 the Gaussian(R) 09 system (copyright 2009, Gaussian, Inc.),
 the Gaussian(R) 03 system (copyright 2003, Gaussian, Inc.),
 the Gaussian(R) 98 system (copyright 1998, Gaussian, Inc.),
 the Gaussian(R) 94 system (copyright 1995, Gaussian, Inc.),
 the Gaussian 92(TM) system (copyright 1992, Gaussian, Inc.),
 the Gaussian 90(TM) system (copyright 1990, Gaussian, Inc.),
 the Gaussian 88(TM) system (copyright 1988, Gaussian, Inc.),
 the Gaussian 86(TM) system (copyright 1986, Carnegie Mellon
 University), and the Gaussian 82(TM) system (copyright 1983,
 Carnegie Mellon University). Gaussian is a federally registered
 trademark of Gaussian, Inc.
  
 This software contains proprietary and confidential information,
 including trade secrets, belonging to Gaussian, Inc.
  
 This software is provided under written license and may be
 used, copied, transmitted, or stored only in accord with that
 written license.
  
 The following legend is applicable only to US Government
 contracts under FAR:
  
                    RESTRICTED RIGHTS LEGEND
  
 Use, reproduction and disclosure by the US Government is
 subject to restrictions as set forth in subparagraphs (a)
 and (c) of the Commercial Computer Software - Restricted
 Rights clause in FAR 52.227-19.
  
 Gaussian, Inc.
 340 Quinnipiac St., Bldg. 40, Wallingford CT 06492
  
  
 ---------------------------------------------------------------
 Warning -- This program may not be used in any manner that
 competes with the business of Gaussian, Inc. or will provide
 assistance to any competitor of Gaussian, Inc.  The licensee
 of this program is prohibited from giving any competitor of
 Gaussian, Inc. access to this program.  By using this program,
 the user acknowledges that Gaussian, Inc. is engaged in the
 business of creating and licensing software in the field of
 computational chemistry and represents and warrants to the
 licensee that it is not a competitor of Gaussian, Inc. and that
 it will not use this program in any manner prohibited above.
 ---------------------------------------------------------------
  

 Cite this work as:
 Gaussian 16, Revision B.01,
 M. J. Frisch, G. W. Trucks, H. B. Schlegel, G. E. Scuseria, 
 M. A. Robb, J. R. Cheeseman, G. Scalmani, V. Barone, 
 G. A. Petersson, H. Nakatsuji, X. Li, M. Caricato, A. V. Marenich, 
 J. Bloino, B. G. Janesko, R. Gomperts, B. Mennucci, H. P. Hratchian, 
 J. V. Ortiz, A. F. Izmaylov, J. L. Sonnenberg, D. Williams-Young, 
 F. Ding, F. Lipparini, F. Egidi, J. Goings, B. Peng, A. Petrone, 
 T. Henderson, D. Ranasinghe, V. G. Zakrzewski, J. Gao, N. Rega, 
 G. Zheng, W. Liang, M. Hada, M. Ehara, K. Toyota, R. Fukuda, 
 J. Hasegawa, M. Ishida, T. Nakajima, Y. Honda, O. Kitao, H. Nakai, 
 T. Vreven, K. Throssell, J. A. Montgomery, Jr., J. E. Peralta, 
 F. Ogliaro, M. J. Bearpark, J. J. Heyd, E. N. Brothers, K. N. Kudin, 
 V. N. Staroverov, T. A. Keith, R. Kobayashi, J. Normand, 
 K. Raghavachari, A. P. Rendell, J. C. Burant, S. S. Iyengar, 
 J. Tomasi, M. Cossi, J. M. Millam, M. Klene, C. Adamo, R. Cammi, 
 J. W. Ochterski, R. L. Martin, K. Morokuma, O. Farkas, 
 J. B. Foresman, and D. J. Fox, Gaussian, Inc., Wallingford CT, 2016.
 
 ******************************************
 Gaussian 16:  ES64L-G16RevB.01 20-Dec-2017
                 5-Jun-2019 
 ******************************************
 %mem=80GB
 %nproc=40
 Will use up to   40 processors via shared memory.
 ----------------------------------------------------------------------
 # opt=(calcfc,ts,noeigentest,maxcyc=500) freq=noraman uB2PLYPD3/cc-pvt
 z
 ----------------------------------------------------------------------
 1/5=1,6=500,10=4,11=1,18=20,38=1/1,3;
 2/9=110,12=2,17=6,18=5,40=1/2;
 3/5=16,6=1,11=2,25=1,30=1,71=2,74=-60,116=2,140=1/1,2,3;
 4//1;
 5/5=2,38=5/2;
 8/6=3,8=1,10=1,19=11,30=-1/1;
 9/15=3,16=-3/6;
 11/6=1,8=1,15=11,17=12,24=-1,27=1,28=-2,29=300,32=6,42=3/1,2,10;
 10/6=2,21=1/2;
 8/6=4,8=1,10=1,19=11,30=-1/11,4;
 10/5=1,20=4/2;
 11/12=2,14=11,16=1,17=2,28=-2,42=3,76=2/2,10,12;
 6/7=2,8=2,9=2,10=2/1;
 7/10=1,12=2,25=1,44=2/1,2,3,16;
 1/5=1,6=500,10=4,11=1,18=20/3(2);
 2/9=110/2;
 99//99;
 2/9=110/2;
 3/5=16,6=1,11=2,25=1,30=1,71=1,74=-60,116=2/1,2,3;
 4/5=5,16=3,69=1/1;
 5/5=2,38=5/2;
 8/6=4,10=1/1;
 9/15=2,16=-3/6;
 10/5=1/2;
 7/12=2/1,2,3,16;
 1/5=1,6=500,11=1,18=20/3(-8);
 2/9=110/2;
 6/7=2,8=2,9=2,10=2/1;
 99/9=10/99;
 -------------------
 Title Card Required
 -------------------
 Symbolic Z-matrix:
 Charge =  0 Multiplicity = 2
 C                     0.24021  -1.31825   0.4789 
 C                     0.94039  -0.50356  -0.26752 
 H                     0.51628  -2.05051   1.22666 
 H                     0.41203   0.15308  -0.95912 
 C                    -2.13404   1.2995    0.37658 
 H                    -1.28851   1.20486   1.06256 
 H                    -2.08846   2.25455  -0.14392 
 H                    -3.07116   1.21227   0.9258 
 O                    -2.06108   0.31081  -0.63111 
 O                    -2.20062  -0.92917  -0.02369 
 H                    -1.16467  -1.20448   0.24225 
 C                     2.44322  -0.37325  -0.2386 
 H                     2.86095  -1.0985    0.45951 
 H                     2.82981  -0.61833  -1.2305 
 C                     2.87018   1.04309   0.14127 
 H                     2.5169    1.29597   1.14056 
 H                     3.95499   1.14068   0.12633 
 H                     2.45568   1.77216  -0.55551 
 
 Add virtual bond connecting atoms H11        and C1         Dist= 2.70D+00.

 GradGradGradGradGradGradGradGradGradGradGradGradGradGradGradGradGradGrad
 Berny optimization.
 Initialization pass.
                           ----------------------------
                           !    Initial Parameters    !
                           ! (Angstroms and Degrees)  !
 --------------------------                            --------------------------
 ! Name  Definition              Value          Derivative Info.                !
 --------------------------------------------------------------------------------
 ! R1    R(1,2)                  1.3081         calculate D2E/DX2 analytically  !
 ! R2    R(1,3)                  1.0824         calculate D2E/DX2 analytically  !
 ! R3    R(1,11)                 1.4292         calculate D2E/DX2 analytically  !
 ! R4    R(2,4)                  1.0902         calculate D2E/DX2 analytically  !
 ! R5    R(2,12)                 1.5087         calculate D2E/DX2 analytically  !
 ! R6    R(5,6)                  1.0929         calculate D2E/DX2 analytically  !
 ! R7    R(5,7)                  1.0886         calculate D2E/DX2 analytically  !
 ! R8    R(5,8)                  1.0897         calculate D2E/DX2 analytically  !
 ! R9    R(5,9)                  1.4136         calculate D2E/DX2 analytically  !
 ! R10   R(9,10)                 1.3878         calculate D2E/DX2 analytically  !
 ! R11   R(10,11)                1.1044         calculate D2E/DX2 analytically  !
 ! R12   R(12,13)                1.0899         calculate D2E/DX2 analytically  !
 ! R13   R(12,14)                1.0924         calculate D2E/DX2 analytically  !
 ! R14   R(12,15)                1.5273         calculate D2E/DX2 analytically  !
 ! R15   R(15,16)                1.0897         calculate D2E/DX2 analytically  !
 ! R16   R(15,17)                1.0893         calculate D2E/DX2 analytically  !
 ! R17   R(15,18)                1.0903         calculate D2E/DX2 analytically  !
 ! A1    A(2,1,3)              132.7674         calculate D2E/DX2 analytically  !
 ! A2    A(2,1,11)             112.4633         calculate D2E/DX2 analytically  !
 ! A3    A(3,1,11)             114.7691         calculate D2E/DX2 analytically  !
 ! A4    A(1,2,4)              118.5335         calculate D2E/DX2 analytically  !
 ! A5    A(1,2,12)             125.1709         calculate D2E/DX2 analytically  !
 ! A6    A(4,2,12)             116.2869         calculate D2E/DX2 analytically  !
 ! A7    A(6,5,7)              110.1008         calculate D2E/DX2 analytically  !
 ! A8    A(6,5,8)              110.0016         calculate D2E/DX2 analytically  !
 ! A9    A(6,5,9)              110.2998         calculate D2E/DX2 analytically  !
 ! A10   A(7,5,8)              110.3174         calculate D2E/DX2 analytically  !
 ! A11   A(7,5,9)              105.6997         calculate D2E/DX2 analytically  !
 ! A12   A(8,5,9)              110.3458         calculate D2E/DX2 analytically  !
 ! A13   A(5,9,10)             107.9216         calculate D2E/DX2 analytically  !
 ! A14   A(9,10,11)            103.5217         calculate D2E/DX2 analytically  !
 ! A15   A(2,12,13)            109.6687         calculate D2E/DX2 analytically  !
 ! A16   A(2,12,14)            108.4036         calculate D2E/DX2 analytically  !
 ! A17   A(2,12,15)            111.3042         calculate D2E/DX2 analytically  !
 ! A18   A(13,12,14)           107.2584         calculate D2E/DX2 analytically  !
 ! A19   A(13,12,15)           110.5262         calculate D2E/DX2 analytically  !
 ! A20   A(14,12,15)           109.5697         calculate D2E/DX2 analytically  !
 ! A21   A(12,15,16)           110.651          calculate D2E/DX2 analytically  !
 ! A22   A(12,15,17)           110.9819         calculate D2E/DX2 analytically  !
 ! A23   A(12,15,18)           110.7855         calculate D2E/DX2 analytically  !
 ! A24   A(16,15,17)           108.3406         calculate D2E/DX2 analytically  !
 ! A25   A(16,15,18)           107.9153         calculate D2E/DX2 analytically  !
 ! A26   A(17,15,18)           108.055          calculate D2E/DX2 analytically  !
 ! A27   L(1,11,10,6,-1)       172.2415         calculate D2E/DX2 analytically  !
 ! A28   L(1,11,10,6,-2)       172.1808         calculate D2E/DX2 analytically  !
 ! D1    D(3,1,2,4)           -179.8822         calculate D2E/DX2 analytically  !
 ! D2    D(3,1,2,12)            -0.9972         calculate D2E/DX2 analytically  !
 ! D3    D(11,1,2,4)             0.267          calculate D2E/DX2 analytically  !
 ! D4    D(11,1,2,12)          179.152          calculate D2E/DX2 analytically  !
 ! D5    D(2,1,10,9)           -17.5887         calculate D2E/DX2 analytically  !
 ! D6    D(3,1,10,9)           161.1351         calculate D2E/DX2 analytically  !
 ! D7    D(1,2,12,13)            3.0352         calculate D2E/DX2 analytically  !
 ! D8    D(1,2,12,14)          119.8414         calculate D2E/DX2 analytically  !
 ! D9    D(1,2,12,15)         -119.5846         calculate D2E/DX2 analytically  !
 ! D10   D(4,2,12,13)         -178.0573         calculate D2E/DX2 analytically  !
 ! D11   D(4,2,12,14)          -61.2512         calculate D2E/DX2 analytically  !
 ! D12   D(4,2,12,15)           59.3229         calculate D2E/DX2 analytically  !
 ! D13   D(6,5,9,10)            64.7217         calculate D2E/DX2 analytically  !
 ! D14   D(7,5,9,10)          -176.2916         calculate D2E/DX2 analytically  !
 ! D15   D(8,5,9,10)           -57.0228         calculate D2E/DX2 analytically  !
 ! D16   D(5,9,10,11)          -88.7095         calculate D2E/DX2 analytically  !
 ! D17   D(2,12,15,16)          61.6892         calculate D2E/DX2 analytically  !
 ! D18   D(2,12,15,17)        -177.9998         calculate D2E/DX2 analytically  !
 ! D19   D(2,12,15,18)         -57.9592         calculate D2E/DX2 analytically  !
 ! D20   D(13,12,15,16)        -60.4356         calculate D2E/DX2 analytically  !
 ! D21   D(13,12,15,17)         59.8753         calculate D2E/DX2 analytically  !
 ! D22   D(13,12,15,18)        179.916          calculate D2E/DX2 analytically  !
 ! D23   D(14,12,15,16)       -178.4252         calculate D2E/DX2 analytically  !
 ! D24   D(14,12,15,17)        -58.1143         calculate D2E/DX2 analytically  !
 ! D25   D(14,12,15,18)         61.9264         calculate D2E/DX2 analytically  !
 --------------------------------------------------------------------------------
 Trust Radius=3.00D-01 FncErr=1.00D-07 GrdErr=1.00D-07 EigMax=2.50D+02 EigMin=1.00D-04
 Number of steps in this run=    108 maximum allowed number of steps=    108.
 Search for a saddle point of order  1.
 GradGradGradGradGradGradGradGradGradGradGradGradGradGradGradGradGradGrad

                          Input orientation:                          
 ---------------------------------------------------------------------
 Center     Atomic      Atomic             Coordinates (Angstroms)
 Number     Number       Type             X           Y           Z
 ---------------------------------------------------------------------
      1          6           0        0.240207   -1.318252    0.478901
      2          6           0        0.940388   -0.503560   -0.267523
      3          1           0        0.516280   -2.050515    1.226663
      4          1           0        0.412031    0.153075   -0.959117
      5          6           0       -2.134043    1.299500    0.376583
      6          1           0       -1.288513    1.204860    1.062555
      7          1           0       -2.088458    2.254554   -0.143920
      8          1           0       -3.071155    1.212267    0.925801
      9          8           0       -2.061079    0.310807   -0.631111
     10          8           0       -2.200617   -0.929166   -0.023688
     11          1           0       -1.164668   -1.204476    0.242253
     12          6           0        2.443222   -0.373253   -0.238599
     13          1           0        2.860946   -1.098498    0.459513
     14          1           0        2.829807   -0.618333   -1.230501
     15          6           0        2.870181    1.043088    0.141266
     16          1           0        2.516896    1.295972    1.140558
     17          1           0        3.954994    1.140677    0.126331
     18          1           0        2.455675    1.772160   -0.555508
 ---------------------------------------------------------------------
                    Distance matrix (angstroms):
                    1          2          3          4          5
     1  C    0.000000
     2  C    1.308100   0.000000
     3  H    1.082392   2.192152   0.000000
     4  H    2.064515   1.090244   3.105529   0.000000
     5  C    3.535556   3.621881   4.355393   3.095299   0.000000
     6  H    3.007280   3.107379   3.725812   2.843459   1.092902
     7  H    4.309934   4.098339   5.215053   3.366483   1.088637
     8  H    4.191463   4.523335   4.858596   4.099681   1.089692
     9  O    3.030161   3.131165   3.958528   2.499748   1.413607
    10  O    2.522222   3.179074   3.194109   2.978624   2.265304
    11  H    1.429203   2.276492   2.123778   2.402543   2.688425
    12  C    2.502220   1.508750   2.945048   2.218537   4.912017
    13  H    2.630008   2.138007   2.644298   3.094532   5.541407
    14  H    3.180876   2.123771   3.666225   2.552325   5.558832
    15  C    3.550590   2.506657   4.036002   2.836453   5.016311
    16  H    3.529202   2.776038   3.899853   3.185170   4.713269
    17  H    4.468812   3.456369   4.818630   3.834859   6.096247
    18  H    3.940678   2.749169   4.642223   2.638336   4.707198
                    6          7          8          9         10
     6  H    0.000000
     7  H    1.788114   0.000000
     8  H    1.787895   1.787836   0.000000
     9  O    2.065113   2.004060   2.063216   0.000000
    10  O    2.562406   3.187963   2.499020   1.387792   0.000000
    11  H    2.548163   3.601028   3.153185   1.965299   1.104405
    12  C    4.255501   5.239318   5.854746   4.572825   4.681930
    13  H    4.784049   6.008635   6.383328   5.234685   5.087394
    14  H    5.053978   5.798575   6.543859   5.014313   5.182488
    15  C    4.262591   5.112444   5.995297   5.044812   5.443343
    16  H    3.807299   4.876274   5.592803   5.006717   5.344309
    17  H    5.326819   6.151184   7.071849   6.120093   6.496022
    18  H    4.118119   4.588164   5.749227   4.747877   5.409348
                   11         12         13         14         15
    11  H    0.000000
    12  C    3.733500   0.000000
    13  H    4.032865   1.089878   0.000000
    14  H    4.297487   1.092420   1.757178   0.000000
    15  C    4.619713   1.527290   2.165123   2.154923   0.000000
    16  H    4.540166   2.166521   2.513102   3.063396   1.089654
    17  H    5.632417   2.170395   2.514330   2.490212   1.089296
    18  H    4.754331   2.168729   3.071675   2.511981   1.090346
                   16         17         18
    16  H    0.000000
    17  H    1.766607   0.000000
    18  H    1.762709   1.763982   0.000000
 Stoichiometry    C5H11O2(2)
 Framework group  C1[X(C5H11O2)]
 Deg. of freedom    48
 Full point group                 C1      NOp   1
 Largest Abelian subgroup         C1      NOp   1
 Largest concise Abelian subgroup C1      NOp   1
                         Standard orientation:                         
 ---------------------------------------------------------------------
 Center     Atomic      Atomic             Coordinates (Angstroms)
 Number     Number       Type             X           Y           Z
 ---------------------------------------------------------------------
      1          6           0        0.240207   -1.318252    0.478901
      2          6           0        0.940388   -0.503560   -0.267523
      3          1           0        0.516280   -2.050515    1.226663
      4          1           0        0.412031    0.153075   -0.959117
      5          6           0       -2.134043    1.299500    0.376583
      6          1           0       -1.288513    1.204860    1.062555
      7          1           0       -2.088458    2.254554   -0.143920
      8          1           0       -3.071155    1.212267    0.925801
      9          8           0       -2.061079    0.310807   -0.631111
     10          8           0       -2.200617   -0.929166   -0.023688
     11          1           0       -1.164668   -1.204476    0.242253
     12          6           0        2.443222   -0.373253   -0.238599
     13          1           0        2.860946   -1.098498    0.459513
     14          1           0        2.829807   -0.618333   -1.230501
     15          6           0        2.870181    1.043088    0.141266
     16          1           0        2.516896    1.295972    1.140558
     17          1           0        3.954994    1.140677    0.126331
     18          1           0        2.455675    1.772160   -0.555508
 ---------------------------------------------------------------------
 Rotational constants (GHZ):           4.3542295           1.0899883           0.9378673
 Standard basis: CC-pVTZ (5D, 7F)
 There are   410 symmetry adapted cartesian basis functions of A   symmetry.
 There are   364 symmetry adapted basis functions of A   symmetry.
   364 basis functions,   551 primitive gaussians,   410 cartesian basis functions
    29 alpha electrons       28 beta electrons
       nuclear repulsion energy       301.2903394837 Hartrees.
 NAtoms=   18 NActive=   18 NUniq=   18 SFac= 1.00D+00 NAtFMM=   60 NAOKFM=F Big=F
 Integral buffers will be    131072 words long.
 Raffenetti 2 integral format.
 Two-electron integral symmetry is turned on.
 Nuclear repulsion after empirical dispersion term =      301.2808560233 Hartrees.
 One-electron integrals computed using PRISM.
 NBasis=   364 RedAO= T EigKep=  3.81D-04  NBF=   364
 NBsUse=   364 1.00D-06 EigRej= -1.00D+00 NBFU=   364
 ExpMin= 1.03D-01 ExpMax= 1.53D+04 ExpMxC= 5.22D+02 IAcc=3 IRadAn=         5 AccDes= 0.00D+00
 Harris functional with IExCor=  419 and IRadAn=       5 diagonalized for initial guess.
 HarFok:  IExCor=  419 AccDes= 0.00D+00 IRadAn=         5 IDoV= 1 UseB2=F ITyADJ=14
 ICtDFT=  3500011 ScaDFX=  1.000000  1.000000  1.000000  1.000000
 FoFCou: FMM=F IPFlag=           0 FMFlag=      100000 FMFlg1=           0
         NFxFlg=           0 DoJE=T BraDBF=F KetDBF=T FulRan=T
         wScrn=  0.000000 ICntrl=       500 IOpCl=  0 I1Cent=   200000004 NGrid=           0
         NMat0=    1 NMatS0=      1 NMatT0=    0 NMatD0=    1 NMtDS0=    0 NMtDT0=    0
 Petite list used in FoFCou.
 Initial guess <Sx>= 0.0000 <Sy>= 0.0000 <Sz>= 0.5000 <S**2>= 0.7500 S= 0.5000
 Requested convergence on RMS density matrix=1.00D-08 within 128 cycles.
 Requested convergence on MAX density matrix=1.00D-06.
 Requested convergence on             energy=1.00D-06.
 No special actions if energy rises.
 Integral accuracy reduced to 1.0D-05 until final iterations.
 Initial convergence to 1.0D-05 achieved.  Increase integral accuracy.
 SCF Done:  E(UB2PLYPD3) =  -346.797741321     A.U. after   21 cycles
            NFock= 21  Conv=0.41D-08     -V/T= 2.0042
 <Sx>= 0.0000 <Sy>= 0.0000 <Sz>= 0.5000 <S**2>= 0.7781 S= 0.5140
 <L.S>=  0.00000000000    
 Annihilation of the first spin contaminant:
 S**2 before annihilation     0.7781,   after     0.7505
 DoSCS=T DFT=T ScalE2(SS,OS)=  0.270000  0.270000
 ExpMin= 1.03D-01 ExpMax= 1.53D+04 ExpMxC= 5.22D+02 IAcc=3 IRadAn=         5 AccDes= 0.00D+00
 HarFok:  IExCor=  205 AccDes= 0.00D+00 IRadAn=         5 IDoV=-2 UseB2=F ITyADJ=14
 ICtDFT= 12500011 ScaDFX=  1.000000  1.000000  1.000000  1.000000
 Range of M.O.s used for correlation:     8   364
 NBasis=   364 NAE=    29 NBE=    28 NFC=     7 NFV=     0
 NROrb=    357 NOA=    22 NOB=    21 NVA=   335 NVB=   336

 **** Warning!!: The largest alpha MO coefficient is  0.13101536D+02


 **** Warning!!: The largest beta MO coefficient is  0.11998495D+02

 DoSCS=T DFT=T ScalE2(SS,OS)=  0.270000  0.270000
 Disk-based method using ON**2 memory for 22 occupieds at a time.
 Permanent disk used for amplitudes=   135386230 words.
 Estimated scratch disk usage=  2505960848 words.
 Actual    scratch disk usage=  2423077264 words.
 JobTyp=2 Pass  1:  I=   8 to  29 NPSUse= 40 ParTrn=T ParDer=T DoDerP=T.
 (rs|ai) integrals will be sorted in core.
 Actual    scratch disk usage=  2423077264 words.
 JobTyp=3 Pass  1:  I=   8 to  28 NPSUse= 40 ParTrn=T ParDer=T DoDerP=T.
 (rs|ai) integrals will be sorted in core.
 Spin components of T(2) and E(2):
     alpha-alpha T2 =       0.7474629625D-01 E2=     -0.5324342704D-01
     alpha-beta  T2 =       0.4586253809D+00 E2=     -0.3333007135D+00
     beta-beta   T2 =       0.8017418020D-01 E2=     -0.5214746127D-01
 (S**2,0)=  0.77811D+00           (S**2,1)=  0.74964D+00
 Scaling Projection term by:   0.270000
 E(PUHF)=      -0.34680401902D+03        E(PMP2)=      -0.34723727921D+03
 E2(B2PLYPD3) =    -0.4386916018D+00 E(B2PLYPD3) =    -0.34723643292253D+03
 G2DrvN: will do    19 centers at a time, making    1 passes.
 Calling FoFCou, ICntrl=  3107 FMM=F I1Cent=   0 AccDes= 0.00D+00.
 End of G2Drv F.D. properties file   721 does not exist.
 End of G2Drv F.D. properties file   722 does not exist.
 End of G2Drv F.D. properties file   788 does not exist.
          IDoAtm=111111111111111111
          Differentiating once with respect to electric field.
                with respect to dipole field.
          Differentiating once with respect to nuclear coordinates.
 Keep R1 and R2 ints in memory in canonical form, NReq=4459304659.
          There are    57 degrees of freedom in the 1st order CPHF.  IDoFFX=6 NUNeed=    57.
     54 vectors produced by pass  0 Test12= 3.35D-14 1.75D-09 XBig12= 8.59D+01 4.40D+00.
 AX will form    54 AO Fock derivatives at one time.
     54 vectors produced by pass  1 Test12= 3.35D-14 1.75D-09 XBig12= 6.82D+00 5.33D-01.
     54 vectors produced by pass  2 Test12= 3.35D-14 1.75D-09 XBig12= 4.67D-01 1.18D-01.
     54 vectors produced by pass  3 Test12= 3.35D-14 1.75D-09 XBig12= 7.74D-03 7.91D-03.
     54 vectors produced by pass  4 Test12= 3.35D-14 1.75D-09 XBig12= 1.01D-04 9.08D-04.
     54 vectors produced by pass  5 Test12= 3.35D-14 1.75D-09 XBig12= 8.40D-07 7.47D-05.
     51 vectors produced by pass  6 Test12= 3.35D-14 1.75D-09 XBig12= 6.85D-09 7.08D-06.
     26 vectors produced by pass  7 Test12= 3.35D-14 1.75D-09 XBig12= 4.31D-11 5.59D-07.
      3 vectors produced by pass  8 Test12= 3.35D-14 1.75D-09 XBig12= 3.10D-13 6.52D-08.
      2 vectors produced by pass  9 Test12= 3.35D-14 1.75D-09 XBig12= 2.19D-15 3.51D-09.
 InvSVY:  IOpt=1 It=  1 EMax= 1.07D-14
 Solved reduced A of dimension   406 with    57 vectors.
 End of Minotr F.D. properties file   721 does not exist.
 End of Minotr F.D. properties file   722 does not exist.
 End of Minotr F.D. properties file   788 does not exist.
 MDV= 10737418240.
 DoSCS=T DFT=T ScalE2(SS,OS)=  0.270000  0.270000
 Form MO integral derivatives with frozen-active canonical formalism.
 Discarding MO integrals.
 Reordered first order wavefunction length =    545006183
 In DefCFB: NBatch=  1 ICI= 29 ICA=336 LFMax= 68
            Large arrays: LIAPS= 11415666080 LIARS=  1957569600 words.
 In DefCFB: NBatch=  1 ICI= 29 ICA=336 LFMax= 68
            Large arrays: LIAPS= 11415666080 LIARS=  1957569600 words.
 Semi-Direct transformation.
 ModeAB=           4 MOrb=            29 LenV=   10733565331
 LASXX=    664627481 LTotXX=   664627481 LenRXX=  1338891981
 LTotAB=   674264500 MaxLAS=   768170676 LenRXY=           0
 NonZer=  2003519462 LenScr=  3017065472 LnRSAI=   768170676
 LnScr1=  1156774912 LExtra=           0 Total=   6280903041
 MaxDsk=          -1 SrtSym=           T ITran=            4
 JobTyp=1 Pass  1:  I=   1 to  29.
 (rs|ai) integrals will be sorted in core.
 ModeAB=           4 MOrb=            28 LenV=   10733565331
 LASXX=    642894399 LTotXX=   642894399 LenRXX=  1195226319
 LTotAB=   552331920 MaxLAS=   741682032 LenRXY=           0
 NonZer=  1838120718 LenScr=  2767993856 LnRSAI=   741682032
 LnScr1=  1116886016 LExtra=           0 Total=   5821788223
 MaxDsk=          -1 SrtSym=           T ITran=            4
 JobTyp=2 Pass  1:  I=   1 to  28.
 (rs|ai) integrals will be sorted in core.
 SymMOI:  orbitals are not symmetric.
 DoSCS=T DFT=T ScalE2(SS,OS)=  0.270000  0.270000
 Spin components of T(2) and E(2):
     alpha-alpha T2 =       0.7474629625D-01 E2=     -0.5324342704D-01
     alpha-beta  T2 =       0.4586253809D+00 E2=     -0.3333007135D+00
     beta-beta   T2 =       0.8017418020D-01 E2=     -0.5214746127D-01
 E2(B2PLYPD3) =    -0.4386916018D+00 E(B2PLYPD3) =    -0.34723643292253D+03
 (S**2,0)=  0.77811D+00           (S**2,1)=  0.74964D+00
 Scaling Projection term by:   0.270000
 E(PUHF)=      -0.34680401902D+03        E(PMP2)=      -0.34723727921D+03
          IDoAtm=111111111111111111
          Differentiating once with respect to electric field.
                with respect to dipole field.
          Differentiating once with respect to nuclear coordinates.
 Keep R1 and R2 ints in memory in canonical form, NReq=4459439664.
          There are     1 degrees of freedom in the 1st order CPHF.  IDoFFX=0 NUNeed=     1.
 LinEq1:  Iter=  0 NonCon=     1 RMS=8.69D-04 Max=7.06D-02 NDo=     1
 AX will form     1 AO Fock derivatives at one time.
 LinEq1:  Iter=  1 NonCon=     1 RMS=2.96D-04 Max=1.31D-02 NDo=     1
 LinEq1:  Iter=  2 NonCon=     1 RMS=1.86D-04 Max=9.03D-03 NDo=     1
 LinEq1:  Iter=  3 NonCon=     1 RMS=8.97D-05 Max=4.59D-03 NDo=     1
 LinEq1:  Iter=  4 NonCon=     1 RMS=6.73D-05 Max=3.93D-03 NDo=     1
 LinEq1:  Iter=  5 NonCon=     1 RMS=3.03D-05 Max=1.34D-03 NDo=     1
 LinEq1:  Iter=  6 NonCon=     1 RMS=2.07D-05 Max=9.60D-04 NDo=     1
 LinEq1:  Iter=  7 NonCon=     1 RMS=7.39D-06 Max=2.25D-04 NDo=     1
 LinEq1:  Iter=  8 NonCon=     1 RMS=5.19D-06 Max=1.86D-04 NDo=     1
 LinEq1:  Iter=  9 NonCon=     1 RMS=2.57D-06 Max=7.72D-05 NDo=     1
 LinEq1:  Iter= 10 NonCon=     1 RMS=1.03D-06 Max=2.30D-05 NDo=     1
 LinEq1:  Iter= 11 NonCon=     1 RMS=4.25D-07 Max=9.00D-06 NDo=     1
 LinEq1:  Iter= 12 NonCon=     1 RMS=1.83D-07 Max=3.82D-06 NDo=     1
 LinEq1:  Iter= 13 NonCon=     1 RMS=8.04D-08 Max=1.82D-06 NDo=     1
 LinEq1:  Iter= 14 NonCon=     1 RMS=2.71D-08 Max=6.60D-07 NDo=     1
 LinEq1:  Iter= 15 NonCon=     1 RMS=1.19D-08 Max=2.18D-07 NDo=     1
 LinEq1:  Iter= 16 NonCon=     1 RMS=4.61D-09 Max=1.44D-07 NDo=     1
 LinEq1:  Iter= 17 NonCon=     1 RMS=1.44D-09 Max=3.63D-08 NDo=     1
 LinEq1:  Iter= 18 NonCon=     1 RMS=4.06D-10 Max=1.67D-08 NDo=     1
 LinEq1:  Iter= 19 NonCon=     1 RMS=1.20D-10 Max=6.56D-09 NDo=     1
 LinEq1:  Iter= 20 NonCon=     1 RMS=3.94D-11 Max=2.49D-09 NDo=     1
 LinEq1:  Iter= 21 NonCon=     1 RMS=1.93D-11 Max=1.01D-09 NDo=     1
 LinEq1:  Iter= 22 NonCon=     0 RMS=8.43D-12 Max=3.07D-10 NDo=     1
 Linear equations converged to 1.000D-10 1.000D-09 after    22 iterations.
 End of Minotr F.D. properties file   721 does not exist.
 End of Minotr F.D. properties file   722 does not exist.
 End of Minotr F.D. properties file   788 does not exist.
 Symmetrizing basis deriv contribution to polar:
 IMax=3 JMax=2 DiffMx= 0.00D+00
 G2DrvN: will do    19 centers at a time, making    1 passes.
 Calling FoFCou, ICntrl=  3107 FMM=F I1Cent=   0 AccDes= 0.00D+00.
 End of G2Drv F.D. properties file   721 does not exist.
 End of G2Drv F.D. properties file   722 does not exist.
 End of G2Drv F.D. properties file   788 does not exist.
 DoSCS=T DFT=T ScalE2(SS,OS)=  0.270000  0.270000
 R2 and R3 integrals will be kept in memory, NReq=  7133702340.
 DD1Dir will call FoFMem   1 times, MxPair=      2408
 NAB=   812 NAA=   406 NBB=   378.
 Discarding MO integrals.

 **********************************************************************

            Population analysis using the SCF Density.

 **********************************************************************

 Orbital symmetries:
 Alpha Orbitals:
       Occupied  (A) (A) (A) (A) (A) (A) (A) (A) (A) (A) (A) (A)
                 (A) (A) (A) (A) (A) (A) (A) (A) (A) (A) (A) (A)
                 (A) (A) (A) (A) (A)
       Virtual   (A) (A) (A) (A) (A) (A) (A) (A) (A) (A) (A) (A)
                 (A) (A) (A) (A) (A) (A) (A) (A) (A) (A) (A) (A)
                 (A) (A) (A) (A) (A) (A) (A) (A) (A) (A) (A) (A)
                 (A) (A) (A) (A) (A) (A) (A) (A) (A) (A) (A) (A)
                 (A) (A) (A) (A) (A) (A) (A) (A) (A) (A) (A) (A)
                 (A) (A) (A) (A) (A) (A) (A) (A) (A) (A) (A) (A)
                 (A) (A) (A) (A) (A) (A) (A) (A) (A) (A) (A) (A)
                 (A) (A) (A) (A) (A) (A) (A) (A) (A) (A) (A) (A)
                 (A) (A) (A) (A) (A) (A) (A) (A) (A) (A) (A) (A)
                 (A) (A) (A) (A) (A) (A) (A) (A) (A) (A) (A) (A)
                 (A) (A) (A) (A) (A) (A) (A) (A) (A) (A) (A) (A)
                 (A) (A) (A) (A) (A) (A) (A) (A) (A) (A) (A) (A)
                 (A) (A) (A) (A) (A) (A) (A) (A) (A) (A) (A) (A)
                 (A) (A) (A) (A) (A) (A) (A) (A) (A) (A) (A) (A)
                 (A) (A) (A) (A) (A) (A) (A) (A) (A) (A) (A) (A)
                 (A) (A) (A) (A) (A) (A) (A) (A) (A) (A) (A) (A)
                 (A) (A) (A) (A) (A) (A) (A) (A) (A) (A) (A) (A)
                 (A) (A) (A) (A) (A) (A) (A) (A) (A) (A) (A) (A)
                 (A) (A) (A) (A) (A) (A) (A) (A) (A) (A) (A) (A)
                 (A) (A) (A) (A) (A) (A) (A) (A) (A) (A) (A) (A)
                 (A) (A) (A) (A) (A) (A) (A) (A) (A) (A) (A) (A)
                 (A) (A) (A) (A) (A) (A) (A) (A) (A) (A) (A) (A)
                 (A) (A) (A) (A) (A) (A) (A) (A) (A) (A) (A) (A)
                 (A) (A) (A) (A) (A) (A) (A) (A) (A) (A) (A) (A)
                 (A) (A) (A) (A) (A) (A) (A) (A) (A) (A) (A) (A)
                 (A) (A) (A) (A) (A) (A) (A) (A) (A) (A) (A) (A)
                 (A) (A) (A) (A) (A) (A) (A) (A) (A) (A) (A) (A)
                 (A) (A) (A) (A) (A) (A) (A) (A) (A) (A) (A)
 Beta  Orbitals:
       Occupied  (A) (A) (A) (A) (A) (A) (A) (A) (A) (A) (A) (A)
                 (A) (A) (A) (A) (A) (A) (A) (A) (A) (A) (A) (A)
                 (A) (A) (A) (A)
       Virtual   (A) (A) (A) (A) (A) (A) (A) (A) (A) (A) (A) (A)
                 (A) (A) (A) (A) (A) (A) (A) (A) (A) (A) (A) (A)
                 (A) (A) (A) (A) (A) (A) (A) (A) (A) (A) (A) (A)
                 (A) (A) (A) (A) (A) (A) (A) (A) (A) (A) (A) (A)
                 (A) (A) (A) (A) (A) (A) (A) (A) (A) (A) (A) (A)
                 (A) (A) (A) (A) (A) (A) (A) (A) (A) (A) (A) (A)
                 (A) (A) (A) (A) (A) (A) (A) (A) (A) (A) (A) (A)
                 (A) (A) (A) (A) (A) (A) (A) (A) (A) (A) (A) (A)
                 (A) (A) (A) (A) (A) (A) (A) (A) (A) (A) (A) (A)
                 (A) (A) (A) (A) (A) (A) (A) (A) (A) (A) (A) (A)
                 (A) (A) (A) (A) (A) (A) (A) (A) (A) (A) (A) (A)
                 (A) (A) (A) (A) (A) (A) (A) (A) (A) (A) (A) (A)
                 (A) (A) (A) (A) (A) (A) (A) (A) (A) (A) (A) (A)
                 (A) (A) (A) (A) (A) (A) (A) (A) (A) (A) (A) (A)
                 (A) (A) (A) (A) (A) (A) (A) (A) (A) (A) (A) (A)
                 (A) (A) (A) (A) (A) (A) (A) (A) (A) (A) (A) (A)
                 (A) (A) (A) (A) (A) (A) (A) (A) (A) (A) (A) (A)
                 (A) (A) (A) (A) (A) (A) (A) (A) (A) (A) (A) (A)
                 (A) (A) (A) (A) (A) (A) (A) (A) (A) (A) (A) (A)
                 (A) (A) (A) (A) (A) (A) (A) (A) (A) (A) (A) (A)
                 (A) (A) (A) (A) (A) (A) (A) (A) (A) (A) (A) (A)
                 (A) (A) (A) (A) (A) (A) (A) (A) (A) (A) (A) (A)
                 (A) (A) (A) (A) (A) (A) (A) (A) (A) (A) (A) (A)
                 (A) (A) (A) (A) (A) (A) (A) (A) (A) (A) (A) (A)
                 (A) (A) (A) (A) (A) (A) (A) (A) (A) (A) (A) (A)
                 (A) (A) (A) (A) (A) (A) (A) (A) (A) (A) (A) (A)
                 (A) (A) (A) (A) (A) (A) (A) (A) (A) (A) (A) (A)
                 (A) (A) (A) (A) (A) (A) (A) (A) (A) (A) (A) (A)
 The electronic state is 2-A.
 Alpha  occ. eigenvalues --  -19.78561 -19.78146 -10.65787 -10.64134 -10.63052
 Alpha  occ. eigenvalues --  -10.62969 -10.61316  -1.28708  -1.02251  -0.93661
 Alpha  occ. eigenvalues --   -0.85763  -0.77726  -0.73574  -0.65519  -0.62387
 Alpha  occ. eigenvalues --   -0.56013  -0.54909  -0.54377  -0.53174  -0.50037
 Alpha  occ. eigenvalues --   -0.47931  -0.45863  -0.44132  -0.43572  -0.41656
 Alpha  occ. eigenvalues --   -0.37306  -0.36534  -0.32772  -0.30227
 Alpha virt. eigenvalues --    0.05548   0.07809   0.09548   0.10384   0.11928
 Alpha virt. eigenvalues --    0.13667   0.13831   0.14589   0.15399   0.16131
 Alpha virt. eigenvalues --    0.18012   0.18301   0.20479   0.23393   0.24652
 Alpha virt. eigenvalues --    0.27837   0.29040   0.30776   0.31877   0.33068
 Alpha virt. eigenvalues --    0.33436   0.35747   0.37265   0.37467   0.39681
 Alpha virt. eigenvalues --    0.44468   0.45706   0.46758   0.47108   0.48740
 Alpha virt. eigenvalues --    0.49528   0.49892   0.51204   0.51644   0.52342
 Alpha virt. eigenvalues --    0.53085   0.53218   0.53719   0.54187   0.56277
 Alpha virt. eigenvalues --    0.56567   0.58460   0.59377   0.60410   0.62952
 Alpha virt. eigenvalues --    0.64749   0.68440   0.68542   0.69243   0.69769
 Alpha virt. eigenvalues --    0.70327   0.75875   0.77726   0.78443   0.80293
 Alpha virt. eigenvalues --    0.80570   0.84783   0.87391   0.89242   0.89515
 Alpha virt. eigenvalues --    0.92178   0.93687   0.95088   0.98415   0.98618
 Alpha virt. eigenvalues --    1.01074   1.01631   1.03208   1.04950   1.05971
 Alpha virt. eigenvalues --    1.07346   1.10214   1.10846   1.12301   1.14242
 Alpha virt. eigenvalues --    1.15427   1.16504   1.17379   1.18169   1.18437
 Alpha virt. eigenvalues --    1.19674   1.21170   1.21535   1.23569   1.24776
 Alpha virt. eigenvalues --    1.26338   1.27222   1.28988   1.32749   1.34315
 Alpha virt. eigenvalues --    1.36144   1.37568   1.37776   1.39562   1.41319
 Alpha virt. eigenvalues --    1.41657   1.42588   1.45405   1.46766   1.49426
 Alpha virt. eigenvalues --    1.49926   1.51785   1.53750   1.55780   1.56860
 Alpha virt. eigenvalues --    1.58206   1.62694   1.63179   1.65160   1.68483
 Alpha virt. eigenvalues --    1.71325   1.76853   1.78770   1.82456   1.87623
 Alpha virt. eigenvalues --    1.92909   1.99304   2.02773   2.04230   2.12645
 Alpha virt. eigenvalues --    2.17921   2.20670   2.23568   2.30284   2.34275
 Alpha virt. eigenvalues --    2.35838   2.37864   2.39168   2.40397   2.43212
 Alpha virt. eigenvalues --    2.44766   2.45418   2.47676   2.50534   2.52512
 Alpha virt. eigenvalues --    2.55405   2.57022   2.60955   2.61538   2.63047
 Alpha virt. eigenvalues --    2.65476   2.66289   2.68768   2.70883   2.77380
 Alpha virt. eigenvalues --    2.79974   2.81461   2.84300   2.85376   2.87937
 Alpha virt. eigenvalues --    2.89236   2.90865   2.92126   2.92668   2.93029
 Alpha virt. eigenvalues --    2.95169   2.96655   2.99694   3.01397   3.03213
 Alpha virt. eigenvalues --    3.03943   3.04511   3.05985   3.07170   3.09325
 Alpha virt. eigenvalues --    3.10894   3.12050   3.12428   3.14083   3.14894
 Alpha virt. eigenvalues --    3.15816   3.18705   3.18816   3.19814   3.21305
 Alpha virt. eigenvalues --    3.21379   3.22738   3.25877   3.26576   3.29239
 Alpha virt. eigenvalues --    3.30138   3.31414   3.32611   3.35393   3.38634
 Alpha virt. eigenvalues --    3.40713   3.42299   3.42790   3.43844   3.45548
 Alpha virt. eigenvalues --    3.46449   3.48955   3.50867   3.53796   3.55309
 Alpha virt. eigenvalues --    3.56242   3.58662   3.59238   3.59926   3.60318
 Alpha virt. eigenvalues --    3.61282   3.63130   3.66456   3.66715   3.68635
 Alpha virt. eigenvalues --    3.70695   3.73178   3.76680   3.78147   3.80055
 Alpha virt. eigenvalues --    3.80591   3.82583   3.86215   3.87741   3.88713
 Alpha virt. eigenvalues --    3.91153   3.91576   3.93472   3.94773   3.96015
 Alpha virt. eigenvalues --    3.97481   3.99177   4.00284   4.00742   4.03233
 Alpha virt. eigenvalues --    4.05375   4.05898   4.08397   4.09562   4.11404
 Alpha virt. eigenvalues --    4.12767   4.14738   4.15629   4.17320   4.18254
 Alpha virt. eigenvalues --    4.19712   4.21130   4.21818   4.22663   4.24985
 Alpha virt. eigenvalues --    4.26729   4.29061   4.31718   4.34826   4.35059
 Alpha virt. eigenvalues --    4.36418   4.38665   4.40650   4.41711   4.44787
 Alpha virt. eigenvalues --    4.47505   4.48446   4.51100   4.53682   4.55473
 Alpha virt. eigenvalues --    4.58559   4.62700   4.66679   4.68676   4.70016
 Alpha virt. eigenvalues --    4.71398   4.79022   4.80073   4.82415   4.87902
 Alpha virt. eigenvalues --    4.93092   4.94936   4.95811   4.96966   4.99296
 Alpha virt. eigenvalues --    5.00524   5.01634   5.03013   5.04032   5.06639
 Alpha virt. eigenvalues --    5.08075   5.11628   5.14434   5.17096   5.18287
 Alpha virt. eigenvalues --    5.22948   5.28251   5.31572   5.31916   5.32814
 Alpha virt. eigenvalues --    5.35759   5.37212   5.38456   5.40156   5.41646
 Alpha virt. eigenvalues --    5.43498   5.47991   5.48902   5.49231   5.50983
 Alpha virt. eigenvalues --    5.53037   5.60525   5.63153   5.64669   5.70604
 Alpha virt. eigenvalues --    5.71804   5.80935   5.83713   5.93407   5.94058
 Alpha virt. eigenvalues --    5.98552   6.04595   6.06756   6.08780   6.10166
 Alpha virt. eigenvalues --    6.15822   6.25434   6.32117   6.37333   6.42775
 Alpha virt. eigenvalues --    6.58558   6.69447   6.77475   6.79709   6.87247
 Alpha virt. eigenvalues --    6.98738   7.07000   7.07863   7.21169   7.42589
 Alpha virt. eigenvalues --    7.45393   7.64014   7.81650  10.04083  10.47907
 Alpha virt. eigenvalues --   11.08336  12.95000  13.50024  13.68014  14.17005
  Beta  occ. eigenvalues --  -19.78404 -19.76794 -10.65795 -10.63293 -10.62798
  Beta  occ. eigenvalues --  -10.62558 -10.61330  -1.27060  -0.99831  -0.92895
  Beta  occ. eigenvalues --   -0.84270  -0.77315  -0.72357  -0.64096  -0.59113
  Beta  occ. eigenvalues --   -0.54988  -0.54620  -0.53729  -0.52497  -0.48193
  Beta  occ. eigenvalues --   -0.46475  -0.45294  -0.43511  -0.42594  -0.41458
  Beta  occ. eigenvalues --   -0.35627  -0.33659  -0.31754
  Beta virt. eigenvalues --   -0.05052   0.06291   0.07825   0.09781   0.10629
  Beta virt. eigenvalues --    0.11939   0.13969   0.14237   0.14663   0.15591
  Beta virt. eigenvalues --    0.16169   0.18061   0.18695   0.20802   0.23653
  Beta virt. eigenvalues --    0.25040   0.28111   0.29385   0.30818   0.32044
  Beta virt. eigenvalues --    0.33314   0.33882   0.35902   0.37731   0.38314
  Beta virt. eigenvalues --    0.40223   0.45048   0.45974   0.47205   0.47673
  Beta virt. eigenvalues --    0.48911   0.50112   0.50326   0.51499   0.51871
  Beta virt. eigenvalues --    0.52584   0.53405   0.53497   0.53886   0.54474
  Beta virt. eigenvalues --    0.56581   0.57267   0.59612   0.60220   0.61404
  Beta virt. eigenvalues --    0.63201   0.64982   0.68755   0.69029   0.69718
  Beta virt. eigenvalues --    0.70403   0.70986   0.76150   0.77863   0.78926
  Beta virt. eigenvalues --    0.80993   0.81103   0.85035   0.87636   0.89419
  Beta virt. eigenvalues --    0.89875   0.92351   0.93861   0.95683   0.98596
  Beta virt. eigenvalues --    0.98762   1.01153   1.02093   1.03442   1.05062
  Beta virt. eigenvalues --    1.06124   1.07719   1.10726   1.11023   1.12414
  Beta virt. eigenvalues --    1.14485   1.15674   1.16689   1.17555   1.18459
  Beta virt. eigenvalues --    1.18585   1.19816   1.21307   1.21799   1.23770
  Beta virt. eigenvalues --    1.25260   1.26474   1.27681   1.29425   1.33063
  Beta virt. eigenvalues --    1.34579   1.36287   1.37692   1.37963   1.39674
  Beta virt. eigenvalues --    1.41404   1.41811   1.42856   1.45626   1.46979
  Beta virt. eigenvalues --    1.49753   1.50112   1.52435   1.54198   1.55987
  Beta virt. eigenvalues --    1.57147   1.58653   1.63041   1.63336   1.65258
  Beta virt. eigenvalues --    1.68595   1.71893   1.77418   1.79219   1.83288
  Beta virt. eigenvalues --    1.89575   1.93970   2.00247   2.03283   2.05074
  Beta virt. eigenvalues --    2.13006   2.20055   2.21058   2.23809   2.30969
  Beta virt. eigenvalues --    2.34534   2.36253   2.38115   2.39438   2.40625
  Beta virt. eigenvalues --    2.43464   2.45477   2.45812   2.48136   2.50671
  Beta virt. eigenvalues --    2.53041   2.55719   2.57211   2.61117   2.62450
  Beta virt. eigenvalues --    2.63361   2.65584   2.66733   2.69080   2.71733
  Beta virt. eigenvalues --    2.77878   2.80632   2.81680   2.84483   2.86184
  Beta virt. eigenvalues --    2.88492   2.89547   2.91276   2.92198   2.92893
  Beta virt. eigenvalues --    2.93164   2.95793   2.97608   3.00272   3.01657
  Beta virt. eigenvalues --    3.03476   3.04221   3.04995   3.06491   3.07322
  Beta virt. eigenvalues --    3.09510   3.11425   3.12132   3.12970   3.14191
  Beta virt. eigenvalues --    3.15383   3.16556   3.18980   3.19450   3.20134
  Beta virt. eigenvalues --    3.21363   3.21890   3.22947   3.26649   3.27192
  Beta virt. eigenvalues --    3.29863   3.30555   3.32618   3.33696   3.36301
  Beta virt. eigenvalues --    3.39300   3.40937   3.42499   3.43221   3.43928
  Beta virt. eigenvalues --    3.45519   3.46586   3.49331   3.50922   3.53841
  Beta virt. eigenvalues --    3.55406   3.56434   3.58798   3.59428   3.60096
  Beta virt. eigenvalues --    3.60575   3.61608   3.63225   3.66655   3.67083
  Beta virt. eigenvalues --    3.68887   3.71192   3.73787   3.77095   3.78330
  Beta virt. eigenvalues --    3.80304   3.80900   3.82865   3.86312   3.87828
  Beta virt. eigenvalues --    3.88898   3.91131   3.91559   3.93540   3.94959
  Beta virt. eigenvalues --    3.96054   3.97730   3.99367   4.00527   4.01087
  Beta virt. eigenvalues --    4.03459   4.05434   4.06007   4.08412   4.09829
  Beta virt. eigenvalues --    4.11545   4.12921   4.15010   4.15625   4.17464
  Beta virt. eigenvalues --    4.18555   4.19898   4.21165   4.22047   4.22683
  Beta virt. eigenvalues --    4.25094   4.26958   4.29347   4.32045   4.35246
  Beta virt. eigenvalues --    4.35311   4.36817   4.39252   4.40958   4.41847
  Beta virt. eigenvalues --    4.45036   4.47819   4.48785   4.51407   4.53888
  Beta virt. eigenvalues --    4.56068   4.59031   4.63187   4.67345   4.68975
  Beta virt. eigenvalues --    4.70448   4.71788   4.79678   4.80348   4.82622
  Beta virt. eigenvalues --    4.88470   4.93144   4.95174   4.95999   4.97095
  Beta virt. eigenvalues --    4.99398   5.00609   5.01726   5.03158   5.04230
  Beta virt. eigenvalues --    5.06815   5.08344   5.11903   5.14652   5.18050
  Beta virt. eigenvalues --    5.19059   5.23797   5.28661   5.31881   5.32140
  Beta virt. eigenvalues --    5.33079   5.36095   5.37425   5.38753   5.40588
  Beta virt. eigenvalues --    5.41903   5.44007   5.48037   5.49089   5.49299
  Beta virt. eigenvalues --    5.51079   5.53127   5.60879   5.63222   5.64776
  Beta virt. eigenvalues --    5.71230   5.72863   5.81271   5.84783   5.93956
  Beta virt. eigenvalues --    5.94424   5.98711   6.04626   6.06820   6.09512
  Beta virt. eigenvalues --    6.10540   6.16343   6.26531   6.32439   6.39196
  Beta virt. eigenvalues --    6.43478   6.59877   6.70331   6.79924   6.81031
  Beta virt. eigenvalues --    6.88250   7.00238   7.07602   7.09104   7.22917
  Beta virt. eigenvalues --    7.43974   7.46182   7.65444   7.82455  10.04700
  Beta virt. eigenvalues --   10.48534  11.09211  12.95134  13.50027  13.68023
  Beta virt. eigenvalues --   14.17605
          Condensed to atoms (all electrons):
               1          2          3          4          5          6
     1  C    5.282107   0.616075   0.394666  -0.053260  -0.004928   0.005482
     2  C    0.616075   4.950222  -0.054196   0.394676  -0.002077  -0.000695
     3  H    0.394666  -0.054196   0.509162   0.005124   0.000128  -0.000315
     4  H   -0.053260   0.394676   0.005124   0.509098  -0.003292  -0.003052
     5  C   -0.004928  -0.002077   0.000128  -0.003292   4.623371   0.396797
     6  H    0.005482  -0.000695  -0.000315  -0.003052   0.396797   0.670105
     7  H    0.000444  -0.000191  -0.000008  -0.000297   0.395390  -0.038084
     8  H   -0.000822   0.000545  -0.000010   0.000927   0.412351  -0.054245
     9  O   -0.006111  -0.000729   0.000168   0.020408   0.296909  -0.052363
    10  O   -0.071902  -0.001150   0.001088  -0.002430  -0.044081  -0.004099
    11  H    0.177428  -0.003277  -0.007965  -0.002707   0.003946   0.005261
    12  C   -0.060061   0.345057  -0.004122  -0.036517  -0.000239  -0.000024
    13  H    0.000278  -0.041831   0.003137   0.005029  -0.000005   0.000009
    14  H    0.002069  -0.040794   0.000161  -0.003650  -0.000006   0.000029
    15  C   -0.001289  -0.055666  -0.000051  -0.000330   0.000108  -0.000195
    16  H    0.002534  -0.001412   0.000144  -0.000029  -0.000041   0.000165
    17  H   -0.000245   0.008162  -0.000025  -0.000280  -0.000003   0.000013
    18  H    0.000848  -0.002369   0.000030   0.002358   0.000048   0.000004
               7          8          9         10         11         12
     1  C    0.000444  -0.000822  -0.006111  -0.071902   0.177428  -0.060061
     2  C   -0.000191   0.000545  -0.000729  -0.001150  -0.003277   0.345057
     3  H   -0.000008  -0.000010   0.000168   0.001088  -0.007965  -0.004122
     4  H   -0.000297   0.000927   0.020408  -0.002430  -0.002707  -0.036517
     5  C    0.395390   0.412351   0.296909  -0.044081   0.003946  -0.000239
     6  H   -0.038084  -0.054245  -0.052363  -0.004099   0.005261  -0.000024
     7  H    0.594673  -0.025166  -0.027159   0.007030  -0.000943  -0.000052
     8  H   -0.025166   0.598234  -0.036297   0.005339   0.000038   0.000002
     9  O   -0.027159  -0.036297   7.955536   0.065054  -0.031772   0.000256
    10  O    0.007030   0.005339   0.065054   8.019084   0.245072   0.000081
    11  H   -0.000943   0.000038  -0.031772   0.245072   0.392440   0.001602
    12  C   -0.000052   0.000002   0.000256   0.000081   0.001602   4.831197
    13  H    0.000001  -0.000000  -0.000014   0.000014  -0.000070   0.416093
    14  H   -0.000001  -0.000000  -0.000020   0.000020  -0.000140   0.419040
    15  C    0.000035   0.000002   0.000009  -0.000003  -0.000045   0.339473
    16  H   -0.000007  -0.000002  -0.000008  -0.000001  -0.000043  -0.034870
    17  H   -0.000000  -0.000000  -0.000000   0.000000   0.000004  -0.034175
    18  H    0.000019  -0.000003  -0.000040   0.000001  -0.000017  -0.037470
              13         14         15         16         17         18
     1  C    0.000278   0.002069  -0.001289   0.002534  -0.000245   0.000848
     2  C   -0.041831  -0.040794  -0.055666  -0.001412   0.008162  -0.002369
     3  H    0.003137   0.000161  -0.000051   0.000144  -0.000025   0.000030
     4  H    0.005029  -0.003650  -0.000330  -0.000029  -0.000280   0.002358
     5  C   -0.000005  -0.000006   0.000108  -0.000041  -0.000003   0.000048
     6  H    0.000009   0.000029  -0.000195   0.000165   0.000013   0.000004
     7  H    0.000001  -0.000001   0.000035  -0.000007  -0.000000   0.000019
     8  H   -0.000000  -0.000000   0.000002  -0.000002  -0.000000  -0.000003
     9  O   -0.000014  -0.000020   0.000009  -0.000008  -0.000000  -0.000040
    10  O    0.000014   0.000020  -0.000003  -0.000001   0.000000   0.000001
    11  H   -0.000070  -0.000140  -0.000045  -0.000043   0.000004  -0.000017
    12  C    0.416093   0.419040   0.339473  -0.034870  -0.034175  -0.037470
    13  H    0.589232  -0.033138  -0.031366  -0.004884  -0.005008   0.006853
    14  H   -0.033138   0.593153  -0.040868   0.007853  -0.003816  -0.004955
    15  C   -0.031366  -0.040868   4.865845   0.404033   0.406464   0.409493
    16  H   -0.004884   0.007853   0.404033   0.587423  -0.028297  -0.031812
    17  H   -0.005008  -0.003816   0.406464  -0.028297   0.582859  -0.030126
    18  H    0.006853  -0.004955   0.409493  -0.031812  -0.030126   0.590626
          Atomic-Atomic Spin Densities.
               1          2          3          4          5          6
     1  C    0.830636  -0.028360   0.003852  -0.003856   0.000675  -0.004979
     2  C   -0.028360  -0.161084  -0.002972   0.007134  -0.000148   0.000228
     3  H    0.003852  -0.002972   0.023650   0.001027  -0.000034   0.000470
     4  H   -0.003856   0.007134   0.001027   0.026319  -0.000417   0.001411
     5  C    0.000675  -0.000148  -0.000034  -0.000417  -0.005201   0.004509
     6  H   -0.004979   0.000228   0.000470   0.001411   0.004509   0.000510
     7  H    0.000150  -0.000029  -0.000005  -0.000121   0.000336  -0.000724
     8  H    0.001217  -0.000122  -0.000064  -0.000210  -0.002078  -0.000738
     9  O    0.013161  -0.001257  -0.000475  -0.004625  -0.000411  -0.000732
    10  O   -0.084191   0.004653   0.003661   0.002865  -0.001389   0.003612
    11  H    0.043900   0.001149  -0.000855   0.000204   0.000935  -0.003451
    12  C   -0.019090   0.022298  -0.004321  -0.006748   0.000075  -0.000274
    13  H    0.001271   0.000144   0.000632   0.000217  -0.000001   0.000012
    14  H    0.001722   0.001604   0.000334   0.001046  -0.000002   0.000011
    15  C    0.001252   0.003819   0.000211   0.000544  -0.000015   0.000045
    16  H    0.000428  -0.001154   0.000097   0.000186   0.000001   0.000044
    17  H   -0.000245  -0.000145  -0.000035  -0.000105   0.000001  -0.000007
    18  H    0.000041   0.000051   0.000005   0.000085  -0.000002   0.000008
               7          8          9         10         11         12
     1  C    0.000150   0.001217   0.013161  -0.084191   0.043900  -0.019090
     2  C   -0.000029  -0.000122  -0.001257   0.004653   0.001149   0.022298
     3  H   -0.000005  -0.000064  -0.000475   0.003661  -0.000855  -0.004321
     4  H   -0.000121  -0.000210  -0.004625   0.002865   0.000204  -0.006748
     5  C    0.000336  -0.002078  -0.000411  -0.001389   0.000935   0.000075
     6  H   -0.000724  -0.000738  -0.000732   0.003612  -0.003451  -0.000274
     7  H   -0.001106   0.000891   0.000139  -0.000203   0.000104   0.000009
     8  H    0.000891   0.002830  -0.000449  -0.000510   0.001309   0.000015
     9  O    0.000139  -0.000449   0.053879  -0.038253   0.009016   0.000267
    10  O   -0.000203  -0.000510  -0.038253   0.480361  -0.030757  -0.000476
    11  H    0.000104   0.001309   0.009016  -0.030757  -0.097633   0.000356
    12  C    0.000009   0.000015   0.000267  -0.000476   0.000356   0.076968
    13  H   -0.000000  -0.000000  -0.000007   0.000020  -0.000057  -0.001588
    14  H   -0.000000  -0.000001  -0.000019   0.000026  -0.000039  -0.004518
    15  C   -0.000003  -0.000001  -0.000015   0.000014  -0.000013  -0.003884
    16  H   -0.000001  -0.000002  -0.000008   0.000007  -0.000012  -0.000497
    17  H    0.000000   0.000000   0.000001  -0.000001   0.000002   0.000031
    18  H   -0.000001  -0.000000  -0.000003   0.000002  -0.000003  -0.000283
              13         14         15         16         17         18
     1  C    0.001271   0.001722   0.001252   0.000428  -0.000245   0.000041
     2  C    0.000144   0.001604   0.003819  -0.001154  -0.000145   0.000051
     3  H    0.000632   0.000334   0.000211   0.000097  -0.000035   0.000005
     4  H    0.000217   0.001046   0.000544   0.000186  -0.000105   0.000085
     5  C   -0.000001  -0.000002  -0.000015   0.000001   0.000001  -0.000002
     6  H    0.000012   0.000011   0.000045   0.000044  -0.000007   0.000008
     7  H   -0.000000  -0.000000  -0.000003  -0.000001   0.000000  -0.000001
     8  H   -0.000000  -0.000001  -0.000001  -0.000002   0.000000  -0.000000
     9  O   -0.000007  -0.000019  -0.000015  -0.000008   0.000001  -0.000003
    10  O    0.000020   0.000026   0.000014   0.000007  -0.000001   0.000002
    11  H   -0.000057  -0.000039  -0.000013  -0.000012   0.000002  -0.000003
    12  C   -0.001588  -0.004518  -0.003884  -0.000497   0.000031  -0.000283
    13  H   -0.004757   0.001191   0.000586   0.000183  -0.000186  -0.000038
    14  H    0.001191  -0.004598   0.002552   0.000003  -0.000869   0.000084
    15  C    0.000586   0.002552  -0.008785   0.000925   0.001546   0.000028
    16  H    0.000183   0.000003   0.000925   0.001080  -0.000909  -0.000018
    17  H   -0.000186  -0.000869   0.001546  -0.000909   0.001653  -0.000062
    18  H   -0.000038   0.000084   0.000028  -0.000018  -0.000062   0.000147
 Mulliken charges and spin densities:
               1          2
     1  C   -0.283311   0.757585
     2  C   -0.110350  -0.154192
     3  H    0.152883   0.025178
     4  H    0.168224   0.024955
     5  C   -0.074375  -0.003165
     6  H    0.075207  -0.000044
     7  H    0.094318  -0.000566
     8  H    0.099107   0.002085
     9  O   -0.183827   0.030208
    10  O   -0.219116   0.339442
    11  H    0.221188  -0.075846
    12  C   -0.145272   0.058339
    13  H    0.095671  -0.002379
    14  H    0.105064  -0.001472
    15  C   -0.295650  -0.001192
    16  H    0.099252   0.000352
    17  H    0.104473   0.000670
    18  H    0.096514   0.000040
 Sum of Mulliken charges =  -0.00000   1.00000
 Mulliken charges and spin densities with hydrogens summed into heavy atoms:
               1          2
     1  C   -0.130427   0.782763
     2  C    0.057874  -0.129237
     5  C    0.194257  -0.001689
     9  O   -0.183827   0.030208
    10  O    0.002072   0.263596
    12  C    0.055463   0.054488
    15  C    0.004589  -0.000130
 APT charges:
               1
     1  C    0.241772
     2  C   -0.169835
     3  H    0.016204
     4  H    0.066865
     5  C    0.417060
     6  H   -0.034464
     7  H   -0.003155
     8  H   -0.031954
     9  O   -0.360308
    10  O    0.074970
    11  H   -0.308429
    12  C    0.187420
    13  H   -0.028717
    14  H   -0.055205
    15  C    0.043742
    16  H   -0.011969
    17  H   -0.029592
    18  H   -0.014404
 Sum of APT charges =  -0.00000
 APT charges with hydrogens summed into heavy atoms:
               1
     1  C    0.257976
     2  C   -0.102970
     5  C    0.347487
     9  O   -0.360308
    10  O   -0.233459
    12  C    0.103498
    15  C   -0.012224
 Electronic spatial extent (au):  <R**2>=           1260.5983
 Charge=              0.0000 electrons
 Dipole moment (field-independent basis, Debye):
    X=              2.5440    Y=              1.2783    Z=              1.2398  Tot=              3.1054
 Quadrupole moment (field-independent basis, Debye-Ang):
   XX=            -46.4439   YY=            -42.7366   ZZ=            -45.0367
   XY=             -4.6319   XZ=             -2.7549   YZ=             -1.6930
 Traceless Quadrupole moment (field-independent basis, Debye-Ang):
   XX=             -1.7048   YY=              2.0025   ZZ=             -0.2976
   XY=             -4.6319   XZ=             -2.7549   YZ=             -1.6930
 Octapole moment (field-independent basis, Debye-Ang**2):
  XXX=             -1.5535  YYY=              0.9312  ZZZ=             -2.0689  XYY=             -8.4960
  XXY=              9.7213  XXZ=              4.1652  XZZ=             -2.9379  YZZ=             -1.2252
  YYZ=              3.1566  XYZ=             -1.9831
 Hexadecapole moment (field-independent basis, Debye-Ang**3):
 XXXX=          -1214.2498 YYYY=           -317.7092 ZZZZ=           -109.0311 XXXY=            -25.2278
 XXXZ=            -12.1354 YYYX=             -8.6950 YYYZ=            -14.5023 ZZZX=              2.2998
 ZZZY=             -2.4260 XXYY=           -258.1861 XXZZ=           -224.5189 YYZZ=            -67.9780
 XXYZ=              1.4298 YYXZ=              3.2310 ZZXY=             -1.1899
 N-N= 3.012808560233D+02 E-N=-1.413619625340D+03  KE= 3.453552057255D+02
  Exact polarizability: 110.076  -4.561  76.891  -1.141  -6.339  60.149
 Approx polarizability:  93.344   1.567  84.998  -1.572 -10.800  75.154
                          Isotropic Fermi Contact Couplings
        Atom                 a.u.       MegaHertz       Gauss      10(-4) cm-1
     1  C(13)              0.18893     212.39127      75.78649      70.84610
     2  C(13)              0.00175       1.97122       0.70338       0.65753
     3  H(1)               0.01301      58.17262      20.75744      19.40430
     4  H(1)               0.01386      61.97437      22.11400      20.67242
     5  C(13)             -0.00352      -3.95496      -1.41123      -1.31923
     6  H(1)               0.00249      11.12821       3.97082       3.71197
     7  H(1)              -0.00005      -0.20242      -0.07223      -0.06752
     8  H(1)               0.00067       3.01206       1.07478       1.00472
     9  O(17)              0.01548      -9.38504      -3.34882      -3.13051
    10  O(17)              0.02433     -14.75069      -5.26341      -4.92030
    11  H(1)              -0.02625    -117.34422     -41.87133     -39.14182
    12  C(13)              0.04380      49.24307      17.57115      16.42572
    13  H(1)              -0.00075      -3.34480      -1.19351      -1.11571
    14  H(1)               0.00008       0.34953       0.12472       0.11659
    15  C(13)             -0.00194      -2.18293      -0.77892      -0.72815
    16  H(1)               0.00023       1.01286       0.36141       0.33785
    17  H(1)               0.00101       4.51394       1.61069       1.50569
    18  H(1)              -0.00005      -0.24517      -0.08748      -0.08178
 --------------------------------------------------------
       Center         ----  Spin Dipole Couplings  ----
                      3XX-RR        3YY-RR        3ZZ-RR
 --------------------------------------------------------
     1   Atom        0.695703     -0.356515     -0.339188
     2   Atom        0.040959     -0.016843     -0.024115
     3   Atom       -0.007295      0.003745      0.003550
     4   Atom       -0.004631      0.002968      0.001664
     5   Atom       -0.004385      0.007171     -0.002785
     6   Atom       -0.003097      0.006416     -0.003319
     7   Atom       -0.002408      0.005943     -0.003535
     8   Atom       -0.001518      0.003556     -0.002037
     9   Atom        0.349602     -0.180279     -0.169323
    10   Atom        1.482967     -0.772962     -0.710005
    11   Atom        0.208137     -0.103613     -0.104524
    12   Atom        0.074955     -0.035067     -0.039889
    13   Atom        0.009682     -0.004785     -0.004896
    14   Atom        0.002606     -0.005020      0.002414
    15   Atom        0.000365      0.003928     -0.004293
    16   Atom        0.000434      0.001160     -0.001593
    17   Atom        0.001816     -0.000043     -0.001773
    18   Atom        0.000345      0.001702     -0.002047
 --------------------------------------------------------
                        XY            XZ            YZ
 --------------------------------------------------------
     1   Atom       -0.061001      0.149422      0.010513
     2   Atom        0.031311     -0.019170     -0.040051
     3   Atom       -0.004329      0.007347     -0.046153
     4   Atom        0.003548     -0.003697     -0.013156
     5   Atom       -0.003451      0.002087      0.003216
     6   Atom       -0.001440      0.001093      0.005606
     7   Atom       -0.001413      0.000159      0.000404
     8   Atom       -0.004565     -0.002170      0.003941
     9   Atom       -0.132085      0.142139     -0.003433
    10   Atom       -0.152405      0.390798     -0.028920
    11   Atom       -0.069393      0.077201     -0.017593
    12   Atom        0.029025     -0.017385     -0.006925
    13   Atom       -0.002309      0.003382     -0.003842
    14   Atom        0.001201     -0.005248      0.001449
    15   Atom        0.005884      0.000141      0.000535
    16   Atom        0.002791      0.000888      0.001627
    17   Atom        0.001514      0.000031      0.000158
    18   Atom        0.002267     -0.000275     -0.000906
 --------------------------------------------------------


 ---------------------------------------------------------------------------------
              Anisotropic Spin Dipole Couplings in Principal Axis System
 ---------------------------------------------------------------------------------

       Atom             a.u.   MegaHertz   Gauss  10(-4) cm-1        Axes

              Baa    -0.3790   -50.853   -18.146   -16.963  0.1371  0.7006 -0.7003
     1 C(13)  Bbb    -0.3411   -45.773   -16.333   -15.268 -0.0590  0.7115  0.7002
              Bcc     0.7201    96.627    34.479    32.231  0.9888 -0.0547  0.1389
 
              Baa    -0.0613    -8.220    -2.933    -2.742 -0.0805  0.6982  0.7114
     2 C(13)  Bbb    -0.0069    -0.927    -0.331    -0.309  0.5927 -0.5403  0.5973
              Bcc     0.0682     9.147     3.264     3.051  0.8014  0.4697 -0.3703
 
              Baa    -0.0426   -22.749    -8.118    -7.588 -0.0618  0.7011  0.7104
     3 H(1)   Bbb    -0.0083    -4.446    -1.586    -1.483  0.9882  0.1431 -0.0553
              Bcc     0.0510    27.195     9.704     9.071  0.1404 -0.6986  0.7016
 
              Baa    -0.0109    -5.798    -2.069    -1.934  0.0443  0.6824  0.7296
     4 H(1)   Bbb    -0.0058    -3.121    -1.113    -1.041  0.9714 -0.1999  0.1280
              Bcc     0.0167     8.919     3.182     2.975  0.2332  0.7031 -0.6718
 
              Baa    -0.0073    -0.984    -0.351    -0.328  0.7632  0.3076 -0.5682
     5 C(13)  Bbb    -0.0014    -0.186    -0.066    -0.062  0.6096 -0.0514  0.7910
              Bcc     0.0087     1.170     0.417     0.390 -0.2141  0.9501  0.2268
 
              Baa    -0.0066    -3.525    -1.258    -1.176 -0.4176 -0.3978  0.8169
     6 H(1)   Bbb    -0.0024    -1.295    -0.462    -0.432  0.9058 -0.1116  0.4087
              Bcc     0.0090     4.820     1.720     1.608 -0.0714  0.9107  0.4070
 
              Baa    -0.0036    -1.921    -0.686    -0.641 -0.2164 -0.0733  0.9736
     7 H(1)   Bbb    -0.0026    -1.381    -0.493    -0.461  0.9629  0.1488  0.2252
              Bcc     0.0062     3.303     1.178     1.102 -0.1614  0.9861  0.0384
 
              Baa    -0.0043    -2.272    -0.811    -0.758  0.6949  0.6033 -0.3913
     8 H(1)   Bbb    -0.0040    -2.110    -0.753    -0.704  0.5521 -0.0989  0.8279
              Bcc     0.0082     4.383     1.564     1.462 -0.4608  0.7914  0.4018
 
              Baa    -0.2358    17.060     6.087     5.691  0.3135  0.7069 -0.6340
     9 O(17)  Bbb    -0.1782    12.895     4.601     4.301 -0.0298  0.6747  0.7375
              Bcc     0.4140   -29.955   -10.689    -9.992  0.9491 -0.2123  0.2325
 
              Baa    -0.7842    56.746    20.249    18.929  0.0006  0.9329  0.3602
    10 O(17)  Bbb    -0.7766    56.195    20.052    18.745 -0.1825 -0.3541  0.9172
              Bcc     1.5608  -112.941   -40.300   -37.673  0.9832 -0.0663  0.1700
 
              Baa    -0.1229   -65.596   -23.406   -21.880 -0.1622  0.2792  0.9464
    11 H(1)   Bbb    -0.1181   -63.004   -22.481   -21.016  0.2548  0.9385 -0.2332
              Bcc     0.2410   128.600    45.888    42.896  0.9533 -0.2033  0.2233
 
              Baa    -0.0450    -6.035    -2.153    -2.013 -0.0605  0.6849  0.7261
    12 C(13)  Bbb    -0.0399    -5.358    -1.912    -1.787 -0.2754  0.6877 -0.6717
              Bcc     0.0849    11.393     4.065     3.800  0.9594  0.2406 -0.1470
 
              Baa    -0.0087    -4.653    -1.660    -1.552 -0.0482  0.6831  0.7288
    13 H(1)   Bbb    -0.0023    -1.244    -0.444    -0.415  0.3147  0.7028 -0.6380
              Bcc     0.0111     5.898     2.104     1.967  0.9480 -0.1986  0.2489
 
              Baa    -0.0061    -3.242    -1.157    -1.081 -0.3361  0.8718 -0.3565
    14 H(1)   Bbb    -0.0017    -0.899    -0.321    -0.300  0.6167  0.4898  0.6163
              Bcc     0.0078     4.141     1.478     1.381  0.7119 -0.0127 -0.7022
 
              Baa    -0.0044    -0.593    -0.211    -0.198  0.3349 -0.2936  0.8953
    15 C(13)  Bbb    -0.0039    -0.523    -0.187    -0.175  0.7307 -0.5190 -0.4435
              Bcc     0.0083     1.116     0.398     0.372  0.5949  0.8028  0.0408
 
              Baa    -0.0025    -1.326    -0.473    -0.442  0.3379 -0.5872  0.7355
    16 H(1)   Bbb    -0.0017    -0.905    -0.323    -0.302  0.7129 -0.3506 -0.6074
              Bcc     0.0042     2.231     0.796     0.744  0.6146  0.7295  0.3001
 
              Baa    -0.0018    -0.956    -0.341    -0.319  0.0455 -0.1291  0.9906
    17 H(1)   Bbb    -0.0009    -0.466    -0.166    -0.155 -0.4872  0.8628  0.1348
              Bcc     0.0027     1.422     0.507     0.474  0.8721  0.4887  0.0236
 
              Baa    -0.0023    -1.224    -0.437    -0.408 -0.1654  0.3063  0.9375
    18 H(1)   Bbb    -0.0012    -0.661    -0.236    -0.220  0.7967 -0.5188  0.3100
              Bcc     0.0035     1.885     0.673     0.629  0.5813  0.7982 -0.1582
 

 ---------------------------------------------------------------------------------

 Calling FoFJK, ICntrl=  10100127 FMM=F ISym2X=0 I1Cent= 0 IOpClX= 1 NMat=1 NMatS=1 NMatT=0.
 ***** Axes restored to original set *****
 -------------------------------------------------------------------
 Center     Atomic                   Forces (Hartrees/Bohr)
 Number     Number              X              Y              Z
 -------------------------------------------------------------------
      1        6          -0.004034507   -0.004134155    0.002998534
      2        6           0.001937681    0.002456472   -0.002836172
      3        1           0.000031291    0.000937690   -0.000849542
      4        1           0.000681743   -0.000943994    0.000808891
      5        6          -0.000274824    0.003063679    0.004434465
      6        1          -0.001081304    0.000684966   -0.000292216
      7        1          -0.000023241   -0.000520098   -0.000000367
      8        1           0.000581898    0.000474934   -0.000016973
      9        8           0.000620270    0.009726335   -0.010354638
     10        8          -0.004897094   -0.011247673    0.004982390
     11        1           0.005773557   -0.001261407    0.001276668
     12        6          -0.000376014   -0.000396590   -0.000308922
     13        1           0.000085126    0.000233179   -0.000335895
     14        1           0.000146940   -0.000028681    0.000206072
     15        6           0.000300060    0.000773567    0.000266922
     16        1           0.000359297    0.000113974   -0.000403358
     17        1          -0.000178690    0.000150480    0.000045595
     18        1           0.000347810   -0.000082679    0.000378548
 -------------------------------------------------------------------
 Cartesian Forces:  Max     0.011247673 RMS     0.003077973
 FormGI is forming the generalized inverse of G from B-inverse, IUseBI=4.

 GradGradGradGradGradGradGradGradGradGradGradGradGradGradGradGradGradGrad
 Berny optimization.
 Internal  Forces:  Max     0.014729177 RMS     0.002249597
 Search for a saddle point.
 Step number   1 out of a maximum of  108
 All quantities printed in internal units (Hartrees-Bohrs-Radians)
 Swapping is turned off.
 Second derivative matrix not updated -- analytic derivatives used.
 ITU=  0
     Eigenvalues ---   -0.05783   0.00222   0.00263   0.00472   0.00713
     Eigenvalues ---    0.01249   0.01406   0.01798   0.02590   0.04040
     Eigenvalues ---    0.04330   0.04601   0.04629   0.04822   0.05018
     Eigenvalues ---    0.05814   0.07511   0.08466   0.08565   0.08884
     Eigenvalues ---    0.10331   0.11783   0.12310   0.13198   0.13429
     Eigenvalues ---    0.13801   0.16324   0.16794   0.18562   0.19659
     Eigenvalues ---    0.21220   0.23444   0.28573   0.29970   0.30495
     Eigenvalues ---    0.32929   0.33136   0.33638   0.33729   0.33880
     Eigenvalues ---    0.34133   0.34203   0.34528   0.34711   0.35881
     Eigenvalues ---    0.36503   0.44141   0.66615
 Eigenvectors required to have negative eigenvalues:
                          R3        R11       A1        R10       A2
   1                   -0.79260   0.55293  -0.14752  -0.13876   0.09715
                          A14       A3        D16       A13       A27
   1                    0.06227   0.05036   0.04622   0.03402  -0.02947
 RFO step:  Lambda0=7.629057802D-05 Lambda=-1.07861090D-03.
 Linear search not attempted -- option 19 set.
 Iteration  1 RMS(Cart)=  0.05740054 RMS(Int)=  0.00047663
 Iteration  2 RMS(Cart)=  0.00115108 RMS(Int)=  0.00000645
 Iteration  3 RMS(Cart)=  0.00000101 RMS(Int)=  0.00000644
 Iteration  4 RMS(Cart)=  0.00000000 RMS(Int)=  0.00000644
 Variable       Old X    -DE/DX   Delta X   Delta X   Delta X     New X
                                 (Linear)    (Quad)   (Total)
    R1        2.47195   0.00443   0.00000   0.00553   0.00553   2.47748
    R2        2.04543  -0.00121   0.00000  -0.00390  -0.00390   2.04152
    R3        2.70080  -0.00062   0.00000   0.02377   0.02377   2.72457
    R4        2.06026  -0.00141   0.00000  -0.00424  -0.00424   2.05603
    R5        2.85112   0.00074   0.00000   0.00122   0.00122   2.85235
    R6        2.06529  -0.00110   0.00000  -0.00353  -0.00353   2.06176
    R7        2.05722  -0.00046   0.00000  -0.00062  -0.00062   2.05660
    R8        2.05922  -0.00055   0.00000  -0.00210  -0.00210   2.05712
    R9        2.67133   0.00556   0.00000   0.01275   0.01275   2.68408
   R10        2.62255   0.01473   0.00000   0.05047   0.05047   2.67302
   R11        2.08702   0.00561   0.00000  -0.00849  -0.00849   2.07854
   R12        2.05957  -0.00034   0.00000  -0.00090  -0.00090   2.05867
   R13        2.06437  -0.00013   0.00000  -0.00036  -0.00036   2.06401
   R14        2.88616   0.00119   0.00000   0.00332   0.00332   2.88948
   R15        2.05915  -0.00046   0.00000  -0.00143  -0.00143   2.05772
   R16        2.05847  -0.00017   0.00000  -0.00046  -0.00046   2.05801
   R17        2.06046  -0.00043   0.00000  -0.00134  -0.00134   2.05912
    A1        2.31723  -0.00079   0.00000   0.00852   0.00852   2.32575
    A2        1.96285   0.00085   0.00000  -0.00597  -0.00597   1.95688
    A3        2.00310  -0.00006   0.00000  -0.00254  -0.00255   2.00055
    A4        2.06880  -0.00037   0.00000  -0.00229  -0.00229   2.06651
    A5        2.18465   0.00072   0.00000   0.00166   0.00166   2.18630
    A6        2.02959  -0.00035   0.00000   0.00069   0.00069   2.03028
    A7        1.92162  -0.00028   0.00000  -0.00099  -0.00099   1.92064
    A8        1.91989  -0.00051   0.00000  -0.00003  -0.00005   1.91984
    A9        1.92509   0.00113   0.00000   0.00728   0.00727   1.93237
   A10        1.92540  -0.00024   0.00000  -0.00180  -0.00180   1.92360
   A11        1.84481  -0.00077   0.00000  -0.00875  -0.00875   1.83606
   A12        1.92590   0.00067   0.00000   0.00406   0.00404   1.92994
   A13        1.88359   0.00105   0.00000  -0.00919  -0.00919   1.87440
   A14        1.80679   0.00486   0.00000  -0.00425  -0.00425   1.80255
   A15        1.91408  -0.00023   0.00000   0.00124   0.00124   1.91532
   A16        1.89200  -0.00026   0.00000  -0.00145  -0.00145   1.89055
   A17        1.94262   0.00112   0.00000   0.00678   0.00678   1.94941
   A18        1.87201   0.00005   0.00000  -0.00265  -0.00265   1.86936
   A19        1.92905  -0.00040   0.00000  -0.00251  -0.00253   1.92652
   A20        1.91235  -0.00032   0.00000  -0.00176  -0.00176   1.91059
   A21        1.93122   0.00032   0.00000   0.00263   0.00263   1.93385
   A22        1.93700   0.00008   0.00000  -0.00209  -0.00209   1.93491
   A23        1.93357   0.00033   0.00000   0.00286   0.00286   1.93643
   A24        1.89090  -0.00026   0.00000  -0.00169  -0.00169   1.88921
   A25        1.88348  -0.00025   0.00000  -0.00029  -0.00030   1.88318
   A26        1.88591  -0.00025   0.00000  -0.00155  -0.00155   1.88436
   A27        3.00618   0.00288   0.00000   0.02999   0.02999   3.03617
   A28        3.00512   0.00183   0.00000   0.02947   0.02947   3.03459
    D1       -3.13954   0.00002   0.00000  -0.00045  -0.00045  -3.13998
    D2       -0.01740   0.00010   0.00000   0.00334   0.00333  -0.01407
    D3        0.00466  -0.00008   0.00000  -0.00152  -0.00151   0.00315
    D4        3.12679   0.00000   0.00000   0.00226   0.00226   3.12906
    D5       -0.30698  -0.00066   0.00000   0.00763   0.00763  -0.29935
    D6        2.81234   0.00004   0.00000   0.01232   0.01231   2.82465
    D7        0.05297   0.00008   0.00000   0.00323   0.00324   0.05621
    D8        2.09163  -0.00013   0.00000  -0.00007  -0.00008   2.09155
    D9       -2.08714  -0.00001   0.00000   0.00099   0.00098  -2.08616
   D10       -3.10769   0.00016   0.00000   0.00691   0.00692  -3.10077
   D11       -1.06903  -0.00005   0.00000   0.00360   0.00360  -1.06543
   D12        1.03538   0.00007   0.00000   0.00466   0.00466   1.04004
   D13        1.12961   0.00025   0.00000   0.00326   0.00329   1.13289
   D14       -3.07687   0.00007   0.00000   0.00085   0.00084  -3.07603
   D15       -0.99524  -0.00031   0.00000  -0.00425  -0.00427  -0.99950
   D16       -1.54827  -0.00174   0.00000  -0.03986  -0.03986  -1.58813
   D17        1.07668   0.00007   0.00000   0.00473   0.00473   1.08141
   D18       -3.10668   0.00001   0.00000   0.00296   0.00296  -3.10372
   D19       -1.01158  -0.00004   0.00000   0.00152   0.00152  -1.01006
   D20       -1.05480  -0.00013   0.00000   0.00023   0.00024  -1.05456
   D21        1.04502  -0.00019   0.00000  -0.00153  -0.00153   1.04349
   D22        3.14013  -0.00024   0.00000  -0.00297  -0.00297   3.13715
   D23       -3.11411   0.00025   0.00000   0.00607   0.00607  -3.10804
   D24       -1.01429   0.00019   0.00000   0.00430   0.00430  -1.00999
   D25        1.08082   0.00014   0.00000   0.00286   0.00286   1.08367
         Item               Value     Threshold  Converged?
 Maximum Force            0.014729     0.000450     NO 
 RMS     Force            0.002250     0.000300     NO 
 Maximum Displacement     0.216684     0.001800     NO 
 RMS     Displacement     0.058152     0.001200     NO 
 Predicted change in Energy=-5.045676D-04
 GradGradGradGradGradGradGradGradGradGradGradGradGradGradGradGradGradGrad

                          Input orientation:                          
 ---------------------------------------------------------------------
 Center     Atomic      Atomic             Coordinates (Angstroms)
 Number     Number       Type             X           Y           Z
 ---------------------------------------------------------------------
      1          6           0        0.263655   -1.317137    0.481576
      2          6           0        0.967589   -0.501273   -0.265173
      3          1           0        0.528638   -2.055703    1.224146
      4          1           0        0.439573    0.159852   -0.949179
      5          6           0       -2.219912    1.315513    0.378528
      6          1           0       -1.385326    1.263223    1.079304
      7          1           0       -2.203122    2.266000   -0.151290
      8          1           0       -3.161706    1.198739    0.911821
      9          8           0       -2.091451    0.324340   -0.630667
     10          8           0       -2.195831   -0.937422    0.000107
     11          1           0       -1.152342   -1.184730    0.244606
     12          6           0        2.472153   -0.382022   -0.246599
     13          1           0        2.891021   -1.116580    0.440259
     14          1           0        2.848002   -0.623249   -1.243348
     15          6           0        2.922698    1.026859    0.140754
     16          1           0        2.587788    1.277217    1.146167
     17          1           0        4.008346    1.108261    0.112874
     18          1           0        2.512322    1.769018   -0.543428
 ---------------------------------------------------------------------
                    Distance matrix (angstroms):
                    1          2          3          4          5
     1  C    0.000000
     2  C    1.311027   0.000000
     3  H    1.080327   2.197044   0.000000
     4  H    2.063857   1.088003   3.104829   0.000000
     5  C    3.620714   3.724946   4.431106   3.189235   0.000000
     6  H    3.120044   3.233770   3.833994   2.943200   1.091034
     7  H    4.395950   4.210009   5.294474   3.472222   1.088308
     8  H    4.271749   4.618055   4.930272   4.184712   1.088583
     9  O    3.078645   3.189505   3.996223   2.556284   1.420352
    10  O    2.534772   3.204345   3.189288   3.008407   2.284622
    11  H    1.441782   2.284972   2.131617   2.401504   2.721922
    12  C    2.506420   1.509397   2.956611   2.217798   5.028706
    13  H    2.635333   2.139119   2.660316   3.093447   5.660435
    14  H    3.183660   2.123124   3.676941   2.549571   5.663306
    15  C    3.561037   2.514441   4.050611   2.847027   5.156190
    16  H    3.545976   2.789257   3.918486   3.202157   4.868749
    17  H    4.476740   3.461173   4.832593   3.842340   6.237365
    18  H    3.953668   2.760045   4.657017   2.655247   4.842490
                    6          7          8          9         10
     6  H    0.000000
     7  H    1.785697   0.000000
     8  H    1.785423   1.785534   0.000000
     9  O    2.074636   2.003076   2.071060   0.000000
    10  O    2.581554   3.207005   2.515417   1.414501   0.000000
    11  H    2.596821   3.628830   3.188047   1.981242   1.099914
    12  C    4.398294   5.373947   5.964990   4.633890   4.707378
    13  H    4.935482   6.143457   6.497582   5.296051   5.109001
    14  H    5.184067   5.920659   6.639350   5.066704   5.204338
    15  C    4.415406   5.281552   6.135475   5.121553   5.484297
    16  H    3.973701   5.061018   5.754803   5.095134   5.394543
    17  H    5.481760   6.323960   7.214994   6.194748   6.533708
    18  H    4.252146   4.757749   5.885368   4.825912   5.457743
                   11         12         13         14         15
    11  H    0.000000
    12  C    3.744675   0.000000
    13  H    4.048668   1.089403   0.000000
    14  H    4.304883   1.092227   1.754923   0.000000
    15  C    4.637657   1.529045   2.164495   2.155035   0.000000
    16  H    4.567557   2.169388   2.514065   3.064191   1.088898
    17  H    5.648705   2.170266   2.511078   2.486738   1.089052
    18  H    4.772357   2.171795   3.072089   2.515057   1.089639
                   16         17         18
    16  H    0.000000
    17  H    1.764716   0.000000
[...]
 49673,-0.0008712,0.0139248,0.0485978,-0.095237,0.0381469,0.020445,0.05
 51609,0.0052787,-0.1252756,0.0362346,0.0863859,-0.0356488,0.0259186,0.
 0155717,0.1037011,-0.0708629,0.0051447,-0.189831,-0.060988,0.0171613,0
 .7893302,-0.5054219,-0.015589,-0.2339857,-0.0244169,-0.3722386,0.20700
 33,-0.1206629,0.0718281,-0.811529,0.030231,-0.1880297,0.5377215,-0.205
 384,-0.147323,-0.9463086,0.3713379,-0.1355791,0.276641,0.0228124,0.054
 9443,-0.2826738,0.1223873,0.1084888,0.2742991,0.0124699,-0.0104014,-0.
 1036555,0.1303795,0.0169878,0.1146127,-0.0133696,0.1525221,0.0001008,0
 .0003083,-0.0137123,0.047035,-0.0745574,0.0663606,-0.0773897,0.0844844
 ,-0.0128739,-0.103766,-0.0105312,0.0597586,-0.0228519,0.0308105,-0.042
 2368,0.0643577,-0.0675162,-0.0906187,-0.0380694,-0.0466172,0.0120626,0
 .0646539,0.0733322,-0.0307533,0.0198185,-0.0162838,0.1007042,0.054912,
 0.0196501,0.0699455,-0.0088482,0.0135332,-0.0218986,0.0320607,-0.06361
 98,-0.1035085,-0.181322,-0.0536058,0.0029649,-0.0749074,0.0206525,-0.0
 035352,-0.003585,-0.009127,0.0715789,0.0370332,0.0696515,-0.0661132,0.
 018988,-0.0540654,0.0499961,-0.0476043,0.0874639,-0.0255947\Polar=109.
 9273769,-4.1179275,76.7554877,-1.5403348,-6.3410573,60.3033498\PG=C01 
 [X(C5H11O2)]\NImag=1\\0.28065194,0.12920990,0.46405446,-0.11097754,-0.
 38088760,0.42893166,-0.20319912,-0.17676876,0.16066701,0.56542806,-0.1
 5762844,-0.25963204,0.20372014,0.10292051,0.48362936,0.14340618,0.2022
 7088,-0.22830465,-0.06816957,-0.32126281,0.45278107,-0.04870204,0.0601
 7499,-0.06096407,0.00869805,-0.01539975,0.01553270,0.04731121,0.043920
 52,-0.17868366,0.15298775,0.01070586,-0.00529318,0.00709620,-0.0509052
 4,0.18080687,-0.04455886,0.15449421,-0.17977124,-0.00981731,0.00520941
 ,-0.00450211,0.05186999,-0.16469509,0.18116962,0.00968386,-0.01003683,
 0.01024945,-0.11130577,0.07737245,-0.08110770,-0.00189545,-0.00263353,
 0.00179001,0.11973766,0.00652571,-0.01263197,0.01527016,0.07958581,-0.
 14389552,0.10585529,-0.00158678,0.00256119,0.00544989,-0.08200689,0.14
 861497,-0.00575976,0.01413132,-0.01176751,-0.08298289,0.10600982,-0.15
 183587,0.00092138,0.00537073,0.00312539,0.08708162,-0.12851567,0.15539
 482,-0.00087330,0.00027103,0.00061418,0.00004471,0.00014353,-0.0000983
 2,0.00032927,0.00031380,0.00021865,-0.00004677,0.00043960,0.00074829,0
 .58305261,0.00854382,0.00036878,-0.00022467,-0.00215033,0.00023515,-0.
 00069648,-0.00186217,-0.00004054,0.00037560,0.00117800,0.00012923,0.00
 009990,0.01215014,0.52287045,0.00774241,0.00020221,-0.00022696,-0.0025
 0790,-0.00005824,-0.00027889,-0.00153834,0.00034887,0.00075385,0.00084
 020,0.00013520,0.00047460,0.00240023,-0.09193580,0.54191883,-0.0001655
 5,0.00015189,0.00007647,-0.00034173,-0.00007005,-0.00000470,-0.0000045
 2,-0.00030272,-0.00024130,-0.00007272,-0.00016356,-0.00012181,-0.21043
 395,0.01433934,-0.12513825,0.21862467,-0.00148621,-0.00007532,0.000318
 33,0.00064929,0.00004979,-0.00002063,0.00038626,0.00009471,0.00000737,
 -0.00008255,0.00011969,0.00001559,0.01618672,-0.05172726,0.01907731,-0
 .01419139,0.05349216,-0.00268106,-0.00003085,0.00031479,0.00087307,0.0
 0021242,0.00019868,0.00047958,0.00001610,-0.00016471,-0.00010184,-0.00
 014001,-0.00044544,-0.12203621,0.01295103,-0.14749136,0.13802434,-0.00
 460180,0.17043719,0.00012538,0.00007294,0.00015358,-0.00005561,0.00008
 669,-0.00016720,-0.00004497,-0.00005342,-0.00001561,-0.00000859,0.0000
 4296,0.00003460,-0.05111302,-0.00355299,0.00227711,0.00177123,0.021864
 22,-0.01166808,0.04657997,-0.00105461,0.00000990,-0.00001999,0.0005688
 8,-0.00007139,0.00016224,0.00026443,0.00004607,-0.00006935,-0.00002222
 ,-0.00007340,-0.00002290,-0.00252463,-0.24439128,0.11233940,-0.0001845
 9,0.00093091,0.00102795,0.00220598,0.27683281,-0.00053127,0.00007399,0
 .00013456,0.00031472,0.00006596,-0.00005476,0.00013269,-0.00002868,-0.
 00006231,0.00001823,-0.00000176,0.00000293,0.00200912,0.12421769,-0.12
 326755,0.00234312,0.01677898,-0.00794670,-0.00236664,-0.12253408,0.125
 22430,0.00063457,0.00000616,0.00013528,-0.00010348,0.00016732,-0.00010
 741,-0.00020018,-0.00007322,-0.00003217,0.00011408,-0.00009974,-0.0001
 3770,-0.25650011,-0.03387715,0.10509481,-0.02046942,-0.00498439,0.0115
 0315,0.00203494,-0.00001005,-0.00201525,0.27084291,-0.00026695,-0.0000
 0663,0.00005247,-0.00001358,-0.00011819,0.00019796,0.00011611,0.000015
 59,0.00000365,-0.00022998,-0.00002882,-0.00007003,-0.03850770,-0.05537
 314,0.02504273,0.00347816,0.00202168,-0.00003538,-0.02450800,-0.001080
 72,0.01186757,0.03435735,0.05723303,-0.00151925,-0.00009730,-0.0000116
 5,0.00042422,0.00009588,0.00012976,0.00028680,-0.00000764,-0.00008538,
 -0.00029941,-0.00005745,-0.00015769,0.10163713,0.01826932,-0.10314014,
 -0.01818401,-0.00219933,0.01120216,0.01307736,0.00206102,-0.00588127,-
 0.11934063,-0.01226315,0.11957229,-0.00903672,-0.00019845,-0.00197840,
 0.00226685,0.00057523,0.00059497,0.00112367,0.00044297,0.00043542,0.00
 022783,0.00073652,-0.00128404,-0.06552898,0.00903093,0.01948776,0.0103
 0268,-0.01812998,-0.01806800,-0.00038506,-0.00061841,-0.00041492,0.003
 58940,0.02436019,0.02533078,0.08716580,-0.03579820,-0.00048715,-0.0010
 2006,0.00804651,-0.00201819,0.00325487,0.00657162,0.00093137,-0.001205
 92,-0.00040404,0.00072602,-0.00139495,0.01277059,-0.11048839,-0.088245
 94,-0.00238675,-0.01082396,-0.01220692,0.00361215,-0.02764594,-0.02240
 161,0.00561627,-0.00840051,-0.00901352,-0.02340750,0.35798078,0.013379
 23,0.00100810,-0.00000462,-0.00260894,0.00055264,-0.00068970,-0.002496
 62,-0.00068989,0.00027062,-0.00056248,-0.00064654,0.00017182,0.0176088
 9,-0.04771629,-0.18365520,0.00176625,-0.02750803,-0.02772598,-0.001743
 72,0.01217813,0.01201745,0.00601398,-0.02348823,-0.02314815,-0.0255854
 1,0.02507820,0.31683205,-0.11350562,0.01018050,-0.01563707,0.00821174,
 0.00224028,-0.00141474,0.00309577,0.00173495,-0.00212543,-0.00022522,-
 0.00020607,0.00048791,-0.00001889,0.00710469,-0.00302653,0.00079701,-0
 .00274607,0.00116114,0.00113659,0.00137923,0.00072951,0.00137605,0.000
 58739,-0.00291916,-0.04735485,-0.02441617,0.01458249,0.19678174,0.0636
 7579,0.00328013,0.00572786,-0.01142090,0.00113285,-0.00340374,-0.00819
 725,-0.00208866,0.00016711,-0.00003070,-0.00185844,0.00078956,-0.00348
 898,-0.06245693,0.01954502,-0.00040490,0.00629536,0.00392484,0.0006714
 8,-0.00425098,-0.00747755,-0.00129002,0.00606596,0.00356295,-0.0160103
 2,-0.17042646,0.04644829,0.03159294,0.23948050,-0.04827139,0.00211114,
 -0.00035057,0.00777904,-0.00102621,0.00088578,0.00538888,0.00011660,-0
 .00134275,-0.00029509,0.00000108,-0.00114778,-0.00444428,-0.01193148,0
 .01615430,0.00132378,-0.00196960,0.00087987,0.00061894,-0.00484510,0.0
 0003605,-0.00099434,-0.00167790,0.00122479,0.01360456,0.08582978,-0.08
 192436,-0.00309357,-0.06643912,0.06972712,0.11497129,-0.00561925,0.013
 22087,-0.03239222,-0.00378191,0.00009315,-0.01192723,-0.00371007,0.002
 58843,0.00029464,-0.00005332,-0.00023602,0.00102973,-0.01062884,-0.005
 40016,-0.00002616,0.00256342,0.00246592,-0.00001761,-0.00001398,-0.000
 21207,-0.00130801,0.00056551,0.00143701,0.01847474,0.04893297,-0.02025
 619,-0.04981987,-0.05524505,0.02893829,-0.04170410,-0.03334877,-0.0192
 2336,-0.00236302,0.00041577,0.00208037,0.00161013,0.00922670,0.0018503
 0,0.00202274,-0.00090620,-0.00077831,0.00007555,0.00254721,0.00141384,
 0.00449396,-0.00052270,-0.00037011,-0.00138651,-0.00041788,-0.00043316
 ,-0.00062684,0.00014833,-0.00033062,-0.00048331,0.02243770,-0.03197315
 ,0.01572512,-0.02772448,-0.01299686,-0.00230909,0.02972793,0.05992952,
 0.03130962,-0.00078072,-0.01453539,-0.00088506,0.00126121,0.00191066,-
 0.00880014,0.00146256,0.00124933,0.00114394,0.00046208,-0.00057160,0.0
 0168667,-0.00371114,-0.00111583,-0.00019307,0.00030444,0.00084468,-0.0
 0027641,-0.00015350,-0.00018611,-0.00023055,0.00040930,0.00030364,-0.0
 1090234,0.02380572,-0.01320471,0.01192075,-0.00635543,-0.00331834,-0.0
 2619918,-0.01725845,0.02783855,-0.02945433,-0.00989645,0.00715311,-0.1
 8602844,0.00629398,-0.01061044,0.00237536,0.00096799,-0.00085850,-0.01
 441726,-0.00322872,0.00126836,-0.00019188,0.00061506,0.00057838,0.0000
 1712,-0.00001585,-0.00011599,0.00003716,-0.00019088,-0.00003676,0.0000
 8930,0.00002740,-0.00008572,-0.00107510,-0.00121726,0.00036353,-0.0010
 8088,0.00225264,-0.00201849,0.00550863,-0.00232917,0.00217200,0.468522
 61,-0.02202952,0.00095494,0.00864598,0.00022785,-0.07012704,0.00540460
 ,0.00051046,-0.00032434,-0.00150693,0.01841114,0.00484730,0.00352835,-
 0.00030326,-0.00045451,-0.00086561,0.00029880,-0.00003429,0.00023517,-
 0.00001401,0.00011342,0.00006125,0.00003688,-0.00000749,0.00011275,0.0
 0072319,0.00236023,-0.00086449,0.00032622,-0.00177086,0.00201922,-0.00
 224833,0.00049836,0.00060705,-0.04716506,0.49338168,0.01746860,0.00911
 370,0.00312973,-0.00437387,0.00593253,-0.07231172,-0.00019664,-0.00147
 708,-0.00059766,-0.02020501,0.00220634,0.00524664,-0.00041004,0.000189
 26,-0.00027965,0.00039872,-0.00018768,-0.00007493,0.00009289,-0.000114
 84,-0.00000002,0.00011434,-0.00003451,0.00001516,-0.00129901,-0.002157
 57,0.00098101,-0.00070637,0.00339145,-0.00054698,0.00341607,0.00046120
 ,0.00054459,0.00051042,-0.04797279,0.57417419,0.00165852,0.00156772,-0
 .00126183,-0.01678464,0.02129356,-0.02153293,-0.00012403,-0.00052717,0
 .00052610,-0.00545429,-0.00074605,0.00042903,0.00003445,-0.00005623,-0
 .00003447,0.00002436,-0.00002760,-0.00004110,0.00001180,-0.00001090,-0
 .00000771,-0.00001316,0.00000308,0.00001130,-0.00039829,-0.00051961,0.
 00031699,-0.00012187,0.00064341,-0.00026902,0.00055932,-0.00003265,-0.
 00000990,-0.08477056,0.06641757,-0.06156052,0.09638701,-0.00089135,0.0
 0033417,-0.00089966,-0.00111144,0.00192334,-0.00235504,0.00036622,0.00
 018593,-0.00000211,-0.00089795,0.00086114,0.00043028,0.00000523,-0.000
 03444,0.00000299,-0.00000198,-0.00001138,0.00001323,-0.00001837,0.0000
 0618,-0.00001011,0.00000889,0.00001416,0.00000536,-0.00009015,-0.00002
 712,0.00001830,-0.00013034,0.00009662,-0.00005649,0.00025065,-0.000013
 45,-0.00003073,0.06750784,-0.16553649,0.11237712,-0.07067698,0.1821572
 6,0.00110667,-0.00087684,0.00046490,-0.00006461,-0.00072951,-0.0002205
 8,-0.00036577,-0.00011729,0.00019528,0.00030388,0.00017389,0.00140790,
 0.00004753,-0.00004414,-0.00003301,-0.00000598,0.00000270,-0.00000168,
 0.00000019,0.00000712,0.00000088,-0.00001525,-0.00000196,0.00000756,0.
 00002873,0.00008701,-0.00002399,0.00013317,-0.00013124,0.00009847,-0.0
 0031167,0.00001429,-0.00004090,-0.06309756,0.11320607,-0.15802055,0.06
 976125,-0.12255713,0.16673215,-0.00156172,-0.00021379,-0.00157275,-0.0
 1823449,0.00403528,0.03165841,0.00002591,0.00002312,0.00003444,0.00141
 655,-0.00073679,-0.00154836,0.00022314,-0.00031489,-0.00012920,-0.0001
 0969,0.00004144,0.00004221,-0.00004210,0.00009357,0.00000775,-0.000073
 19,0.00001586,0.00003229,0.00036415,0.00119781,-0.00042090,0.00040476,
 -0.00156448,0.00057250,-0.00185048,0.00020749,-0.00044558,-0.07495691,
 0.02370362,0.08209190,0.00443061,-0.00329683,-0.01176124,0.08519913,0.
 00004649,-0.00005144,-0.00030514,-0.00328052,0.00041224,0.00240889,0.0
 0011978,0.00022574,0.00021729,0.00027700,-0.00010854,-0.00029241,0.000
 03165,-0.00011180,-0.00009535,-0.00002176,0.00001316,0.00002284,-0.000
 00516,0.00001671,0.00000064,-0.00001622,0.00000852,0.00002307,0.000052
 26,0.00032137,-0.00006091,0.00007557,-0.00039494,0.00016540,-0.0004881
 2,0.00011205,-0.00018780,0.02149076,-0.05675952,-0.04611311,-0.0080950
 5,0.00466005,0.02000931,-0.01868143,0.06448892,0.00004393,-0.00074960,
 0.00141012,0.00126537,0.00170563,0.00120017,-0.00007621,-0.00049167,-0
 .00039785,0.00067210,0.00003846,0.00029351,-0.00001899,0.00005575,0.00
 002999,-0.00000520,-0.00002041,0.00000015,-0.00000796,-0.00000560,-0.0
 0000842,0.00001055,-0.00000157,-0.00000594,0.00001923,-0.00017240,0.00
 008462,-0.00003822,0.00009107,-0.00018005,0.00019273,0.00012748,0.0001
 7480,0.07742800,-0.04795859,-0.26449036,0.00686424,-0.00425884,-0.0186
 5902,-0.08755622,0.05549779,0.28599125,-0.00132350,0.00086498,-0.00001
 957,-0.01955615,-0.03540296,-0.00763013,0.00006155,0.00014213,0.000273
 36,0.00168058,0.00105632,0.00124011,0.00001101,-0.00045662,-0.00052667
 ,0.00008458,-0.00000775,0.00011639,-0.00001905,0.00010419,0.00003056,-
 0.00002994,0.00000512,0.00008829,0.00025051,0.00125321,-0.00034488,0.0
 0026114,-0.00107779,0.00107898,-0.00165590,0.00049253,-0.00033310,-0.0
 8168154,-0.02914164,-0.01257578,0.00411140,0.01104049,0.00385377,0.004
 19750,0.00995636,0.00252694,0.56776570,0.00157161,0.00124284,-0.001556
 52,-0.01081675,-0.00504562,0.00026350,0.00006474,-0.00013791,-0.000280
 96,0.00118448,0.00122258,0.00006852,-0.00001838,0.00035829,0.00033150,
 -0.00001914,0.00002744,-0.00010944,0.00005893,-0.00009440,-0.00000516,
 0.00000361,-0.00003953,-0.00006764,-0.00005459,-0.00080398,0.00015758,
 -0.00020320,0.00060094,-0.00052264,0.00080143,-0.00000951,0.00038403,-
 0.02360896,-0.17290998,-0.02534383,-0.00794098,-0.02196052,-0.00776600
 ,-0.00307874,-0.00978122,-0.00210351,-0.02973109,0.47996398,0.00066036
 ,0.00033202,-0.00025675,-0.00025717,-0.00056916,0.00023580,-0.00015973
 ,0.00012484,0.00011117,-0.00009603,-0.00045399,-0.00002395,0.00011167,
 0.00016869,0.00040967,-0.00003438,-0.00000171,-0.00005247,-0.00005227,
 -0.00000232,-0.00003404,-0.00000697,0.00001713,-0.00006544,0.00002325,
 -0.00041980,-0.00005463,-0.00004452,0.00029576,-0.00031136,0.00045564,
 -0.00011633,0.00018513,-0.00952013,-0.02521231,-0.08614008,0.00727145,
 0.01969354,0.00650096,-0.01075862,-0.03086250,-0.00758443,-0.00901808,
 -0.02480666,0.56757721,-0.00000003,0.00011510,0.00041560,0.00140118,0.
 00037851,-0.00122357,0.00001003,-0.00006367,-0.00004165,-0.00003476,0.
 00003883,-0.00006773,-0.00007096,0.00002842,-0.00006204,-0.00000946,-0
 .00001738,0.00003587,-0.00000027,-0.00000647,0.00000153,0.00003332,0.0
 0000281,0.00001141,0.00001017,-0.00009996,0.00006900,-0.00002113,0.000
 13604,-0.00006005,0.00012469,-0.00003304,0.00003781,0.00200255,-0.0028
 4773,-0.01034579,0.00006623,0.00069829,0.00045413,0.00008729,-0.002222
 71,-0.00089105,-0.07438830,0.01869703,0.07710720,0.07602828,-0.0003314
 5,0.00001866,0.00059502,0.00193384,0.00140669,-0.00004077,0.00002822,-
 0.00008265,-0.00002451,-0.00011895,-0.00013404,-0.00009543,-0.00000897
 ,0.00002604,0.00002899,-0.00000779,0.00002254,-0.00002002,0.00001305,-
 0.00000622,0.00001161,-0.00000358,-0.00000372,-0.00000763,-0.00000211,
 -0.00007259,0.00002606,-0.00000759,0.00004636,-0.00005020,0.00002584,-
 0.00003621,0.00000656,0.00899220,-0.00848408,-0.03070187,0.00069416,0.
 00135251,0.00045526,-0.00261456,-0.00586752,-0.00167545,0.01795650,-0.
 05901577,-0.05122573,-0.01819555,0.06616547,-0.00037850,-0.00007746,0.
 00031840,0.00046876,0.00061832,0.00030745,-0.00000296,-0.00002630,-0.0
 0000335,-0.00005404,-0.00010404,-0.00017204,-0.00006048,-0.00010663,-0
 .00022304,-0.00000950,-0.00003010,0.00008083,-0.00001781,0.00001770,-0
 .00000405,0.00002744,0.00001001,0.00004437,0.00004686,0.00021363,0.000
 03797,0.00002247,-0.00013883,0.00011725,-0.00020315,0.00001759,-0.0000
 7430,0.00198865,-0.00174373,-0.00695008,-0.00008806,-0.00024317,0.0007
 7402,-0.00058688,-0.00149547,0.00127462,0.07606289,-0.05270819,-0.2767
 4961,-0.08376524,0.05990918,0.29923835,0.00014759,0.00010030,-0.000245
 32,0.00062948,-0.00283337,-0.00031145,-0.00011185,-0.00000770,0.000012
 23,0.00027681,0.00021653,0.00021404,0.00008000,-0.00011602,-0.00005484
 ,0.00001115,0.00000868,-0.00001762,0.00000843,0.00001484,0.00000282,-0
 .00003899,-0.00000162,0.00001228,-0.00003839,0.00028951,-0.00008850,0.
 00009350,-0.00028511,0.00017229,-0.00030126,0.00013597,-0.00001087,-0.
 00788631,0.00060243,0.00030422,0.00032247,-0.00032080,0.00033007,0.000
 40935,0.00003817,-0.00046454,-0.31300851,-0.01534072,0.00829354,-0.008
 86854,-0.00020214,-0.00027615,0.33963725,-0.00055164,0.00026041,0.0002
 2091,-0.00098980,-0.00601988,-0.00133061,0.00002800,-0.00004711,0.0000
 1328,-0.00007243,0.00034065,0.00006816,-0.00000102,-0.00026938,-0.0003
 0770,0.00001801,-0.00002224,0.00009545,-0.00003602,0.00006597,0.000005
 85,0.00000006,0.00001926,0.00005834,0.00010521,0.00066912,-0.00014668,
 0.00015671,-0.00057710,0.00048387,-0.00083111,0.00021736,-0.00017441,-
 0.03227951,-0.00281647,0.00005565,0.00043648,0.00113480,0.00078850,0.0
 0071002,0.00163272,0.00008106,-0.01459161,-0.04752507,0.00071638,0.007
 01981,-0.00058242,0.00063261,0.01845743,0.05207588,-0.00043989,-0.0001
 0213,0.00051211,-0.00044662,-0.00183832,0.00022449,0.00000858,-0.00000
 231,0.00004707,0.00038206,0.00007245,0.00003925,-0.00002914,-0.0000576
 1,-0.00012139,0.00000229,-0.00000472,0.00002226,0.00000831,0.00000485,
 0.00000733,0.00000630,-0.00000230,0.00002238,0.00000952,0.00013548,0.0
 0000702,0.00001683,-0.00010296,0.00009341,-0.00016544,0.00003301,-0.00
 003869,-0.00915121,-0.00043089,-0.00105597,0.00041380,0.00023724,0.000
 13039,-0.00018205,0.00061624,0.00009451,0.00889986,0.00069198,-0.04860
 594,0.03101664,0.00209846,0.00044279,-0.00880264,0.00084436,0.04756790
 ,-0.00005122,0.00001801,-0.00002900,0.00132157,-0.00039087,0.00109274,
 -0.00002054,0.00002540,-0.00005781,0.00002882,0.00018564,-0.00028701,-
 0.00002706,0.00002484,-0.00000250,0.00000038,-0.00001084,0.00002823,-0
 .00001921,0.00000564,-0.00000546,0.00002190,0.00000885,-0.00000069,0.0
 0004159,-0.00004116,0.00000729,-0.00000999,0.00004321,-0.00003103,0.00
 003980,-0.00002473,0.00001543,0.00299050,-0.00750862,0.00727586,0.0000
 6068,-0.00244142,-0.00039731,0.00007020,0.00072292,0.00003530,-0.08676
 108,0.06843070,-0.06397521,0.00362971,-0.00815113,0.00682569,-0.011362
 19,0.02242140,-0.02154720,0.09004614,-0.00010669,0.00026726,-0.0002619
 6,0.00149776,0.00135125,0.00058554,0.00009363,-0.00001972,-0.00017568,
 -0.00098081,0.00008627,-0.00019640,-0.00000656,-0.00005410,-0.00003950
 ,-0.00000886,-0.00000288,0.00003189,-0.00002256,0.00002551,0.00000224,
 0.00000948,0.00001116,0.00000827,0.00004730,0.00017856,-0.00007137,0.0
 0005543,-0.00017750,0.00010074,-0.00024778,0.00006295,-0.00005075,0.01
 178400,-0.02293085,0.02037602,-0.00242276,-0.00514276,-0.00252004,0.00
 047332,0.00118350,-0.00015959,0.06753764,-0.16609255,0.11232215,-0.003
 62834,0.00524695,-0.00474512,-0.00075638,0.00144351,-0.00219283,-0.073
 31782,0.18456345,0.00000050,-0.00013507,0.00001305,0.00032175,0.000100
 29,0.00032441,-0.00002011,0.00001230,0.00000503,0.00024010,0.00025461,
 -0.00003499,0.00001507,0.00009702,0.00009176,0.00000323,0.00003929,-0.
 00007736,0.00005271,-0.00003072,0.00002173,-0.00002557,-0.00002578,-0.
 00002646,-0.00004897,-0.00016599,0.00002879,-0.00004866,0.00010495,-0.
 00009486,0.00017579,-0.00003750,0.00003448,0.00403234,-0.00726510,0.00
 637667,-0.00078862,-0.00236477,0.00068721,0.00052232,0.00045122,0.0007
 7232,-0.06372293,0.11337343,-0.15514125,-0.01269206,0.02071047,-0.0184
 5958,0.00093045,-0.00210501,0.00061107,0.07105266,-0.12301362,0.164867
 97\\-0.00000051,0.00000093,0.00000188,-0.00000048,-0.00000022,-0.00000
 088,-0.00000008,-0.00000036,-0.00000030,-0.00000026,-0.00000049,-0.000
 00074,-0.00000101,-0.00000056,-0.00000056,0.00000038,-0.00000016,-0.00
 000009,0.00000005,-0.00000013,-0.00000019,-0.00000011,0.00000006,-0.00
 000012,0.00000236,0.00000235,-0.00000148,-0.00000076,-0.00000289,0.000
 00351,0.00000046,0.00000084,-0.00000202,-0.00000018,0.00000049,0.00000
 050,-0.00000034,-0.00000039,-0.00000014,0.00000048,0.00000038,0.000000
 16,0.00000003,-0.00000005,0.00000051,0.00000046,-0.00000012,0.00000019
 ,-0.00000003,0.00000024,-0.00000052,-0.00000045,0.00000007,0.00000030\
 \\@


 A CHEMICAL PHYSICIST MAKES PRECISE MEASUREMENTS ON IMPURE COMPOUNDS.
 A THEORETICAL PHYSICAL CHEMIST MAKES IMPRECISE
     MEASUREMENTS ON PURE COMPOUNDS.
 AN EXPERIMENTAL PHYSICAL CHEMIST MAKES IMPRECISE
     MEASUREMENTS ON IMPURE COMPOUNDS.
 Job cpu time:       3 days  3 hours 30 minutes  6.6 seconds.
 Elapsed time:       0 days  1 hours 57 minutes  3.9 seconds.
 File lengths (MBytes):  RWF= 108510 Int=      0 D2E=      0 Chk=     21 Scr=      1
 Normal termination of Gaussian 16 at Thu Jun  6 04:16:25 2019.
