 Entering Gaussian System, Link 0=g16
 Initial command:
 /ichec/packages/gaussian/16b01/l1.exe "/localscratch/352095/Gau-10919.inp" -scrdir="/localscratch/352095/"
 Entering Link 1 = /ichec/packages/gaussian/16b01/l1.exe PID=     12808.
  
 Copyright (c) 1988-2017, Gaussian, Inc.  All Rights Reserved.
  
 This is part of the Gaussian(R) 16 program.  It is based on
 the Gaussian(R) 09 system (copyright 2009, Gaussian, Inc.),
 the Gaussian(R) 03 system (copyright 2003, Gaussian, Inc.),
 the Gaussian(R) 98 system (copyright 1998, Gaussian, Inc.),
 the Gaussian(R) 94 system (copyright 1995, Gaussian, Inc.),
 the Gaussian 92(TM) system (copyright 1992, Gaussian, Inc.),
 the Gaussian 90(TM) system (copyright 1990, Gaussian, Inc.),
 the Gaussian 88(TM) system (copyright 1988, Gaussian, Inc.),
 the Gaussian 86(TM) system (copyright 1986, Carnegie Mellon
 University), and the Gaussian 82(TM) system (copyright 1983,
 Carnegie Mellon University). Gaussian is a federally registered
 trademark of Gaussian, Inc.
  
 This software contains proprietary and confidential information,
 including trade secrets, belonging to Gaussian, Inc.
  
 This software is provided under written license and may be
 used, copied, transmitted, or stored only in accord with that
 written license.
  
 The following legend is applicable only to US Government
 contracts under FAR:
  
                    RESTRICTED RIGHTS LEGEND
  
 Use, reproduction and disclosure by the US Government is
 subject to restrictions as set forth in subparagraphs (a)
 and (c) of the Commercial Computer Software - Restricted
 Rights clause in FAR 52.227-19.
  
 Gaussian, Inc.
 340 Quinnipiac St., Bldg. 40, Wallingford CT 06492
  
  
 ---------------------------------------------------------------
 Warning -- This program may not be used in any manner that
 competes with the business of Gaussian, Inc. or will provide
 assistance to any competitor of Gaussian, Inc.  The licensee
 of this program is prohibited from giving any competitor of
 Gaussian, Inc. access to this program.  By using this program,
 the user acknowledges that Gaussian, Inc. is engaged in the
 business of creating and licensing software in the field of
 computational chemistry and represents and warrants to the
 licensee that it is not a competitor of Gaussian, Inc. and that
 it will not use this program in any manner prohibited above.
 ---------------------------------------------------------------
  

 Cite this work as:
 Gaussian 16, Revision B.01,
 M. J. Frisch, G. W. Trucks, H. B. Schlegel, G. E. Scuseria, 
 M. A. Robb, J. R. Cheeseman, G. Scalmani, V. Barone, 
 G. A. Petersson, H. Nakatsuji, X. Li, M. Caricato, A. V. Marenich, 
 J. Bloino, B. G. Janesko, R. Gomperts, B. Mennucci, H. P. Hratchian, 
 J. V. Ortiz, A. F. Izmaylov, J. L. Sonnenberg, D. Williams-Young, 
 F. Ding, F. Lipparini, F. Egidi, J. Goings, B. Peng, A. Petrone, 
 T. Henderson, D. Ranasinghe, V. G. Zakrzewski, J. Gao, N. Rega, 
 G. Zheng, W. Liang, M. Hada, M. Ehara, K. Toyota, R. Fukuda, 
 J. Hasegawa, M. Ishida, T. Nakajima, Y. Honda, O. Kitao, H. Nakai, 
 T. Vreven, K. Throssell, J. A. Montgomery, Jr., J. E. Peralta, 
 F. Ogliaro, M. J. Bearpark, J. J. Heyd, E. N. Brothers, K. N. Kudin, 
 V. N. Staroverov, T. A. Keith, R. Kobayashi, J. Normand, 
 K. Raghavachari, A. P. Rendell, J. C. Burant, S. S. Iyengar, 
 J. Tomasi, M. Cossi, J. M. Millam, M. Klene, C. Adamo, R. Cammi, 
 J. W. Ochterski, R. L. Martin, K. Morokuma, O. Farkas, 
 J. B. Foresman, and D. J. Fox, Gaussian, Inc., Wallingford CT, 2016.
 
 ******************************************
 Gaussian 16:  ES64L-G16RevB.01 20-Dec-2017
                20-Jun-2019 
 ******************************************
 %mem=80GB
 %nproc=40
 Will use up to   40 processors via shared memory.
 ----------------------------------------------------------------------
 # opt=(calcfc,ts,noeigentest,maxcyc=500,modredundant) uB2PLYPD3/cc-pvt
 z scf=maxcyc=500 nosymm
 ----------------------------------------------------------------------
 1/5=1,6=500,10=4,11=1,18=120,38=1/1,3;
 2/9=110,12=2,15=1,17=6,18=5,40=1/2;
 3/5=16,6=1,11=2,25=1,30=1,71=2,74=-60,116=2,140=1/1,2,3;
 4//1;
 5/5=2,7=500,38=5/2;
 8/6=3,8=1,10=1,19=11,30=-1/1;
 9/15=3,16=-3/6;
 11/6=1,8=1,15=11,17=12,24=-1,27=1,28=-2,29=300,31=1,32=6,42=3/1,2,10;
 10/6=2,21=1,31=1/2;
 8/6=4,8=1,10=1,19=11,30=-1/11,4;
 10/5=1,20=4,31=1/2;
 11/12=2,14=11,16=1,17=2,28=-2,31=1,42=3,76=2/2,10,12;
 6/7=2,8=2,9=2,10=2/1;
 7/10=1,12=2,25=1,30=1,44=2/1,2,3,16;
 1/5=1,6=500,10=4,11=1,18=20/3(2);
 2/9=110,15=1/2;
 99//99;
 2/9=110,15=1/2;
 3/5=16,6=1,11=2,25=1,30=1,71=1,74=-60,116=2/1,2,3;
 4/5=5,16=3,69=1/1;
 5/5=2,7=500,38=5/2;
 8/6=4,10=1/1;
 9/15=2,16=-3/6;
 10/5=1,31=1/2;
 7/12=2,30=1/1,2,3,16;
 1/5=1,6=500,11=1,18=20/3(-8);
 2/9=110,15=1/2;
 6/7=2,8=2,9=2,10=2/1;
 99/9=10/99;
 -------------------
 Title Card Required
 -------------------
 Symbolic Z-matrix:
 Charge =  0 Multiplicity = 2
 C                    -0.94011   0.37441  -0.46404 
 H                    -0.59896   0.32951  -1.49668 
 C                     2.74516  -0.36723  -0.63311 
 H                     2.12531  -0.32292  -1.52929 
 H                     3.59478   0.3044   -0.73316 
 H                     3.08463  -1.38775  -0.46825 
 O                     2.02428   0.10471   0.50041 
 O                     0.96282  -0.76942   0.73643 
 H                     0.01573  -0.28897   0.14528 
 C                    -2.12268  -0.38073  -0.23263 
 C                    -3.1103   -1.03873   0.0013 
 H                    -3.9798   -1.61205   0.1985 
 C                    -0.84881   1.74772   0.16541 
 H                     0.17162   2.12136   0.10699 
 H                    -1.5047    2.4515   -0.35052 
 H                    -1.14494   1.70988   1.21086 
 
 Add virtual bond connecting atoms H9         and O8         Dist= 2.30D+00.
 Add virtual bond connecting atoms H9         and C1         Dist= 2.48D+00.
 The following ModRedundant input section has been read:
 D    *         13       1    *    R                                           
 D       2       1      13      16 S  36 10.000                                
 

 GradGradGradGradGradGradGradGradGradGradGradGradGradGradGradGradGradGrad
 Berny optimization.
 Initialization pass.
                           ----------------------------
                           !    Initial Parameters    !
                           ! (Angstroms and Degrees)  !
 --------------------------                            --------------------------
 ! Name  Definition              Value          Derivative Info.                !
 --------------------------------------------------------------------------------
 ! R1    R(1,2)                  1.0885         calculate D2E/DX2 analytically  !
 ! R2    R(1,9)                  1.3134         calculate D2E/DX2 analytically  !
 ! R3    R(1,10)                 1.4221         calculate D2E/DX2 analytically  !
 ! R4    R(1,13)                 1.5134         calculate D2E/DX2 analytically  !
 ! R5    R(3,4)                  1.0906         calculate D2E/DX2 analytically  !
 ! R6    R(3,5)                  1.0876         calculate D2E/DX2 analytically  !
 ! R7    R(3,6)                  1.0881         calculate D2E/DX2 analytically  !
 ! R8    R(3,7)                  1.4238         calculate D2E/DX2 analytically  !
 ! R9    R(7,8)                  1.3952         calculate D2E/DX2 analytically  !
 ! R10   R(8,9)                  1.2154         calculate D2E/DX2 analytically  !
 ! R11   R(10,11)                1.2096         calculate D2E/DX2 analytically  !
 ! R12   R(11,12)                1.06           calculate D2E/DX2 analytically  !
 ! R13   R(13,14)                1.0883         calculate D2E/DX2 analytically  !
 ! R14   R(13,15)                1.0916         calculate D2E/DX2 analytically  !
 ! R15   R(13,16)                1.0872         calculate D2E/DX2 analytically  !
 ! A1    A(2,1,9)              101.0229         calculate D2E/DX2 analytically  !
 ! A2    A(2,1,10)             113.1487         calculate D2E/DX2 analytically  !
 ! A3    A(2,1,13)             114.4            calculate D2E/DX2 analytically  !
 ! A4    A(9,1,10)             105.1586         calculate D2E/DX2 analytically  !
 ! A5    A(9,1,13)             102.7955         calculate D2E/DX2 analytically  !
 ! A6    A(10,1,13)            117.6671         calculate D2E/DX2 analytically  !
 ! A7    A(4,3,5)              110.079          calculate D2E/DX2 analytically  !
 ! A8    A(4,3,6)              109.8739         calculate D2E/DX2 analytically  !
 ! A9    A(4,3,7)              110.6694         calculate D2E/DX2 analytically  !
 ! A10   A(5,3,6)              110.4501         calculate D2E/DX2 analytically  !
 ! A11   A(5,3,7)              105.3111         calculate D2E/DX2 analytically  !
 ! A12   A(6,3,7)              110.3789         calculate D2E/DX2 analytically  !
 ! A13   A(3,7,8)              108.1921         calculate D2E/DX2 analytically  !
 ! A14   A(7,8,9)              105.2419         calculate D2E/DX2 analytically  !
 ! A15   A(1,13,14)            110.2298         calculate D2E/DX2 analytically  !
 ! A16   A(1,13,15)            110.6219         calculate D2E/DX2 analytically  !
 ! A17   A(1,13,16)            110.6043         calculate D2E/DX2 analytically  !
 ! A18   A(14,13,15)           108.4612         calculate D2E/DX2 analytically  !
 ! A19   A(14,13,16)           108.5994         calculate D2E/DX2 analytically  !
 ! A20   A(15,13,16)           108.2549         calculate D2E/DX2 analytically  !
 ! A21   L(1,9,8,4,-1)         178.4999         calculate D2E/DX2 analytically  !
 ! A22   L(1,10,11,16,-1)      179.1491         calculate D2E/DX2 analytically  !
 ! A23   L(10,11,12,6,-1)      180.3218         calculate D2E/DX2 analytically  !
 ! A24   L(1,9,8,4,-2)         172.7553         calculate D2E/DX2 analytically  !
 ! A25   L(1,10,11,16,-2)      182.426          calculate D2E/DX2 analytically  !
 ! A26   L(10,11,12,6,-2)      180.6502         calculate D2E/DX2 analytically  !
 ! D1    D(2,1,8,7)             64.4102         calculate D2E/DX2 analytically  !
 ! D2    D(10,1,8,7)          -176.4771         calculate D2E/DX2 analytically  !
 ! D3    D(13,1,8,7)           -53.0707         calculate D2E/DX2 analytically  !
 ! D4    D(2,1,13,16)         -176.4621         Scan                            !
 ! D5    D(4,3,7,8)             64.8221         calculate D2E/DX2 analytically  !
 ! D6    D(5,3,7,8)           -176.2491         calculate D2E/DX2 analytically  !
 ! D7    D(6,3,7,8)            -57.0309         calculate D2E/DX2 analytically  !
 ! D8    D(3,7,8,9)            -93.5195         calculate D2E/DX2 analytically  !
 --------------------------------------------------------------------------------
 Trust Radius=3.00D-01 FncErr=1.00D-07 GrdErr=1.00D-07 EigMax=2.50D+02 EigMin=1.00D-04
 Number of optimizations in scan=  37
 Number of steps in this run=    100 maximum allowed number of steps=    100.
 Search for a saddle point of order  1.
 GradGradGradGradGradGradGradGradGradGradGradGradGradGradGradGradGradGrad

                          Input orientation:                          
 ---------------------------------------------------------------------
 Center     Atomic      Atomic             Coordinates (Angstroms)
 Number     Number       Type             X           Y           Z
 ---------------------------------------------------------------------
      1          6           0       -0.940110    0.374412   -0.464040
      2          1           0       -0.598956    0.329506   -1.496679
      3          6           0        2.745158   -0.367225   -0.633107
      4          1           0        2.125307   -0.322916   -1.529288
      5          1           0        3.594776    0.304395   -0.733157
      6          1           0        3.084633   -1.387746   -0.468248
      7          8           0        2.024277    0.104714    0.500406
      8          8           0        0.962824   -0.769417    0.736431
      9          1           0        0.015726   -0.288969    0.145283
     10          6           0       -2.122683   -0.380732   -0.232629
     11          6           0       -3.110297   -1.038728    0.001296
     12          1           0       -3.979799   -1.612054    0.198496
     13          6           0       -0.848814    1.747718    0.165407
     14          1           0        0.171620    2.121358    0.106992
     15          1           0       -1.504699    2.451499   -0.350519
     16          1           0       -1.144936    1.709883    1.210860
 ---------------------------------------------------------------------
                    Distance matrix (angstroms):
                    1          2          3          4          5
     1  C    0.000000
     2  H    1.088460   0.000000
     3  C    3.762952   3.523392   0.000000
     4  H    3.319307   2.801487   1.090559   0.000000
     5  H    4.543404   4.262744   1.087628   1.785128   0.000000
     6  H    4.393606   4.192309   1.088065   1.783248   1.787110
     7  O    3.128975   3.304577   1.423814   2.076712   2.006992
     8  O    2.524011   2.938294   2.283442   2.585384   3.199989
     9  H    1.313382   1.859135   2.839333   2.693636   3.732738
    10  C    1.422066   2.103332   4.884306   4.441856   5.780075
    11  C    2.631200   3.228440   5.927878   5.501511   6.877602
    12  H    3.691167   4.251279   6.889573   6.474522   7.868605
    13  C    1.513442   2.199155   4.245850   4.000614   4.757740
    14  H    2.147985   2.525130   3.655665   3.531116   3.965501
    15  H    2.155444   2.576220   5.107479   4.718455   5.546270
    16  H    2.151912   3.087767   4.779898   4.726010   5.312200
                    6          7          8          9         10
     6  H    0.000000
     7  O    2.071251   0.000000
     8  O    2.517073   1.395169   0.000000
     9  H    3.316914   2.077348   1.215434   0.000000
    10  C    5.309024   4.239136   3.257377   2.173484   0.000000
    11  C    6.222495   5.283978   4.147682   3.217902   1.209571
    12  H    7.099370   6.251989   5.042711   4.209229   2.269560
    13  C    5.069976   3.326611   3.153422   2.212674   2.512265
    14  H    4.596777   2.766580   3.062479   2.415667   3.411689
    15  H    5.984616   4.322632   4.200527   3.172960   2.901264
    16  H    5.504904   3.622875   3.288566   2.545192   2.722190
                   11         12         13         14         15
    11  C    0.000000
    12  H    1.060011   0.000000
    13  C    3.592425   4.592628   0.000000
    14  H    4.557224   5.583997   1.088258   0.000000
    15  H    3.857901   4.789572   1.091638   1.768716   0.000000
    16  H    3.588949   4.482923   1.087240   1.766679   1.765596
                   16
    16  H    0.000000
 Symmetry turned off by external request.
 Stoichiometry    C5H9O2(2)
 Framework group  C1[X(C5H9O2)]
 Deg. of freedom    42
 Full point group                 C1      NOp   1
 Rotational constants (GHZ):           4.5737394           1.1609717           1.0310062
 Standard basis: CC-pVTZ (5D, 7F)
   336 basis functions,   517 primitive gaussians,   380 cartesian basis functions
    28 alpha electrons       27 beta electrons
       nuclear repulsion energy       283.4197897868 Hartrees.
 NAtoms=   16 NActive=   16 NUniq=   16 SFac= 1.00D+00 NAtFMM=   60 NAOKFM=F Big=F
 Integral buffers will be    131072 words long.
 Raffenetti 2 integral format.
 Two-electron integral symmetry is turned off.
 Nuclear repulsion after empirical dispersion term =      283.4116151189 Hartrees.
 One-electron integrals computed using PRISM.
 NBasis=   336 RedAO= T EigKep=  4.22D-05  NBF=   336
 NBsUse=   336 1.00D-06 EigRej= -1.00D+00 NBFU=   336
 ExpMin= 1.03D-01 ExpMax= 1.53D+04 ExpMxC= 5.22D+02 IAcc=3 IRadAn=         5 AccDes= 0.00D+00
 Harris functional with IExCor=  419 and IRadAn=       5 diagonalized for initial guess.
 HarFok:  IExCor=  419 AccDes= 0.00D+00 IRadAn=         5 IDoV= 1 UseB2=F ITyADJ=14
 ICtDFT=  3500011 ScaDFX=  1.000000  1.000000  1.000000  1.000000
 FoFCou: FMM=F IPFlag=           0 FMFlag=      100000 FMFlg1=           0
         NFxFlg=           0 DoJE=T BraDBF=F KetDBF=T FulRan=T
         wScrn=  0.000000 ICntrl=       500 IOpCl=  0 I1Cent=   200000004 NGrid=           0
         NMat0=    1 NMatS0=      1 NMatT0=    0 NMatD0=    1 NMtDS0=    0 NMtDT0=    0
 Symmetry not used in FoFCou.
 Initial guess <Sx>= 0.0000 <Sy>= 0.0000 <Sz>= 0.5000 <S**2>= 0.7500 S= 0.5000
 Requested convergence on RMS density matrix=1.00D-08 within 500 cycles.
 Requested convergence on MAX density matrix=1.00D-06.
 Requested convergence on             energy=1.00D-06.
 No special actions if energy rises.
 Integral accuracy reduced to 1.0D-05 until final iterations.
 Initial convergence to 1.0D-05 achieved.  Increase integral accuracy.
 SCF Done:  E(UB2PLYPD3) =  -345.576074705     A.U. after   21 cycles
            NFock= 21  Conv=0.43D-08     -V/T= 2.0044
 <Sx>= 0.0000 <Sy>= 0.0000 <Sz>= 0.5000 <S**2>= 0.7877 S= 0.5187
 <L.S>=  0.00000000000    
 Annihilation of the first spin contaminant:
 S**2 before annihilation     0.7877,   after     0.7509
 DoSCS=T DFT=T ScalE2(SS,OS)=  0.270000  0.270000
 ExpMin= 1.03D-01 ExpMax= 1.53D+04 ExpMxC= 5.22D+02 IAcc=3 IRadAn=         5 AccDes= 0.00D+00
 HarFok:  IExCor=  205 AccDes= 0.00D+00 IRadAn=         5 IDoV=-2 UseB2=F ITyADJ=14
 ICtDFT= 12500011 ScaDFX=  1.000000  1.000000  1.000000  1.000000
 Range of M.O.s used for correlation:     8   336
 NBasis=   336 NAE=    28 NBE=    27 NFC=     7 NFV=     0
 NROrb=    329 NOA=    21 NOB=    20 NVA=   308 NVB=   309

 **** Warning!!: The largest alpha MO coefficient is  0.31078454D+02


 **** Warning!!: The largest beta MO coefficient is  0.32269567D+02

 DoSCS=T DFT=T ScalE2(SS,OS)=  0.270000  0.270000
 Disk-based method using ON**2 memory for 21 occupieds at a time.
 Permanent disk used for amplitudes=   106523802 words.
 Estimated scratch disk usage=  1940587640 words.
 Actual    scratch disk usage=  1876460664 words.
 JobTyp=2 Pass  1:  I=   8 to  28 NPSUse= 40 ParTrn=T ParDer=T DoDerP=T.
 (rs|ai) integrals will be sorted in core.
 Actual    scratch disk usage=  1876460664 words.
 JobTyp=3 Pass  1:  I=   8 to  27 NPSUse= 40 ParTrn=T ParDer=T DoDerP=T.
 (rs|ai) integrals will be sorted in core.
 Spin components of T(2) and E(2):
     alpha-alpha T2 =       0.7882791971D-01 E2=     -0.5357977773D-01
     alpha-beta  T2 =       0.4701597089D+00 E2=     -0.3270581083D+00
     beta-beta   T2 =       0.8819099432D-01 E2=     -0.5331927426D-01
 (S**2,0)=  0.78766D+00           (S**2,1)=  0.74674D+00
 Scaling Projection term by:   0.270000
 E(PUHF)=      -0.34558432637D+03        E(PMP2)=      -0.34601106717D+03
 E2(B2PLYPD3) =    -0.4339571603D+00 E(B2PLYPD3) =    -0.34601003186545D+03
 G2DrvN: will do    17 centers at a time, making    1 passes.
 Calling FoFCou, ICntrl=  3107 FMM=F I1Cent=   0 AccDes= 0.00D+00.
 End of G2Drv F.D. properties file   721 does not exist.
 End of G2Drv F.D. properties file   722 does not exist.
 End of G2Drv F.D. properties file   788 does not exist.
          IDoAtm=1111111111111111
          Differentiating once with respect to electric field.
                with respect to dipole field.
          Differentiating once with respect to nuclear coordinates.
 Keep R1 and R2 ints in memory in canonical form, NReq=3251641620.
          There are    51 degrees of freedom in the 1st order CPHF.  IDoFFX=6 NUNeed=    51.
     48 vectors produced by pass  0 Test12= 3.33D-14 1.96D-09 XBig12= 1.50D+02 8.89D+00.
 AX will form    48 AO Fock derivatives at one time.
     48 vectors produced by pass  1 Test12= 3.33D-14 1.96D-09 XBig12= 1.61D+01 7.12D-01.
     48 vectors produced by pass  2 Test12= 3.33D-14 1.96D-09 XBig12= 1.16D+00 2.33D-01.
     48 vectors produced by pass  3 Test12= 3.33D-14 1.96D-09 XBig12= 1.64D-02 2.08D-02.
     48 vectors produced by pass  4 Test12= 3.33D-14 1.96D-09 XBig12= 1.91D-04 1.39D-03.
     48 vectors produced by pass  5 Test12= 3.33D-14 1.96D-09 XBig12= 2.68D-06 1.69D-04.
     48 vectors produced by pass  6 Test12= 3.33D-14 1.96D-09 XBig12= 2.20D-08 1.18D-05.
     24 vectors produced by pass  7 Test12= 3.33D-14 1.96D-09 XBig12= 1.71D-10 1.20D-06.
      5 vectors produced by pass  8 Test12= 3.33D-14 1.96D-09 XBig12= 1.19D-12 7.89D-08.
      2 vectors produced by pass  9 Test12= 3.33D-14 1.96D-09 XBig12= 9.94D-15 8.27D-09.
 InvSVY:  IOpt=1 It=  1 EMax= 2.70D-15
 Solved reduced A of dimension   367 with    51 vectors.
 End of Minotr F.D. properties file   721 does not exist.
 End of Minotr F.D. properties file   722 does not exist.
 End of Minotr F.D. properties file   788 does not exist.
 MDV= 10737418240.
 DoSCS=T DFT=T ScalE2(SS,OS)=  0.270000  0.270000
 Form MO integral derivatives with frozen-active canonical formalism.
 Discarding MO integrals.
 Reordered first order wavefunction length =    428928697
 In DefCFB: NBatch=  1 ICI= 28 ICA=309 LFMax= 78
            Large arrays: LIAPS=  8665386240 LIARS=  1611002400 words.
 In DefCFB: NBatch=  1 ICI= 28 ICA=309 LFMax= 78
            Large arrays: LIAPS=  8665386240 LIARS=  1611002400 words.
 Semi-Direct transformation.
 ModeAB=           4 MOrb=            28 LenV=   10734101039
 LASXX=    503301435 LTotXX=   503301435 LenRXX=  1014543915
 LTotAB=   511242480 MaxLAS=   603796032 LenRXY=           0
 NonZer=  1517845350 LenScr=  2285697024 LnRSAI=   603796032
 LnScr1=   909246464 LExtra=           0 Total=   4813283435
 MaxDsk=          -1 SrtSym=           T ITran=            4
 JobTyp=1 Pass  1:  I=   1 to  28.
 (rs|ai) integrals will be sorted in core.
 ModeAB=           4 MOrb=            27 LenV=   10734101039
 LASXX=    486308502 LTotXX=   486308502 LenRXX=   901306008
 LTotAB=   414997506 MaxLAS=   582231888 LenRXY=           0
 NonZer=  1387614510 LenScr=  2089584640 LnRSAI=   582231888
 LnScr1=   876773376 LExtra=           0 Total=   4449895912
 MaxDsk=          -1 SrtSym=           T ITran=            4
 JobTyp=2 Pass  1:  I=   1 to  27.
 (rs|ai) integrals will be sorted in core.
 DoSCS=T DFT=T ScalE2(SS,OS)=  0.270000  0.270000
 Spin components of T(2) and E(2):
     alpha-alpha T2 =       0.7882791971D-01 E2=     -0.5357977773D-01
     alpha-beta  T2 =       0.4701597089D+00 E2=     -0.3270581083D+00
     beta-beta   T2 =       0.8819099432D-01 E2=     -0.5331927426D-01
 E2(B2PLYPD3) =    -0.4339571603D+00 E(B2PLYPD3) =    -0.34601003186545D+03
 (S**2,0)=  0.78766D+00           (S**2,1)=  0.74674D+00
 Scaling Projection term by:   0.270000
 E(PUHF)=      -0.34558432637D+03        E(PMP2)=      -0.34601106717D+03
          IDoAtm=1111111111111111
          Differentiating once with respect to electric field.
                with respect to dipole field.
          Differentiating once with respect to nuclear coordinates.
 Keep R1 and R2 ints in memory in canonical form, NReq=3251777228.
          There are     1 degrees of freedom in the 1st order CPHF.  IDoFFX=0 NUNeed=     1.
 LinEq1:  Iter=  0 NonCon=     1 RMS=9.63D-04 Max=5.46D-02 NDo=     1
 AX will form     1 AO Fock derivatives at one time.
 LinEq1:  Iter=  1 NonCon=     1 RMS=3.48D-04 Max=8.81D-03 NDo=     1
 LinEq1:  Iter=  2 NonCon=     1 RMS=2.38D-04 Max=6.65D-03 NDo=     1
 LinEq1:  Iter=  3 NonCon=     1 RMS=1.64D-04 Max=6.69D-03 NDo=     1
 LinEq1:  Iter=  4 NonCon=     1 RMS=9.12D-05 Max=3.21D-03 NDo=     1
 LinEq1:  Iter=  5 NonCon=     1 RMS=6.38D-05 Max=2.81D-03 NDo=     1
 LinEq1:  Iter=  6 NonCon=     1 RMS=2.88D-05 Max=6.29D-04 NDo=     1
 LinEq1:  Iter=  7 NonCon=     1 RMS=1.06D-05 Max=2.56D-04 NDo=     1
 LinEq1:  Iter=  8 NonCon=     1 RMS=8.66D-06 Max=2.80D-04 NDo=     1
 LinEq1:  Iter=  9 NonCon=     1 RMS=4.39D-06 Max=9.00D-05 NDo=     1
 LinEq1:  Iter= 10 NonCon=     1 RMS=2.11D-06 Max=3.87D-05 NDo=     1
 LinEq1:  Iter= 11 NonCon=     1 RMS=9.24D-07 Max=2.20D-05 NDo=     1
 LinEq1:  Iter= 12 NonCon=     1 RMS=3.50D-07 Max=5.61D-06 NDo=     1
 LinEq1:  Iter= 13 NonCon=     1 RMS=1.33D-07 Max=2.52D-06 NDo=     1
 LinEq1:  Iter= 14 NonCon=     1 RMS=5.93D-08 Max=1.79D-06 NDo=     1
 LinEq1:  Iter= 15 NonCon=     1 RMS=2.88D-08 Max=1.02D-06 NDo=     1
 LinEq1:  Iter= 16 NonCon=     1 RMS=1.03D-08 Max=5.02D-07 NDo=     1
 LinEq1:  Iter= 17 NonCon=     1 RMS=3.55D-09 Max=1.99D-07 NDo=     1
 LinEq1:  Iter= 18 NonCon=     1 RMS=1.23D-09 Max=6.09D-08 NDo=     1
 LinEq1:  Iter= 19 NonCon=     1 RMS=4.85D-10 Max=1.78D-08 NDo=     1
 LinEq1:  Iter= 20 NonCon=     1 RMS=1.75D-10 Max=4.97D-09 NDo=     1
 LinEq1:  Iter= 21 NonCon=     1 RMS=7.65D-11 Max=1.62D-09 NDo=     1
 LinEq1:  Iter= 22 NonCon=     1 RMS=3.37D-11 Max=1.40D-09 NDo=     1
 LinEq1:  Iter= 23 NonCon=     0 RMS=1.10D-11 Max=3.16D-10 NDo=     1
 Linear equations converged to 1.000D-10 1.000D-09 after    23 iterations.
 End of Minotr F.D. properties file   721 does not exist.
 End of Minotr F.D. properties file   722 does not exist.
 End of Minotr F.D. properties file   788 does not exist.
 Symmetrizing basis deriv contribution to polar:
 IMax=3 JMax=2 DiffMx= 0.00D+00
 G2DrvN: will do    17 centers at a time, making    1 passes.
 Calling FoFCou, ICntrl=  3107 FMM=F I1Cent=   0 AccDes= 0.00D+00.
 End of G2Drv F.D. properties file   721 does not exist.
 End of G2Drv F.D. properties file   722 does not exist.
 End of G2Drv F.D. properties file   788 does not exist.
 DoSCS=T DFT=T ScalE2(SS,OS)=  0.270000  0.270000
 R2 and R3 integrals will be kept in memory, NReq=  5268037470.
 DD1Dir will call FoFMem   1 times, MxPair=      2242
 NAB=   756 NAA=   378 NBB=   351.
 Discarding MO integrals.

 **********************************************************************

            Population analysis using the SCF Density.

 **********************************************************************

 Alpha  occ. eigenvalues --  -19.79655 -19.79398 -10.66608 -10.66165 -10.62931
 Alpha  occ. eigenvalues --  -10.62427 -10.61819  -1.28684  -1.02354  -0.93511
 Alpha  occ. eigenvalues --   -0.85580  -0.78392  -0.75351  -0.63419  -0.61000
 Alpha  occ. eigenvalues --   -0.56988  -0.55755  -0.55334  -0.52421  -0.48819
 Alpha  occ. eigenvalues --   -0.47843  -0.44882  -0.44715  -0.40448  -0.37155
 Alpha  occ. eigenvalues --   -0.35301  -0.33322  -0.28976
 Alpha virt. eigenvalues --    0.06684   0.09246   0.10104   0.10293   0.11382
 Alpha virt. eigenvalues --    0.12297   0.12831   0.14874   0.15814   0.16956
 Alpha virt. eigenvalues --    0.17672   0.20915   0.22262   0.23928   0.27304
 Alpha virt. eigenvalues --    0.28978   0.31033   0.31566   0.32493   0.33406
 Alpha virt. eigenvalues --    0.34484   0.35570   0.38140   0.42014   0.43849
 Alpha virt. eigenvalues --    0.44929   0.46784   0.48325   0.49338   0.49597
 Alpha virt. eigenvalues --    0.50941   0.51846   0.52075   0.53143   0.53827
 Alpha virt. eigenvalues --    0.53979   0.54779   0.56340   0.57823   0.60287
 Alpha virt. eigenvalues --    0.62335   0.64434   0.65558   0.67408   0.69028
 Alpha virt. eigenvalues --    0.70098   0.70388   0.73785   0.74650   0.78605
 Alpha virt. eigenvalues --    0.79682   0.83146   0.84018   0.86376   0.89595
 Alpha virt. eigenvalues --    0.90618   0.92241   0.94172   0.95262   0.96198
 Alpha virt. eigenvalues --    0.98382   1.00131   1.01203   1.02711   1.03399
 Alpha virt. eigenvalues --    1.04671   1.06424   1.08609   1.09310   1.10914
 Alpha virt. eigenvalues --    1.13576   1.14757   1.16321   1.16852   1.19099
 Alpha virt. eigenvalues --    1.21500   1.22610   1.23947   1.25962   1.26729
 Alpha virt. eigenvalues --    1.28554   1.32096   1.33391   1.35915   1.37787
 Alpha virt. eigenvalues --    1.38022   1.38608   1.39466   1.41363   1.42372
 Alpha virt. eigenvalues --    1.43416   1.48081   1.48324   1.50576   1.52225
 Alpha virt. eigenvalues --    1.55373   1.56845   1.61982   1.64105   1.64462
 Alpha virt. eigenvalues --    1.65707   1.69645   1.74698   1.78684   1.80755
 Alpha virt. eigenvalues --    1.85600   1.91975   2.00336   2.03685   2.09648
 Alpha virt. eigenvalues --    2.13601   2.17336   2.20710   2.21751   2.25122
 Alpha virt. eigenvalues --    2.27778   2.34889   2.37808   2.39519   2.41930
 Alpha virt. eigenvalues --    2.46548   2.47535   2.49253   2.50636   2.53174
 Alpha virt. eigenvalues --    2.54760   2.57198   2.57737   2.61103   2.62138
 Alpha virt. eigenvalues --    2.63553   2.64801   2.68447   2.70768   2.73969
 Alpha virt. eigenvalues --    2.76277   2.77495   2.82118   2.83806   2.85898
 Alpha virt. eigenvalues --    2.88194   2.89498   2.90307   2.91352   2.91947
 Alpha virt. eigenvalues --    2.93543   2.95461   2.95923   3.00233   3.00953
 Alpha virt. eigenvalues --    3.01851   3.03190   3.04378   3.04457   3.05119
 Alpha virt. eigenvalues --    3.07069   3.08242   3.09731   3.11586   3.12339
 Alpha virt. eigenvalues --    3.12636   3.14823   3.14994   3.15860   3.17929
 Alpha virt. eigenvalues --    3.19805   3.21271   3.22563   3.23874   3.25082
 Alpha virt. eigenvalues --    3.27982   3.29212   3.32855   3.34369   3.36085
 Alpha virt. eigenvalues --    3.40745   3.41449   3.42593   3.42935   3.46806
 Alpha virt. eigenvalues --    3.49284   3.50423   3.51002   3.52636   3.55625
 Alpha virt. eigenvalues --    3.57704   3.59108   3.60928   3.61636   3.63046
 Alpha virt. eigenvalues --    3.65716   3.67531   3.69614   3.72236   3.74908
 Alpha virt. eigenvalues --    3.80206   3.83692   3.85682   3.86008   3.88132
 Alpha virt. eigenvalues --    3.88916   3.91354   3.94282   3.94564   3.95641
 Alpha virt. eigenvalues --    3.97985   3.99012   4.00833   4.02329   4.04900
 Alpha virt. eigenvalues --    4.07174   4.08630   4.09451   4.11734   4.12841
 Alpha virt. eigenvalues --    4.16884   4.17262   4.18540   4.18959   4.23290
 Alpha virt. eigenvalues --    4.24817   4.25878   4.27467   4.28760   4.30585
 Alpha virt. eigenvalues --    4.33525   4.35411   4.37796   4.39193   4.42969
 Alpha virt. eigenvalues --    4.44622   4.45956   4.47540   4.51692   4.58363
 Alpha virt. eigenvalues --    4.60960   4.62077   4.66143   4.70684   4.73872
 Alpha virt. eigenvalues --    4.79319   4.81076   4.83166   4.87783   4.93714
 Alpha virt. eigenvalues --    4.97995   4.99769   5.01490   5.01997   5.03799
 Alpha virt. eigenvalues --    5.05814   5.09494   5.14610   5.23184   5.24514
 Alpha virt. eigenvalues --    5.25390   5.29469   5.31553   5.32796   5.34502
 Alpha virt. eigenvalues --    5.34783   5.36608   5.38034   5.39976   5.41314
 Alpha virt. eigenvalues --    5.46130   5.47995   5.49872   5.52055   5.59084
 Alpha virt. eigenvalues --    5.64004   5.66305   5.75511   5.80187   5.85362
 Alpha virt. eigenvalues --    5.92445   5.94817   5.97347   5.98599   6.02336
 Alpha virt. eigenvalues --    6.05010   6.06815   6.07882   6.16332   6.21318
 Alpha virt. eigenvalues --    6.26296   6.34601   6.38657   6.39962   6.65721
 Alpha virt. eigenvalues --    6.73094   6.73334   6.81628   6.94732   7.03919
 Alpha virt. eigenvalues --    7.06084   7.15287   7.43049   7.46953   7.58486
 Alpha virt. eigenvalues --    7.70575   8.56172   9.82165  10.61575  13.01471
 Alpha virt. eigenvalues --   13.40934  13.79476  16.81994
  Beta  occ. eigenvalues --  -19.79408 -19.77622 -10.66622 -10.65126 -10.63268
  Beta  occ. eigenvalues --  -10.61943 -10.61871  -1.26541  -0.99160  -0.92134
  Beta  occ. eigenvalues --   -0.84712  -0.77893  -0.74027  -0.61845  -0.58464
  Beta  occ. eigenvalues --   -0.56247  -0.54983  -0.54530  -0.50717  -0.48086
  Beta  occ. eigenvalues --   -0.45122  -0.44591  -0.43632  -0.37535  -0.35777
  Beta  occ. eigenvalues --   -0.33084  -0.31087
  Beta virt. eigenvalues --   -0.06547   0.06813   0.09496   0.10416   0.10777
  Beta virt. eigenvalues --    0.11578   0.12873   0.13536   0.14985   0.16014
  Beta virt. eigenvalues --    0.17058   0.17800   0.21521   0.22646   0.24335
  Beta virt. eigenvalues --    0.27646   0.29271   0.31224   0.31952   0.32713
  Beta virt. eigenvalues --    0.34248   0.34739   0.35959   0.39039   0.42917
  Beta virt. eigenvalues --    0.44220   0.45152   0.47146   0.48860   0.49810
  Beta virt. eigenvalues --    0.50357   0.50968   0.52022   0.52297   0.53413
  Beta virt. eigenvalues --    0.54140   0.54568   0.55463   0.56441   0.58718
  Beta virt. eigenvalues --    0.60435   0.62646   0.64800   0.65894   0.67826
  Beta virt. eigenvalues --    0.69343   0.70668   0.70904   0.74341   0.75218
  Beta virt. eigenvalues --    0.78880   0.80240   0.83396   0.84492   0.86825
  Beta virt. eigenvalues --    0.89935   0.90770   0.92585   0.94421   0.95553
  Beta virt. eigenvalues --    0.96334   0.98748   1.00366   1.01451   1.02854
  Beta virt. eigenvalues --    1.03550   1.04809   1.06700   1.08727   1.09547
  Beta virt. eigenvalues --    1.11222   1.13719   1.15158   1.16544   1.17012
  Beta virt. eigenvalues --    1.19624   1.21598   1.23382   1.24183   1.26197
  Beta virt. eigenvalues --    1.27014   1.28837   1.32435   1.33589   1.36256
  Beta virt. eigenvalues --    1.38063   1.38101   1.38678   1.39727   1.41709
  Beta virt. eigenvalues --    1.42611   1.43674   1.48449   1.48897   1.50972
  Beta virt. eigenvalues --    1.52791   1.55779   1.57025   1.62471   1.64511
  Beta virt. eigenvalues --    1.64765   1.66113   1.70454   1.75198   1.78997
  Beta virt. eigenvalues --    1.81720   1.87611   1.92845   2.00951   2.04679
  Beta virt. eigenvalues --    2.10136   2.14140   2.17912   2.21762   2.22705
  Beta virt. eigenvalues --    2.25569   2.28408   2.35147   2.37926   2.39897
  Beta virt. eigenvalues --    2.42349   2.47739   2.47922   2.49375   2.50693
  Beta virt. eigenvalues --    2.53961   2.54941   2.57780   2.58028   2.61696
  Beta virt. eigenvalues --    2.62449   2.63804   2.65174   2.68883   2.71004
  Beta virt. eigenvalues --    2.74272   2.76896   2.78128   2.82546   2.84016
  Beta virt. eigenvalues --    2.86086   2.88586   2.89970   2.90438   2.91659
  Beta virt. eigenvalues --    2.92186   2.93818   2.96036   2.96514   3.00505
  Beta virt. eigenvalues --    3.01110   3.02109   3.03572   3.04879   3.04953
  Beta virt. eigenvalues --    3.05871   3.07546   3.08645   3.09804   3.11738
  Beta virt. eigenvalues --    3.12567   3.12741   3.15071   3.15107   3.16050
  Beta virt. eigenvalues --    3.18112   3.19987   3.21303   3.22803   3.24048
  Beta virt. eigenvalues --    3.25505   3.28068   3.29664   3.33533   3.34785
  Beta virt. eigenvalues --    3.36568   3.40981   3.41538   3.42734   3.43416
  Beta virt. eigenvalues --    3.47794   3.49637   3.50672   3.51175   3.52778
  Beta virt. eigenvalues --    3.55849   3.57862   3.59415   3.61024   3.61970
  Beta virt. eigenvalues --    3.63215   3.66221   3.68211   3.70279   3.72454
  Beta virt. eigenvalues --    3.75032   3.80644   3.84057   3.86226   3.86381
  Beta virt. eigenvalues --    3.88366   3.89001   3.91489   3.94382   3.94782
  Beta virt. eigenvalues --    3.95679   3.98148   3.99475   4.01137   4.02572
  Beta virt. eigenvalues --    4.04953   4.07394   4.08614   4.09540   4.11931
  Beta virt. eigenvalues --    4.12824   4.16978   4.17386   4.18596   4.19262
  Beta virt. eigenvalues --    4.23371   4.25070   4.26164   4.27581   4.29003
  Beta virt. eigenvalues --    4.30697   4.33773   4.35467   4.38132   4.39461
  Beta virt. eigenvalues --    4.43224   4.45465   4.46218   4.47766   4.52213
  Beta virt. eigenvalues --    4.58681   4.61476   4.62796   4.67024   4.71153
  Beta virt. eigenvalues --    4.74412   4.79943   4.81414   4.83394   4.88481
  Beta virt. eigenvalues --    4.93872   4.98221   4.99982   5.01716   5.02246
  Beta virt. eigenvalues --    5.04158   5.06098   5.09873   5.15103   5.24149
  Beta virt. eigenvalues --    5.25169   5.25916   5.29825   5.31702   5.33063
  Beta virt. eigenvalues --    5.34925   5.35031   5.37090   5.38406   5.40323
  Beta virt. eigenvalues --    5.41921   5.46446   5.48177   5.50015   5.52292
  Beta virt. eigenvalues --    5.59521   5.64446   5.67123   5.76130   5.80451
  Beta virt. eigenvalues --    5.86585   5.92503   5.95495   5.97850   5.99548
  Beta virt. eigenvalues --    6.02441   6.05487   6.07479   6.08391   6.16535
  Beta virt. eigenvalues --    6.23172   6.27036   6.34745   6.39105   6.41601
  Beta virt. eigenvalues --    6.66671   6.75512   6.76814   6.82952   6.96860
  Beta virt. eigenvalues --    7.06070   7.06970   7.17581   7.43237   7.49326
  Beta virt. eigenvalues --    7.60185   7.71400   8.56359   9.83303  10.62610
  Beta virt. eigenvalues --   13.02197  13.40936  13.79566  16.82166
          Condensed to atoms (all electrons):
               1          2          3          4          5          6
     1  C    5.082783   0.400756  -0.003528   0.000452   0.000338  -0.000226
     2  H    0.400756   0.567157   0.000551  -0.001476  -0.000103   0.000043
     3  C   -0.003528   0.000551   4.604657   0.392905   0.396854   0.411501
     4  H    0.000452  -0.001476   0.392905   0.676917  -0.033739  -0.057073
     5  H    0.000338  -0.000103   0.396854  -0.033739   0.586302  -0.028409
     6  H   -0.000226   0.000043   0.411501  -0.057073  -0.028409   0.611216
     7  O    0.005056   0.000688   0.298878  -0.049148  -0.025394  -0.037270
     8  O   -0.072110  -0.001839  -0.045951  -0.001396   0.006499   0.003990
     9  H    0.250497  -0.013425   0.002139   0.004741  -0.000463   0.000054
    10  C    0.396706  -0.037276  -0.000111  -0.001323  -0.000043   0.000164
    11  C   -0.118354  -0.000683  -0.000030  -0.000113  -0.000002   0.000008
    12  H    0.000610  -0.000034  -0.000000  -0.000001  -0.000000   0.000000
    13  C    0.342691  -0.037850   0.000257   0.000418  -0.000009  -0.000082
    14  H   -0.038959  -0.003066  -0.000896  -0.000856  -0.000025   0.000315
    15  H   -0.035261  -0.004251  -0.000031   0.000020  -0.000008  -0.000001
    16  H   -0.034442   0.006494   0.000043  -0.000007  -0.000009  -0.000008
               7          8          9         10         11         12
     1  C    0.005056  -0.072110   0.250497   0.396706  -0.118354   0.000610
     2  H    0.000688  -0.001839  -0.013425  -0.037276  -0.000683  -0.000034
     3  C    0.298878  -0.045951   0.002139  -0.000111  -0.000030  -0.000000
     4  H   -0.049148  -0.001396   0.004741  -0.001323  -0.000113  -0.000001
     5  H   -0.025394   0.006499  -0.000463  -0.000043  -0.000002  -0.000000
     6  H   -0.037270   0.003990   0.000054   0.000164   0.000008   0.000000
     7  O    7.932809   0.072066  -0.027068   0.003138   0.000143   0.000001
     8  O    0.072066   8.072196   0.177505  -0.002123  -0.000027  -0.000004
     9  H   -0.027068   0.177505   0.424573  -0.010999  -0.003183  -0.000043
    10  C    0.003138  -0.002123  -0.010999   4.968705   0.793548  -0.055025
    11  C    0.000143  -0.000027  -0.003183   0.793548   5.119578   0.412020
    12  H    0.000001  -0.000004  -0.000043  -0.055025   0.412020   0.472788
    13  C   -0.007477   0.002757  -0.008432  -0.064455  -0.005834  -0.000126
    14  H    0.012638  -0.003085  -0.003601   0.009283   0.000065   0.000004
    15  H   -0.000003   0.000064   0.003049  -0.000948   0.002249   0.000021
    16  H   -0.000487   0.002178  -0.003409   0.000514   0.002895   0.000019
              13         14         15         16
     1  C    0.342691  -0.038959  -0.035261  -0.034442
     2  H   -0.037850  -0.003066  -0.004251   0.006494
     3  C    0.000257  -0.000896  -0.000031   0.000043
     4  H    0.000418  -0.000856   0.000020  -0.000007
     5  H   -0.000009  -0.000025  -0.000008  -0.000009
     6  H   -0.000082   0.000315  -0.000001  -0.000008
     7  O   -0.007477   0.012638  -0.000003  -0.000487
     8  O    0.002757  -0.003085   0.000064   0.002178
     9  H   -0.008432  -0.003601   0.003049  -0.003409
    10  C   -0.064455   0.009283  -0.000948   0.000514
    11  C   -0.005834   0.000065   0.002249   0.002895
    12  H   -0.000126   0.000004   0.000021   0.000019
    13  C    4.844784   0.405822   0.397501   0.403787
    14  H    0.405822   0.566151  -0.032750  -0.023572
    15  H    0.397501  -0.032750   0.591636  -0.028807
    16  H    0.403787  -0.023572  -0.028807   0.561352
          Atomic-Atomic Spin Densities.
               1          2          3          4          5          6
     1  C    0.558818   0.005421   0.001228  -0.004099   0.000087   0.001018
     2  H    0.005421  -0.025344  -0.000432   0.001515  -0.000006  -0.000192
     3  C    0.001228  -0.000432  -0.008643   0.003419   0.000706  -0.002107
     4  H   -0.004099   0.001515   0.003419   0.003817  -0.000987  -0.001623
     5  H    0.000087  -0.000006   0.000706  -0.000987  -0.001981   0.001127
     6  H    0.001018  -0.000192  -0.002107  -0.001623   0.001127   0.004988
     7  O    0.012044  -0.001215   0.001498  -0.001239   0.000081  -0.001124
     8  O   -0.074401   0.003887  -0.002327   0.003640  -0.000192   0.000247
     9  H    0.046830   0.003890   0.001169  -0.002913   0.000035   0.001115
    10  C   -0.006655  -0.000383  -0.000003   0.000156   0.000003  -0.000030
    11  C   -0.011383  -0.000827   0.000005   0.000005   0.000000  -0.000003
    12  H   -0.000102   0.000011   0.000000  -0.000000   0.000000   0.000000
    13  C   -0.025438   0.004066  -0.000241   0.000469  -0.000020  -0.000086
    14  H   -0.002150   0.000004  -0.000123   0.000192  -0.000015  -0.000033
    15  H   -0.010787  -0.001786   0.000044  -0.000093   0.000004   0.000008
    16  H   -0.003284   0.000110  -0.000022   0.000036  -0.000001  -0.000008
               7          8          9         10         11         12
     1  C    0.012044  -0.074401   0.046830  -0.006655  -0.011383  -0.000102
     2  H   -0.001215   0.003887   0.003890  -0.000383  -0.000827   0.000011
     3  C    0.001498  -0.002327   0.001169  -0.000003   0.000005   0.000000
     4  H   -0.001239   0.003640  -0.002913   0.000156   0.000005  -0.000000
     5  H    0.000081  -0.000192   0.000035   0.000003   0.000000   0.000000
     6  H   -0.001124   0.000247   0.001115  -0.000030  -0.000003   0.000000
     7  O    0.082902  -0.050597   0.008789  -0.000285  -0.000016  -0.000000
     8  O   -0.050597   0.620796  -0.043347   0.002096   0.000449  -0.000001
     9  H    0.008789  -0.043347  -0.104232   0.004024  -0.000541  -0.000008
    10  C   -0.000285   0.002096   0.004024  -0.203794   0.005039  -0.001826
    11  C   -0.000016   0.000449  -0.000541   0.005039   0.295617   0.003184
    12  H   -0.000000  -0.000001  -0.000008  -0.001826   0.003184  -0.010905
    13  C   -0.002595   0.007795  -0.002513   0.004621   0.000726   0.000009
    14  H   -0.001003   0.000433   0.001079  -0.000315   0.000010   0.000000
    15  H    0.000263  -0.000707   0.000143   0.000949   0.000994  -0.000004
    16  H   -0.000268   0.001013  -0.000171  -0.000039  -0.000220   0.000002
              13         14         15         16
     1  C   -0.025438  -0.002150  -0.010787  -0.003284
     2  H    0.004066   0.000004  -0.001786   0.000110
     3  C   -0.000241  -0.000123   0.000044  -0.000022
     4  H    0.000469   0.000192  -0.000093   0.000036
     5  H   -0.000020  -0.000015   0.000004  -0.000001
     6  H   -0.000086  -0.000033   0.000008  -0.000008
     7  O   -0.002595  -0.001003   0.000263  -0.000268
     8  O    0.007795   0.000433  -0.000707   0.001013
     9  H   -0.002513   0.001079   0.000143  -0.000171
    10  C    0.004621  -0.000315   0.000949  -0.000039
    11  C    0.000726   0.000010   0.000994  -0.000220
    12  H    0.000009   0.000000  -0.000004   0.000002
    13  C   -0.020694   0.004067   0.001984   0.003634
    14  H    0.004067   0.001941  -0.001205   0.000227
    15  H    0.001984  -0.001205   0.041673  -0.003637
    16  H    0.003634   0.000227  -0.003637   0.005089
 Mulliken charges and spin densities:
               1          2
     1  C   -0.177011   0.487146
     2  H    0.124313  -0.011281
     3  C   -0.057237  -0.005826
     4  H    0.069677   0.002296
     5  H    0.098210  -0.001160
     6  H    0.095778   0.003296
     7  O   -0.178571   0.047235
     8  O   -0.210719   0.468786
     9  H    0.208065  -0.086649
    10  C    0.000245  -0.196441
    11  C   -0.202280   0.293039
    12  H    0.169772  -0.009638
    13  C   -0.273752  -0.024217
    14  H    0.112534   0.003109
    15  H    0.107519   0.027845
    16  H    0.113459   0.002462
 Sum of Mulliken charges =  -0.00000   1.00000
 Mulliken charges and spin densities with hydrogens summed into heavy atoms:
               1          2
     1  C   -0.052698   0.475865
     3  C    0.206428  -0.001394
     7  O   -0.178571   0.047235
     8  O   -0.002654   0.382136
    10  C    0.000245  -0.196441
    11  C   -0.032508   0.283401
    13  C    0.059759   0.009198
 APT charges:
               1
     1  C    0.670186
     2  H   -0.072606
     3  C    0.479594
     4  H   -0.038725
     5  H   -0.011018
     6  H   -0.029625
     7  O   -0.611730
     8  O    0.396040
     9  H   -0.474270
    10  C   -0.252945
    11  C   -0.264069
    12  H    0.228585
    13  C   -0.049142
    14  H    0.017649
    15  H    0.000604
    16  H    0.011474
 Sum of APT charges =  -0.00000
 APT charges with hydrogens summed into heavy atoms:
               1
     1  C    0.597579
     3  C    0.400226
     7  O   -0.611730
     8  O   -0.078230
    10  C   -0.252945
    11  C   -0.035485
    13  C   -0.019415
 Electronic spatial extent (au):  <R**2>=           1144.5897
 Charge=             -0.0000 electrons
 Dipole moment (field-independent basis, Debye):
    X=             -0.0001    Y=              0.6103    Z=             -2.0433  Tot=              2.1325
 Quadrupole moment (field-independent basis, Debye-Ang):
   XX=            -36.1730   YY=            -42.4845   ZZ=            -44.4381
   XY=              1.5315   XZ=             -4.8822   YZ=             -0.0143
 Traceless Quadrupole moment (field-independent basis, Debye-Ang):
   XX=              4.8588   YY=             -1.4527   ZZ=             -3.4062
   XY=              1.5315   XZ=             -4.8822   YZ=             -0.0143
 Octapole moment (field-independent basis, Debye-Ang**2):
  XXX=             14.5115  YYY=             -0.4540  ZZZ=              2.3328  XYY=              0.1972
  XXY=            -18.8379  XXZ=             -1.6741  XZZ=              7.5151  YZZ=              1.4707
  YYZ=              1.9392  XYZ=              2.5638
 Hexadecapole moment (field-independent basis, Debye-Ang**3):
 XXXX=           -954.3959 YYYY=           -285.5107 ZZZZ=           -120.4909 XXXY=             69.3685
 XXXZ=            -36.5852 YYYX=              1.0902 YYYZ=             -4.7031 ZZZX=              1.1665
 ZZZY=             -0.9548 XXYY=           -200.5468 XXZZ=           -221.3668 YYZZ=            -70.2043
 XXYZ=             -9.9832 YYXZ=             -2.2539 ZZXY=             -5.3143
 N-N= 2.834116151189D+02 E-N=-1.375311512395D+03  KE= 3.440621081553D+02
  Exact polarizability: 145.881   5.990  68.794   1.760  -3.042  54.958
 Approx polarizability: 122.984  13.653  77.110   1.861  -6.057  66.719
                          Isotropic Fermi Contact Couplings
        Atom                 a.u.       MegaHertz       Gauss      10(-4) cm-1
     1  C(13)              0.08193      92.10766      32.86631      30.72381
     2  H(1)              -0.00277     -12.36702      -4.41286      -4.12519
     3  C(13)             -0.00478      -5.37294      -1.91720      -1.79222
     4  H(1)               0.00284      12.69280       4.52911       4.23386
     5  H(1)              -0.00021      -0.95524      -0.34085      -0.31863
     6  H(1)               0.00126       5.62221       2.00615       1.87537
     7  O(17)              0.01972     -11.95412      -4.26553      -3.98747
     8  O(17)              0.03148     -19.08582      -6.81030      -6.36634
     9  H(1)              -0.02078     -92.87763     -33.14105     -30.98064
    10  C(13)             -0.01092     -12.27057      -4.37844      -4.09302
    11  C(13)              0.00044       0.49226       0.17565       0.16420
    12  H(1)              -0.00229     -10.24947      -3.65727      -3.41886
    13  C(13)             -0.00653      -7.34175      -2.61972      -2.44894
    14  H(1)               0.00319      14.25864       5.08784       4.75617
    15  H(1)               0.01414      63.19032      22.54788      21.07802
    16  H(1)               0.00148       6.61606       2.36077       2.20688
 --------------------------------------------------------
       Center         ----  Spin Dipole Couplings  ----
                      3XX-RR        3YY-RR        3ZZ-RR
 --------------------------------------------------------
     1   Atom        0.118203     -0.040950     -0.077253
     2   Atom       -0.007464     -0.024677      0.032140
     3   Atom        0.004640     -0.006812      0.002171
     4   Atom        0.000019     -0.005478      0.005459
     5   Atom        0.004295     -0.003475     -0.000820
     6   Atom        0.004621     -0.003011     -0.001609
     7   Atom        0.117586     -0.135774      0.018187
     8   Atom        0.108329     -0.113454      0.005124
     9   Atom        0.087898     -0.048820     -0.039078
    10   Atom        0.025146     -0.012015     -0.013131
    11   Atom       -0.016943      0.028577     -0.011634
    12   Atom        0.009349     -0.000662     -0.008687
    13   Atom       -0.002233      0.014995     -0.012762
    14   Atom       -0.002053      0.008554     -0.006501
    15   Atom       -0.002746      0.005795     -0.003049
    16   Atom       -0.002832      0.001555      0.001277
 --------------------------------------------------------
                        XY            XZ            YZ
 --------------------------------------------------------
     1   Atom       -0.311010      0.284404     -0.220189
     2   Atom       -0.014151     -0.010932     -0.004034
     3   Atom        0.000431     -0.007316      0.001527
     4   Atom       -0.000415     -0.005647     -0.000247
     5   Atom        0.001315     -0.004505     -0.001236
     6   Atom       -0.003748     -0.005600      0.002631
     7   Atom       -0.279693      0.327637     -0.212526
     8   Atom       -0.952748      1.018265     -0.899739
     9   Atom       -0.101751      0.113719     -0.062391
    10   Atom        0.033405     -0.017794      0.017318
    11   Atom       -0.091401      0.082133     -0.112070
    12   Atom        0.007095      0.000302     -0.007253
    13   Atom       -0.015266      0.002568      0.001088
    14   Atom        0.004254      0.001724      0.000921
    15   Atom       -0.004247      0.002217     -0.000782
    16   Atom       -0.003865     -0.002265      0.006782
 --------------------------------------------------------


 ---------------------------------------------------------------------------------
              Anisotropic Spin Dipole Couplings in Principal Axis System
 ---------------------------------------------------------------------------------

       Atom             a.u.   MegaHertz   Gauss  10(-4) cm-1        Axes

              Baa    -0.2825   -37.904   -13.525   -12.643  0.6629  0.7379 -0.1269
     1 C(13)  Bbb    -0.2796   -37.514   -13.386   -12.513 -0.2940  0.4124  0.8622
              Bcc     0.5620    75.418    26.911    25.157  0.6886 -0.5342  0.4904
 
              Baa    -0.0339   -18.065    -6.446    -6.026  0.5114  0.8484  0.1366
     2 H(1)   Bbb    -0.0011    -0.589    -0.210    -0.196  0.8229 -0.5293  0.2064
              Bcc     0.0350    18.653     6.656     6.222 -0.2474 -0.0068  0.9689
 
              Baa    -0.0074    -0.999    -0.356    -0.333 -0.2252  0.9211 -0.3176
     3 C(13)  Bbb    -0.0034    -0.457    -0.163    -0.152  0.6087  0.3876  0.6923
              Bcc     0.0108     1.456     0.520     0.486  0.7608 -0.0375 -0.6479
 
              Baa    -0.0056    -2.983    -1.064    -0.995  0.1936  0.9736  0.1207
     4 H(1)   Bbb    -0.0034    -1.822    -0.650    -0.608  0.8243 -0.2281  0.5182
              Bcc     0.0090     4.806     1.715     1.603 -0.5320  0.0008  0.8467
 
              Baa    -0.0040    -2.153    -0.768    -0.718  0.1684  0.8178  0.5503
     5 H(1)   Bbb    -0.0032    -1.692    -0.604    -0.565  0.4999 -0.5520  0.6674
              Bcc     0.0072     3.845     1.372     1.283  0.8496  0.1627 -0.5018
 
              Baa    -0.0052    -2.748    -0.981    -0.917  0.2470 -0.5491  0.7984
     6 H(1)   Bbb    -0.0044    -2.358    -0.841    -0.787  0.5382  0.7629  0.3583
              Bcc     0.0096     5.106     1.822     1.703  0.8058 -0.3412 -0.4839
 
              Baa    -0.3162    22.876     8.163     7.631  0.5354  0.8445  0.0122
     7 O(17)  Bbb    -0.2567    18.578     6.629     6.197 -0.4916  0.2999  0.8176
              Bcc     0.5729   -41.454   -14.792   -13.828  0.6868 -0.4437  0.5757
 
              Baa    -0.9647    69.807    24.909    23.285  0.7919  0.3867 -0.4727
     8 O(17)  Bbb    -0.9558    69.164    24.679    23.071  0.0323  0.7464  0.6647
              Bcc     1.9206  -138.971   -49.588   -46.356  0.6098 -0.5416  0.5786
 
              Baa    -0.1072   -57.178   -20.403   -19.073 -0.2342  0.4896  0.8399
     9 H(1)   Bbb    -0.1026   -54.725   -19.527   -18.254  0.5783  0.7646 -0.2844
              Bcc     0.2097   111.903    39.930    37.327  0.7815 -0.4191  0.4623
 
              Baa    -0.0482    -6.471    -2.309    -2.158 -0.4511  0.6881 -0.5684
    10 C(13)  Bbb     0.0026     0.348     0.124     0.116 -0.1792  0.5540  0.8130
              Bcc     0.0456     6.123     2.185     2.042  0.8743  0.4686 -0.1267
 
              Baa    -0.1062   -14.251    -5.085    -4.754 -0.1829  0.5523  0.8133
    11 C(13)  Bbb    -0.0877   -11.766    -4.199    -3.925  0.8445  0.5119 -0.1577
              Bcc     0.1939    26.017     9.284     8.679 -0.5034  0.6580 -0.5600
 
              Baa    -0.0137    -7.297    -2.604    -2.434 -0.1809  0.5522  0.8138
    12 H(1)   Bbb     0.0002     0.092     0.033     0.031 -0.4949  0.6640 -0.5605
              Bcc     0.0135     7.205     2.571     2.403  0.8499  0.5042 -0.1532
 
              Baa    -0.0148    -1.991    -0.710    -0.664 -0.5216 -0.2961  0.8002
    13 C(13)  Bbb    -0.0091    -1.218    -0.435    -0.406  0.6878  0.4091  0.5997
              Bcc     0.0239     3.209     1.145     1.070 -0.5049  0.8631 -0.0098
 
              Baa    -0.0071    -3.794    -1.354    -1.266 -0.3528  0.0408  0.9348
    14 H(1)   Bbb    -0.0031    -1.635    -0.583    -0.545  0.8724 -0.3468  0.3444
              Bcc     0.0102     5.429     1.937     1.811  0.3382  0.9371  0.0867
 
              Baa    -0.0057    -3.056    -1.090    -1.019  0.7806  0.2488 -0.5734
    15 H(1)   Bbb    -0.0021    -1.095    -0.391    -0.365  0.4832  0.3418  0.8060
              Bcc     0.0078     4.151     1.481     1.385 -0.3965  0.9062 -0.1466
 
              Baa    -0.0060    -3.205    -1.144    -1.069  0.5014  0.7055 -0.5009
    16 H(1)   Bbb    -0.0037    -1.978    -0.706    -0.660  0.8002 -0.1579  0.5786
              Bcc     0.0097     5.183     1.849     1.729 -0.3291  0.6909  0.6437
 

 ---------------------------------------------------------------------------------

 Calling FoFJK, ICntrl=  10100127 FMM=F ISym2X=0 I1Cent= 0 IOpClX= 1 NMat=1 NMatS=1 NMatT=0.
 -------------------------------------------------------------------
 Center     Atomic                   Forces (Hartrees/Bohr)
 Number     Number              X              Y              Z
 -------------------------------------------------------------------
      1        6           0.000003591   -0.000002100   -0.000001564
      2        1           0.000002045   -0.000001477    0.000001011
      3        6          -0.000000885   -0.000000208    0.000000614
      4        1          -0.000001185    0.000000038   -0.000000643
      5        1          -0.000000657   -0.000000015   -0.000000140
      6        1           0.000000548    0.000000469    0.000000309
      7        8          -0.000009790   -0.000005634    0.000000504
      8        8           0.000001694    0.000009245   -0.000003816
      9        1          -0.000000094    0.000002425    0.000003452
     10        6          -0.000000339    0.000000509   -0.000001432
     11        6           0.000001340    0.000000561   -0.000000386
     12        1           0.000000055    0.000000007    0.000000481
     13        6           0.000000459   -0.000004910    0.000002551
     14        1           0.000003898    0.000001025   -0.000002590
     15        1          -0.000001114   -0.000000513    0.000001222
     16        1           0.000000435    0.000000576    0.000000427
 -------------------------------------------------------------------
 Cartesian Forces:  Max     0.000009790 RMS     0.000002670
 FormGI is forming the generalized inverse of G from B-inverse, IUseBI=4.

 GradGradGradGradGradGradGradGradGradGradGradGradGradGradGradGradGradGrad
 Berny optimization.
 Internal  Forces:  Max     0.000015381 RMS     0.000004707
 Search for a saddle point.
 Step number   1 out of a maximum of  100 on scan point     1 out of    37
 All quantities printed in internal units (Hartrees-Bohrs-Radians)
 Swapping is turned off.
 Second derivative matrix not updated -- analytic derivatives used.
 ITU=  0
     Eigenvalues ---   -0.09191   0.00081   0.00538   0.01594   0.01757
     Eigenvalues ---    0.03304   0.03496   0.03554   0.06401   0.07248
     Eigenvalues ---    0.07856   0.08473   0.08479   0.08612   0.10114
     Eigenvalues ---    0.12042   0.12164   0.12863   0.12935   0.13318
     Eigenvalues ---    0.14655   0.14948   0.16410   0.16771   0.17149
     Eigenvalues ---    0.18103   0.18676   0.25666   0.30217   0.31703
     Eigenvalues ---    0.33678   0.33715   0.34064   0.34557   0.34598
     Eigenvalues ---    0.35045   0.35475   0.38326   0.40835   0.41637
     Eigenvalues ---    1.041461000.000001000.000001000.000001000.00000
     Eigenvalues --- 1000.000001000.000001000.000001000.00000
 Eigenvectors required to have negative eigenvalues:
                          R10       R2        R9        A1        A5
   1                    0.72206  -0.60664  -0.17437   0.12576   0.11939
                          A14       A4        A6        R3        A3
   1                    0.08776   0.08522  -0.08498   0.08360  -0.07822
 RFO step:  Lambda0=5.075767584D-11 Lambda= 0.00000000D+00.
 Linear search not attempted -- option 19 set.
 Iteration  1 RMS(Cart)=  0.00045563 RMS(Int)=  0.00000009
 Iteration  2 RMS(Cart)=  0.00000015 RMS(Int)=  0.00000000
 Iteration  1 RMS(Cart)=  0.00000000 RMS(Int)=  0.00000000
 Variable       Old X    -DE/DX   Delta X   Delta X   Delta X     New X
                                 (Linear)    (Quad)   (Total)
    R1        2.05689  -0.00000   0.00000  -0.00000  -0.00000   2.05689
    R2        2.48193  -0.00001   0.00000  -0.00007  -0.00007   2.48186
    R3        2.68732  -0.00000   0.00000  -0.00000  -0.00000   2.68731
    R4        2.85999  -0.00000   0.00000  -0.00000  -0.00000   2.85999
    R5        2.06086   0.00000   0.00000   0.00000   0.00000   2.06086
    R6        2.05532  -0.00000   0.00000  -0.00000  -0.00000   2.05532
    R7        2.05614  -0.00000   0.00000   0.00000   0.00000   2.05614
    R8        2.69062  -0.00000   0.00000  -0.00000  -0.00000   2.69062
    R9        2.63649  -0.00001   0.00000  -0.00003  -0.00003   2.63645
   R10        2.29684  -0.00001   0.00000  -0.00002  -0.00002   2.29682
   R11        2.28576  -0.00000   0.00000  -0.00000  -0.00000   2.28576
   R12        2.00313   0.00000   0.00000   0.00000   0.00000   2.00313
   R13        2.05651   0.00000   0.00000   0.00001   0.00001   2.05652
   R14        2.06290  -0.00000   0.00000   0.00000   0.00000   2.06290
   R15        2.05459   0.00000   0.00000   0.00000   0.00000   2.05459
    A1        1.76318   0.00000   0.00000   0.00003   0.00003   1.76321
    A2        1.97482  -0.00000   0.00000  -0.00001  -0.00001   1.97481
    A3        1.99666   0.00000   0.00000   0.00000   0.00000   1.99666
    A4        1.83536   0.00000   0.00000   0.00005   0.00005   1.83541
    A5        1.79412  -0.00001   0.00000  -0.00008  -0.00008   1.79403
    A6        2.05368   0.00000   0.00000   0.00001   0.00001   2.05369
    A7        1.92124   0.00000   0.00000   0.00000   0.00000   1.92124
    A8        1.91766   0.00000   0.00000   0.00000   0.00000   1.91766
    A9        1.93154  -0.00000   0.00000  -0.00001  -0.00001   1.93154
   A10        1.92772  -0.00000   0.00000   0.00000   0.00000   1.92772
   A11        1.83803  -0.00000   0.00000   0.00000   0.00000   1.83803
   A12        1.92648   0.00000   0.00000   0.00001   0.00001   1.92648
   A13        1.88831  -0.00000   0.00000   0.00000   0.00000   1.88831
   A14        1.83682  -0.00002   0.00000  -0.00008  -0.00008   1.83674
   A15        1.92387  -0.00000   0.00000  -0.00001  -0.00001   1.92386
   A16        1.93072  -0.00000   0.00000  -0.00000  -0.00000   1.93071
   A17        1.93041   0.00000   0.00000   0.00001   0.00001   1.93041
   A18        1.89300   0.00000   0.00000   0.00001   0.00001   1.89301
   A19        1.89542   0.00000   0.00000   0.00004   0.00004   1.89545
   A20        1.88940  -0.00000   0.00000  -0.00003  -0.00003   1.88937
   A21        3.11541  -0.00001   0.00000  -0.00017  -0.00017   3.11524
   A22        3.12674   0.00000   0.00000   0.00001   0.00001   3.12675
   A23        3.14721  -0.00000   0.00000  -0.00000  -0.00000   3.14721
   A24        3.01515  -0.00001   0.00000  -0.00021  -0.00021   3.01494
   A25        3.18393   0.00000   0.00000   0.00002   0.00002   3.18395
   A26        3.15294  -0.00000   0.00000  -0.00001  -0.00001   3.15293
    D1        1.12417  -0.00000   0.00000  -0.00047  -0.00047   1.12370
    D2       -3.08011   0.00000   0.00000  -0.00043  -0.00043  -3.08053
    D3       -0.92626   0.00000   0.00000  -0.00041  -0.00041  -0.92667
    D4       -3.07984   0.00001   0.00000   0.00000  -0.00000  -3.07984
    D5        1.13136  -0.00000   0.00000  -0.00017  -0.00017   1.13119
    D6       -3.07613  -0.00000   0.00000  -0.00017  -0.00017  -3.07630
    D7       -0.99538  -0.00000   0.00000  -0.00017  -0.00017  -0.99554
    D8       -1.63222   0.00000   0.00000   0.00013   0.00013  -1.63209
         Item               Value     Threshold  Converged?
 Maximum Force            0.000015     0.000450     YES
 RMS     Force            0.000005     0.000300     YES
 Maximum Displacement     0.001327     0.001800     YES
 RMS     Displacement     0.000456     0.001200     YES
 Predicted change in Energy=-4.166941D-09
 Optimization completed.
    -- Stationary point found.
                           ----------------------------
                           !   Optimized Parameters   !
                           ! (Angstroms and Degrees)  !
 --------------------------                            --------------------------
 ! Name  Definition              Value          Derivative Info.                !
 --------------------------------------------------------------------------------
 ! R1    R(1,2)                  1.0885         -DE/DX =    0.0                 !
 ! R2    R(1,9)                  1.3134         -DE/DX =    0.0                 !
 ! R3    R(1,10)                 1.4221         -DE/DX =    0.0                 !
 ! R4    R(1,13)                 1.5134         -DE/DX =    0.0                 !
 ! R5    R(3,4)                  1.0906         -DE/DX =    0.0                 !
 ! R6    R(3,5)                  1.0876         -DE/DX =    0.0                 !
 ! R7    R(3,6)                  1.0881         -DE/DX =    0.0                 !
 ! R8    R(3,7)                  1.4238         -DE/DX =    0.0                 !
 ! R9    R(7,8)                  1.3952         -DE/DX =    0.0                 !
 ! R10   R(8,9)                  1.2154         -DE/DX =    0.0                 !
 ! R11   R(10,11)                1.2096         -DE/DX =    0.0                 !
 ! R12   R(11,12)                1.06           -DE/DX =    0.0                 !
 ! R13   R(13,14)                1.0883         -DE/DX =    0.0                 !
 ! R14   R(13,15)                1.0916         -DE/DX =    0.0                 !
 ! R15   R(13,16)                1.0872         -DE/DX =    0.0                 !
 ! A1    A(2,1,9)              101.0229         -DE/DX =    0.0                 !
 ! A2    A(2,1,10)             113.1487         -DE/DX =    0.0                 !
 ! A3    A(2,1,13)             114.4            -DE/DX =    0.0                 !
 ! A4    A(9,1,10)             105.1586         -DE/DX =    0.0                 !
 ! A5    A(9,1,13)             102.7955         -DE/DX =    0.0                 !
 ! A6    A(10,1,13)            117.6671         -DE/DX =    0.0                 !
 ! A7    A(4,3,5)              110.079          -DE/DX =    0.0                 !
 ! A8    A(4,3,6)              109.8739         -DE/DX =    0.0                 !
 ! A9    A(4,3,7)              110.6694         -DE/DX =    0.0                 !
 ! A10   A(5,3,6)              110.4501         -DE/DX =    0.0                 !
 ! A11   A(5,3,7)              105.3111         -DE/DX =    0.0                 !
 ! A12   A(6,3,7)              110.3789         -DE/DX =    0.0                 !
 ! A13   A(3,7,8)              108.1921         -DE/DX =    0.0                 !
 ! A14   A(7,8,9)              105.2419         -DE/DX =    0.0                 !
 ! A15   A(1,13,14)            110.2298         -DE/DX =    0.0                 !
 ! A16   A(1,13,15)            110.6219         -DE/DX =    0.0                 !
 ! A17   A(1,13,16)            110.6043         -DE/DX =    0.0                 !
 ! A18   A(14,13,15)           108.4612         -DE/DX =    0.0                 !
 ! A19   A(14,13,16)           108.5994         -DE/DX =    0.0                 !
 ! A20   A(15,13,16)           108.2549         -DE/DX =    0.0                 !
 ! A21   L(1,9,8,4,-1)         178.4999         -DE/DX =    0.0                 !
 ! A22   L(1,10,11,16,-1)      179.1491         -DE/DX =    0.0                 !
 ! A23   L(10,11,12,6,-1)      180.3218         -DE/DX =    0.0                 !
 ! A24   L(1,9,8,4,-2)         172.7553         -DE/DX =    0.0                 !
 ! A25   L(1,10,11,16,-2)      182.426          -DE/DX =    0.0                 !
 ! A26   L(10,11,12,6,-2)      180.6502         -DE/DX =    0.0                 !
 ! D1    D(2,1,8,7)             64.4102         -DE/DX =    0.0                 !
 ! D2    D(10,1,8,7)          -176.4771         -DE/DX =    0.0                 !
 ! D3    D(13,1,8,7)           -53.0707         -DE/DX =    0.0                 !
 ! D4    D(2,1,13,16)         -176.4621         -DE/DX =    0.0                 !
 ! D5    D(4,3,7,8)             64.8221         -DE/DX =    0.0                 !
 ! D6    D(5,3,7,8)           -176.2491         -DE/DX =    0.0                 !
 ! D7    D(6,3,7,8)            -57.0309         -DE/DX =    0.0                 !
 ! D8    D(3,7,8,9)            -93.5195         -DE/DX =    0.0                 !
 --------------------------------------------------------------------------------
 Iteration  1 RMS(Cart)=  0.07719619 RMS(Int)=  0.00599976
 Iteration  2 RMS(Cart)=  0.00797364 RMS(Int)=  0.00003802
 Iteration  3 RMS(Cart)=  0.00007074 RMS(Int)=  0.00000000
 Iteration  4 RMS(Cart)=  0.00000001 RMS(Int)=  0.00000000
 Iteration  1 RMS(Cart)=  0.00000000 RMS(Int)=  0.00000000
 GradGradGradGradGradGradGradGradGradGradGradGradGradGradGradGradGradGrad

                          Input orientation:                          
 ---------------------------------------------------------------------
 Center     Atomic      Atomic             Coordinates (Angstroms)
 Number     Number       Type             X           Y           Z
 ---------------------------------------------------------------------
      1          6           0       -0.937770    0.376927   -0.469240
      2          1           0       -0.590562    0.330666   -1.499799
      3          6           0        2.746051   -0.374199   -0.616937
      4          1           0        2.131220   -0.329223   -1.516537
      5          1           0        3.597777    0.295341   -0.712912
      6          1           0        3.082222   -1.395367   -0.449338
      7          8           0        2.020078    0.100427    0.512196
      8          8           0        0.955181   -0.770871    0.743025
      9          1           0        0.012670   -0.288564    0.146112
     10          6           0       -2.123666   -0.375039   -0.244595
     11          6           0       -3.114065   -1.031539   -0.018367
     12          1           0       -3.985952   -1.603526    0.172074
     13          6           0       -0.846653    1.750268    0.160150
     14          1           0        0.124845    2.195107   -0.046306
     15          1           0       -1.620271    2.408533   -0.239694
     16          1           0       -0.977079    1.686755    1.237670
 ---------------------------------------------------------------------
                    Distance matrix (angstroms):
                    1          2          3          4          5
     1  C    0.000000
     2  H    1.088460   0.000000
     3  C    3.762518   3.522679   0.000000
     4  H    3.318762   2.800685   1.090560   0.000000
     5  H    4.542821   4.261763   1.087627   1.785129   0.000000
     6  H    4.393377   4.191897   1.088065   1.783250   1.787110
     7  O    3.128663   3.304024   1.423814   2.076706   2.006992
     8  O    2.523943   2.938190   2.283431   2.585293   3.199980
     9  H    1.313344   1.859128   2.839181   2.693383   3.732541
    10  C    1.422065   2.103322   4.883932   4.441171   5.779589
    11  C    2.631221   3.227740   5.927170   5.500071   6.876905
    12  H    3.691191   4.250285   6.888661   6.472639   7.867773
    13  C    1.513440   2.199155   4.245556   4.000412   4.757311
    14  H    2.147977   2.469938   3.714522   3.543919   4.014316
    15  H    2.155441   2.639261   5.191404   4.816568   5.649562
    16  H    2.151914   3.079303   4.642068   4.616421   5.164311
                    6          7          8          9         10
     6  H    0.000000
     7  O    2.071255   0.000000
     8  O    2.517147   1.395151   0.000000
     9  H    3.316885   2.077262   1.215423   0.000000
    10  C    5.308885   4.239035   3.257511   2.173491   0.000000
    11  C    6.221903   5.284152   4.148064   3.218002   1.209570
    12  H    7.098490   6.252322   5.043223   4.209368   2.269559
    13  C    5.069769   3.326268   3.153171   2.212571   2.512273
    14  H    4.669049   2.879499   3.179548   2.493638   3.420640
    15  H    6.052029   4.375481   4.208004   3.176425   2.828729
    16  H    5.368742   3.467809   3.165158   2.464343   2.786174
                   11         12         13         14         15
    11  C    0.000000
    12  H    1.060011   0.000000
    13  C    3.593254   4.593831   0.000000
    14  H    4.571932   5.601425   1.088262   0.000000
    15  H    3.756927   4.675748   1.091638   1.768723   0.000000
    16  H    3.678785   4.584186   1.087241   1.766706   1.765577
                   16
    16  H    0.000000
 Symmetry turned off by external request.
 Stoichiometry    C5H9O2(2)
 Framework group  C1[X(C5H9O2)]
 Deg. of freedom    42
 Full point group                 C1      NOp   1
 Rotational constants (GHZ):           4.5725034           1.1610978           1.0310824
 Standard basis: CC-pVTZ (5D, 7F)
   336 basis functions,   517 primitive gaussians,   380 cartesian basis functions
    28 alpha electrons       27 beta electrons
       nuclear repulsion energy       283.3935549371 Hartrees.
 NAtoms=   16 NActive=   16 NUniq=   16 SFac= 1.00D+00 NAtFMM=   60 NAOKFM=F Big=F
 Integral buffers will be    131072 words long.
 Raffenetti 2 integral format.
 Two-electron integral symmetry is turned off.
 Nuclear repulsion after empirical dispersion term =      283.3853817807 Hartrees.
 One-electron integrals computed using PRISM.
 NBasis=   336 RedAO= T EigKep=  4.18D-05  NBF=   336
 NBsUse=   336 1.00D-06 EigRej= -1.00D+00 NBFU=   336
 Initial guess from the checkpoint file:  "/localscratch/352095/Gau-12808.chk"
 B after Tr=    -0.002738    0.000505   -0.000030
         Rot=    0.999998   -0.000168    0.002003    0.000802 Ang=  -0.25 deg.
 Initial guess <Sx>= 0.0000 <Sy>= 0.0000 <Sz>= 0.5000 <S**2>= 0.7877 S= 0.5187
 ExpMin= 1.03D-01 ExpMax= 1.53D+04 ExpMxC= 5.22D+02 IAcc=3 IRadAn=         5 AccDes= 0.00D+00
 Harris functional with IExCor=  419 and IRadAn=       5 diagonalized for initial guess.
 HarFok:  IExCor=  419 AccDes= 0.00D+00 IRadAn=         5 IDoV= 1 UseB2=F ITyADJ=14
 ICtDFT=  3500011 ScaDFX=  1.000000  1.000000  1.000000  1.000000
 FoFCou: FMM=F IPFlag=           0 FMFlag=      100000 FMFlg1=           0
         NFxFlg=           0 DoJE=T BraDBF=F KetDBF=T FulRan=T
         wScrn=  0.000000 ICntrl=       500 IOpCl=  0 I1Cent=   200000004 NGrid=           0
         NMat0=    1 NMatS0=      1 NMatT0=    0 NMatD0=    1 NMtDS0=    0 NMtDT0=    0
 Symmetry not used in FoFCou.
 Requested convergence on RMS density matrix=1.00D-08 within 500 cycles.
 Requested convergence on MAX density matrix=1.00D-06.
 Requested convergence on             energy=1.00D-06.
 No special actions if energy rises.
 Integral accuracy reduced to 1.0D-05 until final iterations.
 Initial convergence to 1.0D-05 achieved.  Increase integral accuracy.
 SCF Done:  E(UB2PLYPD3) =  -345.575907093     A.U. after   15 cycles
            NFock= 15  Conv=0.98D-08     -V/T= 2.0044
 <Sx>= 0.0000 <Sy>= 0.0000 <Sz>= 0.5000 <S**2>= 0.7873 S= 0.5185
 <L.S>=  0.00000000000    
 Annihilation of the first spin contaminant:
 S**2 before annihilation     0.7873,   after     0.7509
 DoSCS=T DFT=T ScalE2(SS,OS)=  0.270000  0.270000
 ExpMin= 1.03D-01 ExpMax= 1.53D+04 ExpMxC= 5.22D+02 IAcc=3 IRadAn=         5 AccDes= 0.00D+00
 HarFok:  IExCor=  205 AccDes= 0.00D+00 IRadAn=         5 IDoV=-2 UseB2=F ITyADJ=14
 ICtDFT= 12500011 ScaDFX=  1.000000  1.000000  1.000000  1.000000
 Range of M.O.s used for correlation:     8   336
 NBasis=   336 NAE=    28 NBE=    27 NFC=     7 NFV=     0
 NROrb=    329 NOA=    21 NOB=    20 NVA=   308 NVB=   309

 **** Warning!!: The largest alpha MO coefficient is  0.37123897D+02


 **** Warning!!: The largest beta MO coefficient is  0.38102705D+02

 DoSCS=T DFT=T ScalE2(SS,OS)=  0.270000  0.270000
 Disk-based method using ON**2 memory for 21 occupieds at a time.
 Estimated scratch disk usage=  1966504320 words.
 Actual    scratch disk usage=  1802190208 words.
 JobTyp=2 Pass  1:  I=   8 to  28 NPSUse= 40 ParTrn=T ParDer=T DoDerP=T.
 (rs|ai) integrals will be sorted in core.
 Actual    scratch disk usage=  1802190208 words.
 JobTyp=3 Pass  1:  I=   8 to  27 NPSUse= 40 ParTrn=T ParDer=T DoDerP=T.
 (rs|ai) integrals will be sorted in core.
 Spin components of T(2) and E(2):
     alpha-alpha T2 =       0.7881963611D-01 E2=     -0.5357142833D-01
     alpha-beta  T2 =       0.4701277745D+00 E2=     -0.3270365822D+00
     beta-beta   T2 =       0.8811839647D-01 E2=     -0.5329263708D-01
 (S**2,0)=  0.78734D+00           (S**2,1)=  0.74668D+00
 Scaling Projection term by:   0.270000
 E(PUHF)=      -0.34558412920D+03        E(PMP2)=      -0.34601083673D+03
 E2(B2PLYPD3) =    -0.4339006476D+00 E(B2PLYPD3) =    -0.34600980774063D+03
          IDoAtm=1111111111111111
          Differentiating once with respect to electric field.
                with respect to dipole field.
          Differentiating once with respect to nuclear coordinates.
 Keep R1 and R2 ints in memory in canonical form, NReq=3251777228.
          There are     1 degrees of freedom in the 1st order CPHF.  IDoFFX=0 NUNeed=     1.
 LinEq1:  Iter=  0 NonCon=     1 RMS=9.61D-04 Max=5.46D-02 NDo=     1
 AX will form     1 AO Fock derivatives at one time.
 LinEq1:  Iter=  1 NonCon=     1 RMS=3.47D-04 Max=8.76D-03 NDo=     1
 LinEq1:  Iter=  2 NonCon=     1 RMS=2.37D-04 Max=6.71D-03 NDo=     1
 LinEq1:  Iter=  3 NonCon=     1 RMS=1.63D-04 Max=6.62D-03 NDo=     1
 LinEq1:  Iter=  4 NonCon=     1 RMS=9.10D-05 Max=3.22D-03 NDo=     1
 LinEq1:  Iter=  5 NonCon=     1 RMS=6.35D-05 Max=2.80D-03 NDo=     1
 LinEq1:  Iter=  6 NonCon=     1 RMS=2.88D-05 Max=6.30D-04 NDo=     1
 LinEq1:  Iter=  7 NonCon=     1 RMS=1.08D-05 Max=2.61D-04 NDo=     1
 LinEq1:  Iter=  8 NonCon=     1 RMS=8.81D-06 Max=2.81D-04 NDo=     1
 LinEq1:  Iter=  9 NonCon=     1 RMS=4.41D-06 Max=9.20D-05 NDo=     1
 LinEq1:  Iter= 10 NonCon=     1 RMS=2.13D-06 Max=3.86D-05 NDo=     1
 LinEq1:  Iter= 11 NonCon=     1 RMS=9.27D-07 Max=2.19D-05 NDo=     1
 LinEq1:  Iter= 12 NonCon=     1 RMS=3.50D-07 Max=5.65D-06 NDo=     1
 LinEq1:  Iter= 13 NonCon=     1 RMS=1.34D-07 Max=2.61D-06 NDo=     1
 LinEq1:  Iter= 14 NonCon=     1 RMS=6.00D-08 Max=1.80D-06 NDo=     1
 LinEq1:  Iter= 15 NonCon=     1 RMS=2.90D-08 Max=1.06D-06 NDo=     1
 LinEq1:  Iter= 16 NonCon=     1 RMS=1.03D-08 Max=5.14D-07 NDo=     1
 LinEq1:  Iter= 17 NonCon=     1 RMS=3.59D-09 Max=2.02D-07 NDo=     1
 LinEq1:  Iter= 18 NonCon=     1 RMS=1.24D-09 Max=6.06D-08 NDo=     1
 LinEq1:  Iter= 19 NonCon=     1 RMS=4.90D-10 Max=1.75D-08 NDo=     1
 LinEq1:  Iter= 20 NonCon=     1 RMS=1.78D-10 Max=4.95D-09 NDo=     1
 LinEq1:  Iter= 21 NonCon=     1 RMS=7.81D-11 Max=1.59D-09 NDo=     1
 LinEq1:  Iter= 22 NonCon=     1 RMS=3.39D-11 Max=1.41D-09 NDo=     1
 LinEq1:  Iter= 23 NonCon=     0 RMS=1.10D-11 Max=3.19D-10 NDo=     1
 Linear equations converged to 1.000D-10 1.000D-09 after    23 iterations.
 End of Minotr F.D. properties file   721 does not exist.
 End of Minotr F.D. properties file   722 does not exist.
 End of Minotr F.D. properties file   788 does not exist.
 Calling FoFJK, ICntrl=  10002127 FMM=F ISym2X=0 I1Cent= 0 IOpClX= 1 NMat=1 NMatS=1 NMatT=0.
 -------------------------------------------------------------------
 Center     Atomic                   Forces (Hartrees/Bohr)
 Number     Number              X              Y              Z
 -------------------------------------------------------------------
      1        6           0.000462763   -0.000116884   -0.000313734
      2        1          -0.000486093   -0.000008903   -0.000096356
      3        6          -0.000037185   -0.000042977    0.000115166
      4        1          -0.000007935    0.000003986   -0.000011154
      5        1          -0.000003693    0.000004952    0.000007522
      6        1           0.000014758   -0.000015135   -0.000034354
      7        8          -0.000048451   -0.000067935   -0.000026768
      8        8           0.000162521    0.000000841    0.000069300
      9        1           0.000031628    0.000235336   -0.000434252
     10        6          -0.000007491   -0.000347564    0.000478192
     11        6           0.000060989    0.000098360   -0.000000322
     12        1          -0.000011192    0.000013032    0.000000099
     13        6           0.000406472    0.000452796   -0.000649909
     14        1          -0.000212271   -0.000369421    0.000748274
     15        1           0.000146313    0.000006057   -0.000071769
     16        1          -0.000471133    0.000153460    0.000220064
 -------------------------------------------------------------------
 Cartesian Forces:  Max     0.000748274 RMS     0.000253804

 GradGradGradGradGradGradGradGradGradGradGradGradGradGradGradGradGradGrad
 Berny optimization.
 FormGI is forming the generalized inverse of G from B-inverse, IUseBI=4.
 Internal  Forces:  Max     0.002512060 RMS     0.000522337
 Search for a saddle point.
 Step number   1 out of a maximum of  100 on scan point     2 out of    37
 All quantities printed in internal units (Hartrees-Bohrs-Radians)
 Swapping is turned off.
 Second derivative matrix not updated -- first step.
 ITU=  0
     Eigenvalues ---   -0.09191   0.00081   0.00538   0.01594   0.01757
     Eigenvalues ---    0.03304   0.03496   0.03554   0.06401   0.07248
     Eigenvalues ---    0.07856   0.08473   0.08479   0.08612   0.10114
     Eigenvalues ---    0.12042   0.12164   0.12863   0.12935   0.13318
[...]
    16  H    0.000229   0.000346  -0.003216  -0.002006   0.001981   0.000004
              13         14         15         16
     1  C    0.346047  -0.040176  -0.035415  -0.033285
     2  H   -0.030957  -0.002716  -0.004252   0.005778
     3  C   -0.000360   0.000073  -0.000021  -0.000213
     4  H   -0.001155   0.000066   0.000149  -0.000532
     5  H    0.000072  -0.000005   0.000004   0.000034
     6  H    0.000068   0.000024  -0.000008   0.000139
     7  O    0.000250  -0.000056  -0.000035   0.000229
     8  O    0.006225   0.001185   0.000064   0.000346
     9  H   -0.013825  -0.002286   0.002699  -0.003216
    10  C   -0.065126   0.008834  -0.000023  -0.002006
    11  C   -0.001335   0.000070   0.002316   0.001981
    12  H   -0.000068   0.000004   0.000024   0.000004
    13  C    4.822711   0.410619   0.398315   0.406421
    14  H    0.410619   0.570120  -0.031320  -0.025368
    15  H    0.398315  -0.031320   0.588357  -0.031353
    16  H    0.406421  -0.025368  -0.031353   0.572935
          Atomic-Atomic Spin Densities.
               1          2          3          4          5          6
     1  C    0.565182   0.002698   0.001002  -0.004648   0.000036   0.000930
     2  H    0.002698  -0.022813  -0.000049   0.000167  -0.000002  -0.000027
     3  C    0.001002  -0.000049  -0.007981   0.001945   0.000700  -0.000664
     4  H   -0.004648   0.000167   0.001945   0.004562  -0.000486  -0.001107
     5  H    0.000036  -0.000002   0.000700  -0.000486  -0.001787   0.000497
     6  H    0.000930  -0.000027  -0.000664  -0.001107   0.000497   0.001814
     7  O    0.010906  -0.000450   0.000924  -0.001983   0.000279  -0.000307
     8  O   -0.071070   0.002714  -0.002556   0.004374  -0.000180  -0.000066
     9  H    0.054549   0.002406   0.001211  -0.003588   0.000105   0.001278
    10  C   -0.013381   0.002067  -0.001270   0.002177  -0.000085  -0.000272
    11  C   -0.012185  -0.000603  -0.000794   0.001697  -0.000032  -0.000136
    12  H   -0.000090   0.000013   0.000024  -0.000024  -0.000001   0.000003
    13  C   -0.025793   0.002783  -0.000173   0.000952  -0.000008  -0.000157
    14  H   -0.003336   0.000488  -0.000012   0.000105  -0.000000  -0.000025
    15  H   -0.009939  -0.001369   0.000028  -0.000198  -0.000000   0.000014
    16  H   -0.002847   0.000068  -0.000121   0.000770  -0.000003  -0.000101
               7          8          9         10         11         12
     1  C    0.010906  -0.071070   0.054549  -0.013381  -0.012185  -0.000090
     2  H   -0.000450   0.002714   0.002406   0.002067  -0.000603   0.000013
     3  C    0.000924  -0.002556   0.001211  -0.001270  -0.000794   0.000024
     4  H   -0.001983   0.004374  -0.003588   0.002177   0.001697  -0.000024
     5  H    0.000279  -0.000180   0.000105  -0.000085  -0.000032  -0.000001
     6  H   -0.000307  -0.000066   0.001278  -0.000272  -0.000136   0.000003
     7  O    0.095512  -0.051983   0.009927  -0.002832  -0.002854   0.000021
     8  O   -0.051983   0.591635  -0.045367   0.006627   0.000737  -0.000018
     9  H    0.009927  -0.045367  -0.099611  -0.000089  -0.001198  -0.000022
    10  C   -0.002832   0.006627  -0.000089  -0.214373   0.005499  -0.001416
    11  C   -0.002854   0.000737  -0.001198   0.005499   0.327373   0.003105
    12  H    0.000021  -0.000018  -0.000022  -0.001416   0.003105  -0.012062
    13  C   -0.000643   0.005483  -0.002393   0.005934   0.000312   0.000004
    14  H   -0.000045   0.000708  -0.000479  -0.000238  -0.000066  -0.000001
    15  H    0.000050  -0.000491   0.000334   0.000476   0.001015  -0.000000
    16  H   -0.000164   0.000730  -0.000157   0.000150  -0.000232   0.000001
              13         14         15         16
     1  C   -0.025793  -0.003336  -0.009939  -0.002847
     2  H    0.002783   0.000488  -0.001369   0.000068
     3  C   -0.000173  -0.000012   0.000028  -0.000121
     4  H    0.000952   0.000105  -0.000198   0.000770
     5  H   -0.000008  -0.000000  -0.000000  -0.000003
     6  H   -0.000157  -0.000025   0.000014  -0.000101
     7  O   -0.000643  -0.000045   0.000050  -0.000164
     8  O    0.005483   0.000708  -0.000491   0.000730
     9  H   -0.002393  -0.000479   0.000334  -0.000157
    10  C    0.005934  -0.000238   0.000476   0.000150
    11  C    0.000312  -0.000066   0.001015  -0.000232
    12  H    0.000004  -0.000001  -0.000000   0.000001
    13  C   -0.022403   0.004261   0.004592   0.002642
    14  H    0.004261   0.003904  -0.002530   0.000511
    15  H    0.004592  -0.002530   0.036770  -0.003010
    16  H    0.002642   0.000511  -0.003010   0.004945
 Mulliken charges and spin densities:
               1          2
     1  C   -0.182419   0.492015
     2  H    0.140142  -0.011910
     3  C   -0.065337  -0.007785
     4  H    0.075592   0.004717
     5  H    0.097869  -0.000966
     6  H    0.094612   0.001674
     7  O   -0.170161   0.056359
     8  O   -0.221626   0.441277
     9  H    0.211230  -0.083092
    10  C   -0.010811  -0.211026
    11  C   -0.190223   0.321637
    12  H    0.169496  -0.010460
    13  C   -0.277902  -0.024609
    14  H    0.110933   0.003245
    15  H    0.110500   0.025742
    16  H    0.108105   0.003182
 Sum of Mulliken charges =  -0.00000   1.00000
 Mulliken charges and spin densities with hydrogens summed into heavy atoms:
               1          2
     1  C   -0.042277   0.480105
     3  C    0.202737  -0.002360
     7  O   -0.170161   0.056359
     8  O   -0.010397   0.358185
    10  C   -0.010811  -0.211026
    11  C   -0.020728   0.311177
    13  C    0.051637   0.007560
 Electronic spatial extent (au):  <R**2>=            976.9278
 Charge=              0.0000 electrons
 Dipole moment (field-independent basis, Debye):
    X=             -1.1340    Y=              1.5960    Z=              1.3182  Tot=              2.3602
 Quadrupole moment (field-independent basis, Debye-Ang):
   XX=            -44.0651   YY=            -44.1217   ZZ=            -38.4602
   XY=              2.4344   XZ=              3.0793   YZ=             -4.4927
 Traceless Quadrupole moment (field-independent basis, Debye-Ang):
   XX=             -1.8494   YY=             -1.9061   ZZ=              3.7555
   XY=              2.4344   XZ=              3.0793   YZ=             -4.4927
 Octapole moment (field-independent basis, Debye-Ang**2):
  XXX=              2.7413  YYY=             15.9413  ZZZ=             31.8154  XYY=             -5.2458
  XXY=              1.9742  XXZ=             23.4771  XZZ=             -5.7104  YZZ=              0.6880
  YYZ=             13.7307  XYZ=              2.6020
 Hexadecapole moment (field-independent basis, Debye-Ang**3):
 XXXX=           -612.3322 YYYY=           -353.6402 ZZZZ=           -309.3687 XXXY=             71.1286
 XXXZ=            -39.1054 YYYX=             64.9090 YYYZ=             71.9860 ZZZX=            -33.1123
 ZZZY=             68.1199 XXYY=           -156.9342 XXZZ=           -142.3554 YYZZ=           -102.5960
 XXYZ=              7.0897 YYXZ=            -15.5848 ZZXY=             27.2724
 N-N= 2.911647234109D+02 E-N=-1.390886301984D+03  KE= 3.440661748168D+02
                          Isotropic Fermi Contact Couplings
        Atom                 a.u.       MegaHertz       Gauss      10(-4) cm-1
     1  C(13)              0.07884      88.63461      31.62703      29.56532
     2  H(1)              -0.00280     -12.49952      -4.46014      -4.16939
     3  C(13)             -0.00503      -5.65344      -2.01729      -1.88578
     4  H(1)               0.00248      11.07813       3.95295       3.69527
     5  H(1)              -0.00012      -0.51746      -0.18464      -0.17261
     6  H(1)               0.00090       4.00809       1.43019       1.33695
     7  O(17)              0.02200     -13.33782      -4.75927      -4.44902
     8  O(17)              0.02850     -17.27907      -6.16560      -5.76368
     9  H(1)              -0.02163     -96.69671     -34.50379     -32.25455
    10  C(13)             -0.01277     -14.36098      -5.12435      -4.79031
    11  C(13)              0.00059       0.66478       0.23721       0.22175
    12  H(1)              -0.00277     -12.37724      -4.41651      -4.12860
    13  C(13)             -0.00883      -9.92647      -3.54201      -3.31111
    14  H(1)               0.00264      11.79507       4.20877       3.93441
    15  H(1)               0.01275      57.01006      20.34261      19.01651
    16  H(1)               0.00154       6.90588       2.46419       2.30355
 --------------------------------------------------------
       Center         ----  Spin Dipole Couplings  ----
                      3XX-RR        3YY-RR        3ZZ-RR
 --------------------------------------------------------
     1   Atom        0.456202     -0.185952     -0.270250
     2   Atom       -0.001243     -0.021349      0.022592
     3   Atom       -0.005077     -0.004014      0.009091
     4   Atom       -0.003234     -0.003369      0.006603
     5   Atom       -0.002259     -0.004254      0.006513
     6   Atom       -0.000329     -0.003594      0.003923
     7   Atom        0.537323     -0.230028     -0.307295
     8   Atom        1.651611     -0.760010     -0.891601
     9   Atom        0.159687     -0.061900     -0.097787
    10   Atom       -0.021166     -0.001075      0.022241
    11   Atom        0.146689     -0.053432     -0.093256
    12   Atom        0.003346     -0.005989      0.002643
    13   Atom       -0.002226      0.015330     -0.013104
    14   Atom       -0.003485      0.007633     -0.004148
    15   Atom        0.000538      0.004770     -0.005308
    16   Atom       -0.003786      0.006284     -0.002498
 --------------------------------------------------------
                        XY            XZ            YZ
 --------------------------------------------------------
     1   Atom       -0.260137      0.075921     -0.025123
     2   Atom       -0.006031      0.015154      0.020662
     3   Atom        0.000513      0.004660      0.002485
     4   Atom       -0.000025      0.000472      0.004455
     5   Atom       -0.000539      0.002339     -0.001093
     6   Atom        0.002117      0.006303      0.002601
     7   Atom       -0.293230     -0.011339      0.031693
     8   Atom       -0.613425     -0.251597      0.064227
     9   Atom       -0.104717      0.029952     -0.013926
    10   Atom        0.028679     -0.030106     -0.006102
    11   Atom       -0.128028      0.065158     -0.041915
    12   Atom        0.000745     -0.007636     -0.012732
    13   Atom       -0.012897     -0.000314      0.000605
    14   Atom        0.002363     -0.000780     -0.005524
    15   Atom       -0.004184      0.001350     -0.000610
    16   Atom       -0.000187      0.000402      0.006037
 --------------------------------------------------------


 ---------------------------------------------------------------------------------
              Anisotropic Spin Dipole Couplings in Principal Axis System
 ---------------------------------------------------------------------------------

       Atom             a.u.   MegaHertz   Gauss  10(-4) cm-1        Axes

              Baa    -0.2797   -37.535   -13.393   -12.520 -0.3033 -0.6563  0.6908
     1 C(13)  Bbb    -0.2764   -37.088   -13.234   -12.371  0.1663  0.6774  0.7166
              Bcc     0.5561    74.623    26.627    24.891  0.9383 -0.3322  0.0963
 
              Baa    -0.0337   -17.969    -6.412    -5.994  0.3462  0.8466 -0.4041
     2 H(1)   Bbb    -0.0012    -0.651    -0.232    -0.217  0.8792 -0.4431 -0.1750
              Bcc     0.0349    18.620     6.644     6.211  0.3273  0.2947  0.8978
 
              Baa    -0.0065    -0.872    -0.311    -0.291  0.9481  0.1045 -0.3002
     3 C(13)  Bbb    -0.0044    -0.593    -0.212    -0.198 -0.1489  0.9804 -0.1290
              Bcc     0.0109     1.465     0.523     0.489  0.2808  0.1670  0.9451
 
              Baa    -0.0051    -2.715    -0.969    -0.906  0.1035  0.9281 -0.3578
     4 H(1)   Bbb    -0.0032    -1.724    -0.615    -0.575  0.9939 -0.1100  0.0021
              Bcc     0.0083     4.439     1.584     1.481  0.0374  0.3558  0.9338
 
              Baa    -0.0044    -2.358    -0.841    -0.787  0.1805  0.9818  0.0596
     5 H(1)   Bbb    -0.0028    -1.495    -0.534    -0.499  0.9529 -0.1595 -0.2580
              Bcc     0.0072     3.853     1.375     1.285  0.2438 -0.1033  0.9643
 
              Baa    -0.0049    -2.634    -0.940    -0.879  0.8048 -0.3704 -0.4638
     6 H(1)   Bbb    -0.0044    -2.337    -0.834    -0.780  0.1741  0.8943 -0.4122
              Bcc     0.0093     4.971     1.774     1.658  0.5675  0.2510  0.7842
 
              Baa    -0.3470    25.108     8.959     8.375  0.2548  0.7899 -0.5579
     7 O(17)  Bbb    -0.2900    20.986     7.488     7.000  0.1966  0.5226  0.8296
              Bcc     0.6370   -46.094   -16.447   -15.375  0.9468 -0.3210 -0.0221
 
              Baa    -0.9178    66.409    23.696    22.152  0.0095 -0.3453  0.9385
     8 O(17)  Bbb    -0.9057    65.538    23.386    21.861  0.2508  0.9093  0.3320
              Bcc     1.8235  -131.947   -47.082   -44.013  0.9680 -0.2322 -0.0952
 
              Baa    -0.1046   -55.821   -19.918   -18.620  0.2712  0.8259  0.4944
     9 H(1)   Bbb    -0.1003   -53.523   -19.098   -17.853 -0.2714 -0.4272  0.8625
              Bcc     0.2049   109.344    39.017    36.473  0.9235 -0.3681  0.1083
 
              Baa    -0.0485    -6.507    -2.322    -2.170  0.8299 -0.4616  0.3134
    10 C(13)  Bbb     0.0025     0.330     0.118     0.110  0.2197  0.7867  0.5770
              Bcc     0.0460     6.177     2.204     2.060 -0.5129 -0.4100  0.7542
 
              Baa    -0.1229   -16.492    -5.885    -5.501  0.2176  0.7660  0.6049
    11 C(13)  Bbb    -0.1047   -14.048    -5.013    -4.686 -0.4399 -0.4763  0.7613
              Bcc     0.2276    30.539    10.897    10.187  0.8713 -0.4318  0.2334
 
              Baa    -0.0160    -8.511    -3.037    -2.839  0.2119  0.7636  0.6099
    12 H(1)   Bbb     0.0004     0.222     0.079     0.074  0.8442 -0.4574  0.2794
              Bcc     0.0155     8.289     2.958     2.765 -0.4924 -0.4557  0.7416
 
              Baa    -0.0131    -1.760    -0.628    -0.587  0.0079 -0.0177  0.9998
    13 C(13)  Bbb    -0.0090    -1.214    -0.433    -0.405  0.8839  0.4676  0.0013
              Bcc     0.0222     2.974     1.061     0.992 -0.4675  0.8838  0.0193
 
              Baa    -0.0063    -3.383    -1.207    -1.129 -0.0581  0.3755  0.9250
    14 H(1)   Bbb    -0.0039    -2.095    -0.747    -0.699  0.9824 -0.1435  0.1200
              Bcc     0.0103     5.478     1.955     1.827  0.1778  0.9157 -0.3605
 
              Baa    -0.0056    -2.997    -1.069    -1.000 -0.2397 -0.0396  0.9700
    15 H(1)   Bbb    -0.0018    -0.984    -0.351    -0.328  0.8144  0.5357  0.2231
              Bcc     0.0075     3.981     1.421     1.328 -0.5285  0.8435 -0.0962
 
              Baa    -0.0057    -3.028    -1.081    -1.010 -0.2284 -0.4416  0.8677
    16 H(1)   Bbb    -0.0037    -1.965    -0.701    -0.655  0.9736 -0.1047  0.2030
              Bcc     0.0094     4.993     1.782     1.665  0.0012  0.8911  0.4538
 

 ---------------------------------------------------------------------------------

 1\1\GINC-N168\Scan\UB2PLYPD3-FC\CC-pVTZ\C5H9O2(2)\ROOT\21-Jun-2019\0\\
 # opt=(calcfc,ts,noeigentest,maxcyc=500,modredundant) uB2PLYPD3/cc-pvt
 z scf=maxcyc=500 nosymm\\Title Card Required\\0,2\C,-0.8255199052,0.39
 7015742,-1.2818562781\H,-1.1194189223,0.0315810613,-2.2635127897\C,1.8
 117205251,-0.5700561068,1.1807536151\H,1.0687471646,0.2058136937,1.360
 7433395\H,1.8120464438,-1.2801742698,2.004439388\H,2.798772786,-0.1282
 640667,1.0584121471\O,1.4675874646,-1.3349775433,0.0287113828\O,1.5327
 704161,-0.4999162236,-1.083831265\H,0.4102861345,-0.0856544697,-1.2086
 762094\C,-1.475862832,-0.273200229,-0.2147308198\C,-1.965148951,-0.861
 557095,0.7236307328\H,-2.4152938267,-1.379345135,1.5316632781\C,-0.680
 6968814,1.9010944065,-1.1866481706\H,0.0215019733,2.2660768818,-1.9334
 90824\H,-1.6411290582,2.3915106034,-1.3566246413\H,-0.3263355311,2.195
 75075,-0.2014788857\\Version=ES64L-G16RevB.01\HF=-345.5760747,-345.575
 9539,-345.5758911,-345.5750949,-345.5741926,-345.573405,-345.5729722,-
 345.573038,-345.5735899,-345.5744566,-345.5753771,-345.5761062,-345.57
 64735,-345.5763985,-345.5758993,-345.5750914,-345.574169,-345.5733769,
 -345.5729602,-345.5730576,-345.5736398,-345.5745153,-345.5754261,-345.
 5761326,-345.5764791,-345.5763963,-345.5759074,-345.5751137,-345.57420
 61,-345.5734104,-345.5729713,-345.5730443,-345.5736156,-345.5745006,-3
 45.5754251,-345.5761407,-345.5764821\MP2=-346.0100319,-346.0098342,-34
 6.0108648,-346.0101499,-346.0093344,-346.008626,-346.0082358,-346.0082
 959,-346.0087924,-346.0095672,-346.0103929,-346.0110522,-346.0113876,-
 346.0113235,-346.0108748,-346.0101455,-346.0093128,-346.0086012,-346.0
 082271,-346.0083155,-346.0088348,-346.0096174,-346.0104345,-346.011074
 8,-346.0113915,-346.0113209,-346.0108819,-346.0101709,-346.0093506,-34
 6.0086341,-346.008237,-346.0082976,-346.0088037,-346.0095933,-346.0104
 274,-346.0110786,-346.011394\PUHF=-345.5843264,-345.5841964,-345.58430
 72,-345.5835051,-345.5826063,-345.5818353,-345.5814284,-345.5815242,-3
 45.5820997,-345.582974,-345.5838845,-345.5845902,-345.5849281,-345.584
 8254,-345.5843069,-345.5834903,-345.5825772,-345.5818057,-345.5814187,
 -345.5815439,-345.5821437,-345.5830225,-345.5839231,-345.5846104,-345.
 5849318,-345.5848233,-345.5843133,-345.5835074,-345.582604,-345.581829
 2,-345.5814245,-345.5815336,-345.5821279,-345.5830162,-345.583926,-345
 .5846175,-345.5849335\PMP2-0=-346.0110672,-346.0108667,-346.0119345,-3
 46.0112177,-346.0104026,-346.0096978,-346.0093134,-346.0093802,-346.00
 98822,-346.0106592,-346.0114832,-346.0121377,-346.0124667,-346.0123961
 ,-346.0119426,-346.0112107,-346.0103796,-346.0096725,-346.0093051,-346
 .0094,-346.0099236,-346.0107074,-346.0115226,-346.012159,-346.0124701,
 -346.0123936,-346.0119495,-346.0112355,-346.0104158,-346.0097036,-346.
 009314,-346.0093825,-346.0098939,-346.0106847,-346.0115162,-346.012162
 5,-346.0124723\S2=0.787664,0.78749,0.789556,0.789456,0.789474,0.789655
 ,0.789955,0.790305,0.790595,0.790709,0.790627,0.790378,0.790048,0.7897
 13,0.789462,0.789322,0.789405,0.78963,0.789978,0.790319,0.79055,0.7906
 18,0.790524,0.790316,0.790025,0.789715,0.789454,0.789295,0.789323,0.78
 9546,0.789925,0.790334,0.790611,0.790685,0.790554,0.790301,0.79001\S2-
 1=0.746737,0.746696,0.747023,0.746992,0.746989,0.747024,0.747089,0.747
 164,0.747232,0.747263,0.747256,0.747208,0.74714,0.747064,0.747002,0.74
 6962,0.746972,0.747017,0.747093,0.74717,0.747225,0.747248,0.747235,0.7
 47196,0.747135,0.747065,0.747004,0.746965,0.746964,0.747007,0.747084,0
 .747169,0.747231,0.747255,0.747238,0.747192,0.747132\S2A=0.750946,0.75
 0939,0.751052,0.751047,0.751048,0.751055,0.751066,0.75108,0.751092,0.7
 51097,0.751094,0.751084,0.751071,0.751058,0.751047,0.751041,0.751045,0
 .751053,0.751067,0.751081,0.75109,0.751093,0.751089,0.751082,0.75107,0
 .751058,0.751047,0.75104,0.751041,0.75105,0.751065,0.751082,0.751093,0
 .751096,0.751091,0.751081,0.75107\RMSD=4.267e-09,9.247e-09,8.689e-09,5
 .816e-09,9.124e-09,8.155e-09,8.483e-09,7.502e-09,7.348e-09,9.590e-09,5
 .855e-09,7.113e-09,5.743e-09,9.967e-09,4.469e-09,7.462e-09,7.915e-09,7
 .256e-09,7.650e-09,7.005e-09,9.359e-09,8.764e-09,5.652e-09,3.980e-09,6
 .531e-09,4.560e-09,5.231e-09,9.873e-09,5.651e-09,2.940e-09,7.135e-09,5
 .937e-09,6.478e-09,9.089e-09,5.292e-09,6.863e-09,7.482e-09\PG=C01 [X(C
 5H9O2)]\\@


 I DO NOT DEFINE TIME, SPACE, PLACE, AND MOTION, AS BEING WELL KNOWN TO ALL.
                                            -- NEWTON (1642-1726), PRINCIPIA
 Job cpu time:      24 days  9 hours  8 minutes 44.0 seconds.
 Elapsed time:       0 days 20 hours 56 minutes 18.2 seconds.
 File lengths (MBytes):  RWF=  83476 Int=      0 D2E=      0 Chk=     20 Scr=      1
 Normal termination of Gaussian 16 at Fri Jun 21 06:57:42 2019.
