 Entering Gaussian System, Link 0=g16
 Initial command:
 /ichec/packages/gaussian/16b01/l1.exe "/localscratch/341085/Gau-62235.inp" -scrdir="/localscratch/341085/"
 Entering Link 1 = /ichec/packages/gaussian/16b01/l1.exe PID=     63544.
  
 Copyright (c) 1988-2017, Gaussian, Inc.  All Rights Reserved.
  
 This is part of the Gaussian(R) 16 program.  It is based on
 the Gaussian(R) 09 system (copyright 2009, Gaussian, Inc.),
 the Gaussian(R) 03 system (copyright 2003, Gaussian, Inc.),
 the Gaussian(R) 98 system (copyright 1998, Gaussian, Inc.),
 the Gaussian(R) 94 system (copyright 1995, Gaussian, Inc.),
 the Gaussian 92(TM) system (copyright 1992, Gaussian, Inc.),
 the Gaussian 90(TM) system (copyright 1990, Gaussian, Inc.),
 the Gaussian 88(TM) system (copyright 1988, Gaussian, Inc.),
 the Gaussian 86(TM) system (copyright 1986, Carnegie Mellon
 University), and the Gaussian 82(TM) system (copyright 1983,
 Carnegie Mellon University). Gaussian is a federally registered
 trademark of Gaussian, Inc.
  
 This software contains proprietary and confidential information,
 including trade secrets, belonging to Gaussian, Inc.
  
 This software is provided under written license and may be
 used, copied, transmitted, or stored only in accord with that
 written license.
  
 The following legend is applicable only to US Government
 contracts under FAR:
  
                    RESTRICTED RIGHTS LEGEND
  
 Use, reproduction and disclosure by the US Government is
 subject to restrictions as set forth in subparagraphs (a)
 and (c) of the Commercial Computer Software - Restricted
 Rights clause in FAR 52.227-19.
  
 Gaussian, Inc.
 340 Quinnipiac St., Bldg. 40, Wallingford CT 06492
  
  
 ---------------------------------------------------------------
 Warning -- This program may not be used in any manner that
 competes with the business of Gaussian, Inc. or will provide
 assistance to any competitor of Gaussian, Inc.  The licensee
 of this program is prohibited from giving any competitor of
 Gaussian, Inc. access to this program.  By using this program,
 the user acknowledges that Gaussian, Inc. is engaged in the
 business of creating and licensing software in the field of
 computational chemistry and represents and warrants to the
 licensee that it is not a competitor of Gaussian, Inc. and that
 it will not use this program in any manner prohibited above.
 ---------------------------------------------------------------
  

 Cite this work as:
 Gaussian 16, Revision B.01,
 M. J. Frisch, G. W. Trucks, H. B. Schlegel, G. E. Scuseria, 
 M. A. Robb, J. R. Cheeseman, G. Scalmani, V. Barone, 
 G. A. Petersson, H. Nakatsuji, X. Li, M. Caricato, A. V. Marenich, 
 J. Bloino, B. G. Janesko, R. Gomperts, B. Mennucci, H. P. Hratchian, 
 J. V. Ortiz, A. F. Izmaylov, J. L. Sonnenberg, D. Williams-Young, 
 F. Ding, F. Lipparini, F. Egidi, J. Goings, B. Peng, A. Petrone, 
 T. Henderson, D. Ranasinghe, V. G. Zakrzewski, J. Gao, N. Rega, 
 G. Zheng, W. Liang, M. Hada, M. Ehara, K. Toyota, R. Fukuda, 
 J. Hasegawa, M. Ishida, T. Nakajima, Y. Honda, O. Kitao, H. Nakai, 
 T. Vreven, K. Throssell, J. A. Montgomery, Jr., J. E. Peralta, 
 F. Ogliaro, M. J. Bearpark, J. J. Heyd, E. N. Brothers, K. N. Kudin, 
 V. N. Staroverov, T. A. Keith, R. Kobayashi, J. Normand, 
 K. Raghavachari, A. P. Rendell, J. C. Burant, S. S. Iyengar, 
 J. Tomasi, M. Cossi, J. M. Millam, M. Klene, C. Adamo, R. Cammi, 
 J. W. Ochterski, R. L. Martin, K. Morokuma, O. Farkas, 
 J. B. Foresman, and D. J. Fox, Gaussian, Inc., Wallingford CT, 2016.
 
 ******************************************
 Gaussian 16:  ES64L-G16RevB.01 20-Dec-2017
                 6-Jun-2019 
 ******************************************
 %mem=80GB
 %nproc=40
 Will use up to   40 processors via shared memory.
 ----------------------------------------------------------------------
 # opt=(calcfc,ts,noeigentest,maxcyc=500) freq=noraman uB2PLYPD3/cc-pvt
 z
 ----------------------------------------------------------------------
 1/5=1,6=500,10=4,11=1,18=20,38=1/1,3;
 2/9=110,12=2,17=6,18=5,40=1/2;
 3/5=16,6=1,11=2,25=1,30=1,71=2,74=-60,116=2,140=1/1,2,3;
 4//1;
 5/5=2,38=5/2;
 8/6=3,8=1,10=1,19=11,30=-1/1;
 9/15=3,16=-3/6;
 11/6=1,8=1,15=11,17=12,24=-1,27=1,28=-2,29=300,32=6,42=3/1,2,10;
 10/6=2,21=1/2;
 8/6=4,8=1,10=1,19=11,30=-1/11,4;
 10/5=1,20=4/2;
 11/12=2,14=11,16=1,17=2,28=-2,42=3,76=2/2,10,12;
 6/7=2,8=2,9=2,10=2/1;
 7/10=1,12=2,25=1,44=2/1,2,3,16;
 1/5=1,6=500,10=4,11=1,18=20/3(2);
 2/9=110/2;
 99//99;
 2/9=110/2;
 3/5=16,6=1,11=2,25=1,30=1,71=1,74=-60,116=2/1,2,3;
 4/5=5,16=3,69=1/1;
 5/5=2,38=5/2;
 8/6=4,10=1/1;
 9/15=2,16=-3/6;
 10/5=1/2;
 7/12=2/1,2,3,16;
 1/5=1,6=500,11=1,18=20/3(-8);
 2/9=110/2;
 6/7=2,8=2,9=2,10=2/1;
 99/9=10/99;
 -------------------
 Title Card Required
 -------------------
 Symbolic Z-matrix:
 Charge =  0 Multiplicity = 2
 C                     0.00833  -1.82342  -0.33932 
 H                     0.16982  -2.78108   0.14673 
 H                    -0.03742  -1.89178  -1.42288 
 C                     1.45103   1.48918  -0.50646 
 H                     0.85856   1.0265   -1.29774 
 H                     0.96727   2.40103  -0.16125 
 H                     2.45534   1.70359  -0.87142 
 O                     1.51436   0.63293   0.61917 
 O                     2.11311  -0.53546   0.23995 
 H                     1.14385  -1.24356  -0.09394 
 C                    -0.96234  -0.94394   0.27805 
 C                    -1.70311  -0.04621  -0.38877 
 H                    -1.05112  -0.9842    1.35925 
 H                    -1.61006  -0.00219  -1.47103 
 C                    -2.65838   0.90776   0.2449 
 H                    -2.3792    1.9408    0.02387 
 H                    -3.67013   0.76775  -0.14113 
 H                    -2.67989   0.78316   1.32619 
 
 Add virtual bond connecting atoms H10        and O9         Dist= 2.35D+00.

 GradGradGradGradGradGradGradGradGradGradGradGradGradGradGradGradGradGrad
 Berny optimization.
 Initialization pass.
                           ----------------------------
                           !    Initial Parameters    !
                           ! (Angstroms and Degrees)  !
 --------------------------                            --------------------------
 ! Name  Definition              Value          Derivative Info.                !
 --------------------------------------------------------------------------------
 ! R1    R(1,2)                  1.086          calculate D2E/DX2 analytically  !
 ! R2    R(1,3)                  1.0867         calculate D2E/DX2 analytically  !
 ! R3    R(1,10)                 1.2984         calculate D2E/DX2 analytically  !
 ! R4    R(1,11)                 1.448          calculate D2E/DX2 analytically  !
 ! R5    R(4,5)                  1.0914         calculate D2E/DX2 analytically  !
 ! R6    R(4,6)                  1.0884         calculate D2E/DX2 analytically  !
 ! R7    R(4,7)                  1.0899         calculate D2E/DX2 analytically  !
 ! R8    R(4,8)                  1.4157         calculate D2E/DX2 analytically  !
 ! R9    R(8,9)                  1.3666         calculate D2E/DX2 analytically  !
 ! R10   R(9,10)                 1.2459         calculate D2E/DX2 analytically  !
 ! R11   R(11,12)                1.3414         calculate D2E/DX2 analytically  !
 ! R12   R(11,13)                1.0856         calculate D2E/DX2 analytically  !
 ! R13   R(12,14)                1.0871         calculate D2E/DX2 analytically  !
 ! R14   R(12,15)                1.4914         calculate D2E/DX2 analytically  !
 ! R15   R(15,16)                1.0927         calculate D2E/DX2 analytically  !
 ! R16   R(15,17)                1.0919         calculate D2E/DX2 analytically  !
 ! R17   R(15,18)                1.0887         calculate D2E/DX2 analytically  !
 ! A1    A(2,1,3)              113.3945         calculate D2E/DX2 analytically  !
 ! A2    A(2,1,10)             100.3224         calculate D2E/DX2 analytically  !
 ! A3    A(2,1,11)             116.3873         calculate D2E/DX2 analytically  !
 ! A4    A(3,1,10)             104.6766         calculate D2E/DX2 analytically  !
 ! A5    A(3,1,11)             115.7917         calculate D2E/DX2 analytically  !
 ! A6    A(10,1,11)            103.5578         calculate D2E/DX2 analytically  !
 ! A7    A(5,4,6)              110.1095         calculate D2E/DX2 analytically  !
 ! A8    A(5,4,7)              109.928          calculate D2E/DX2 analytically  !
 ! A9    A(5,4,8)              110.1412         calculate D2E/DX2 analytically  !
 ! A10   A(6,4,7)              110.5463         calculate D2E/DX2 analytically  !
 ! A11   A(6,4,8)              105.9268         calculate D2E/DX2 analytically  !
 ! A12   A(7,4,8)              110.1223         calculate D2E/DX2 analytically  !
 ! A13   A(4,8,9)              108.4255         calculate D2E/DX2 analytically  !
 ! A14   A(8,9,10)             102.6754         calculate D2E/DX2 analytically  !
 ! A15   A(1,11,12)            124.3833         calculate D2E/DX2 analytically  !
 ! A16   A(1,11,13)            117.1882         calculate D2E/DX2 analytically  !
 ! A17   A(12,11,13)           118.3439         calculate D2E/DX2 analytically  !
 ! A18   A(11,12,14)           118.3404         calculate D2E/DX2 analytically  !
 ! A19   A(11,12,15)           124.793          calculate D2E/DX2 analytically  !
 ! A20   A(14,12,15)           116.8665         calculate D2E/DX2 analytically  !
 ! A21   A(12,15,16)           110.802          calculate D2E/DX2 analytically  !
 ! A22   A(12,15,17)           111.1784         calculate D2E/DX2 analytically  !
 ! A23   A(12,15,18)           111.1903         calculate D2E/DX2 analytically  !
 ! A24   A(16,15,17)           106.6458         calculate D2E/DX2 analytically  !
 ! A25   A(16,15,18)           108.3106         calculate D2E/DX2 analytically  !
 ! A26   A(17,15,18)           108.552          calculate D2E/DX2 analytically  !
 ! A27   L(1,10,9,5,-1)        175.2211         calculate D2E/DX2 analytically  !
 ! A28   L(1,10,9,5,-2)        170.9266         calculate D2E/DX2 analytically  !
 ! D1    D(2,1,9,8)           -133.5018         calculate D2E/DX2 analytically  !
 ! D2    D(3,1,9,8)            106.7265         calculate D2E/DX2 analytically  !
 ! D3    D(11,1,9,8)           -13.7768         calculate D2E/DX2 analytically  !
 ! D4    D(2,1,11,12)         -150.5513         calculate D2E/DX2 analytically  !
 ! D5    D(2,1,11,13)           32.8575         calculate D2E/DX2 analytically  !
 ! D6    D(3,1,11,12)          -13.4945         calculate D2E/DX2 analytically  !
 ! D7    D(3,1,11,13)          169.9143         calculate D2E/DX2 analytically  !
 ! D8    D(10,1,11,12)         100.4589         calculate D2E/DX2 analytically  !
 ! D9    D(10,1,11,13)         -76.1323         calculate D2E/DX2 analytically  !
 ! D10   D(5,4,8,9)             60.7942         calculate D2E/DX2 analytically  !
 ! D11   D(6,4,8,9)            179.8388         calculate D2E/DX2 analytically  !
 ! D12   D(7,4,8,9)            -60.6065         calculate D2E/DX2 analytically  !
 ! D13   D(4,8,9,10)           -91.6417         calculate D2E/DX2 analytically  !
 ! D14   D(1,11,12,14)           3.111          calculate D2E/DX2 analytically  !
 ! D15   D(1,11,12,15)        -176.9797         calculate D2E/DX2 analytically  !
 ! D16   D(13,11,12,14)        179.6658         calculate D2E/DX2 analytically  !
 ! D17   D(13,11,12,15)         -0.4249         calculate D2E/DX2 analytically  !
 ! D18   D(11,12,15,16)        120.4919         calculate D2E/DX2 analytically  !
 ! D19   D(11,12,15,17)       -121.0957         calculate D2E/DX2 analytically  !
 ! D20   D(11,12,15,18)         -0.0208         calculate D2E/DX2 analytically  !
 ! D21   D(14,12,15,16)        -59.5977         calculate D2E/DX2 analytically  !
 ! D22   D(14,12,15,17)         58.8148         calculate D2E/DX2 analytically  !
 ! D23   D(14,12,15,18)        179.8897         calculate D2E/DX2 analytically  !
 --------------------------------------------------------------------------------
 Trust Radius=3.00D-01 FncErr=1.00D-07 GrdErr=1.00D-07 EigMax=2.50D+02 EigMin=1.00D-04
 Number of steps in this run=    108 maximum allowed number of steps=    108.
 Search for a saddle point of order  1.
 GradGradGradGradGradGradGradGradGradGradGradGradGradGradGradGradGradGrad

                          Input orientation:                          
 ---------------------------------------------------------------------
 Center     Atomic      Atomic             Coordinates (Angstroms)
 Number     Number       Type             X           Y           Z
 ---------------------------------------------------------------------
      1          6           0        0.008333   -1.823421   -0.339318
      2          1           0        0.169819   -2.781083    0.146734
      3          1           0       -0.037424   -1.891780   -1.422884
      4          6           0        1.451032    1.489179   -0.506456
      5          1           0        0.858561    1.026504   -1.297740
      6          1           0        0.967274    2.401025   -0.161253
      7          1           0        2.455344    1.703587   -0.871424
      8          8           0        1.514356    0.632931    0.619173
      9          8           0        2.113114   -0.535460    0.239946
     10          1           0        1.143854   -1.243561   -0.093936
     11          6           0       -0.962340   -0.943943    0.278046
     12          6           0       -1.703111   -0.046208   -0.388773
     13          1           0       -1.051115   -0.984202    1.359245
     14          1           0       -1.610061   -0.002190   -1.471027
     15          6           0       -2.658380    0.907764    0.244901
     16          1           0       -2.379198    1.940795    0.023868
     17          1           0       -3.670130    0.767753   -0.141134
     18          1           0       -2.679890    0.783164    1.326194
 ---------------------------------------------------------------------
                    Distance matrix (angstroms):
                    1          2          3          4          5
     1  C    0.000000
     2  H    1.086021   0.000000
     3  H    1.086684   1.815905   0.000000
     4  C    3.616992   4.505918   3.806077   0.000000
     5  H    3.124665   4.130205   3.055296   1.091430   0.000000
     6  H    4.335576   5.252146   4.585772   1.088416   1.786821
     7  H    4.325596   5.135420   4.409610   1.089869   1.786030
     8  O    3.036524   3.699523   3.598914   1.415702   2.063861
     9  O    2.534658   2.971179   3.037996   2.257129   2.525493
    10  H    1.298406   1.835930   1.892540   2.780719   2.585291
    11  C    1.448042   2.161969   2.155697   3.515664   3.111502
    12  C    2.467787   3.357704   2.692589   3.509969   2.922173
    13  H    2.170676   2.487900   3.097016   3.982360   3.840491
    14  H    2.686419   3.675237   2.458873   3.539049   2.679988
    15  C    3.861611   4.649294   4.181909   4.217801   3.842228
    16  H    4.472307   5.367375   4.718647   3.893053   3.614645
    17  H    4.503837   5.236632   4.681084   5.184613   4.681210
    18  H    4.098141   4.713367   4.657830   4.574011   4.411902
                    6          7          8          9         10
     6  H    0.000000
     7  H    1.790283   0.000000
     8  O    2.008611   2.062436   0.000000
     9  O    3.177555   2.523013   1.366551   0.000000
    10  H    3.649482   3.318158   2.041328   1.245933   0.000000
    11  C    3.886541   4.473395   2.955829   3.102697   2.159675
    12  C    3.629280   4.537343   3.439372   3.898491   3.102546
    13  H    4.224402   4.949278   3.121613   3.386229   2.645164
    14  H    3.759469   4.449350   3.812387   4.132050   3.319854
    15  C    3.942101   5.294307   4.198492   4.984985   4.381780
    16  H    3.383040   4.922460   4.150260   5.134140   4.750357
    17  H    4.916655   6.239434   5.241673   5.940496   5.217476
    18  H    4.258143   5.661036   4.256072   5.088378   4.554712
                   11         12         13         14         15
    11  C    0.000000
    12  C    1.341386   0.000000
    13  H    1.085584   2.088181   0.000000
    14  H    2.089425   1.087138   3.047492   0.000000
    15  C    2.511268   1.491356   2.721139   2.207124   0.000000
    16  H    3.223943   2.139053   3.478885   2.569333   1.092681
    17  H    3.230749   2.143134   3.489946   2.570080   1.091908
    18  H    2.651696   2.140810   2.403660   3.096088   1.088661
                   16         17         18
    16  H    0.000000
    17  H    1.752073   0.000000
    18  H    1.768213   1.770272   0.000000
 Stoichiometry    C5H11O2(2)
 Framework group  C1[X(C5H11O2)]
 Deg. of freedom    48
 Full point group                 C1      NOp   1
 Largest Abelian subgroup         C1      NOp   1
 Largest concise Abelian subgroup C1      NOp   1
                         Standard orientation:                         
 ---------------------------------------------------------------------
 Center     Atomic      Atomic             Coordinates (Angstroms)
 Number     Number       Type             X           Y           Z
 ---------------------------------------------------------------------
      1          6           0        0.008333    1.823421    0.339318
      2          1           0        0.169819    2.781083   -0.146734
      3          1           0       -0.037424    1.891780    1.422884
      4          6           0        1.451032   -1.489179    0.506456
      5          1           0        0.858561   -1.026504    1.297740
      6          1           0        0.967274   -2.401025    0.161253
      7          1           0        2.455344   -1.703587    0.871424
      8          8           0        1.514356   -0.632931   -0.619173
      9          8           0        2.113114    0.535460   -0.239946
     10          1           0        1.143854    1.243561    0.093936
     11          6           0       -0.962340    0.943943   -0.278046
     12          6           0       -1.703111    0.046208    0.388773
     13          1           0       -1.051115    0.984202   -1.359245
     14          1           0       -1.610061    0.002190    1.471027
     15          6           0       -2.658380   -0.907764   -0.244901
     16          1           0       -2.379198   -1.940795   -0.023868
     17          1           0       -3.670130   -0.767753    0.141134
     18          1           0       -2.679890   -0.783164   -1.326194
 ---------------------------------------------------------------------
 Rotational constants (GHZ):           3.3254719           1.5385874           1.1751189
 Standard basis: CC-pVTZ (5D, 7F)
 There are   410 symmetry adapted cartesian basis functions of A   symmetry.
 There are   364 symmetry adapted basis functions of A   symmetry.
   364 basis functions,   551 primitive gaussians,   410 cartesian basis functions
    29 alpha electrons       28 beta electrons
       nuclear repulsion energy       311.6179260615 Hartrees.
 NAtoms=   18 NActive=   18 NUniq=   18 SFac= 1.00D+00 NAtFMM=   60 NAOKFM=F Big=F
 Integral buffers will be    131072 words long.
 Raffenetti 2 integral format.
 Two-electron integral symmetry is turned on.
 Nuclear repulsion after empirical dispersion term =      311.6079145671 Hartrees.
 One-electron integrals computed using PRISM.
 NBasis=   364 RedAO= T EigKep=  2.60D-04  NBF=   364
 NBsUse=   364 1.00D-06 EigRej= -1.00D+00 NBFU=   364
 ExpMin= 1.03D-01 ExpMax= 1.53D+04 ExpMxC= 5.22D+02 IAcc=3 IRadAn=         5 AccDes= 0.00D+00
 Harris functional with IExCor=  419 and IRadAn=       5 diagonalized for initial guess.
 HarFok:  IExCor=  419 AccDes= 0.00D+00 IRadAn=         5 IDoV= 1 UseB2=F ITyADJ=14
 ICtDFT=  3500011 ScaDFX=  1.000000  1.000000  1.000000  1.000000
 FoFCou: FMM=F IPFlag=           0 FMFlag=      100000 FMFlg1=           0
         NFxFlg=           0 DoJE=T BraDBF=F KetDBF=T FulRan=T
         wScrn=  0.000000 ICntrl=       500 IOpCl=  0 I1Cent=   200000004 NGrid=           0
         NMat0=    1 NMatS0=      1 NMatT0=    0 NMatD0=    1 NMtDS0=    0 NMtDT0=    0
 Petite list used in FoFCou.
 Initial guess <Sx>= 0.0000 <Sy>= 0.0000 <Sz>= 0.5000 <S**2>= 0.7500 S= 0.5000
 Requested convergence on RMS density matrix=1.00D-08 within 128 cycles.
 Requested convergence on MAX density matrix=1.00D-06.
 Requested convergence on             energy=1.00D-06.
 No special actions if energy rises.
 Integral accuracy reduced to 1.0D-05 until final iterations.
 Initial convergence to 1.0D-05 achieved.  Increase integral accuracy.
 SCF Done:  E(UB2PLYPD3) =  -346.818508284     A.U. after   20 cycles
            NFock= 20  Conv=0.75D-08     -V/T= 2.0041
 <Sx>= 0.0000 <Sy>= 0.0000 <Sz>= 0.5000 <S**2>= 0.8101 S= 0.5296
 <L.S>=  0.00000000000    
 Annihilation of the first spin contaminant:
 S**2 before annihilation     0.8101,   after     0.7517
 DoSCS=T DFT=T ScalE2(SS,OS)=  0.270000  0.270000
 ExpMin= 1.03D-01 ExpMax= 1.53D+04 ExpMxC= 5.22D+02 IAcc=3 IRadAn=         5 AccDes= 0.00D+00
 HarFok:  IExCor=  205 AccDes= 0.00D+00 IRadAn=         5 IDoV=-2 UseB2=F ITyADJ=14
 ICtDFT= 12500011 ScaDFX=  1.000000  1.000000  1.000000  1.000000
 Range of M.O.s used for correlation:     8   364
 NBasis=   364 NAE=    29 NBE=    28 NFC=     7 NFV=     0
 NROrb=    357 NOA=    22 NOB=    21 NVA=   335 NVB=   336

 **** Warning!!: The largest alpha MO coefficient is  0.13902780D+02


 **** Warning!!: The largest beta MO coefficient is  0.16571064D+02

 DoSCS=T DFT=T ScalE2(SS,OS)=  0.270000  0.270000
 Disk-based method using ON**2 memory for 22 occupieds at a time.
 Permanent disk used for amplitudes=   135386230 words.
 Estimated scratch disk usage=  2633303904 words.
 Actual    scratch disk usage=  2546988896 words.
 JobTyp=2 Pass  1:  I=   8 to  29 NPSUse= 40 ParTrn=T ParDer=T DoDerP=T.
 (rs|ai) integrals will be sorted in core.
 Actual    scratch disk usage=  2546988896 words.
 JobTyp=3 Pass  1:  I=   8 to  28 NPSUse= 40 ParTrn=T ParDer=T DoDerP=T.
 (rs|ai) integrals will be sorted in core.
 Spin components of T(2) and E(2):
     alpha-alpha T2 =       0.7495980421D-01 E2=     -0.5349977136D-01
     alpha-beta  T2 =       0.4595181937D+00 E2=     -0.3339378815D+00
     beta-beta   T2 =       0.8495734767D-01 E2=     -0.5353404472D-01
 (S**2,0)=  0.81006D+00           (S**2,1)=  0.75528D+00
 Scaling Projection term by:   0.270000
 E(PUHF)=      -0.34682829996D+03        E(PMP2)=      -0.34726093752D+03
 E2(B2PLYPD3) =    -0.4409716976D+00 E(B2PLYPD3) =    -0.34725947998166D+03
 G2DrvN: will do    19 centers at a time, making    1 passes.
 Calling FoFCou, ICntrl=  3107 FMM=F I1Cent=   0 AccDes= 0.00D+00.
 End of G2Drv F.D. properties file   721 does not exist.
 End of G2Drv F.D. properties file   722 does not exist.
 End of G2Drv F.D. properties file   788 does not exist.
          IDoAtm=111111111111111111
          Differentiating once with respect to electric field.
                with respect to dipole field.
          Differentiating once with respect to nuclear coordinates.
 Keep R1 and R2 ints in memory in canonical form, NReq=4459304624.
          There are    57 degrees of freedom in the 1st order CPHF.  IDoFFX=6 NUNeed=    57.
     54 vectors produced by pass  0 Test12= 3.35D-14 1.75D-09 XBig12= 1.23D+02 8.03D+00.
 AX will form    54 AO Fock derivatives at one time.
     54 vectors produced by pass  1 Test12= 3.35D-14 1.75D-09 XBig12= 1.57D+01 5.38D-01.
     54 vectors produced by pass  2 Test12= 3.35D-14 1.75D-09 XBig12= 1.28D+00 2.17D-01.
     54 vectors produced by pass  3 Test12= 3.35D-14 1.75D-09 XBig12= 1.83D-02 1.83D-02.
     54 vectors produced by pass  4 Test12= 3.35D-14 1.75D-09 XBig12= 2.39D-04 1.76D-03.
     54 vectors produced by pass  5 Test12= 3.35D-14 1.75D-09 XBig12= 2.85D-06 1.75D-04.
     53 vectors produced by pass  6 Test12= 3.35D-14 1.75D-09 XBig12= 2.22D-08 1.23D-05.
     26 vectors produced by pass  7 Test12= 3.35D-14 1.75D-09 XBig12= 1.37D-10 9.32D-07.
      3 vectors produced by pass  8 Test12= 3.35D-14 1.75D-09 XBig12= 8.85D-13 6.86D-08.
      2 vectors produced by pass  9 Test12= 3.35D-14 1.75D-09 XBig12= 6.88D-15 9.86D-09.
 InvSVY:  IOpt=1 It=  1 EMax= 2.52D-15
 Solved reduced A of dimension   408 with    57 vectors.
 End of Minotr F.D. properties file   721 does not exist.
 End of Minotr F.D. properties file   722 does not exist.
 End of Minotr F.D. properties file   788 does not exist.
 MDV= 10737418240.
 DoSCS=T DFT=T ScalE2(SS,OS)=  0.270000  0.270000
 Form MO integral derivatives with frozen-active canonical formalism.
 Discarding MO integrals.
 Reordered first order wavefunction length =    545006183
 In DefCFB: NBatch=  1 ICI= 29 ICA=336 LFMax= 68
            Large arrays: LIAPS= 11415666080 LIARS=  1957569600 words.
 In DefCFB: NBatch=  1 ICI= 29 ICA=336 LFMax= 68
            Large arrays: LIAPS= 11415666080 LIARS=  1957569600 words.
 Semi-Direct transformation.
 ModeAB=           4 MOrb=            29 LenV=   10733541599
 LASXX=    664627481 LTotXX=   664627481 LenRXX=  1338891981
 LTotAB=   674264500 MaxLAS=   814701524 LenRXY=           0
 NonZer=  2003519462 LenScr=  3017065472 LnRSAI=   814701524
 LnScr1=  1226845184 LExtra=           0 Total=   6397504161
 MaxDsk=          -1 SrtSym=           T ITran=            4
 JobTyp=1 Pass  1:  I=   1 to  29.
 (rs|ai) integrals will be sorted in core.
 ModeAB=           4 MOrb=            28 LenV=   10733541599
 LASXX=    642894399 LTotXX=   642894399 LenRXX=  1195226319
 LTotAB=   552331920 MaxLAS=   786608368 LenRXY=           0
 NonZer=  1838120718 LenScr=  2767993856 LnRSAI=   786608368
 LnScr1=  1184540672 LExtra=           0 Total=   5934369215
 MaxDsk=          -1 SrtSym=           T ITran=            4
 JobTyp=2 Pass  1:  I=   1 to  28.
 (rs|ai) integrals will be sorted in core.
 SymMOI:  orbitals are not symmetric.
 DoSCS=T DFT=T ScalE2(SS,OS)=  0.270000  0.270000
 Spin components of T(2) and E(2):
     alpha-alpha T2 =       0.7495980421D-01 E2=     -0.5349977136D-01
     alpha-beta  T2 =       0.4595181937D+00 E2=     -0.3339378815D+00
     beta-beta   T2 =       0.8495734767D-01 E2=     -0.5353404472D-01
 E2(B2PLYPD3) =    -0.4409716976D+00 E(B2PLYPD3) =    -0.34725947998166D+03
 (S**2,0)=  0.81006D+00           (S**2,1)=  0.75528D+00
 Scaling Projection term by:   0.270000
 E(PUHF)=      -0.34682829996D+03        E(PMP2)=      -0.34726093752D+03
          IDoAtm=111111111111111111
          Differentiating once with respect to electric field.
                with respect to dipole field.
          Differentiating once with respect to nuclear coordinates.
 Keep R1 and R2 ints in memory in canonical form, NReq=4459439664.
          There are     1 degrees of freedom in the 1st order CPHF.  IDoFFX=0 NUNeed=     1.
 LinEq1:  Iter=  0 NonCon=     1 RMS=9.17D-04 Max=6.73D-02 NDo=     1
 AX will form     1 AO Fock derivatives at one time.
 LinEq1:  Iter=  1 NonCon=     1 RMS=3.30D-04 Max=1.38D-02 NDo=     1
 LinEq1:  Iter=  2 NonCon=     1 RMS=2.18D-04 Max=8.13D-03 NDo=     1
 LinEq1:  Iter=  3 NonCon=     1 RMS=1.13D-04 Max=3.73D-03 NDo=     1
 LinEq1:  Iter=  4 NonCon=     1 RMS=7.40D-05 Max=3.70D-03 NDo=     1
 LinEq1:  Iter=  5 NonCon=     1 RMS=5.08D-05 Max=3.70D-03 NDo=     1
 LinEq1:  Iter=  6 NonCon=     1 RMS=2.74D-05 Max=9.35D-04 NDo=     1
 LinEq1:  Iter=  7 NonCon=     1 RMS=7.81D-06 Max=2.97D-04 NDo=     1
 LinEq1:  Iter=  8 NonCon=     1 RMS=3.86D-06 Max=2.03D-04 NDo=     1
 LinEq1:  Iter=  9 NonCon=     1 RMS=2.01D-06 Max=6.30D-05 NDo=     1
 LinEq1:  Iter= 10 NonCon=     1 RMS=9.53D-07 Max=2.51D-05 NDo=     1
 LinEq1:  Iter= 11 NonCon=     1 RMS=5.08D-07 Max=1.67D-05 NDo=     1
 LinEq1:  Iter= 12 NonCon=     1 RMS=2.11D-07 Max=3.41D-06 NDo=     1
 LinEq1:  Iter= 13 NonCon=     1 RMS=8.37D-08 Max=1.69D-06 NDo=     1
 LinEq1:  Iter= 14 NonCon=     1 RMS=3.15D-08 Max=7.88D-07 NDo=     1
 LinEq1:  Iter= 15 NonCon=     1 RMS=1.34D-08 Max=4.84D-07 NDo=     1
 LinEq1:  Iter= 16 NonCon=     1 RMS=5.42D-09 Max=1.09D-07 NDo=     1
 LinEq1:  Iter= 17 NonCon=     1 RMS=2.19D-09 Max=7.28D-08 NDo=     1
 LinEq1:  Iter= 18 NonCon=     1 RMS=7.42D-10 Max=4.07D-08 NDo=     1
 LinEq1:  Iter= 19 NonCon=     1 RMS=2.67D-10 Max=1.75D-08 NDo=     1
 LinEq1:  Iter= 20 NonCon=     1 RMS=1.09D-10 Max=7.00D-09 NDo=     1
 LinEq1:  Iter= 21 NonCon=     1 RMS=5.71D-11 Max=2.55D-09 NDo=     1
 LinEq1:  Iter= 22 NonCon=     0 RMS=2.00D-11 Max=5.14D-10 NDo=     1
 Linear equations converged to 1.000D-10 1.000D-09 after    22 iterations.
 End of Minotr F.D. properties file   721 does not exist.
 End of Minotr F.D. properties file   722 does not exist.
 End of Minotr F.D. properties file   788 does not exist.
 Symmetrizing basis deriv contribution to polar:
 IMax=3 JMax=2 DiffMx= 0.00D+00
 G2DrvN: will do    19 centers at a time, making    1 passes.
 Calling FoFCou, ICntrl=  3107 FMM=F I1Cent=   0 AccDes= 0.00D+00.
 End of G2Drv F.D. properties file   721 does not exist.
 End of G2Drv F.D. properties file   722 does not exist.
 End of G2Drv F.D. properties file   788 does not exist.
 DoSCS=T DFT=T ScalE2(SS,OS)=  0.270000  0.270000
 R2 and R3 integrals will be kept in memory, NReq=  7133702340.
 DD1Dir will call FoFMem   1 times, MxPair=      2408
 NAB=   812 NAA=   406 NBB=   378.
 Discarding MO integrals.

 **********************************************************************

            Population analysis using the SCF Density.

 **********************************************************************

 Orbital symmetries:
 Alpha Orbitals:
       Occupied  (A) (A) (A) (A) (A) (A) (A) (A) (A) (A) (A) (A)
                 (A) (A) (A) (A) (A) (A) (A) (A) (A) (A) (A) (A)
                 (A) (A) (A) (A) (A)
       Virtual   (A) (A) (A) (A) (A) (A) (A) (A) (A) (A) (A) (A)
                 (A) (A) (A) (A) (A) (A) (A) (A) (A) (A) (A) (A)
                 (A) (A) (A) (A) (A) (A) (A) (A) (A) (A) (A) (A)
                 (A) (A) (A) (A) (A) (A) (A) (A) (A) (A) (A) (A)
                 (A) (A) (A) (A) (A) (A) (A) (A) (A) (A) (A) (A)
                 (A) (A) (A) (A) (A) (A) (A) (A) (A) (A) (A) (A)
                 (A) (A) (A) (A) (A) (A) (A) (A) (A) (A) (A) (A)
                 (A) (A) (A) (A) (A) (A) (A) (A) (A) (A) (A) (A)
                 (A) (A) (A) (A) (A) (A) (A) (A) (A) (A) (A) (A)
                 (A) (A) (A) (A) (A) (A) (A) (A) (A) (A) (A) (A)
                 (A) (A) (A) (A) (A) (A) (A) (A) (A) (A) (A) (A)
                 (A) (A) (A) (A) (A) (A) (A) (A) (A) (A) (A) (A)
                 (A) (A) (A) (A) (A) (A) (A) (A) (A) (A) (A) (A)
                 (A) (A) (A) (A) (A) (A) (A) (A) (A) (A) (A) (A)
                 (A) (A) (A) (A) (A) (A) (A) (A) (A) (A) (A) (A)
                 (A) (A) (A) (A) (A) (A) (A) (A) (A) (A) (A) (A)
                 (A) (A) (A) (A) (A) (A) (A) (A) (A) (A) (A) (A)
                 (A) (A) (A) (A) (A) (A) (A) (A) (A) (A) (A) (A)
                 (A) (A) (A) (A) (A) (A) (A) (A) (A) (A) (A) (A)
                 (A) (A) (A) (A) (A) (A) (A) (A) (A) (A) (A) (A)
                 (A) (A) (A) (A) (A) (A) (A) (A) (A) (A) (A) (A)
                 (A) (A) (A) (A) (A) (A) (A) (A) (A) (A) (A) (A)
                 (A) (A) (A) (A) (A) (A) (A) (A) (A) (A) (A) (A)
                 (A) (A) (A) (A) (A) (A) (A) (A) (A) (A) (A) (A)
                 (A) (A) (A) (A) (A) (A) (A) (A) (A) (A) (A) (A)
                 (A) (A) (A) (A) (A) (A) (A) (A) (A) (A) (A) (A)
                 (A) (A) (A) (A) (A) (A) (A) (A) (A) (A) (A) (A)
                 (A) (A) (A) (A) (A) (A) (A) (A) (A) (A) (A)
 Beta  Orbitals:
       Occupied  (A) (A) (A) (A) (A) (A) (A) (A) (A) (A) (A) (A)
                 (A) (A) (A) (A) (A) (A) (A) (A) (A) (A) (A) (A)
                 (A) (A) (A) (A)
       Virtual   (A) (A) (A) (A) (A) (A) (A) (A) (A) (A) (A) (A)
                 (A) (A) (A) (A) (A) (A) (A) (A) (A) (A) (A) (A)
                 (A) (A) (A) (A) (A) (A) (A) (A) (A) (A) (A) (A)
                 (A) (A) (A) (A) (A) (A) (A) (A) (A) (A) (A) (A)
                 (A) (A) (A) (A) (A) (A) (A) (A) (A) (A) (A) (A)
                 (A) (A) (A) (A) (A) (A) (A) (A) (A) (A) (A) (A)
                 (A) (A) (A) (A) (A) (A) (A) (A) (A) (A) (A) (A)
                 (A) (A) (A) (A) (A) (A) (A) (A) (A) (A) (A) (A)
                 (A) (A) (A) (A) (A) (A) (A) (A) (A) (A) (A) (A)
                 (A) (A) (A) (A) (A) (A) (A) (A) (A) (A) (A) (A)
                 (A) (A) (A) (A) (A) (A) (A) (A) (A) (A) (A) (A)
                 (A) (A) (A) (A) (A) (A) (A) (A) (A) (A) (A) (A)
                 (A) (A) (A) (A) (A) (A) (A) (A) (A) (A) (A) (A)
                 (A) (A) (A) (A) (A) (A) (A) (A) (A) (A) (A) (A)
                 (A) (A) (A) (A) (A) (A) (A) (A) (A) (A) (A) (A)
                 (A) (A) (A) (A) (A) (A) (A) (A) (A) (A) (A) (A)
                 (A) (A) (A) (A) (A) (A) (A) (A) (A) (A) (A) (A)
                 (A) (A) (A) (A) (A) (A) (A) (A) (A) (A) (A) (A)
                 (A) (A) (A) (A) (A) (A) (A) (A) (A) (A) (A) (A)
                 (A) (A) (A) (A) (A) (A) (A) (A) (A) (A) (A) (A)
                 (A) (A) (A) (A) (A) (A) (A) (A) (A) (A) (A) (A)
                 (A) (A) (A) (A) (A) (A) (A) (A) (A) (A) (A) (A)
                 (A) (A) (A) (A) (A) (A) (A) (A) (A) (A) (A) (A)
                 (A) (A) (A) (A) (A) (A) (A) (A) (A) (A) (A) (A)
                 (A) (A) (A) (A) (A) (A) (A) (A) (A) (A) (A) (A)
                 (A) (A) (A) (A) (A) (A) (A) (A) (A) (A) (A) (A)
                 (A) (A) (A) (A) (A) (A) (A) (A) (A) (A) (A) (A)
                 (A) (A) (A) (A) (A) (A) (A) (A) (A) (A) (A) (A)
 The electronic state is 2-A.
 Alpha  occ. eigenvalues --  -19.79129 -19.78221 -10.65880 -10.62852 -10.62457
 Alpha  occ. eigenvalues --  -10.61965 -10.61516  -1.29511  -1.01016  -0.93530
 Alpha  occ. eigenvalues --   -0.85327  -0.77610  -0.75129  -0.64471  -0.60944
 Alpha  occ. eigenvalues --   -0.56453  -0.55338  -0.53192  -0.52893  -0.49705
 Alpha  occ. eigenvalues --   -0.49092  -0.45392  -0.44471  -0.44297  -0.41883
 Alpha  occ. eigenvalues --   -0.39502  -0.35893  -0.34076  -0.26880
 Alpha virt. eigenvalues --    0.07243   0.07636   0.09278   0.10548   0.11580
 Alpha virt. eigenvalues --    0.13811   0.14704   0.15252   0.16191   0.16642
 Alpha virt. eigenvalues --    0.18588   0.18997   0.21660   0.22924   0.26018
 Alpha virt. eigenvalues --    0.27066   0.29747   0.31074   0.31385   0.32428
 Alpha virt. eigenvalues --    0.32833   0.36075   0.37073   0.40360   0.41600
 Alpha virt. eigenvalues --    0.42999   0.44948   0.47080   0.47511   0.49153
 Alpha virt. eigenvalues --    0.50294   0.50975   0.51643   0.52158   0.53145
 Alpha virt. eigenvalues --    0.53328   0.54131   0.54614   0.55183   0.56383
 Alpha virt. eigenvalues --    0.57058   0.59175   0.60770   0.63063   0.63828
 Alpha virt. eigenvalues --    0.64803   0.67271   0.68637   0.70776   0.72769
 Alpha virt. eigenvalues --    0.73292   0.74184   0.77327   0.77849   0.80934
 Alpha virt. eigenvalues --    0.85717   0.86242   0.90525   0.91126   0.91662
 Alpha virt. eigenvalues --    0.94296   0.94940   0.96379   0.96505   0.98471
 Alpha virt. eigenvalues --    1.01296   1.03489   1.04673   1.05580   1.07275
 Alpha virt. eigenvalues --    1.08381   1.09610   1.10668   1.11084   1.12709
 Alpha virt. eigenvalues --    1.14327   1.15386   1.16742   1.18282   1.19893
 Alpha virt. eigenvalues --    1.21048   1.22251   1.23384   1.23682   1.25642
 Alpha virt. eigenvalues --    1.28781   1.29612   1.32764   1.35437   1.36260
 Alpha virt. eigenvalues --    1.37118   1.37993   1.40044   1.40624   1.42536
 Alpha virt. eigenvalues --    1.42806   1.44253   1.47616   1.48716   1.49060
 Alpha virt. eigenvalues --    1.51472   1.53862   1.54323   1.56129   1.59409
 Alpha virt. eigenvalues --    1.60020   1.60957   1.62289   1.65666   1.67318
 Alpha virt. eigenvalues --    1.73500   1.77114   1.80357   1.84195   1.89980
 Alpha virt. eigenvalues --    1.92213   2.02560   2.05268   2.08657   2.15030
 Alpha virt. eigenvalues --    2.18462   2.22723   2.23884   2.30669   2.31570
 Alpha virt. eigenvalues --    2.32520   2.35654   2.39932   2.40320   2.43901
 Alpha virt. eigenvalues --    2.48346   2.48712   2.50600   2.51422   2.54226
 Alpha virt. eigenvalues --    2.56587   2.58120   2.62165   2.63832   2.64044
 Alpha virt. eigenvalues --    2.66563   2.71214   2.75459   2.77753   2.79594
 Alpha virt. eigenvalues --    2.80356   2.83228   2.84014   2.88167   2.89534
 Alpha virt. eigenvalues --    2.90358   2.92139   2.93023   2.94222   2.95068
 Alpha virt. eigenvalues --    2.96060   2.98604   3.02172   3.03668   3.04022
 Alpha virt. eigenvalues --    3.04223   3.04983   3.06907   3.09438   3.10527
 Alpha virt. eigenvalues --    3.10945   3.13510   3.14083   3.14748   3.15006
 Alpha virt. eigenvalues --    3.16148   3.16640   3.17981   3.18823   3.20563
 Alpha virt. eigenvalues --    3.20832   3.23110   3.25909   3.28876   3.29594
 Alpha virt. eigenvalues --    3.33356   3.35389   3.36968   3.38972   3.39914
 Alpha virt. eigenvalues --    3.41310   3.43659   3.45009   3.45473   3.47133
 Alpha virt. eigenvalues --    3.48736   3.49663   3.52153   3.52965   3.54198
 Alpha virt. eigenvalues --    3.55457   3.56727   3.58129   3.59473   3.59786
 Alpha virt. eigenvalues --    3.60395   3.63878   3.65094   3.66605   3.70224
 Alpha virt. eigenvalues --    3.71744   3.74759   3.78887   3.81161   3.82407
 Alpha virt. eigenvalues --    3.83782   3.84829   3.87589   3.88759   3.90040
 Alpha virt. eigenvalues --    3.90483   3.92609   3.95194   3.96468   3.97170
 Alpha virt. eigenvalues --    3.99002   4.00171   4.01554   4.05117   4.05920
 Alpha virt. eigenvalues --    4.07377   4.08389   4.09716   4.11346   4.11518
 Alpha virt. eigenvalues --    4.13819   4.15857   4.16917   4.18961   4.19794
 Alpha virt. eigenvalues --    4.21373   4.22644   4.22917   4.23675   4.26328
 Alpha virt. eigenvalues --    4.27958   4.30902   4.32481   4.34748   4.36670
 Alpha virt. eigenvalues --    4.37755   4.41361   4.42511   4.44837   4.47363
 Alpha virt. eigenvalues --    4.49029   4.50031   4.53155   4.54450   4.57755
 Alpha virt. eigenvalues --    4.59275   4.62652   4.64647   4.70326   4.75900
 Alpha virt. eigenvalues --    4.77316   4.80411   4.81472   4.84161   4.86924
 Alpha virt. eigenvalues --    4.90986   4.94344   4.94774   4.95311   4.99630
 Alpha virt. eigenvalues --    5.00934   5.02190   5.05175   5.05645   5.06926
 Alpha virt. eigenvalues --    5.09055   5.10899   5.17074   5.18354   5.24211
 Alpha virt. eigenvalues --    5.27557   5.29981   5.30442   5.33089   5.34369
 Alpha virt. eigenvalues --    5.35946   5.37276   5.38474   5.39094   5.41632
 Alpha virt. eigenvalues --    5.42859   5.45457   5.48243   5.50532   5.51890
 Alpha virt. eigenvalues --    5.56237   5.61225   5.65444   5.70172   5.72375
 Alpha virt. eigenvalues --    5.74889   5.85958   5.95051   5.96201   5.98007
 Alpha virt. eigenvalues --    6.00489   6.01486   6.02509   6.02943   6.09863
 Alpha virt. eigenvalues --    6.12920   6.18551   6.25552   6.31602   6.39922
 Alpha virt. eigenvalues --    6.45529   6.69278   6.72994   6.75893   6.80956
 Alpha virt. eigenvalues --    6.97640   7.04260   7.09236   7.13566   7.45730
 Alpha virt. eigenvalues --    7.46888   7.63799   7.68116   9.87845  10.89860
 Alpha virt. eigenvalues --   11.24310  13.28039  13.54731  13.79836  14.23766
  Beta  occ. eigenvalues --  -19.78782 -19.76419 -10.65897 -10.62403 -10.62185
  Beta  occ. eigenvalues --  -10.61569 -10.61568  -1.27273  -0.97747  -0.92698
  Beta  occ. eigenvalues --   -0.84229  -0.77042  -0.73645  -0.64083  -0.57499
  Beta  occ. eigenvalues --   -0.54920  -0.54859  -0.52747  -0.52607  -0.48197
  Beta  occ. eigenvalues --   -0.46644  -0.45141  -0.44001  -0.43393  -0.41592
  Beta  occ. eigenvalues --   -0.35522  -0.34481  -0.29155
  Beta virt. eigenvalues --   -0.05023   0.07385   0.08783   0.09411   0.10699
  Beta virt. eigenvalues --    0.11836   0.14129   0.14829   0.15505   0.16381
  Beta virt. eigenvalues --    0.16839   0.18710   0.19162   0.22507   0.23121
  Beta virt. eigenvalues --    0.26258   0.27615   0.30269   0.31175   0.31605
  Beta virt. eigenvalues --    0.32761   0.33249   0.36408   0.37582   0.41003
  Beta virt. eigenvalues --    0.41792   0.43613   0.45090   0.47073   0.47599
  Beta virt. eigenvalues --    0.49611   0.50934   0.51293   0.51969   0.52677
  Beta virt. eigenvalues --    0.53681   0.53802   0.54713   0.55064   0.55526
  Beta virt. eigenvalues --    0.56661   0.57827   0.59569   0.61078   0.63332
  Beta virt. eigenvalues --    0.64202   0.65156   0.67602   0.69057   0.71141
  Beta virt. eigenvalues --    0.73148   0.74149   0.74387   0.77583   0.78142
  Beta virt. eigenvalues --    0.81547   0.85976   0.86910   0.90634   0.91242
  Beta virt. eigenvalues --    0.91818   0.94598   0.95093   0.96588   0.96757
  Beta virt. eigenvalues --    0.98756   1.01609   1.03695   1.04956   1.05710
  Beta virt. eigenvalues --    1.07406   1.08508   1.10189   1.10984   1.11271
  Beta virt. eigenvalues --    1.12898   1.14658   1.15562   1.17302   1.18433
  Beta virt. eigenvalues --    1.20120   1.21340   1.22372   1.23535   1.23809
  Beta virt. eigenvalues --    1.25835   1.29169   1.30096   1.33212   1.35583
  Beta virt. eigenvalues --    1.36527   1.37217   1.38215   1.40185   1.40778
  Beta virt. eigenvalues --    1.42644   1.42954   1.44489   1.47952   1.49093
  Beta virt. eigenvalues --    1.49594   1.51650   1.54277   1.54756   1.56578
  Beta virt. eigenvalues --    1.59718   1.60496   1.61308   1.62595   1.66185
  Beta virt. eigenvalues --    1.67469   1.74204   1.77912   1.80726   1.85568
  Beta virt. eigenvalues --    1.90873   1.92751   2.03076   2.05973   2.09160
  Beta virt. eigenvalues --    2.15579   2.18660   2.22948   2.26141   2.31161
  Beta virt. eigenvalues --    2.32046   2.33296   2.35944   2.40356   2.41450
  Beta virt. eigenvalues --    2.44756   2.48647   2.49099   2.51062   2.51756
  Beta virt. eigenvalues --    2.54712   2.56624   2.58192   2.62753   2.64176
  Beta virt. eigenvalues --    2.64496   2.67068   2.71365   2.75954   2.78181
  Beta virt. eigenvalues --    2.79824   2.80750   2.83410   2.84530   2.88346
  Beta virt. eigenvalues --    2.89845   2.91168   2.92283   2.93484   2.94399
  Beta virt. eigenvalues --    2.95381   2.96280   2.98708   3.02393   3.03723
  Beta virt. eigenvalues --    3.04048   3.04764   3.05475   3.07050   3.09830
  Beta virt. eigenvalues --    3.10863   3.11228   3.13901   3.14207   3.14934
  Beta virt. eigenvalues --    3.15525   3.16344   3.17420   3.18164   3.19145
  Beta virt. eigenvalues --    3.20734   3.21298   3.23224   3.26129   3.29459
  Beta virt. eigenvalues --    3.30541   3.34124   3.35543   3.37222   3.39271
  Beta virt. eigenvalues --    3.40263   3.41510   3.43832   3.45245   3.45611
  Beta virt. eigenvalues --    3.47777   3.49021   3.50090   3.52245   3.53265
  Beta virt. eigenvalues --    3.54337   3.55704   3.56931   3.58398   3.59524
  Beta virt. eigenvalues --    3.59963   3.60644   3.63964   3.65552   3.66872
  Beta virt. eigenvalues --    3.70388   3.71950   3.75107   3.79165   3.81495
  Beta virt. eigenvalues --    3.82559   3.84021   3.84986   3.87657   3.88913
  Beta virt. eigenvalues --    3.90233   3.90636   3.92681   3.95221   3.96673
  Beta virt. eigenvalues --    3.97178   3.99340   4.00242   4.01673   4.05280
  Beta virt. eigenvalues --    4.05981   4.07527   4.08302   4.09712   4.11356
  Beta virt. eigenvalues --    4.11578   4.13973   4.15965   4.17172   4.19111
  Beta virt. eigenvalues --    4.19960   4.21602   4.22866   4.23080   4.23850
  Beta virt. eigenvalues --    4.26654   4.28243   4.31052   4.32719   4.34844
  Beta virt. eigenvalues --    4.36792   4.37924   4.41410   4.42868   4.45072
  Beta virt. eigenvalues --    4.47578   4.49366   4.50309   4.53461   4.54934
  Beta virt. eigenvalues --    4.58105   4.59960   4.63542   4.65081   4.70724
  Beta virt. eigenvalues --    4.76284   4.78042   4.80571   4.81752   4.84603
  Beta virt. eigenvalues --    4.87275   4.91087   4.94568   4.94953   4.95766
  Beta virt. eigenvalues --    4.99896   5.01205   5.02399   5.05514   5.05998
  Beta virt. eigenvalues --    5.07165   5.09298   5.11223   5.17726   5.18881
  Beta virt. eigenvalues --    5.24909   5.28291   5.30278   5.30984   5.33263
  Beta virt. eigenvalues --    5.34764   5.36184   5.37568   5.38739   5.39685
  Beta virt. eigenvalues --    5.41732   5.43114   5.45601   5.48550   5.50730
  Beta virt. eigenvalues --    5.52147   5.56551   5.61418   5.65566   5.70967
  Beta virt. eigenvalues --    5.72615   5.75687   5.87110   5.95292   5.96368
  Beta virt. eigenvalues --    5.98311   6.00897   6.01788   6.03224   6.04404
  Beta virt. eigenvalues --    6.10540   6.13595   6.19588   6.25993   6.32270
  Beta virt. eigenvalues --    6.41594   6.46012   6.70247   6.76871   6.78319
  Beta virt. eigenvalues --    6.82763   6.99773   7.06721   7.10018   7.15905
  Beta virt. eigenvalues --    7.47070   7.47560   7.65433   7.69412   9.89249
  Beta virt. eigenvalues --   10.90725  11.24478  13.28674  13.54738  13.79851
  Beta virt. eigenvalues --   14.24006
          Condensed to atoms (all electrons):
               1          2          3          4          5          6
     1  C    5.045191   0.410409   0.407919  -0.003720  -0.000959   0.000514
     2  H    0.410409   0.546287  -0.028611   0.000067  -0.000148   0.000016
     3  H    0.407919  -0.028611   0.563643   0.000174  -0.000690  -0.000071
     4  C   -0.003720   0.000067   0.000174   4.627757   0.389348   0.396288
     5  H   -0.000959  -0.000148  -0.000690   0.389348   0.679955  -0.037268
     6  H    0.000514   0.000016  -0.000071   0.396288  -0.037268   0.593549
     7  H   -0.000851   0.000027  -0.000005   0.414140  -0.051077  -0.027332
     8  O   -0.001884   0.000600   0.000331   0.298417  -0.051322  -0.025767
     9  O   -0.067371  -0.000231  -0.000378  -0.048654  -0.000916   0.006879
    10  H    0.255276  -0.013320  -0.009417   0.000799   0.005019  -0.000786
    11  C    0.368636  -0.035314  -0.051297  -0.001158   0.002232  -0.000371
    12  C   -0.062166   0.004992   0.001246  -0.004403  -0.003813   0.000825
    13  H   -0.033131  -0.005641   0.005383  -0.000143   0.000212  -0.000076
    14  H   -0.005059  -0.000029   0.004470  -0.001057   0.000071   0.000123
    15  C    0.006109  -0.000270   0.000004  -0.000353  -0.000555  -0.000333
    16  H   -0.000123  -0.000022  -0.000039   0.000305   0.000034   0.000045
    17  H   -0.000279   0.000053   0.000024  -0.000007  -0.000041   0.000004
    18  H    0.000050  -0.000004   0.000033  -0.000077   0.000022   0.000067
               7          8          9         10         11         12
     1  C   -0.000851  -0.001884  -0.067371   0.255276   0.368636  -0.062166
     2  H    0.000027   0.000600  -0.000231  -0.013320  -0.035314   0.004992
     3  H   -0.000005   0.000331  -0.000378  -0.009417  -0.051297   0.001246
     4  C    0.414140   0.298417  -0.048654   0.000799  -0.001158  -0.004403
     5  H   -0.051077  -0.051322  -0.000916   0.005019   0.002232  -0.003813
     6  H   -0.027332  -0.025767   0.006879  -0.000786  -0.000371   0.000825
     7  H    0.595650  -0.038610   0.005937   0.000376   0.001029   0.000130
     8  O   -0.038610   7.930037   0.070423  -0.026740   0.006892   0.000292
     9  O    0.005937   0.070423   8.107553   0.156048  -0.015101   0.001224
    10  H    0.000376  -0.026740   0.156048   0.444829  -0.009502  -0.008145
    11  C    0.001029   0.006892  -0.015101  -0.009502   4.960780   0.569225
    12  C    0.000130   0.000292   0.001224  -0.008145   0.569225   5.042586
    13  H   -0.000007   0.000797   0.000680  -0.000615   0.399906  -0.042330
    14  H    0.000034   0.000069  -0.000032   0.000020  -0.048879   0.405638
    15  C    0.000054   0.001146  -0.000042   0.000097  -0.056942   0.356278
    16  H   -0.000049  -0.000156   0.000004   0.000128   0.000800  -0.043331
    17  H    0.000004   0.000026  -0.000001  -0.000042   0.001007  -0.043161
    18  H   -0.000002  -0.000044  -0.000000  -0.000034  -0.001365  -0.040898
              13         14         15         16         17         18
     1  C   -0.033131  -0.005059   0.006109  -0.000123  -0.000279   0.000050
     2  H   -0.005641  -0.000029  -0.000270  -0.000022   0.000053  -0.000004
     3  H    0.005383   0.004470   0.000004  -0.000039   0.000024   0.000033
     4  C   -0.000143  -0.001057  -0.000353   0.000305  -0.000007  -0.000077
     5  H    0.000212   0.000071  -0.000555   0.000034  -0.000041   0.000022
     6  H   -0.000076   0.000123  -0.000333   0.000045   0.000004   0.000067
     7  H   -0.000007   0.000034   0.000054  -0.000049   0.000004  -0.000002
     8  O    0.000797   0.000069   0.001146  -0.000156   0.000026  -0.000044
     9  O    0.000680  -0.000032  -0.000042   0.000004  -0.000001  -0.000000
    10  H   -0.000615   0.000020   0.000097   0.000128  -0.000042  -0.000034
    11  C    0.399906  -0.048879  -0.056942   0.000800   0.001007  -0.001365
    12  C   -0.042330   0.405638   0.356278  -0.043331  -0.043161  -0.040898
    13  H    0.536656   0.006731  -0.006798   0.000084   0.000072   0.005006
    14  H    0.006731   0.543951  -0.037596  -0.002449  -0.002693   0.005542
    15  C   -0.006798  -0.037596   4.778868   0.405026   0.414508   0.411792
    16  H    0.000084  -0.002449   0.405026   0.612376  -0.040456  -0.027271
    17  H    0.000072  -0.002693   0.414508  -0.040456   0.594563  -0.027716
    18  H    0.005006   0.005542   0.411792  -0.027271  -0.027716   0.574488
          Atomic-Atomic Spin Densities.
               1          2          3          4          5          6
     1  C    0.469161   0.000150   0.001919   0.002458  -0.006123   0.000124
     2  H    0.000150  -0.019205   0.002483  -0.000104   0.000246  -0.000006
     3  H    0.001919   0.002483  -0.019039  -0.000279   0.000940  -0.000002
     4  C    0.002458  -0.000104  -0.000279  -0.009627   0.001572   0.001089
     5  H   -0.006123   0.000246   0.000940   0.001572   0.006211  -0.001284
     6  H    0.000124  -0.000006  -0.000002   0.001089  -0.001284  -0.001805
     7  H    0.000951  -0.000031  -0.000079  -0.000609  -0.001682   0.000864
     8  O    0.013821  -0.000557  -0.000556   0.002458  -0.002379   0.000337
     9  O   -0.067357   0.003411   0.002578  -0.003325   0.005082  -0.000236
    10  H    0.054098   0.002201   0.001484   0.002683  -0.004864   0.000144
    11  C   -0.022723   0.001195   0.001244  -0.001961   0.001965  -0.000221
    12  C   -0.017634  -0.000582  -0.000540  -0.003208   0.005868  -0.000421
    13  H   -0.001609   0.000258   0.000012  -0.000011   0.000005   0.000009
    14  H   -0.000091  -0.000056  -0.000197   0.000057  -0.000239  -0.000003
    15  C    0.000329   0.000015  -0.000019   0.000034  -0.000001   0.000032
    16  H    0.000047  -0.000011  -0.000030   0.000265  -0.000548   0.000105
    17  H    0.000106   0.000009   0.000020  -0.000029   0.000068  -0.000005
    18  H    0.000003   0.000002   0.000003   0.000001   0.000004  -0.000004
               7          8          9         10         11         12
     1  C    0.000951   0.013821  -0.067357   0.054098  -0.022723  -0.017634
     2  H   -0.000031  -0.000557   0.003411   0.002201   0.001195  -0.000582
     3  H   -0.000079  -0.000556   0.002578   0.001484   0.001244  -0.000540
     4  C   -0.000609   0.002458  -0.003325   0.002683  -0.001961  -0.003208
     5  H   -0.001682  -0.002379   0.005082  -0.004864   0.001965   0.005868
     6  H    0.000864   0.000337  -0.000236   0.000144  -0.000221  -0.000421
     7  H    0.002794  -0.000876   0.000138   0.001450  -0.000395  -0.000413
     8  O   -0.000876   0.116553  -0.061860   0.011877  -0.004387  -0.005317
     9  O    0.000138  -0.061860   0.634371  -0.053068   0.010148   0.002767
    10  H    0.001450   0.011877  -0.053068  -0.099112   0.007298  -0.001098
    11  C   -0.000395  -0.004387   0.010148   0.007298  -0.250865   0.019153
    12  C   -0.000413  -0.005317   0.002767  -0.001098   0.019153   0.403775
    13  H    0.000001  -0.000026  -0.000023  -0.000336  -0.001974  -0.000859
    14  H    0.000015   0.000092  -0.000091   0.000088   0.001446   0.004297
    15  C    0.000003  -0.000006  -0.000024   0.000065   0.000284  -0.013407
    16  H    0.000042   0.000206  -0.000037   0.000019   0.000367  -0.009751
    17  H   -0.000002  -0.000016   0.000004  -0.000002  -0.000193  -0.007570
    18  H   -0.000000  -0.000008   0.000002  -0.000004   0.000047  -0.000789
              13         14         15         16         17         18
     1  C   -0.001609  -0.000091   0.000329   0.000047   0.000106   0.000003
     2  H    0.000258  -0.000056   0.000015  -0.000011   0.000009   0.000002
     3  H    0.000012  -0.000197  -0.000019  -0.000030   0.000020   0.000003
     4  C   -0.000011   0.000057   0.000034   0.000265  -0.000029   0.000001
     5  H    0.000005  -0.000239  -0.000001  -0.000548   0.000068   0.000004
     6  H    0.000009  -0.000003   0.000032   0.000105  -0.000005  -0.000004
     7  H    0.000001   0.000015   0.000003   0.000042  -0.000002  -0.000000
     8  O   -0.000026   0.000092  -0.000006   0.000206  -0.000016  -0.000008
     9  O   -0.000023  -0.000091  -0.000024  -0.000037   0.000004   0.000002
    10  H   -0.000336   0.000088   0.000065   0.000019  -0.000002  -0.000004
    11  C   -0.001974   0.001446   0.000284   0.000367  -0.000193   0.000047
    12  C   -0.000859   0.004297  -0.013407  -0.009751  -0.007570  -0.000789
    13  H    0.012720  -0.000043   0.000059  -0.000046   0.000037   0.000068
    14  H   -0.000043  -0.021537   0.001498   0.000331  -0.000165  -0.000133
    15  C    0.000059   0.001498  -0.026195   0.003873   0.006101   0.000565
    16  H   -0.000046   0.000331   0.003873   0.027745  -0.005649  -0.000547
    17  H    0.000037  -0.000165   0.006101  -0.005649   0.020048   0.000119
    18  H    0.000068  -0.000133   0.000565  -0.000547   0.000119   0.001056
 Mulliken charges and spin densities:
               1          2
     1  C   -0.318562   0.427630
     2  H    0.121139  -0.010583
     3  H    0.107280  -0.010059
     4  C   -0.067723  -0.008537
     5  H    0.069897   0.004842
     6  H    0.093694  -0.001283
     7  H    0.100551   0.002171
     8  O   -0.164507   0.069354
     9  O   -0.216019   0.472479
    10  H    0.206011  -0.077077
    11  C   -0.090578  -0.239572
    12  C   -0.134190   0.374271
    13  H    0.133215   0.008241
    14  H    0.131145  -0.014732
    15  C   -0.270994  -0.026793
    16  H    0.095093   0.016381
    17  H    0.104135   0.012882
    18  H    0.100413   0.000384
 Sum of Mulliken charges =  -0.00000   1.00000
 Mulliken charges and spin densities with hydrogens summed into heavy atoms:
               1          2
     1  C   -0.090143   0.406988
     4  C    0.196420  -0.002807
     8  O   -0.164507   0.069354
     9  O   -0.010007   0.395403
    11  C    0.042636  -0.231331
    12  C   -0.003045   0.359539
    15  C    0.028646   0.002854
 APT charges:
               1
     1  C    0.455362
     2  H   -0.051515
     3  H   -0.038327
     4  C    0.396604
     5  H   -0.025691
     6  H   -0.002340
     7  H   -0.033668
     8  O   -0.273991
     9  O    0.027307
    10  H   -0.370418
    11  C   -0.234725
    12  C    0.138958
    13  H    0.021985
    14  H   -0.009314
    15  C    0.046747
    16  H   -0.019130
    17  H   -0.018170
    18  H   -0.009675
 Sum of APT charges =  -0.00000
 APT charges with hydrogens summed into heavy atoms:
               1
     1  C    0.365519
     4  C    0.334905
     8  O   -0.273991
     9  O   -0.343111
    11  C   -0.212740
    12  C    0.129644
    15  C   -0.000227
 Electronic spatial extent (au):  <R**2>=           1050.7408
 Charge=             -0.0000 electrons
 Dipole moment (field-independent basis, Debye):
    X=             -2.0726    Y=             -0.8318    Z=              1.4263  Tot=              2.6498
 Quadrupole moment (field-independent basis, Debye-Ang):
   XX=            -48.3237   YY=            -41.0046   ZZ=            -43.9395
   XY=             -0.6025   XZ=              2.5435   YZ=             -1.3042
 Traceless Quadrupole moment (field-independent basis, Debye-Ang):
   XX=             -3.9011   YY=              3.4180   ZZ=              0.4831
   XY=             -0.6025   XZ=              2.5435   YZ=             -1.3042
 Octapole moment (field-independent basis, Debye-Ang**2):
  XXX=              3.6822  YYY=             -3.2653  ZZZ=             -2.1508  XYY=             10.5999
  XXY=            -10.1703  XXZ=              3.1442  XZZ=              1.6174  YZZ=              1.0634
  YYZ=             -0.8237  XYZ=             -0.7733
 Hexadecapole moment (field-independent basis, Debye-Ang**3):
 XXXX=           -851.6438 YYYY=           -397.4755 ZZZZ=           -119.3860 XXXY=             -5.9154
 XXXZ=              0.1964 YYYX=              2.9710 YYYZ=             -3.4606 ZZZX=             -2.5586
 ZZZY=              0.5730 XXYY=           -213.5654 XXZZ=           -162.6713 YYZZ=            -90.9012
 XXYZ=             -3.8926 YYXZ=              1.3642 ZZXY=             -0.6244
 N-N= 3.116079145671D+02 E-N=-1.434444708713D+03  KE= 3.453946107049D+02
  Exact polarizability: 115.161  -0.988  88.382  -3.715  -0.039  61.610
 Approx polarizability: 105.986   5.839  92.376  -7.303  -0.726  75.369
                          Isotropic Fermi Contact Couplings
        Atom                 a.u.       MegaHertz       Gauss      10(-4) cm-1
     1  C(13)              0.06187      69.55114      24.81758      23.19976
     2  H(1)              -0.00247     -11.02621      -3.93443      -3.67795
     3  H(1)              -0.00261     -11.64776      -4.15621      -3.88527
     4  C(13)             -0.00543      -6.10877      -2.17976      -2.03767
     5  H(1)               0.00227      10.13118       3.61506       3.37940
     6  H(1)              -0.00025      -1.11677      -0.39849      -0.37251
     7  H(1)               0.00101       4.50755       1.60840       1.50356
     8  O(17)              0.02204     -13.36305      -4.76827      -4.45743
     9  O(17)              0.03654     -22.15342      -7.90489      -7.38959
    10  H(1)              -0.01867     -83.45671     -29.77943     -27.83816
    11  C(13)             -0.00955     -10.73333      -3.82992      -3.58025
    12  C(13)              0.00740       8.31395       2.96662       2.77323
    13  H(1)               0.00048       2.13771       0.76279       0.71306
    14  H(1)              -0.00307     -13.70245      -4.88937      -4.57064
    15  C(13)             -0.00710      -7.98021      -2.84754      -2.66191
    16  H(1)               0.00687      30.70684      10.95696      10.24270
    17  H(1)               0.00584      26.11507       9.31851       8.71105
    18  H(1)               0.00006       0.25407       0.09066       0.08475
 --------------------------------------------------------
       Center         ----  Spin Dipole Couplings  ----
                      3XX-RR        3YY-RR        3ZZ-RR
 --------------------------------------------------------
     1   Atom        0.291493     -0.075193     -0.216299
     2   Atom       -0.004206      0.019928     -0.015722
     3   Atom       -0.007450     -0.020335      0.027785
     4   Atom       -0.005539      0.006292     -0.000753
     5   Atom       -0.001010      0.000177      0.000833
     6   Atom       -0.002260      0.006291     -0.004031
     7   Atom       -0.003972      0.004775     -0.000803
     8   Atom        0.386199     -0.125710     -0.260490
     9   Atom        1.307132     -0.508862     -0.798270
    10   Atom        0.088472     -0.010054     -0.078418
    11   Atom        0.000306     -0.020667      0.020361
    12   Atom        0.072100      0.072146     -0.144246
    13   Atom        0.002757     -0.002395     -0.000362
    14   Atom       -0.005830     -0.009911      0.015740
    15   Atom        0.001986      0.003452     -0.005438
    16   Atom       -0.000764      0.003468     -0.002704
    17   Atom        0.004680     -0.001917     -0.002763
    18   Atom        0.000318     -0.001482      0.001165
 --------------------------------------------------------
                        XY            XZ            YZ
 --------------------------------------------------------
     1   Atom       -0.288216     -0.096322      0.050945
     2   Atom       -0.002215     -0.011126     -0.020770
     3   Atom       -0.011225     -0.003712      0.004050
     4   Atom        0.002087     -0.001039     -0.007736
     5   Atom        0.001550     -0.002457     -0.006755
     6   Atom        0.001557     -0.001327     -0.002824
     7   Atom       -0.002736      0.001998     -0.006243
     8   Atom       -0.401234     -0.243429      0.104462
     9   Atom       -1.019452     -0.585652      0.261290
    10   Atom       -0.118759     -0.054805      0.038115
    11   Atom        0.059724      0.009990     -0.011158
    12   Atom       -0.217189     -0.031288      0.033427
    13   Atom        0.003686      0.002929     -0.001207
    14   Atom       -0.007205      0.001270     -0.003640
    15   Atom       -0.000317      0.001231      0.004194
    16   Atom        0.002916      0.000856      0.000480
    17   Atom        0.003332      0.000116      0.000393
    18   Atom        0.001590      0.002961      0.002338
 --------------------------------------------------------


 ---------------------------------------------------------------------------------
              Anisotropic Spin Dipole Couplings in Principal Axis System
 ---------------------------------------------------------------------------------

       Atom             a.u.   MegaHertz   Gauss  10(-4) cm-1        Axes

              Baa    -0.2352   -31.567   -11.264   -10.530  0.4292  0.5431  0.7217
     1 C(13)  Bbb    -0.2319   -31.115   -11.103   -10.379  0.2573  0.6924 -0.6740
              Bcc     0.4671    62.681    22.366    20.908  0.8658 -0.4749 -0.1574
 
              Baa    -0.0300   -16.011    -5.713    -5.341  0.3947  0.3677  0.8420
     2 H(1)   Bbb     0.0003     0.168     0.060     0.056  0.9151 -0.2399 -0.3241
              Bcc     0.0297    15.842     5.653     5.284  0.0828  0.8984 -0.4312
 
              Baa    -0.0269   -14.345    -5.119    -4.785  0.4955  0.8681 -0.0307
     3 H(1)   Bbb    -0.0019    -1.000    -0.357    -0.333  0.8579 -0.4836  0.1734
              Bcc     0.0288    15.344     5.475     5.118 -0.1357  0.1122  0.9844
 
              Baa    -0.0061    -0.812    -0.290    -0.271  0.7790 -0.4222 -0.4636
     4 C(13)  Bbb    -0.0055    -0.742    -0.265    -0.248  0.6125  0.3542  0.7067
              Bcc     0.0116     1.554     0.555     0.518  0.1341  0.8344 -0.5345
 
              Baa    -0.0063    -3.376    -1.205    -1.126  0.1204  0.7012  0.7028
     5 H(1)   Bbb    -0.0018    -0.975    -0.348    -0.325  0.9471 -0.2932  0.1303
              Bcc     0.0082     4.351     1.553     1.451 -0.2974 -0.6499  0.6994
 
              Baa    -0.0051    -2.707    -0.966    -0.903  0.3345  0.1838  0.9243
     6 H(1)   Bbb    -0.0023    -1.224    -0.437    -0.408  0.9233 -0.2604 -0.2824
              Bcc     0.0074     3.930     1.402     1.311  0.1887  0.9479 -0.2568
 
              Baa    -0.0050    -2.676    -0.955    -0.893 -0.6483  0.2722  0.7111
     7 H(1)   Bbb    -0.0046    -2.480    -0.885    -0.827  0.7223  0.5153  0.4613
              Bcc     0.0097     5.156     1.840     1.720 -0.2408  0.8126 -0.5307
 
              Baa    -0.3652    26.425     9.429     8.814  0.5192  0.6079  0.6007
     8 O(17)  Bbb    -0.3149    22.789     8.132     7.602 -0.1103 -0.6493  0.7525
              Bcc     0.6801   -49.214   -17.561   -16.416  0.8475 -0.4570 -0.2701
 
              Baa    -0.9661    69.909    24.945    23.319  0.4234  0.9031  0.0715
     9 O(17)  Bbb    -0.9497    68.720    24.521    22.923  0.1792 -0.1609  0.9706
              Bcc     1.9158  -138.630   -49.466   -46.242  0.8880 -0.3981 -0.2299
 
              Baa    -0.0956   -51.001   -18.198   -17.012  0.0935 -0.2941  0.9512
    10 H(1)   Bbb    -0.0891   -47.552   -16.968   -15.862  0.5852  0.7891  0.1865
              Bcc     0.1847    98.553    35.166    32.874  0.8055 -0.5392 -0.2459
 
              Baa    -0.0732    -9.824    -3.506    -3.277 -0.6355  0.7558  0.1580
    11 C(13)  Bbb     0.0227     3.053     1.089     1.018  0.0886 -0.1318  0.9873
              Bcc     0.0505     6.772     2.416     2.259  0.7670  0.6414  0.0168
 
              Baa    -0.1495   -20.065    -7.160    -6.693 -0.1561 -0.2951  0.9426
    12 C(13)  Bbb    -0.1446   -19.399    -6.922    -6.471  0.6939  0.6465  0.3173
              Bcc     0.2941    39.464    14.082    13.164 -0.7030  0.7036  0.1038
 
              Baa    -0.0055    -2.959    -1.056    -0.987 -0.4902  0.7460  0.4507
    13 H(1)   Bbb     0.0001     0.039     0.014     0.013 -0.1122 -0.5669  0.8161
              Bcc     0.0055     2.920     1.042     0.974  0.8643  0.3495  0.3616
 
              Baa    -0.0155    -8.274    -2.952    -2.760  0.5898  0.8045  0.0697
    14 H(1)   Bbb    -0.0010    -0.526    -0.188    -0.175  0.8002 -0.5706 -0.1849
              Bcc     0.0165     8.800     3.140     2.935  0.1090 -0.1649  0.9803
 
              Baa    -0.0073    -0.976    -0.348    -0.326 -0.1349 -0.3643  0.9215
    15 C(13)  Bbb     0.0021     0.288     0.103     0.096  0.9894 -0.0993  0.1056
              Bcc     0.0051     0.688     0.245     0.229  0.0530  0.9260  0.3738
 
              Baa    -0.0031    -1.668    -0.595    -0.556 -0.5079  0.1630  0.8459
    16 H(1)   Bbb    -0.0019    -1.022    -0.365    -0.341  0.7292 -0.4415  0.5229
              Bcc     0.0050     2.690     0.960     0.897  0.4587  0.8823  0.1054
 
              Baa    -0.0035    -1.843    -0.658    -0.615 -0.3387  0.8415 -0.4210
    17 H(1)   Bbb    -0.0026    -1.400    -0.499    -0.467 -0.1870  0.3783  0.9066
              Bcc     0.0061     3.243     1.157     1.082  0.9221  0.3858  0.0292
 
              Baa    -0.0029    -1.525    -0.544    -0.509  0.1079  0.8230 -0.5577
    18 H(1)   Bbb    -0.0021    -1.121    -0.400    -0.374  0.8028 -0.4030 -0.4394
              Bcc     0.0050     2.646     0.944     0.883  0.5864  0.4003  0.7042
 

 ---------------------------------------------------------------------------------

 Calling FoFJK, ICntrl=  10100127 FMM=F ISym2X=0 I1Cent= 0 IOpClX= 1 NMat=1 NMatS=1 NMatT=0.
 ***** Axes restored to original set *****
 -------------------------------------------------------------------
 Center     Atomic                   Forces (Hartrees/Bohr)
 Number     Number              X              Y              Z
 -------------------------------------------------------------------
      1        6           0.003268035    0.000693095    0.000521547
      2        1          -0.000679657   -0.000000089   -0.000317549
      3        1          -0.000466605   -0.000479796    0.000533073
      4        6          -0.000030137    0.003181507   -0.005538562
      5        1           0.000906069    0.001384036    0.000578918
      6        1           0.000290752   -0.000459865   -0.000007387
      7        1          -0.000672342    0.000142386   -0.000003882
      8        8          -0.005531860    0.009575013    0.008691270
      9        8           0.008949164   -0.009827355   -0.002767238
     10        1          -0.005496376   -0.003643367   -0.001316457
     11        6           0.001782127   -0.002852724    0.001652262
     12        6          -0.002026927    0.001968290   -0.002055961
     13        1           0.000086566   -0.000032230   -0.000935942
     14        1          -0.000095081    0.000063678    0.000982034
     15        6           0.000064790   -0.000049823   -0.000096420
     16        1          -0.000275001   -0.000152417    0.000197313
     17        1           0.000125686    0.000227685    0.000245067
     18        1          -0.000199202    0.000261976   -0.000362087
 -------------------------------------------------------------------
 Cartesian Forces:  Max     0.009827355 RMS     0.003083295
 FormGI is forming the generalized inverse of G from B-inverse, IUseBI=4.

 GradGradGradGradGradGradGradGradGradGradGradGradGradGradGradGradGradGrad
 Berny optimization.
 Internal  Forces:  Max     0.015115737 RMS     0.002391837
 Search for a saddle point.
 Step number   1 out of a maximum of  108
 All quantities printed in internal units (Hartrees-Bohrs-Radians)
 Swapping is turned off.
 Second derivative matrix not updated -- analytic derivatives used.
 ITU=  0
     Eigenvalues ---   -0.08271   0.00209   0.00256   0.00585   0.00629
     Eigenvalues ---    0.01721   0.02048   0.02181   0.02717   0.03863
     Eigenvalues ---    0.04323   0.04760   0.05669   0.05776   0.06963
     Eigenvalues ---    0.08046   0.08440   0.08507   0.09792   0.11239
     Eigenvalues ---    0.12190   0.12619   0.12660   0.13607   0.14234
     Eigenvalues ---    0.14329   0.16825   0.16889   0.17404   0.18409
     Eigenvalues ---    0.18602   0.24940   0.29685   0.32236   0.32930
     Eigenvalues ---    0.33069   0.33565   0.33970   0.34232   0.34549
     Eigenvalues ---    0.34703   0.34828   0.34955   0.35290   0.35462
     Eigenvalues ---    0.36052   0.44448   0.59424
 Eigenvectors required to have negative eigenvalues:
                          R10       R3        R9        R4        D5
   1                   -0.74528   0.57858   0.15493  -0.11983  -0.11143
                          D4        A2        D6        D7        A3
   1                   -0.11021  -0.08705   0.07313   0.07191   0.06039
 RFO step:  Lambda0=1.035975239D-04 Lambda=-1.16237289D-03.
 Linear search not attempted -- option 19 set.
 Iteration  1 RMS(Cart)=  0.05138735 RMS(Int)=  0.00078643
 Iteration  2 RMS(Cart)=  0.00151585 RMS(Int)=  0.00002849
 Iteration  3 RMS(Cart)=  0.00000160 RMS(Int)=  0.00002849
 Iteration  4 RMS(Cart)=  0.00000000 RMS(Int)=  0.00002849
 Variable       Old X    -DE/DX   Delta X   Delta X   Delta X     New X
                                 (Linear)    (Quad)   (Total)
    R1        2.05228  -0.00024   0.00000  -0.00123  -0.00123   2.05105
    R2        2.05353  -0.00048   0.00000  -0.00177  -0.00177   2.05177
    R3        2.45363  -0.00130   0.00000   0.01240   0.01240   2.46603
    R4        2.73640  -0.00014   0.00000  -0.00698  -0.00698   2.72943
    R5        2.06250  -0.00155   0.00000  -0.00374  -0.00374   2.05876
    R6        2.05681  -0.00052   0.00000  -0.00078  -0.00078   2.05603
    R7        2.05955  -0.00059   0.00000  -0.00243  -0.00243   2.05712
    R8        2.67529   0.00647   0.00000   0.01450   0.01450   2.68979
    R9        2.58241   0.01512   0.00000   0.04869   0.04869   2.63110
   R10        2.35447   0.00559   0.00000  -0.01439  -0.01439   2.34008
   R11        2.53485   0.00342   0.00000   0.00799   0.00799   2.54284
   R12        2.05146  -0.00094   0.00000  -0.00267  -0.00267   2.04878
   R13        2.05439  -0.00098   0.00000  -0.00297  -0.00297   2.05142
   R14        2.81826   0.00036   0.00000  -0.00061  -0.00061   2.81764
   R15        2.06487  -0.00025   0.00000  -0.00073  -0.00073   2.06414
   R16        2.06341  -0.00023   0.00000  -0.00051  -0.00051   2.06290
   R17        2.05727  -0.00039   0.00000  -0.00110  -0.00110   2.05617
    A1        1.97911   0.00007   0.00000   0.00100   0.00091   1.98002
    A2        1.75096   0.00002   0.00000   0.00048   0.00045   1.75141
    A3        2.03134  -0.00079   0.00000   0.00065   0.00066   2.03200
    A4        1.82695   0.00013   0.00000  -0.00285  -0.00287   1.82408
    A5        2.02095  -0.00023   0.00000   0.00337   0.00344   2.02439
    A6        1.80742   0.00114   0.00000  -0.00458  -0.00455   1.80287
    A7        1.92177  -0.00037   0.00000  -0.00098  -0.00097   1.92080
    A8        1.91861  -0.00047   0.00000   0.00088   0.00086   1.91946
    A9        1.92233   0.00143   0.00000   0.00846   0.00845   1.93078
   A10        1.92940  -0.00028   0.00000  -0.00237  -0.00237   1.92702
   A11        1.84877  -0.00062   0.00000  -0.00867  -0.00867   1.84010
   A12        1.92200   0.00034   0.00000   0.00247   0.00246   1.92445
   A13        1.89238   0.00181   0.00000  -0.00651  -0.00651   1.88587
   A14        1.79202   0.00558   0.00000   0.00279   0.00279   1.79481
   A15        2.17090   0.00106   0.00000   0.00242   0.00242   2.17332
   A16        2.04532  -0.00058   0.00000  -0.00026  -0.00026   2.04506
   A17        2.06549  -0.00047   0.00000  -0.00225  -0.00226   2.06324
   A18        2.06543  -0.00007   0.00000  -0.00071  -0.00071   2.06472
   A19        2.17805   0.00032   0.00000   0.00045   0.00045   2.17850
   A20        2.03971  -0.00024   0.00000   0.00026   0.00026   2.03996
   A21        1.93386   0.00026   0.00000   0.00098   0.00098   1.93484
   A22        1.94043   0.00026   0.00000   0.00126   0.00125   1.94168
   A23        1.94064   0.00030   0.00000   0.00288   0.00288   1.94352
   A24        1.86132  -0.00027   0.00000  -0.00188  -0.00188   1.85944
   A25        1.89038  -0.00029   0.00000  -0.00177  -0.00177   1.88861
   A26        1.89459  -0.00030   0.00000  -0.00180  -0.00180   1.89279
   A27        3.05819   0.00340   0.00000   0.01664   0.01667   3.07485
   A28        2.98323   0.00172   0.00000   0.03669   0.03671   3.01994
    D1       -2.33005  -0.00037   0.00000   0.02588   0.02597  -2.30408
    D2        1.86273   0.00025   0.00000   0.03521   0.03506   1.89779
    D3       -0.24045  -0.00084   0.00000   0.02897   0.02904  -0.21141
    D4       -2.62762   0.00065   0.00000  -0.02472  -0.02472  -2.65234
    D5        0.57347   0.00050   0.00000  -0.02274  -0.02274   0.55073
    D6       -0.23552  -0.00051   0.00000  -0.01804  -0.01804  -0.25357
    D7        2.96556  -0.00065   0.00000  -0.01606  -0.01607   2.94950
    D8        1.75334   0.00027   0.00000  -0.02278  -0.02277   1.73057
    D9       -1.32876   0.00012   0.00000  -0.02081  -0.02080  -1.34956
   D10        1.06106   0.00028   0.00000   0.02640   0.02643   1.08749
   D11        3.13878   0.00024   0.00000   0.02471   0.02470  -3.11971
   D12       -1.05778  -0.00029   0.00000   0.01816   0.01815  -1.03964
   D13       -1.59945  -0.00312   0.00000  -0.05563  -0.05563  -1.65508
   D14        0.05430  -0.00012   0.00000  -0.00198  -0.00198   0.05232
   D15       -3.08888  -0.00010   0.00000  -0.00085  -0.00085  -3.08973
   D16        3.13576   0.00003   0.00000  -0.00391  -0.00391   3.13185
   D17       -0.00742   0.00004   0.00000  -0.00278  -0.00278  -0.01019
   D18        2.10298  -0.00000   0.00000  -0.00039  -0.00039   2.10259
   D19       -2.11352  -0.00001   0.00000  -0.00130  -0.00130  -2.11482
   D20       -0.00036  -0.00001   0.00000  -0.00075  -0.00075  -0.00111
   D21       -1.04018   0.00001   0.00000   0.00073   0.00073  -1.03945
   D22        1.02651   0.00000   0.00000  -0.00018  -0.00018   1.02633
   D23        3.13967   0.00001   0.00000   0.00037   0.00037   3.14004
         Item               Value     Threshold  Converged?
 Maximum Force            0.015116     0.000450     NO 
 RMS     Force            0.002392     0.000300     NO 
 Maximum Displacement     0.202528     0.001800     NO 
 RMS     Displacement     0.052052     0.001200     NO 
 Predicted change in Energy=-5.374176D-04
 GradGradGradGradGradGradGradGradGradGradGradGradGradGradGradGradGradGrad

                          Input orientation:                          
 ---------------------------------------------------------------------
 Center     Atomic      Atomic             Coordinates (Angstroms)
 Number     Number       Type             X           Y           Z
 ---------------------------------------------------------------------
      1          6           0       -0.012506   -1.843137   -0.325058
      2          1           0        0.165799   -2.788351    0.177736
      3          1           0       -0.063386   -1.931650   -1.405995
      4          6           0        1.506060    1.534036   -0.509820
      5          1           0        0.882679    1.127332   -1.305362
      6          1           0        1.074447    2.459233   -0.133687
      7          1           0        2.514697    1.708698   -0.880168
      8          8           0        1.536530    0.649661    0.605054
      9          8           0        2.109067   -0.549396    0.189103
     10          1           0        1.122427   -1.239850   -0.099418
     11          6           0       -0.982975   -0.963957    0.284354
     12          6           0       -1.725983   -0.065553   -0.387574
     13          1           0       -1.073280   -0.998733    1.364196
     14          1           0       -1.629805   -0.023270   -1.468044
     15          6           0       -2.683586    0.888384    0.241855
     16          1           0       -2.405909    1.921279    0.020187
     17          1           0       -3.694284    0.748218   -0.146117
     18          1           0       -2.709956    0.767911    1.322922
 ---------------------------------------------------------------------
                    Distance matrix (angstroms):
                    1          2          3          4          5
     1  C    0.000000
     2  H    1.085368   0.000000
     3  H    1.085747   1.815121   0.000000
     4  C    3.707490   4.577342   3.908615   0.000000
     5  H    3.253619   4.248067   3.203519   1.089449   0.000000
     6  H    4.441676   5.334770   4.710975   1.088005   1.784253
     7  H    4.394364   5.182657   4.491675   1.088583   1.783889
     8  O    3.078744   3.725779   3.642419   1.423374   2.074941
     9  O    2.537558   2.964682   3.028946   2.278772   2.559076
    10  H    1.304969   1.841143   1.895226   2.830202   2.667457
    11  C    1.444351   2.158579   2.153916   3.614689   3.222011
    12  C    2.469761   3.363339   2.698838   3.608286   3.011715
    13  H    2.166065   2.479060   3.092600   4.071836   3.933506
    14  H    2.689607   3.684896   2.469703   3.630019   2.768199
    15  C    3.862287   4.652041   4.187296   4.305231   3.894768
    16  H    4.474193   5.368344   4.729320   3.966657   3.633489
    17  H    4.505844   5.245231   4.685339   5.271941   4.736683
    18  H    4.099956   4.714702   4.662504   4.660545   4.465880
                    6          7          8          9         10
     6  H    0.000000
     7  H    1.787416   0.000000
     8  O    2.008436   2.069844   0.000000
     9  O    3.197888   2.531179   1.392319   0.000000
    10  H    3.699553   3.352897   2.058643   1.238317   0.000000
    11  C    4.015716   4.553340   3.009072   3.121163   2.157803
    12  C    3.779076   4.623200   3.484370   3.908231   3.094422
    13  H    4.337501   5.024035   3.178774   3.421999   2.649798
    14  H    3.905932   4.530144   3.843988   4.123361   3.305750
    15  C    4.090405   5.380891   4.242438   5.003950   4.373966
    16  H    3.525046   5.006814   4.183528   5.149542   4.738797
    17  H    5.066411   6.325567   5.285394   5.956095   5.211075
    18  H    4.393630   5.747667   4.308359   5.122873   4.554263
                   11         12         13         14         15
    11  C    0.000000
    12  C    1.345615   0.000000
    13  H    1.084169   2.089389   0.000000
    14  H    2.091455   1.085566   3.046774   0.000000
    15  C    2.514966   1.491033   2.722856   2.205747   0.000000
    16  H    3.227865   2.139175   3.479760   2.568743   1.092297
    17  H    3.235436   2.143533   3.493214   2.569973   1.091641
    18  H    2.657151   2.142116   2.408618   3.095510   1.088079
                   16         17         18
    16  H    0.000000
    17  H    1.750325   0.000000
    18  H    1.766302   1.768436   0.000000
 Stoichiometry    C5H11O2(2)
 Framework group  C1[X(C5H11O2)]
 Deg. of freedom    48
 Full point group                 C1      NOp   1
 Largest Abelian subgroup         C1      NOp   1
 Largest concise Abelian subgroup C1      NOp   1
[...]
 0276394,-0.0730387,0.0165649,0.0575085,-0.0452349,0.057185,0.0781399,0
 .0259724,-0.0050554,-0.09054,-0.0179248,0.0520632,-0.0285183,0.0185332
 ,-0.1412397,-0.0903302,0.0778888,-0.0120321,0.0141541,0.0138489,0.0836
 608,0.0919756,0.0281351,0.3370423,0.2732784,0.0479603,-1.0038388,-0.84
 32043,-0.0818446,-0.1814939,-0.060761,-0.366535,-0.3293309,0.0443107,-
 0.0126661,1.2071796,0.5185612,0.2656637,0.5340905,0.3545657,-0.1474505
 ,-0.8615394,-0.5221923,-0.1208013,-0.7402075,-0.3131112,-0.0922769,-0.
 2862727,-0.1922953,0.0797225,-0.7990795,-0.2838998,-0.0164424,0.621644
 2,-0.026722,0.0111088,-0.2586301,-0.0301687,0.076871,0.33681,-0.181697
 3,-0.0358289,-0.6930813,0.0025038,0.0026494,0.249053,0.1403759,0.12105
 3,0.0610325,0.0369514,0.0357681,0.0562022,0.0848788,-0.018776,0.055497
 1,0.0141701,-0.0808187,0.0410373,0.0494985,0.056593,0.0482948,0.048473
 7,-0.0213903,0.0244964,-0.005035,-0.1128601,0.0210741,0.1052128,0.0273
 704,0.2176777,0.0423781,-0.0205998,-0.0735684,0.0013027,0.0625492,0.00
 29318,-0.0552268,0.0190631,0.0477651,-0.1146313,0.0288209,0.0990041,0.
 0129424,0.0581177,-0.1507116,0.0329227,-0.0500452,-0.0058005,0.0518161
 ,-0.0207241,-0.0046338,-0.0460603,0.045767,0.0412909,0.0215966,-0.0256
 628,0.014616,0.0417589,0.0497308,0.0565634,-0.0087961,-0.1117181\Polar
 =117.4172024,1.1559761,88.8361772,3.0989905,-0.2514792,61.6149452\PG=C
 01 [X(C5H11O2)]\NImag=1\\0.21292668,-0.15676380,0.50734074,-0.02052216
 ,-0.03259454,0.59832823,-0.02756042,0.03931723,-0.01367719,0.04290555,
 0.05665597,-0.25695914,0.11492086,-0.05113070,0.27316360,-0.01488237,0
 .11335290,-0.11613707,0.01851862,-0.12372231,0.11526678,-0.03119937,0.
 00870993,-0.02388413,-0.00024098,-0.00164887,-0.00363239,0.03786325,0.
 01308485,-0.05151691,-0.02358097,0.00176614,0.00533656,0.02613110,-0.0
 0869503,0.04718911,-0.01160641,-0.01927642,-0.32379574,-0.00120976,-0.
 00356876,-0.00993469,0.01422104,0.02428443,0.34690073,0.00189850,-0.00
 006612,0.00160704,-0.00058031,-0.00015228,-0.00026967,0.00010480,-0.00
 009092,-0.00025270,0.59209901,-0.00967423,-0.00184033,-0.00017303,0.00
 134416,0.00078644,0.00042494,0.00127975,0.00084199,0.00005575,-0.00698
 426,0.53644842,0.01084008,0.00173124,0.00224476,-0.00170309,-0.0006521
 2,-0.00080069,-0.00101685,-0.00077243,-0.00043264,-0.01710080,0.092197
 41,0.51349119,-0.00060276,-0.00030329,-0.00039481,0.00013836,0.0000722
 1,0.00005871,0.00021253,0.00007223,0.00013399,-0.14341256,-0.06200768,
 -0.10795592,0.14719417,0.00038102,0.00014378,-0.00045237,0.00011387,-0
 .00001243,-0.00007880,-0.00029393,-0.00035221,0.00002209,-0.06268323,-
 0.09312304,-0.08055099,0.06649762,0.09466800,-0.00367026,-0.00041342,-
 0.00004016,0.00043463,0.00014145,0.00018177,0.00037295,0.00026668,0.00
 011701,-0.10616802,-0.07337942,-0.17415809,0.12025000,0.07407431,0.202
 73292,-0.00009197,-0.00005298,-0.00001581,-0.00000758,0.00000441,0.000
 04533,0.00003968,0.00006131,0.00004138,-0.09170439,0.08806007,0.038045
 31,0.00850493,-0.01691248,-0.00618067,0.09112129,0.00129564,0.00004138
 ,0.00004584,-0.00018247,-0.00005069,-0.00007033,-0.00007555,-0.0000326
 1,0.00002338,0.08519639,-0.23764290,-0.08032037,0.00471362,-0.00791044
 ,-0.00424224,-0.09821970,0.26642273,-0.00031060,-0.00005795,-0.0000980
 7,0.00001623,-0.00000832,0.00007605,0.00010495,0.00009327,0.00004910,0
 .04176987,-0.09154473,-0.09035319,0.01046727,-0.01813951,-0.00583194,-
 0.04104764,0.08522482,0.09161320,0.00088101,0.00024588,0.00010218,-0.0
 0010556,-0.00009499,-0.00005467,-0.00009511,-0.00006125,0.00001663,-0.
 28795906,-0.03289918,0.07837170,-0.01619907,-0.00095306,0.00607631,-0.
 00867261,-0.00206070,0.00176891,0.30414574,0.00062697,0.00012694,-0.00
 014327,-0.00010401,-0.00006242,-0.00001900,-0.00017654,-0.00010122,0.0
 0000503,-0.02793199,-0.05388688,0.00381686,-0.01330227,-0.00018312,0.0
 0290613,0.02553642,0.00643078,-0.00852148,0.03691883,0.05595452,-0.002
 17835,-0.00026978,-0.00037571,0.00035629,0.00014968,0.00013485,0.00017
 761,0.00014893,0.00006447,0.07286253,0.00764600,-0.07264655,-0.0215616
 8,-0.00343699,0.00910384,0.01023470,0.00123954,-0.00259010,-0.08781810
 ,-0.01819204,0.08735462,-0.02828107,-0.00523256,-0.00237101,0.00304435
 ,0.00177610,0.00094997,0.00137606,0.00108358,0.00013723,-0.06274457,-0
 .00377762,0.01241742,0.00409285,0.01581660,-0.01770021,-0.00091070,0.0
 1053914,-0.01113411,0.00717838,-0.01867000,0.02649917,0.10761230,0.040
 59679,0.00925820,0.00267099,-0.00520217,-0.00276423,-0.00217443,-0.004
 32236,-0.00317675,-0.00014766,-0.01108935,-0.09346995,0.07193792,0.005
 71176,0.00112556,0.00483505,0.00140212,-0.02426041,0.02560992,-0.00081
 816,-0.01371754,0.01803096,-0.06444351,0.33825355,0.01031798,0.0020310
 0,-0.00026693,-0.00110315,-0.00082353,-0.00041801,-0.00117798,-0.00097
 461,0.00017697,0.02028552,0.04293765,-0.19323890,-0.00141668,0.0268823
 9,-0.03414109,-0.00010494,-0.00758833,0.00928434,0.00306696,0.01974495
 ,-0.02215365,-0.04541108,-0.04225525,0.31308158,-0.08165744,-0.0354800
 3,-0.01047958,0.00456962,0.00183386,0.00200854,0.00256945,0.00213696,-
 0.00053951,-0.00469880,0.01118986,-0.00059968,-0.00029999,-0.00000743,
 0.00220417,0.00164580,-0.00013032,-0.00146850,0.00222326,-0.00207923,-
 0.00102871,-0.08069821,0.08878564,0.02948132,0.14719909,-0.11794432,-0
 .03316889,-0.00897364,0.01050064,0.00602771,0.00329950,0.00699979,0.00
 511523,-0.00030253,0.02725979,-0.06320957,-0.00029998,-0.00213346,0.00
 602511,-0.00631669,-0.00015009,-0.00289893,0.00725554,0.00021620,0.006
 06924,-0.00662249,0.05798888,-0.16095908,-0.02509797,-0.10046120,0.198
 87380,-0.04987679,-0.01421765,-0.00053178,0.00427046,0.00178981,0.0017
 8021,0.00356070,0.00240411,0.00085792,-0.01369067,0.01741983,0.0184279
 2,0.00004624,0.00142766,0.00104236,-0.00068921,0.00566750,-0.00182702,
 -0.00153344,0.00071752,0.00048904,0.03670214,-0.05763633,-0.06560051,-
 0.02851893,0.02023516,0.04918694,0.08050037,0.01957544,0.00050296,-0.0
 1288136,-0.00687997,-0.00466721,-0.00974463,-0.00677729,0.00003970,-0.
 00252979,0.01207594,-0.00929998,0.00125406,-0.00109078,0.00339397,-0.0
 0012620,-0.00036842,-0.00051807,-0.00101333,-0.00103824,0.00236322,0.0
 3758036,-0.04215825,-0.01161185,0.00365091,0.09176599,0.03841528,-0.04
 413732,0.08027570,-0.00924183,-0.00102695,-0.02302692,-0.01479968,-0.0
 0426498,-0.00711905,-0.00543353,0.00009502,-0.00330896,0.00676617,-0.0
 0959507,0.00103601,-0.00026879,0.00320531,0.00020278,-0.00047089,0.000
 16742,-0.00051630,-0.00077677,0.00193813,0.01166627,-0.05707645,-0.016
 89628,0.04130224,0.05350718,0.02917837,-0.08345206,0.01201737,0.034880
 27,0.00508315,-0.02669391,0.00217105,0.00280583,-0.00080551,-0.0168103
 6,-0.00948037,-0.00419698,0.00055567,0.00458115,-0.00160482,-0.0002247
 3,-0.00030475,0.00096304,-0.00028847,-0.00009065,-0.00033578,-0.000267
 77,-0.00050295,0.00049744,0.00486303,-0.02290818,-0.00731585,0.0140995
 7,0.02671241,-0.00019130,-0.03336547,-0.01455709,0.03433513,-0.0969627
 5,0.09921832,0.05606319,-0.00860542,-0.00386056,-0.00108203,-0.0001929
 0,-0.00597851,-0.00202560,0.00016369,0.00217190,-0.00221026,-0.0005518
 3,-0.00092382,0.00108773,0.00027461,-0.00079154,0.00037869,-0.00065957
 ,0.00028122,0.00013979,0.01510703,-0.00785154,-0.00280118,0.00689136,0
 .03118495,0.01436516,-0.06339851,-0.02588093,-0.00901968,0.38503921,0.
 04319148,-0.14698725,-0.03822830,0.02697780,-0.00856539,-0.01066524,0.
 00319901,0.00320496,-0.00004924,-0.00011184,-0.00243292,0.00247022,0.0
 0023636,0.00040789,-0.00105207,-0.00008620,0.00067950,-0.00024186,0.00
 046174,0.00007736,-0.00043633,-0.01140984,0.00805741,0.00268690,-0.008
 91078,-0.02424230,-0.01144106,0.03138016,0.02925001,0.01474441,-0.2626
 1958,0.43543969,0.06387674,-0.04988783,-0.13900931,-0.01288543,0.00999
 358,0.00902253,0.02588289,-0.01850808,-0.01279132,0.00045967,0.0013919
 1,-0.00224034,0.00033452,0.00025113,0.00035908,0.00006107,-0.00031841,
 0.00014447,-0.00011799,0.00018214,0.00021703,0.00197904,-0.00342899,-0
 .00121802,-0.00386603,0.00323769,0.00213810,-0.00181952,0.00021309,0.0
 0049154,0.01535879,-0.10169527,0.69584833,-0.03746175,0.02784157,-0.00
 623282,0.00145996,0.00335297,0.00321063,0.00026831,-0.00033662,-0.0008
 7992,-0.00044354,-0.00174227,0.00196578,-0.00017736,-0.00009910,-0.000
 67859,-0.00000363,0.00047169,-0.00001081,0.00011652,0.00000993,-0.0004
 0252,-0.00561637,0.00298351,0.00063073,-0.00079680,-0.00927843,-0.0044
 9159,0.01306282,0.01146582,0.00478758,-0.17740046,0.14892756,-0.108807
 93,0.40310667,0.04927443,-0.02204035,0.00270576,0.00129172,-0.00272576
 ,-0.00210135,-0.00287592,-0.00065213,0.00132378,-0.00007744,0.00177271
 ,-0.00087496,-0.00058745,-0.00060101,0.00028731,0.00013475,-0.00059309
 ,0.00019991,-0.00053540,-0.00001231,-0.00001046,0.00632783,-0.00369477
 ,-0.00130836,0.00176769,0.01253538,0.00620202,-0.01786758,-0.01583851,
 -0.00668994,0.14310993,-0.22930766,0.14149814,-0.27937293,0.45893044,-
 0.01627611,-0.00698481,0.01617163,0.00519369,-0.00128302,-0.00002781,0
 .00143344,-0.00005485,0.00147729,0.00024636,-0.00140270,0.00202541,0.0
 0043330,0.00039961,-0.00059033,-0.00017870,0.00028206,-0.00023495,0.00
 030628,-0.00006833,-0.00029104,-0.00642790,0.00497796,0.00121472,-0.00
 141646,-0.01219216,-0.00561885,0.01575918,0.01124489,0.00523586,-0.086
 61614,0.12234834,-0.21986394,0.02819167,-0.10326072,0.66545591,0.00138
 864,0.00067066,0.02298409,-0.00057503,-0.00035603,-0.00098491,-0.00096
 073,0.00360508,0.00145995,-0.00002400,0.00003936,-0.00017377,0.0000125
 9,0.00006830,0.00005747,-0.00001553,-0.00002623,-0.00000041,0.00001462
 ,-0.00000347,0.00002110,0.00045157,-0.00107826,-0.00002561,-0.00023178
 ,0.00116764,0.00007082,0.00021649,-0.00054597,-0.00032765,-0.05160884,
 0.00548876,0.02433826,0.00518823,0.00362362,-0.01827285,0.04528422,0.0
 0035823,0.00269798,-0.01915732,-0.00178971,0.00054573,0.00012308,0.004
 92991,-0.00015940,-0.00163943,-0.00004099,-0.00012971,0.00008303,0.000
 04622,0.00004033,-0.00001242,-0.00001367,-0.00001129,0.00001228,0.0000
 1532,-0.00001203,-0.00003232,-0.00001174,-0.00002856,0.00015620,-0.000
 38063,-0.00046964,-0.00029175,0.00142271,0.00079555,0.00004659,0.00827
 407,-0.05144043,0.00802224,0.00019968,0.00281198,0.02274043,-0.0158217
 5,0.04535314,-0.00104815,0.00086637,-0.01027672,0.00003076,-0.00020706
 ,0.00078477,0.00181476,-0.00094576,0.00051092,-0.00013790,-0.00009436,
 -0.00002779,-0.00001262,-0.00001662,0.00001357,0.00001979,0.00005146,-
 0.00000339,0.00001815,-0.00001706,0.00003839,-0.00068133,0.00068879,0.
 00046438,0.00016978,-0.00110116,-0.00034960,0.00081196,0.00038246,-0.0
 0013499,0.02429941,0.01192089,-0.32685733,0.00273627,-0.00020066,-0.01
 698001,-0.02698243,-0.01271937,0.35054426,-0.00221667,-0.00324670,-0.0
 0079322,0.00038714,-0.00028860,0.00027457,0.00021439,0.00020156,0.0002
 2243,-0.00017304,0.00020238,-0.00068345,-0.00015193,-0.00008393,0.0001
 6838,0.00002094,-0.00004472,0.00005637,0.00007476,0.00003518,0.0001379
 6,0.00055597,-0.00071323,0.00008737,-0.00027917,0.00080135,0.00035536,
 -0.00099628,-0.00040864,-0.00033715,0.00615671,0.00280663,-0.01853805,
 -0.05023717,0.00837136,0.02676648,0.00343972,0.00679372,-0.00101780,0.
 04271477,-0.00321964,-0.00120979,0.00133870,0.00016914,-0.00018095,-0.
 00012508,0.00009754,-0.00005742,-0.00097325,-0.00005904,0.00014123,-0.
 00060950,-0.00006788,0.00013063,0.00017817,-0.00001753,-0.00005554,-0.
 00000978,0.00008037,0.00003064,0.00012311,0.00046374,-0.00062568,0.000
 07798,-0.00009761,0.00083305,0.00029768,-0.00109549,-0.00052026,-0.000
 25793,0.00068640,0.00223669,0.02335958,0.00765089,-0.04947110,0.009695
 51,0.00686089,0.00193905,0.00254626,-0.01656305,0.04386026,0.00142913,
 -0.00167891,0.00133090,0.00007189,-0.00011409,0.00034256,-0.00072440,0
 .00065217,0.00053832,-0.00009065,0.00008128,-0.00077241,-0.00008206,0.
 00004884,0.00035535,0.00000513,-0.00001207,0.00003963,0.00008681,0.000
 05487,0.00018770,0.00039403,-0.00047299,0.00008753,-0.00006182,0.00061
 398,0.00039176,-0.00071682,-0.00043443,-0.00032276,0.00234193,0.000419
 71,-0.01743999,0.02464905,0.01291098,-0.32235845,-0.00108189,0.0026981
 1,-0.00015700,-0.02789816,-0.01492634,0.34643995,0.00905930,0.00479092
 ,-0.00217104,-0.00183392,0.00047148,0.00036801,-0.00025378,-0.00006396
 ,0.00030524,0.00000149,0.00009192,-0.00040181,-0.00005994,0.00007791,0
 .00017280,-0.00000420,-0.00006266,-0.00003216,0.00005047,0.00000343,0.
 00009442,0.00041969,-0.00027586,0.00007205,0.00023307,0.00058553,0.000
 36491,-0.00042109,-0.00114127,-0.00056591,-0.01256161,0.02071428,0.008
 54990,-0.13488604,0.06496202,0.04113535,-0.00261632,-0.00417925,0.0005
 4121,0.00099124,0.00226006,-0.00028966,0.51565698,0.00136205,0.0047043
 5,0.00215946,-0.00036009,0.00055114,0.00002332,-0.00005599,-0.00018402
 ,0.00006311,0.00000058,-0.00033398,0.00113220,-0.00003555,0.00001373,-
 0.00030585,-0.00012171,0.00008544,-0.00011833,0.00000934,-0.00005853,-
 0.00018915,-0.00151708,0.00182425,0.00014687,0.00024172,-0.00310182,-0
 .00126573,0.00403304,0.00194999,0.00083211,0.02295056,-0.01560855,-0.0
 0807130,0.06495040,-0.13265066,-0.03770506,-0.00380242,-0.00211651,-0.
 00164970,-0.00101256,0.00346623,0.00209805,0.01267091,0.51410492,0.000
 30403,0.00243232,-0.00239192,-0.00071475,0.00075331,0.00064722,-0.0000
 3748,0.00019068,0.00048957,-0.00007191,0.00034727,-0.00068226,-0.00003
 657,-0.00005843,0.00009280,0.00006939,-0.00003723,0.00009058,-0.000057
 59,0.00002418,0.00010023,0.00078106,-0.00138072,-0.00015768,-0.0003883
 0,0.00149943,0.00063211,-0.00099748,-0.00070377,-0.00025355,-0.0105189
 1,0.01045866,0.01096578,0.04684266,-0.04317414,-0.12061429,-0.00189398
 ,0.00082703,0.00124830,0.02044681,-0.02024825,-0.00951793,0.01570127,-
 0.02286033,0.57452405,-0.00097831,-0.00054428,-0.00023034,0.00011048,-
 0.00001444,0.00000914,-0.00000625,0.00001304,0.00001478,-0.00003539,0.
 00043224,-0.00039381,0.00000259,0.00008789,0.00018881,-0.00008585,-0.0
 0021322,-0.00005634,0.00006538,-0.00009145,0.00009293,0.00055771,-0.00
 088063,-0.00012331,-0.00013977,0.00096220,0.00044628,-0.00092623,-0.00
 039736,-0.00016311,-0.00175476,0.00123488,0.00167548,0.00458809,0.0245
 2973,-0.00611692,0.00050125,0.00048086,0.00011332,0.00040928,-0.001059
 38,-0.00003868,-0.05983571,-0.06422975,0.01526796,0.06765939,0.0011942
 1,0.00033788,0.00021502,-0.00003374,-0.00001833,-0.00002535,0.00000142
 ,-0.00002383,-0.00001610,0.00012544,-0.00048200,0.00028304,0.00004260,
 -0.00003780,-0.00013205,0.00009275,0.00017555,0.00001656,0.00000046,0.
 00007009,-0.00007216,-0.00055565,0.00103858,0.00022330,0.00022180,-0.0
 0092861,-0.00043814,0.00073403,0.00019138,0.00002556,0.00008831,-0.000
 43172,-0.00275380,-0.00086553,-0.02119147,0.00476869,-0.00060296,-0.00
 045731,-0.00021987,0.00047791,0.00075827,-0.00036572,-0.06692690,-0.27
 407789,0.05129115,0.06884082,0.30256482,-0.00010110,0.00035443,0.00040
 245,-0.00006809,-0.00001186,-0.00003834,-0.00003094,-0.00005756,-0.000
 02605,0.00000630,-0.00017429,0.00054125,-0.00001333,-0.00008199,-0.000
 15997,-0.00001771,0.00004539,0.00002126,0.00000513,-0.00001427,-0.0000
 9789,-0.00043805,0.00074130,-0.00001292,0.00022223,-0.00087114,-0.0003
 9884,0.00081301,0.00044742,0.00017406,0.00091049,-0.00090880,-0.000512
 53,-0.00538292,-0.01311448,0.00386312,0.00027560,0.00006043,0.00022123
 ,-0.00019259,0.00080173,0.00021248,0.01577798,0.04832723,-0.05930520,-
 0.01720964,-0.05432872,0.05832205,0.00048024,0.00137016,-0.00037621,-0
 .00025217,0.00027546,0.00021457,-0.00003751,0.00003868,0.00008923,0.00
 002280,0.00016669,-0.00018498,0.00002067,0.00000787,0.00000967,0.00002
 129,-0.00000975,0.00000428,-0.00004369,-0.00000723,0.00003223,0.000147
 29,-0.00047297,-0.00005384,-0.00016686,0.00034715,0.00017832,0.0000416
 2,-0.00011039,-0.00002708,-0.00074972,-0.00011884,0.00276056,-0.019634
 94,0.00120740,-0.00774520,-0.00049542,-0.00055910,0.00004705,0.0006935
 7,0.00033010,0.00048279,-0.26557387,-0.03488519,-0.08803908,-0.0089011
 9,-0.00213955,-0.00356760,0.29230179,-0.00084996,-0.00157902,0.0002932
 3,0.00038258,-0.00026312,-0.00015546,0.00006013,-0.00001092,-0.0000840
 5,0.00002414,-0.00021520,0.00001348,0.00001681,-0.00001296,-0.00002264
 ,0.00005833,0.00008657,0.00001623,-0.00000548,0.00005021,-0.00001304,-
 0.00007736,0.00025355,0.00007934,0.00003863,-0.00008943,-0.00007856,-0
 .00015697,0.00003084,0.00001643,0.00138766,-0.00124869,-0.00231915,0.0
 2361752,0.00053484,0.00998982,0.00059693,0.00061182,-0.00000430,-0.000
 94302,0.00040217,-0.00012171,-0.03341100,-0.04646963,-0.01345687,-0.02
 968881,-0.00505573,-0.01187861,0.03429763,0.05355285,-0.00099177,-0.00
 038355,0.00062832,0.00023622,-0.00011926,-0.00007308,-0.00007190,0.000
 03057,-0.00004237,0.00001984,-0.00020502,0.00025939,-0.00000748,-0.000
 00080,-0.00005764,-0.00000441,0.00006221,-0.00002690,0.00001117,0.0000
 1157,-0.00004263,-0.00038213,0.00060661,0.00009356,0.00013115,-0.00070
 479,-0.00031107,0.00060322,0.00042270,0.00012765,0.00087634,-0.0015003
 1,-0.00072972,0.01328849,0.00412488,0.00670362,-0.00006995,-0.00024296
 ,0.00022300,-0.00078805,0.00033777,0.00020154,-0.08516286,-0.01447641,
 -0.08372310,0.00671139,0.00114657,0.00193120,0.09544721,0.01621005,0.0
 8493206,-0.00012224,-0.00005033,-0.00011114,0.00002728,-0.00001602,-0.
 00008484,0.00008280,-0.00005987,-0.00016771,0.00001515,0.00003096,0.00
 008410,0.00002268,-0.00000331,-0.00001913,-0.00000587,-0.00003121,0.00
 001207,-0.00000214,-0.00000754,-0.00002260,0.00012735,-0.00017352,-0.0
 0011232,-0.00001373,0.00018738,0.00002497,-0.00013190,-0.00004099,0.00
 004022,0.00081374,-0.00136158,0.00075802,-0.00113254,-0.00328375,0.023
 58456,0.00003033,0.00027614,-0.00072223,-0.00160421,0.00358051,0.00152
 338,-0.04836576,-0.00019826,0.00334286,-0.00123072,-0.00069542,0.00901
 124,0.00212609,0.00465224,-0.02984649,0.04936368,0.00015461,-0.0001077
 4,-0.00001946,-0.00003347,-0.00000906,0.00004747,-0.00001423,0.0000131
 0,0.00018481,-0.00000991,0.00000951,0.00001004,-0.00000786,-0.00005324
 ,-0.00001762,0.00002140,0.00000482,0.00004601,-0.00000363,0.00000105,-
 0.00000160,0.00003323,-0.00003768,-0.00002224,0.00002884,0.00008157,0.
 00002957,-0.00010226,-0.00008179,-0.00005578,-0.00144685,0.00091140,-0
 .00116669,0.00022333,0.00219348,-0.02349567,0.00011586,0.00002926,0.00
 071970,0.00361436,-0.00167750,-0.00145172,-0.00056755,-0.05209847,0.03
 409573,0.00053766,-0.00243190,0.03066379,0.00026188,-0.00057814,-0.005
 31981,-0.00280542,0.05383130,-0.00018417,-0.00008654,0.00051103,0.0000
 6162,-0.00004420,-0.00000153,-0.00018192,0.00017268,0.00003749,-0.0000
 3050,-0.00010962,-0.00003224,-0.00001814,0.00001521,0.00001748,0.00000
 545,0.00003746,-0.00001728,0.00001933,0.00001513,0.00000996,-0.0001772
 7,0.00030503,0.00012048,0.00005078,-0.00037115,-0.00011741,0.00029389,
 0.00018375,0.00003071,-0.00154772,0.00116933,0.00147566,0.00058424,0.0
 0148232,-0.01556790,0.00060616,-0.00067386,0.00073799,0.00173276,-0.00
 160637,0.00044082,0.00554031,0.03185951,-0.31214472,-0.00018794,0.0003
 8202,-0.00513736,0.00072808,0.00151581,-0.01009381,-0.00729494,-0.0342
 4651,0.33973063\\0.00000157,0.00000033,0.00000031,0.00000036,0.0000003
 2,0.00000049,-0.00000028,-0.00000127,-0.00000012,-0.00000061,0.0000007
 1,0.00000047,-0.00000208,-0.00000083,-0.00000023,0.00000066,-0.0000000
 3,0.00000085,-0.00000021,-0.00000071,-0.00000056,-0.00000959,0.0000083
 2,0.00000672,0.00000799,-0.00001156,-0.00000638,-0.00000111,0.00000020
 ,0.00000025,0.00000133,0.00000146,-0.00000162,0.00000269,0.00000332,-0
 .00000053,-0.00000087,-0.00000098,-0.00000008,0.00000003,0.00000013,-0
 .00000008,-0.00000005,0.00000048,0.00000003,0.00000018,-0.00000007,0.0
 0000045,0.00000002,0.00000023,0.00000003,-0.00000004,-0.00000001,0.\\\
 @


 Just remember, when you're over the hill, you begin to pick up speed.
 -- Charles Schulz
 Job cpu time:       3 days  6 hours 50 minutes 31.3 seconds.
 Elapsed time:       0 days  2 hours  1 minutes 55.8 seconds.
 File lengths (MBytes):  RWF= 108510 Int=      0 D2E=      0 Chk=     21 Scr=      1
 Normal termination of Gaussian 16 at Fri Jun  7 01:07:23 2019.
