 Entering Gaussian System, Link 0=g16
 Initial command:
 /ichec/packages/gaussian/16b01/l1.exe "/localscratch/341085/Gau-81948.inp" -scrdir="/localscratch/341085/"
 Entering Link 1 = /ichec/packages/gaussian/16b01/l1.exe PID=     81949.
  
 Copyright (c) 1988-2017, Gaussian, Inc.  All Rights Reserved.
  
 This is part of the Gaussian(R) 16 program.  It is based on
 the Gaussian(R) 09 system (copyright 2009, Gaussian, Inc.),
 the Gaussian(R) 03 system (copyright 2003, Gaussian, Inc.),
 the Gaussian(R) 98 system (copyright 1998, Gaussian, Inc.),
 the Gaussian(R) 94 system (copyright 1995, Gaussian, Inc.),
 the Gaussian 92(TM) system (copyright 1992, Gaussian, Inc.),
 the Gaussian 90(TM) system (copyright 1990, Gaussian, Inc.),
 the Gaussian 88(TM) system (copyright 1988, Gaussian, Inc.),
 the Gaussian 86(TM) system (copyright 1986, Carnegie Mellon
 University), and the Gaussian 82(TM) system (copyright 1983,
 Carnegie Mellon University). Gaussian is a federally registered
 trademark of Gaussian, Inc.
  
 This software contains proprietary and confidential information,
 including trade secrets, belonging to Gaussian, Inc.
  
 This software is provided under written license and may be
 used, copied, transmitted, or stored only in accord with that
 written license.
  
 The following legend is applicable only to US Government
 contracts under FAR:
  
                    RESTRICTED RIGHTS LEGEND
  
 Use, reproduction and disclosure by the US Government is
 subject to restrictions as set forth in subparagraphs (a)
 and (c) of the Commercial Computer Software - Restricted
 Rights clause in FAR 52.227-19.
  
 Gaussian, Inc.
 340 Quinnipiac St., Bldg. 40, Wallingford CT 06492
  
  
 ---------------------------------------------------------------
 Warning -- This program may not be used in any manner that
 competes with the business of Gaussian, Inc. or will provide
 assistance to any competitor of Gaussian, Inc.  The licensee
 of this program is prohibited from giving any competitor of
 Gaussian, Inc. access to this program.  By using this program,
 the user acknowledges that Gaussian, Inc. is engaged in the
 business of creating and licensing software in the field of
 computational chemistry and represents and warrants to the
 licensee that it is not a competitor of Gaussian, Inc. and that
 it will not use this program in any manner prohibited above.
 ---------------------------------------------------------------
  

 Cite this work as:
 Gaussian 16, Revision B.01,
 M. J. Frisch, G. W. Trucks, H. B. Schlegel, G. E. Scuseria, 
 M. A. Robb, J. R. Cheeseman, G. Scalmani, V. Barone, 
 G. A. Petersson, H. Nakatsuji, X. Li, M. Caricato, A. V. Marenich, 
 J. Bloino, B. G. Janesko, R. Gomperts, B. Mennucci, H. P. Hratchian, 
 J. V. Ortiz, A. F. Izmaylov, J. L. Sonnenberg, D. Williams-Young, 
 F. Ding, F. Lipparini, F. Egidi, J. Goings, B. Peng, A. Petrone, 
 T. Henderson, D. Ranasinghe, V. G. Zakrzewski, J. Gao, N. Rega, 
 G. Zheng, W. Liang, M. Hada, M. Ehara, K. Toyota, R. Fukuda, 
 J. Hasegawa, M. Ishida, T. Nakajima, Y. Honda, O. Kitao, H. Nakai, 
 T. Vreven, K. Throssell, J. A. Montgomery, Jr., J. E. Peralta, 
 F. Ogliaro, M. J. Bearpark, J. J. Heyd, E. N. Brothers, K. N. Kudin, 
 V. N. Staroverov, T. A. Keith, R. Kobayashi, J. Normand, 
 K. Raghavachari, A. P. Rendell, J. C. Burant, S. S. Iyengar, 
 J. Tomasi, M. Cossi, J. M. Millam, M. Klene, C. Adamo, R. Cammi, 
 J. W. Ochterski, R. L. Martin, K. Morokuma, O. Farkas, 
 J. B. Foresman, and D. J. Fox, Gaussian, Inc., Wallingford CT, 2016.
 
 ******************************************
 Gaussian 16:  ES64L-G16RevB.01 20-Dec-2017
                 6-Jun-2019 
 ******************************************
 %mem=80GB
 %nproc=40
 Will use up to   40 processors via shared memory.
 ----------------------------------------------------------------------
 # opt=(calcfc,ts,noeigentest,maxcyc=500) freq=noraman uB2PLYPD3/cc-pvt
 z
 ----------------------------------------------------------------------
 1/5=1,6=500,10=4,11=1,18=20,38=1/1,3;
 2/9=110,12=2,17=6,18=5,40=1/2;
 3/5=16,6=1,11=2,25=1,30=1,71=2,74=-60,116=2,140=1/1,2,3;
 4//1;
 5/5=2,38=5/2;
 8/6=3,8=1,10=1,19=11,30=-1/1;
 9/15=3,16=-3/6;
 11/6=1,8=1,15=11,17=12,24=-1,27=1,28=-2,29=300,32=6,42=3/1,2,10;
 10/6=2,21=1/2;
 8/6=4,8=1,10=1,19=11,30=-1/11,4;
 10/5=1,20=4/2;
 11/12=2,14=11,16=1,17=2,28=-2,42=3,76=2/2,10,12;
 6/7=2,8=2,9=2,10=2/1;
 7/10=1,12=2,25=1,44=2/1,2,3,16;
 1/5=1,6=500,10=4,11=1,18=20/3(2);
 2/9=110/2;
 99//99;
 2/9=110/2;
 3/5=16,6=1,11=2,25=1,30=1,71=1,74=-60,116=2/1,2,3;
 4/5=5,16=3,69=1/1;
 5/5=2,38=5/2;
 8/6=4,10=1/1;
 9/15=2,16=-3/6;
 10/5=1/2;
 7/12=2/1,2,3,16;
 1/5=1,6=500,11=1,18=20/3(-8);
 2/9=110/2;
 6/7=2,8=2,9=2,10=2/1;
 99/9=10/99;
 -------------------
 Title Card Required
 -------------------
 Symbolic Z-matrix:
 Charge =  0 Multiplicity = 2
 C                    -0.58433   0.36479  -0.47747 
 H                    -0.58946   0.34299  -1.56643 
 H                     0.13089   1.12526  -0.16686 
 C                     0.78402  -2.97349  -1.41156 
 H                    -0.15756  -2.76587  -1.92195 
 H                     1.5703   -3.15138  -2.14304 
 H                     0.67167  -3.84773  -0.77107 
 O                     1.22942  -1.85419  -0.67071 
 O                     0.22683  -1.63494   0.35905 
 H                    -0.15188  -0.62323   0.04866 
 C                    -1.98894   0.65607   0.08272 
 C                    -3.07888   0.8821    0.51741 
 C                    -4.4835    1.17339   1.0776 
 H                    -4.45061   2.05598   1.68162 
 H                    -5.167     1.32076   0.26766 
 H                    -4.80881   0.34581   1.67274 
 

 GradGradGradGradGradGradGradGradGradGradGradGradGradGradGradGradGradGrad
 Berny optimization.
 Initialization pass.
                           ----------------------------
                           !    Initial Parameters    !
                           ! (Angstroms and Degrees)  !
 --------------------------                            --------------------------
 ! Name  Definition              Value          Derivative Info.                !
 --------------------------------------------------------------------------------
 ! R1    R(1,2)                  1.0892         calculate D2E/DX2 analytically  !
 ! R2    R(1,3)                  1.0892         calculate D2E/DX2 analytically  !
 ! R3    R(1,10)                 1.2            calculate D2E/DX2 analytically  !
 ! R4    R(1,11)                 1.54           calculate D2E/DX2 analytically  !
 ! R5    R(4,5)                  1.091          calculate D2E/DX2 analytically  !
 ! R6    R(4,6)                  1.0885         calculate D2E/DX2 analytically  !
 ! R7    R(4,7)                  1.0896         calculate D2E/DX2 analytically  !
 ! R8    R(4,8)                  1.4142         calculate D2E/DX2 analytically  !
 ! R9    R(8,9)                  1.4538         calculate D2E/DX2 analytically  !
 ! R10   R(9,10)                 1.124          calculate D2E/DX2 analytically  !
 ! R11   R(11,12)                1.195          calculate D2E/DX2 analytically  !
 ! R12   R(12,13)                1.54           calculate D2E/DX2 analytically  !
 ! R13   R(13,14)                1.07           calculate D2E/DX2 analytically  !
 ! R14   R(13,15)                1.07           calculate D2E/DX2 analytically  !
 ! R15   R(13,16)                1.07           calculate D2E/DX2 analytically  !
 ! A1    A(2,1,3)              107.5887         calculate D2E/DX2 analytically  !
 ! A2    A(2,1,10)             115.0607         calculate D2E/DX2 analytically  !
 ! A3    A(2,1,11)             111.2949         calculate D2E/DX2 analytically  !
 ! A4    A(3,1,10)             102.309          calculate D2E/DX2 analytically  !
 ! A5    A(3,1,11)             111.2924         calculate D2E/DX2 analytically  !
 ! A6    A(10,1,11)            108.9617         calculate D2E/DX2 analytically  !
 ! A7    A(5,4,6)              109.8854         calculate D2E/DX2 analytically  !
 ! A8    A(5,4,7)              109.7989         calculate D2E/DX2 analytically  !
 ! A9    A(5,4,8)              111.4858         calculate D2E/DX2 analytically  !
 ! A10   A(6,4,7)              109.7781         calculate D2E/DX2 analytically  !
 ! A11   A(6,4,8)              104.7067         calculate D2E/DX2 analytically  !
 ! A12   A(7,4,8)              111.0739         calculate D2E/DX2 analytically  !
 ! A13   A(4,8,9)              105.8563         calculate D2E/DX2 analytically  !
 ! A14   A(8,9,10)              99.9337         calculate D2E/DX2 analytically  !
 ! A15   A(12,13,14)           109.4712         calculate D2E/DX2 analytically  !
 ! A16   A(12,13,15)           109.4712         calculate D2E/DX2 analytically  !
 ! A17   A(12,13,16)           109.4712         calculate D2E/DX2 analytically  !
 ! A18   A(14,13,15)           109.4712         calculate D2E/DX2 analytically  !
 ! A19   A(14,13,16)           109.4712         calculate D2E/DX2 analytically  !
 ! A20   A(15,13,16)           109.4712         calculate D2E/DX2 analytically  !
 ! A21   L(1,10,9,16,-1)       182.8129         calculate D2E/DX2 analytically  !
 ! A22   L(1,11,12,7,-1)       180.0            calculate D2E/DX2 analytically  !
 ! A23   L(11,12,13,7,-1)      180.0            calculate D2E/DX2 analytically  !
 ! A24   L(1,10,9,16,-2)       169.2143         calculate D2E/DX2 analytically  !
 ! A25   L(1,11,12,7,-2)       180.0            calculate D2E/DX2 analytically  !
 ! A26   L(11,12,13,7,-2)      180.0            calculate D2E/DX2 analytically  !
 ! D1    D(2,1,9,8)             36.6213         calculate D2E/DX2 analytically  !
 ! D2    D(3,1,9,8)            -79.3423         calculate D2E/DX2 analytically  !
 ! D3    D(11,1,9,8)           160.1133         calculate D2E/DX2 analytically  !
 ! D4    D(2,1,13,14)         -121.5765         calculate D2E/DX2 analytically  !
 ! D5    D(2,1,13,15)           -1.5765         calculate D2E/DX2 analytically  !
 ! D6    D(2,1,13,16)          118.4235         calculate D2E/DX2 analytically  !
 ! D7    D(3,1,13,14)           -1.5768         calculate D2E/DX2 analytically  !
 ! D8    D(3,1,13,15)          118.4232         calculate D2E/DX2 analytically  !
 ! D9    D(3,1,13,16)         -121.5768         calculate D2E/DX2 analytically  !
 ! D10   D(10,1,13,14)         110.499          calculate D2E/DX2 analytically  !
 ! D11   D(10,1,13,15)        -129.501          calculate D2E/DX2 analytically  !
 ! D12   D(10,1,13,16)          -9.501          calculate D2E/DX2 analytically  !
 ! D13   D(5,4,8,9)             63.9852         calculate D2E/DX2 analytically  !
 ! D14   D(6,4,8,9)           -177.2485         calculate D2E/DX2 analytically  !
 ! D15   D(7,4,8,9)            -58.8202         calculate D2E/DX2 analytically  !
 ! D16   D(4,8,9,10)          -115.9407         calculate D2E/DX2 analytically  !
 --------------------------------------------------------------------------------
 Trust Radius=3.00D-01 FncErr=1.00D-07 GrdErr=1.00D-07 EigMax=2.50D+02 EigMin=1.00D-04
 Number of steps in this run=    100 maximum allowed number of steps=    100.
 Search for a saddle point of order  1.
 GradGradGradGradGradGradGradGradGradGradGradGradGradGradGradGradGradGrad

                          Input orientation:                          
 ---------------------------------------------------------------------
 Center     Atomic      Atomic             Coordinates (Angstroms)
 Number     Number       Type             X           Y           Z
 ---------------------------------------------------------------------
      1          6           0       -0.584325    0.364787   -0.477473
      2          1           0       -0.589460    0.342994   -1.566431
      3          1           0        0.130893    1.125255   -0.166862
      4          6           0        0.784023   -2.973491   -1.411563
      5          1           0       -0.157562   -2.765866   -1.921954
      6          1           0        1.570296   -3.151378   -2.143043
      7          1           0        0.671671   -3.847732   -0.771070
      8          8           0        1.229417   -1.854195   -0.670711
      9          8           0        0.226834   -1.634936    0.359049
     10          1           0       -0.151878   -0.623227    0.048662
     11          6           0       -1.988939    0.656072    0.082717
     12          6           0       -3.078883    0.882102    0.517410
     13          6           0       -4.483497    1.173388    1.077600
     14          1           0       -4.450613    2.055983    1.681624
     15          1           0       -5.167002    1.320755    0.267660
     16          1           0       -4.808808    0.345812    1.672740
 ---------------------------------------------------------------------
                    Distance matrix (angstroms):
                    1          2          3          4          5
     1  C    0.000000
     2  H    1.089188   0.000000
     3  H    1.089187   1.757735   0.000000
     4  C    3.726795   3.592980   4.333079   0.000000
     5  H    3.474139   3.158789   4.278362   1.090958   0.000000
     6  H    4.447463   4.148211   4.926130   1.088545   1.784094
     7  H    4.405569   4.448060   5.038662   1.089566   1.783983
     8  O    2.872435   2.989693   3.215236   1.414235   2.078573
     9  O    2.314441   2.878544   2.811484   2.288505   2.574827
    10  H    1.200000   1.932249   1.784265   2.920943   2.911059
    11  C    1.540000   2.185463   2.185432   4.805821   4.368331
    12  C    2.735000   3.290936   3.290899   5.788659   5.271839
    13  C    4.275000   4.779537   4.779498   7.151174   6.574858
    14  H    4.740256   5.328480   5.027261   7.890806   7.393666
    15  H    4.740256   5.027305   5.319278   7.528282   6.825641
    16  H    4.740256   5.319317   5.328444   7.197947   6.651199
                    6          7          8          9         10
     6  H    0.000000
     7  H    1.781782   0.000000
     8  O    1.991643   2.072521   0.000000
     9  O    3.219464   2.524186   1.453841   0.000000
    10  H    3.763110   3.427481   1.985133   1.123974   0.000000
    11  C    5.667348   5.300193   4.150532   3.199176   2.238875
    12  C    6.705358   6.172371   5.240267   4.157923   3.324620
    13  C    8.107067   7.430005   6.697778   5.530842   4.800985
    14  H    8.831536   8.191907   7.285994   6.103327   5.322016
    15  H    8.438166   7.866531   7.202432   6.151254   5.383168
    16  H    8.214833   7.320769   6.840464   5.568378   5.026297
                   11         12         13         14         15
    11  C    0.000000
    12  C    1.195000   0.000000
    13  C    2.735000   1.540000   0.000000
    14  H    3.252090   2.148263   1.070000   0.000000
    15  H    3.252090   2.148263   1.070000   1.747303   0.000000
    16  H    3.252090   2.148263   1.070000   1.747303   1.747303
                   16
    16  H    0.000000
 Stoichiometry    C5H9O2(2)
 Framework group  C1[X(C5H9O2)]
 Deg. of freedom    42
 Full point group                 C1      NOp   1
 Largest Abelian subgroup         C1      NOp   1
 Largest concise Abelian subgroup C1      NOp   1
                         Standard orientation:                         
 ---------------------------------------------------------------------
 Center     Atomic      Atomic             Coordinates (Angstroms)
 Number     Number       Type             X           Y           Z
 ---------------------------------------------------------------------
      1          6           0        0.089729    1.082606    0.266864
      2          1           0       -0.220047    1.189290    1.305608
      3          1           0        0.055017    2.070695   -0.190085
      4          6           0       -3.128723   -0.776344    0.540494
      5          1           0       -2.422859   -1.074653    1.316998
      6          1           0       -4.041084   -0.395471    0.995977
      7          1           0       -3.362277   -1.630787   -0.093960
      8          8           0       -2.631198    0.304113   -0.224451
      9          8           0       -1.445292   -0.199098   -0.898291
     10          1           0       -0.661983    0.453912   -0.425721
     11          6           0        1.497917    0.467848    0.163516
     12          6           0        2.590634   -0.009187    0.083321
     13          6           0        3.998821   -0.623944   -0.020027
     14          1           0        4.643039    0.047139   -0.548734
     15          1           0        4.387703   -0.791812    0.962567
     16          1           0        3.944139   -1.554297   -0.545722
 ---------------------------------------------------------------------
 Rotational constants (GHZ):           7.4036422           0.7468389           0.7262338
 Standard basis: CC-pVTZ (5D, 7F)
 There are   380 symmetry adapted cartesian basis functions of A   symmetry.
 There are   336 symmetry adapted basis functions of A   symmetry.
   336 basis functions,   517 primitive gaussians,   380 cartesian basis functions
    28 alpha electrons       27 beta electrons
       nuclear repulsion energy       267.2658975793 Hartrees.
 NAtoms=   16 NActive=   16 NUniq=   16 SFac= 1.00D+00 NAtFMM=   60 NAOKFM=F Big=F
 Integral buffers will be    131072 words long.
 Raffenetti 2 integral format.
 Two-electron integral symmetry is turned on.
 Nuclear repulsion after empirical dispersion term =      267.2586956149 Hartrees.
 One-electron integrals computed using PRISM.
 NBasis=   336 RedAO= T EigKep=  1.61D-05  NBF=   336
 NBsUse=   336 1.00D-06 EigRej= -1.00D+00 NBFU=   336
 ExpMin= 1.03D-01 ExpMax= 1.53D+04 ExpMxC= 5.22D+02 IAcc=3 IRadAn=         5 AccDes= 0.00D+00
 Harris functional with IExCor=  419 and IRadAn=       5 diagonalized for initial guess.
 HarFok:  IExCor=  419 AccDes= 0.00D+00 IRadAn=         5 IDoV= 1 UseB2=F ITyADJ=14
 ICtDFT=  3500011 ScaDFX=  1.000000  1.000000  1.000000  1.000000
 FoFCou: FMM=F IPFlag=           0 FMFlag=      100000 FMFlg1=           0
         NFxFlg=           0 DoJE=T BraDBF=F KetDBF=T FulRan=T
         wScrn=  0.000000 ICntrl=       500 IOpCl=  0 I1Cent=   200000004 NGrid=           0
         NMat0=    1 NMatS0=      1 NMatT0=    0 NMatD0=    1 NMtDS0=    0 NMtDT0=    0
 Petite list used in FoFCou.
 Initial guess <Sx>= 0.0000 <Sy>= 0.0000 <Sz>= 0.5000 <S**2>= 0.7500 S= 0.5000
 Requested convergence on RMS density matrix=1.00D-08 within 128 cycles.
 Requested convergence on MAX density matrix=1.00D-06.
 Requested convergence on             energy=1.00D-06.
 No special actions if energy rises.
 Integral accuracy reduced to 1.0D-05 until final iterations.
 Initial convergence to 1.0D-05 achieved.  Increase integral accuracy.
 SCF Done:  E(UB2PLYPD3) =  -345.557428705     A.U. after   22 cycles
            NFock= 22  Conv=0.71D-08     -V/T= 2.0045
 <Sx>= 0.0000 <Sy>= 0.0000 <Sz>= 0.5000 <S**2>= 0.7721 S= 0.5110
 <L.S>=  0.00000000000    
 Annihilation of the first spin contaminant:
 S**2 before annihilation     0.7721,   after     0.7504
 DoSCS=T DFT=T ScalE2(SS,OS)=  0.270000  0.270000
 ExpMin= 1.03D-01 ExpMax= 1.53D+04 ExpMxC= 5.22D+02 IAcc=3 IRadAn=         5 AccDes= 0.00D+00
 HarFok:  IExCor=  205 AccDes= 0.00D+00 IRadAn=         5 IDoV=-2 UseB2=F ITyADJ=14
 ICtDFT= 12500011 ScaDFX=  1.000000  1.000000  1.000000  1.000000
 Range of M.O.s used for correlation:     8   336
 NBasis=   336 NAE=    28 NBE=    27 NFC=     7 NFV=     0
 NROrb=    329 NOA=    21 NOB=    20 NVA=   308 NVB=   309

 **** Warning!!: The largest alpha MO coefficient is  0.63317826D+02


 **** Warning!!: The largest beta MO coefficient is  0.63702898D+02

 DoSCS=T DFT=T ScalE2(SS,OS)=  0.270000  0.270000
 Disk-based method using ON**2 memory for 21 occupieds at a time.
 Permanent disk used for amplitudes=   106523802 words.
 Estimated scratch disk usage=  1751125960 words.
 Actual    scratch disk usage=  1693643720 words.
 JobTyp=2 Pass  1:  I=   8 to  28 NPSUse= 40 ParTrn=T ParDer=T DoDerP=T.
 (rs|ai) integrals will be sorted in core.
 Actual    scratch disk usage=  1693643720 words.
 JobTyp=3 Pass  1:  I=   8 to  27 NPSUse= 40 ParTrn=T ParDer=T DoDerP=T.
 (rs|ai) integrals will be sorted in core.
 Spin components of T(2) and E(2):
     alpha-alpha T2 =       0.7837794429D-01 E2=     -0.5324032919D-01
     alpha-beta  T2 =       0.4700523889D+00 E2=     -0.3268392601D+00
     beta-beta   T2 =       0.8515610137D-01 E2=     -0.5221274275D-01
 (S**2,0)=  0.77206D+00           (S**2,1)=  0.74506D+00
 Scaling Projection term by:   0.270000
 E(PUHF)=      -0.34556398618D+03        E(PMP2)=      -0.34599041892D+03
 E2(B2PLYPD3) =    -0.4322923320D+00 E(B2PLYPD3) =    -0.34598972103696D+03
 G2DrvN: will do    17 centers at a time, making    1 passes.
 Calling FoFCou, ICntrl=  3107 FMM=F I1Cent=   0 AccDes= 0.00D+00.
 End of G2Drv F.D. properties file   721 does not exist.
 End of G2Drv F.D. properties file   722 does not exist.
 End of G2Drv F.D. properties file   788 does not exist.
          IDoAtm=1111111111111111
          Differentiating once with respect to electric field.
                with respect to dipole field.
          Differentiating once with respect to nuclear coordinates.
 Keep R1 and R2 ints in memory in canonical form, NReq=3251642453.
          There are    51 degrees of freedom in the 1st order CPHF.  IDoFFX=6 NUNeed=    51.
     48 vectors produced by pass  0 Test12= 3.33D-14 1.96D-09 XBig12= 1.27D+02 6.74D+00.
 AX will form    48 AO Fock derivatives at one time.
     48 vectors produced by pass  1 Test12= 3.33D-14 1.96D-09 XBig12= 1.67D+01 8.16D-01.
     48 vectors produced by pass  2 Test12= 3.33D-14 1.96D-09 XBig12= 8.89D-01 1.67D-01.
     48 vectors produced by pass  3 Test12= 3.33D-14 1.96D-09 XBig12= 1.06D-02 1.14D-02.
     48 vectors produced by pass  4 Test12= 3.33D-14 1.96D-09 XBig12= 1.68D-04 1.39D-03.
     48 vectors produced by pass  5 Test12= 3.33D-14 1.96D-09 XBig12= 2.89D-06 1.85D-04.
     48 vectors produced by pass  6 Test12= 3.33D-14 1.96D-09 XBig12= 3.02D-08 1.59D-05.
     25 vectors produced by pass  7 Test12= 3.33D-14 1.96D-09 XBig12= 1.72D-10 1.19D-06.
      4 vectors produced by pass  8 Test12= 3.33D-14 1.96D-09 XBig12= 1.15D-12 1.12D-07.
      2 vectors produced by pass  9 Test12= 3.33D-14 1.96D-09 XBig12= 1.02D-14 1.01D-08.
 InvSVY:  IOpt=1 It=  1 EMax= 2.66D-15
 Solved reduced A of dimension   367 with    51 vectors.
 End of Minotr F.D. properties file   721 does not exist.
 End of Minotr F.D. properties file   722 does not exist.
 End of Minotr F.D. properties file   788 does not exist.
 MDV= 10737418240.
 DoSCS=T DFT=T ScalE2(SS,OS)=  0.270000  0.270000
 Form MO integral derivatives with frozen-active canonical formalism.
 Discarding MO integrals.
 Reordered first order wavefunction length =    428928697
 In DefCFB: NBatch=  1 ICI= 28 ICA=309 LFMax= 78
            Large arrays: LIAPS=  8665386240 LIARS=  1611002400 words.
 In DefCFB: NBatch=  1 ICI= 28 ICA=309 LFMax= 78
            Large arrays: LIAPS=  8665386240 LIARS=  1611002400 words.
 Semi-Direct transformation.
 ModeAB=           4 MOrb=            28 LenV=   10734141797
 LASXX=    503301435 LTotXX=   503301435 LenRXX=  1014543915
 LTotAB=   511242480 MaxLAS=   537845952 LenRXY=           0
 NonZer=  1517845350 LenScr=  2285697024 LnRSAI=   537845952
 LnScr1=   809932800 LExtra=           0 Total=   4648019691
 MaxDsk=          -1 SrtSym=           T ITran=            4
 JobTyp=1 Pass  1:  I=   1 to  28.
 (rs|ai) integrals will be sorted in core.
 ModeAB=           4 MOrb=            27 LenV=   10734141797
 LASXX=    486308502 LTotXX=   486308502 LenRXX=   901306008
 LTotAB=   414997506 MaxLAS=   518637168 LenRXY=           0
 NonZer=  1387614510 LenScr=  2089584640 LnRSAI=   518637168
 LnScr1=   781006848 LExtra=           0 Total=   4290534664
 MaxDsk=          -1 SrtSym=           T ITran=            4
 JobTyp=2 Pass  1:  I=   1 to  27.
 (rs|ai) integrals will be sorted in core.
 SymMOI:  orbitals are not symmetric.
 DoSCS=T DFT=T ScalE2(SS,OS)=  0.270000  0.270000
 Spin components of T(2) and E(2):
     alpha-alpha T2 =       0.7837794429D-01 E2=     -0.5324032919D-01
     alpha-beta  T2 =       0.4700523889D+00 E2=     -0.3268392601D+00
     beta-beta   T2 =       0.8515610137D-01 E2=     -0.5221274275D-01
 E2(B2PLYPD3) =    -0.4322923320D+00 E(B2PLYPD3) =    -0.34598972103696D+03
 (S**2,0)=  0.77206D+00           (S**2,1)=  0.74506D+00
 Scaling Projection term by:   0.270000
 E(PUHF)=      -0.34556398618D+03        E(PMP2)=      -0.34599041892D+03
          IDoAtm=1111111111111111
          Differentiating once with respect to electric field.
                with respect to dipole field.
          Differentiating once with respect to nuclear coordinates.
 Keep R1 and R2 ints in memory in canonical form, NReq=3251778068.
          There are     1 degrees of freedom in the 1st order CPHF.  IDoFFX=0 NUNeed=     1.
 LinEq1:  Iter=  0 NonCon=     1 RMS=8.89D-04 Max=5.96D-02 NDo=     1
 AX will form     1 AO Fock derivatives at one time.
 LinEq1:  Iter=  1 NonCon=     1 RMS=2.76D-04 Max=7.66D-03 NDo=     1
 LinEq1:  Iter=  2 NonCon=     1 RMS=1.68D-04 Max=8.30D-03 NDo=     1
 LinEq1:  Iter=  3 NonCon=     1 RMS=1.16D-04 Max=3.62D-03 NDo=     1
 LinEq1:  Iter=  4 NonCon=     1 RMS=7.27D-05 Max=3.86D-03 NDo=     1
 LinEq1:  Iter=  5 NonCon=     1 RMS=4.63D-05 Max=2.31D-03 NDo=     1
 LinEq1:  Iter=  6 NonCon=     1 RMS=2.17D-05 Max=5.19D-04 NDo=     1
 LinEq1:  Iter=  7 NonCon=     1 RMS=5.99D-06 Max=2.03D-04 NDo=     1
 LinEq1:  Iter=  8 NonCon=     1 RMS=3.78D-06 Max=1.23D-04 NDo=     1
 LinEq1:  Iter=  9 NonCon=     1 RMS=2.31D-06 Max=8.87D-05 NDo=     1
 LinEq1:  Iter= 10 NonCon=     1 RMS=1.29D-06 Max=3.80D-05 NDo=     1
 LinEq1:  Iter= 11 NonCon=     1 RMS=5.64D-07 Max=1.22D-05 NDo=     1
 LinEq1:  Iter= 12 NonCon=     1 RMS=2.37D-07 Max=6.63D-06 NDo=     1
 LinEq1:  Iter= 13 NonCon=     1 RMS=9.78D-08 Max=1.95D-06 NDo=     1
 LinEq1:  Iter= 14 NonCon=     1 RMS=5.07D-08 Max=1.28D-06 NDo=     1
 LinEq1:  Iter= 15 NonCon=     1 RMS=1.97D-08 Max=5.45D-07 NDo=     1
 LinEq1:  Iter= 16 NonCon=     1 RMS=7.06D-09 Max=1.63D-07 NDo=     1
 LinEq1:  Iter= 17 NonCon=     1 RMS=2.53D-09 Max=5.75D-08 NDo=     1
 LinEq1:  Iter= 18 NonCon=     1 RMS=9.62D-10 Max=3.00D-08 NDo=     1
 LinEq1:  Iter= 19 NonCon=     1 RMS=4.46D-10 Max=9.53D-09 NDo=     1
 LinEq1:  Iter= 20 NonCon=     1 RMS=1.53D-10 Max=3.36D-09 NDo=     1
 LinEq1:  Iter= 21 NonCon=     1 RMS=5.53D-11 Max=1.58D-09 NDo=     1
 LinEq1:  Iter= 22 NonCon=     0 RMS=1.76D-11 Max=6.53D-10 NDo=     1
 Linear equations converged to 1.000D-10 1.000D-09 after    22 iterations.
 End of Minotr F.D. properties file   721 does not exist.
 End of Minotr F.D. properties file   722 does not exist.
 End of Minotr F.D. properties file   788 does not exist.
 Symmetrizing basis deriv contribution to polar:
 IMax=3 JMax=2 DiffMx= 0.00D+00
 G2DrvN: will do    17 centers at a time, making    1 passes.
 Calling FoFCou, ICntrl=  3107 FMM=F I1Cent=   0 AccDes= 0.00D+00.
 End of G2Drv F.D. properties file   721 does not exist.
 End of G2Drv F.D. properties file   722 does not exist.
 End of G2Drv F.D. properties file   788 does not exist.
 DoSCS=T DFT=T ScalE2(SS,OS)=  0.270000  0.270000
 R2 and R3 integrals will be kept in memory, NReq=  5268037470.
 DD1Dir will call FoFMem   1 times, MxPair=      2242
 NAB=   756 NAA=   378 NBB=   351.
 Discarding MO integrals.

 **********************************************************************

            Population analysis using the SCF Density.

 **********************************************************************

 Orbital symmetries:
 Alpha Orbitals:
       Occupied  (A) (A) (A) (A) (A) (A) (A) (A) (A) (A) (A) (A)
                 (A) (A) (A) (A) (A) (A) (A) (A) (A) (A) (A) (A)
                 (A) (A) (A) (A)
       Virtual   (A) (A) (A) (A) (A) (A) (A) (A) (A) (A) (A) (A)
                 (A) (A) (A) (A) (A) (A) (A) (A) (A) (A) (A) (A)
                 (A) (A) (A) (A) (A) (A) (A) (A) (A) (A) (A) (A)
                 (A) (A) (A) (A) (A) (A) (A) (A) (A) (A) (A) (A)
                 (A) (A) (A) (A) (A) (A) (A) (A) (A) (A) (A) (A)
                 (A) (A) (A) (A) (A) (A) (A) (A) (A) (A) (A) (A)
                 (A) (A) (A) (A) (A) (A) (A) (A) (A) (A) (A) (A)
                 (A) (A) (A) (A) (A) (A) (A) (A) (A) (A) (A) (A)
                 (A) (A) (A) (A) (A) (A) (A) (A) (A) (A) (A) (A)
                 (A) (A) (A) (A) (A) (A) (A) (A) (A) (A) (A) (A)
                 (A) (A) (A) (A) (A) (A) (A) (A) (A) (A) (A) (A)
                 (A) (A) (A) (A) (A) (A) (A) (A) (A) (A) (A) (A)
                 (A) (A) (A) (A) (A) (A) (A) (A) (A) (A) (A) (A)
                 (A) (A) (A) (A) (A) (A) (A) (A) (A) (A) (A) (A)
                 (A) (A) (A) (A) (A) (A) (A) (A) (A) (A) (A) (A)
                 (A) (A) (A) (A) (A) (A) (A) (A) (A) (A) (A) (A)
                 (A) (A) (A) (A) (A) (A) (A) (A) (A) (A) (A) (A)
                 (A) (A) (A) (A) (A) (A) (A) (A) (A) (A) (A) (A)
                 (A) (A) (A) (A) (A) (A) (A) (A) (A) (A) (A) (A)
                 (A) (A) (A) (A) (A) (A) (A) (A) (A) (A) (A) (A)
                 (A) (A) (A) (A) (A) (A) (A) (A) (A) (A) (A) (A)
                 (A) (A) (A) (A) (A) (A) (A) (A) (A) (A) (A) (A)
                 (A) (A) (A) (A) (A) (A) (A) (A) (A) (A) (A) (A)
                 (A) (A) (A) (A) (A) (A) (A) (A) (A) (A) (A) (A)
                 (A) (A) (A) (A) (A) (A) (A) (A) (A) (A) (A) (A)
                 (A) (A) (A) (A) (A) (A) (A) (A)
 Beta  Orbitals:
       Occupied  (A) (A) (A) (A) (A) (A) (A) (A) (A) (A) (A) (A)
                 (A) (A) (A) (A) (A) (A) (A) (A) (A) (A) (A) (A)
                 (A) (A) (A)
       Virtual   (A) (A) (A) (A) (A) (A) (A) (A) (A) (A) (A) (A)
                 (A) (A) (A) (A) (A) (A) (A) (A) (A) (A) (A) (A)
                 (A) (A) (A) (A) (A) (A) (A) (A) (A) (A) (A) (A)
                 (A) (A) (A) (A) (A) (A) (A) (A) (A) (A) (A) (A)
                 (A) (A) (A) (A) (A) (A) (A) (A) (A) (A) (A) (A)
                 (A) (A) (A) (A) (A) (A) (A) (A) (A) (A) (A) (A)
                 (A) (A) (A) (A) (A) (A) (A) (A) (A) (A) (A) (A)
                 (A) (A) (A) (A) (A) (A) (A) (A) (A) (A) (A) (A)
                 (A) (A) (A) (A) (A) (A) (A) (A) (A) (A) (A) (A)
                 (A) (A) (A) (A) (A) (A) (A) (A) (A) (A) (A) (A)
                 (A) (A) (A) (A) (A) (A) (A) (A) (A) (A) (A) (A)
                 (A) (A) (A) (A) (A) (A) (A) (A) (A) (A) (A) (A)
                 (A) (A) (A) (A) (A) (A) (A) (A) (A) (A) (A) (A)
                 (A) (A) (A) (A) (A) (A) (A) (A) (A) (A) (A) (A)
                 (A) (A) (A) (A) (A) (A) (A) (A) (A) (A) (A) (A)
                 (A) (A) (A) (A) (A) (A) (A) (A) (A) (A) (A) (A)
                 (A) (A) (A) (A) (A) (A) (A) (A) (A) (A) (A) (A)
                 (A) (A) (A) (A) (A) (A) (A) (A) (A) (A) (A) (A)
                 (A) (A) (A) (A) (A) (A) (A) (A) (A) (A) (A) (A)
                 (A) (A) (A) (A) (A) (A) (A) (A) (A) (A) (A) (A)
                 (A) (A) (A) (A) (A) (A) (A) (A) (A) (A) (A) (A)
                 (A) (A) (A) (A) (A) (A) (A) (A) (A) (A) (A) (A)
                 (A) (A) (A) (A) (A) (A) (A) (A) (A) (A) (A) (A)
                 (A) (A) (A) (A) (A) (A) (A) (A) (A) (A) (A) (A)
                 (A) (A) (A) (A) (A) (A) (A) (A) (A) (A) (A) (A)
                 (A) (A) (A) (A) (A) (A) (A) (A) (A)
 The electronic state is 2-A.
 Alpha  occ. eigenvalues --  -19.80156 -19.79536 -10.66432 -10.65600 -10.63775
 Alpha  occ. eigenvalues --  -10.61962 -10.61355  -1.27207  -1.04759  -0.90034
 Alpha  occ. eigenvalues --   -0.85371  -0.79402  -0.77724  -0.63209  -0.56380
 Alpha  occ. eigenvalues --   -0.55053  -0.54298  -0.51840  -0.50705  -0.50458
 Alpha  occ. eigenvalues --   -0.49757  -0.49594  -0.44325  -0.40540  -0.38405
 Alpha  occ. eigenvalues --   -0.34789  -0.31634  -0.29733
 Alpha virt. eigenvalues --    0.08016   0.08621   0.09564   0.10775   0.11403
 Alpha virt. eigenvalues --    0.12988   0.14560   0.15191   0.16162   0.17010
 Alpha virt. eigenvalues --    0.18124   0.19351   0.20477   0.23247   0.25598
 Alpha virt. eigenvalues --    0.30729   0.31025   0.31214   0.31751   0.32938
 Alpha virt. eigenvalues --    0.33214   0.34632   0.36928   0.40841   0.42478
 Alpha virt. eigenvalues --    0.45529   0.46866   0.49998   0.50257   0.51035
 Alpha virt. eigenvalues --    0.51404   0.51940   0.52723   0.52978   0.53497
 Alpha virt. eigenvalues --    0.54309   0.55356   0.56152   0.57838   0.59372
 Alpha virt. eigenvalues --    0.61844   0.64495   0.64956   0.67582   0.68321
 Alpha virt. eigenvalues --    0.71242   0.72399   0.72539   0.74930   0.77481
 Alpha virt. eigenvalues --    0.81182   0.82880   0.84174   0.86121   0.87434
 Alpha virt. eigenvalues --    0.90136   0.92364   0.93326   0.94974   0.95455
 Alpha virt. eigenvalues --    0.97360   0.99659   1.01443   1.03037   1.05104
 Alpha virt. eigenvalues --    1.05366   1.06193   1.07699   1.08667   1.09037
 Alpha virt. eigenvalues --    1.10464   1.11907   1.12911   1.16985   1.18925
 Alpha virt. eigenvalues --    1.20599   1.23519   1.24298   1.26608   1.27879
 Alpha virt. eigenvalues --    1.28447   1.30615   1.31798   1.32641   1.35541
 Alpha virt. eigenvalues --    1.36080   1.38087   1.39567   1.39697   1.40449
 Alpha virt. eigenvalues --    1.41143   1.45368   1.47429   1.49084   1.52034
 Alpha virt. eigenvalues --    1.53600   1.57631   1.58197   1.61573   1.63065
 Alpha virt. eigenvalues --    1.68978   1.73206   1.76028   1.76530   1.83977
 Alpha virt. eigenvalues --    1.91239   1.98578   2.01728   2.03206   2.11249
 Alpha virt. eigenvalues --    2.14275   2.18744   2.19834   2.22431   2.24625
 Alpha virt. eigenvalues --    2.26753   2.31221   2.32645   2.37100   2.41238
 Alpha virt. eigenvalues --    2.41437   2.44721   2.47370   2.49028   2.52172
 Alpha virt. eigenvalues --    2.54608   2.56797   2.60165   2.61064   2.63989
 Alpha virt. eigenvalues --    2.64193   2.66704   2.68305   2.75916   2.76703
 Alpha virt. eigenvalues --    2.77566   2.78648   2.79491   2.82624   2.83730
 Alpha virt. eigenvalues --    2.84157   2.85931   2.87485   2.89861   2.91706
 Alpha virt. eigenvalues --    2.92019   2.93890   2.94675   2.98359   2.99073
 Alpha virt. eigenvalues --    3.00085   3.01106   3.03091   3.04974   3.06359
 Alpha virt. eigenvalues --    3.06973   3.07347   3.09763   3.10358   3.11924
 Alpha virt. eigenvalues --    3.13737   3.14643   3.15552   3.16539   3.17043
 Alpha virt. eigenvalues --    3.19592   3.20362   3.22432   3.27548   3.27755
 Alpha virt. eigenvalues --    3.30231   3.30746   3.33782   3.36134   3.38605
 Alpha virt. eigenvalues --    3.40755   3.41434   3.42036   3.42690   3.43143
 Alpha virt. eigenvalues --    3.44450   3.47228   3.48596   3.51147   3.53138
 Alpha virt. eigenvalues --    3.54034   3.56459   3.57522   3.58559   3.59322
 Alpha virt. eigenvalues --    3.61845   3.64424   3.66342   3.70185   3.71264
 Alpha virt. eigenvalues --    3.75327   3.76757   3.80156   3.82550   3.83230
 Alpha virt. eigenvalues --    3.83927   3.85439   3.86160   3.88219   3.91183
 Alpha virt. eigenvalues --    3.93708   3.95905   3.97784   3.98981   4.01123
 Alpha virt. eigenvalues --    4.04152   4.04996   4.05891   4.07747   4.09012
 Alpha virt. eigenvalues --    4.15027   4.16832   4.17914   4.18107   4.18908
 Alpha virt. eigenvalues --    4.21840   4.22221   4.23669   4.28425   4.32868
 Alpha virt. eigenvalues --    4.34788   4.36038   4.37365   4.39505   4.41685
 Alpha virt. eigenvalues --    4.42190   4.44690   4.51235   4.57055   4.59343
 Alpha virt. eigenvalues --    4.61549   4.67653   4.71291   4.80243   4.81923
 Alpha virt. eigenvalues --    4.85589   4.86457   4.93188   4.94643   4.98117
 Alpha virt. eigenvalues --    4.99105   5.01712   5.03222   5.04844   5.07422
 Alpha virt. eigenvalues --    5.09552   5.15576   5.18710   5.20658   5.24461
 Alpha virt. eigenvalues --    5.28037   5.30391   5.31123   5.31787   5.32808
 Alpha virt. eigenvalues --    5.33749   5.35089   5.35249   5.37257   5.39698
 Alpha virt. eigenvalues --    5.42359   5.43870   5.45880   5.48011   5.49572
 Alpha virt. eigenvalues --    5.52664   5.63136   5.73580   5.77776   5.80668
 Alpha virt. eigenvalues --    5.81782   5.86619   5.91070   5.94591   5.99226
 Alpha virt. eigenvalues --    5.99253   6.03962   6.06639   6.08142   6.10209
 Alpha virt. eigenvalues --    6.20816   6.33793   6.42855   6.56322   6.61975
 Alpha virt. eigenvalues --    6.71623   6.78910   6.80234   6.86230   6.97253
 Alpha virt. eigenvalues --    7.01785   7.09044   7.18151   7.33548   7.41836
 Alpha virt. eigenvalues --    7.55151   7.83821   9.99994  10.57540  13.19517
 Alpha virt. eigenvalues --   13.40940  13.72279  18.43054
  Beta  occ. eigenvalues --  -19.79502 -19.78138 -10.66432 -10.64406 -10.63800
  Beta  occ. eigenvalues --  -10.61772 -10.61450  -1.24945  -1.01204  -0.89273
  Beta  occ. eigenvalues --   -0.83874  -0.78236  -0.76977  -0.58305  -0.55313
  Beta  occ. eigenvalues --   -0.54617  -0.53677  -0.50606  -0.50238  -0.49530
  Beta  occ. eigenvalues --   -0.49384  -0.47945  -0.43403  -0.38622  -0.35435
  Beta  occ. eigenvalues --   -0.31543  -0.31140
  Beta virt. eigenvalues --   -0.05884   0.08143   0.08709   0.10418   0.11117
  Beta virt. eigenvalues --    0.11569   0.13740   0.14682   0.15247   0.16211
  Beta virt. eigenvalues --    0.17501   0.18334   0.19827   0.20704   0.23636
  Beta virt. eigenvalues --    0.26081   0.31018   0.31086   0.31405   0.31979
  Beta virt. eigenvalues --    0.33308   0.33730   0.35019   0.37225   0.41046
  Beta virt. eigenvalues --    0.42914   0.45646   0.46997   0.50340   0.50720
  Beta virt. eigenvalues --    0.51095   0.51686   0.52063   0.53071   0.53293
  Beta virt. eigenvalues --    0.53753   0.54789   0.55627   0.56270   0.58746
  Beta virt. eigenvalues --    0.61048   0.62854   0.64834   0.65500   0.68251
  Beta virt. eigenvalues --    0.68583   0.71673   0.72631   0.73022   0.75258
  Beta virt. eigenvalues --    0.77964   0.82005   0.82998   0.84722   0.86160
  Beta virt. eigenvalues --    0.87866   0.90313   0.92648   0.93552   0.95005
  Beta virt. eigenvalues --    0.95664   0.97497   1.00167   1.01718   1.03247
  Beta virt. eigenvalues --    1.05168   1.05485   1.06370   1.07968   1.08716
  Beta virt. eigenvalues --    1.09142   1.11449   1.12421   1.13141   1.17136
  Beta virt. eigenvalues --    1.19314   1.20946   1.23745   1.25085   1.26993
  Beta virt. eigenvalues --    1.28161   1.28789   1.30933   1.32212   1.32856
  Beta virt. eigenvalues --    1.35663   1.36310   1.38166   1.39684   1.39784
  Beta virt. eigenvalues --    1.40518   1.41402   1.46153   1.47898   1.49482
  Beta virt. eigenvalues --    1.52554   1.53934   1.58018   1.58667   1.61826
  Beta virt. eigenvalues --    1.63172   1.69131   1.73655   1.76496   1.77077
  Beta virt. eigenvalues --    1.84241   1.91879   1.99269   2.02620   2.05830
  Beta virt. eigenvalues --    2.11467   2.14640   2.20467   2.21413   2.22799
  Beta virt. eigenvalues --    2.25390   2.27274   2.31438   2.33063   2.37337
  Beta virt. eigenvalues --    2.41441   2.42343   2.45120   2.47699   2.49200
  Beta virt. eigenvalues --    2.52805   2.55169   2.56909   2.60528   2.61458
  Beta virt. eigenvalues --    2.64179   2.64369   2.67234   2.68552   2.76556
  Beta virt. eigenvalues --    2.77022   2.77882   2.79171   2.79847   2.82958
  Beta virt. eigenvalues --    2.84202   2.84273   2.86963   2.87934   2.89977
  Beta virt. eigenvalues --    2.91792   2.92162   2.94334   2.95143   2.98760
  Beta virt. eigenvalues --    2.99782   3.00548   3.01385   3.03400   3.05205
  Beta virt. eigenvalues --    3.06534   3.07218   3.07653   3.09933   3.10712
  Beta virt. eigenvalues --    3.12082   3.13930   3.14937   3.15778   3.17115
  Beta virt. eigenvalues --    3.17460   3.19961   3.20717   3.23044   3.27722
  Beta virt. eigenvalues --    3.27990   3.30761   3.31339   3.34288   3.36486
  Beta virt. eigenvalues --    3.39047   3.41077   3.41539   3.42271   3.42743
  Beta virt. eigenvalues --    3.43741   3.44819   3.47737   3.49128   3.51364
  Beta virt. eigenvalues --    3.53257   3.54339   3.56616   3.57929   3.58845
  Beta virt. eigenvalues --    3.59516   3.61975   3.64745   3.66845   3.70517
  Beta virt. eigenvalues --    3.71752   3.75513   3.76859   3.80536   3.82808
  Beta virt. eigenvalues --    3.83423   3.84170   3.85508   3.86209   3.88148
  Beta virt. eigenvalues --    3.91331   3.93866   3.96101   3.98062   3.99297
  Beta virt. eigenvalues --    4.01262   4.04284   4.05050   4.05950   4.07923
  Beta virt. eigenvalues --    4.09174   4.15148   4.16890   4.18025   4.18277
  Beta virt. eigenvalues --    4.19123   4.21893   4.22659   4.23832   4.28680
  Beta virt. eigenvalues --    4.33198   4.34834   4.36066   4.37647   4.39731
  Beta virt. eigenvalues --    4.41785   4.42532   4.44872   4.52324   4.57548
  Beta virt. eigenvalues --    4.59938   4.62451   4.67915   4.72477   4.80519
  Beta virt. eigenvalues --    4.82343   4.86391   4.86988   4.93568   4.94984
  Beta virt. eigenvalues --    4.98645   4.99303   5.02017   5.03459   5.05128
  Beta virt. eigenvalues --    5.07611   5.10023   5.16297   5.19548   5.21567
  Beta virt. eigenvalues --    5.24797   5.28288   5.30700   5.31496   5.31926
  Beta virt. eigenvalues --    5.33048   5.33765   5.35376   5.35661   5.37714
  Beta virt. eigenvalues --    5.40285   5.42661   5.44457   5.46522   5.48072
  Beta virt. eigenvalues --    5.49978   5.53408   5.63774   5.74858   5.78072
  Beta virt. eigenvalues --    5.80889   5.82154   5.87186   5.91198   5.94903
  Beta virt. eigenvalues --    5.99274   5.99330   6.04632   6.07501   6.08651
  Beta virt. eigenvalues --    6.10799   6.21241   6.34044   6.44046   6.59061
  Beta virt. eigenvalues --    6.64572   6.73009   6.79696   6.82635   6.87944
  Beta virt. eigenvalues --    6.99106   7.02814   7.10456   7.20774   7.34781
  Beta virt. eigenvalues --    7.43632   7.58338   7.84397  10.00373  10.59340
  Beta virt. eigenvalues --   13.20442  13.40955  13.72293  18.43130
          Condensed to atoms (all electrons):
               1          2          3          4          5          6
     1  C    5.087665   0.405596   0.384381  -0.003054   0.000288   0.000439
     2  H    0.405596   0.555801  -0.036269   0.000556  -0.001510  -0.000272
     3  H    0.384381  -0.036269   0.557710  -0.000094   0.000001   0.000043
     4  C   -0.003054   0.000556  -0.000094   4.576690   0.396499   0.396349
     5  H    0.000288  -0.001510   0.000001   0.396499   0.663923  -0.031014
     6  H    0.000439  -0.000272   0.000043   0.396349  -0.031014   0.593965
     7  H   -0.000105   0.000130   0.000000   0.411805  -0.058295  -0.032539
     8  O    0.006020   0.002187   0.001346   0.300489  -0.048335  -0.026988
     9  O   -0.118841  -0.002119  -0.001051  -0.041071   0.002179   0.006513
    10  H    0.254812  -0.003554  -0.008356   0.004226   0.002974  -0.000780
    11  C    0.396060  -0.038145  -0.028594  -0.000447  -0.000719   0.000012
    12  C   -0.123903  -0.010304   0.005884  -0.000142  -0.000120   0.000007
    13  C   -0.001432  -0.000157   0.000090  -0.000001   0.000000   0.000000
    14  H   -0.000039  -0.000022   0.000070  -0.000000   0.000000   0.000000
    15  H    0.000014   0.000062  -0.000015  -0.000000  -0.000000   0.000000
    16  H    0.000050  -0.000012  -0.000015   0.000000   0.000000   0.000000
               7          8          9         10         11         12
     1  C   -0.000105   0.006020  -0.118841   0.254812   0.396060  -0.123903
     2  H    0.000130   0.002187  -0.002119  -0.003554  -0.038145  -0.010304
     3  H    0.000000   0.001346  -0.001051  -0.008356  -0.028594   0.005884
     4  C    0.411805   0.300489  -0.041071   0.004226  -0.000447  -0.000142
     5  H   -0.058295  -0.048335   0.002179   0.002974  -0.000719  -0.000120
     6  H   -0.032539  -0.026988   0.006513  -0.000780   0.000012   0.000007
     7  H    0.630046  -0.038273  -0.000866   0.000362   0.000300   0.000041
     8  O   -0.038273   7.936884   0.079916  -0.025192   0.004656   0.000244
     9  O   -0.000866   0.079916   8.061636   0.187096   0.000385   0.002647
    10  H    0.000362  -0.025192   0.187096   0.394107  -0.005748  -0.001845
    11  C    0.000300   0.004656   0.000385  -0.005748   5.486703   0.358473
    12  C    0.000041   0.000244   0.002647  -0.001845   0.358473   5.471096
    13  C    0.000000   0.000000   0.000027  -0.000144  -0.105412   0.422976
    14  H    0.000000   0.000000   0.000000   0.000001   0.001173  -0.035851
    15  H    0.000000   0.000000   0.000000  -0.000000   0.002637  -0.036198
    16  H    0.000000  -0.000000   0.000001   0.000000  -0.001358  -0.037311
              13         14         15         16
     1  C   -0.001432  -0.000039   0.000014   0.000050
     2  H   -0.000157  -0.000022   0.000062  -0.000012
     3  H    0.000090   0.000070  -0.000015  -0.000015
     4  C   -0.000001  -0.000000  -0.000000   0.000000
     5  H    0.000000   0.000000  -0.000000   0.000000
     6  H    0.000000   0.000000   0.000000   0.000000
     7  H    0.000000   0.000000   0.000000   0.000000
     8  O    0.000000   0.000000   0.000000  -0.000000
     9  O    0.000027   0.000000   0.000000   0.000001
    10  H   -0.000144   0.000001  -0.000000   0.000000
    11  C   -0.105412   0.001173   0.002637  -0.001358
    12  C    0.422976  -0.035851  -0.036198  -0.037311
    13  C    4.757351   0.410161   0.408936   0.414629
    14  H    0.410161   0.554910  -0.028916  -0.028101
    15  H    0.408936  -0.028916   0.556232  -0.028351
    16  H    0.414629  -0.028101  -0.028351   0.551554
          Atomic-Atomic Spin Densities.
               1          2          3          4          5          6
     1  C    0.608130   0.004969   0.000889   0.001203  -0.002984   0.000201
     2  H    0.004969  -0.022844   0.003373  -0.000212   0.000484  -0.000002
     3  H    0.000889   0.003373  -0.014865  -0.000060   0.000119  -0.000016
     4  C    0.001203  -0.000212  -0.000060  -0.002081   0.002210   0.000308
     5  H   -0.002984   0.000484   0.000119   0.002210   0.002911  -0.001054
     6  H    0.000201  -0.000002  -0.000016   0.000308  -0.001054  -0.002519
     7  H    0.000945  -0.000063  -0.000034  -0.002624  -0.001476   0.001584
     8  O    0.012925  -0.001023  -0.000930   0.003559  -0.000240   0.000265
     9  O   -0.116567   0.002729   0.005156  -0.003929   0.001623  -0.000146
    10  H    0.048533   0.001437   0.001102   0.000157  -0.001128   0.000090
    11  C   -0.022197  -0.000779  -0.001436  -0.000066   0.000170  -0.000007
    12  C   -0.008965   0.000855  -0.000662   0.000007  -0.000024  -0.000001
    13  C    0.000056   0.000036   0.000023   0.000000  -0.000000  -0.000000
    14  H    0.000035   0.000002   0.000006  -0.000000   0.000000  -0.000000
    15  H    0.000038   0.000003   0.000005  -0.000000   0.000000  -0.000000
    16  H   -0.000004  -0.000004  -0.000009   0.000000  -0.000000   0.000000
               7          8          9         10         11         12
     1  C    0.000945   0.012925  -0.116567   0.048533  -0.022197  -0.008965
     2  H   -0.000063  -0.001023   0.002729   0.001437  -0.000779   0.000855
     3  H   -0.000034  -0.000930   0.005156   0.001102  -0.001436  -0.000662
     4  C   -0.002624   0.003559  -0.003929   0.000157  -0.000066   0.000007
     5  H   -0.001476  -0.000240   0.001623  -0.001128   0.000170  -0.000024
     6  H    0.001584   0.000265  -0.000146   0.000090  -0.000007  -0.000001
     7  H    0.002603  -0.001247   0.001528   0.000506  -0.000053  -0.000001
     8  O   -0.001247   0.010718  -0.035918   0.007847  -0.000169   0.000009
     9  O    0.001528  -0.035918   0.717314  -0.051429   0.006226   0.000512
    10  H    0.000506   0.007847  -0.051429  -0.083092   0.003110  -0.000996
    11  C   -0.000053  -0.000169   0.006226   0.003110  -0.172398   0.054464
    12  C   -0.000001   0.000009   0.000512  -0.000996   0.054464   0.145888
    13  C    0.000000   0.000000   0.000000  -0.000004   0.004898  -0.008598
    14  H   -0.000000  -0.000000   0.000001   0.000000  -0.000050  -0.002018
    15  H   -0.000000  -0.000000   0.000001  -0.000000  -0.000055  -0.002144
    16  H    0.000000   0.000000  -0.000006   0.000000  -0.000123  -0.002607
              13         14         15         16
     1  C    0.000056   0.000035   0.000038  -0.000004
     2  H    0.000036   0.000002   0.000003  -0.000004
     3  H    0.000023   0.000006   0.000005  -0.000009
     4  C    0.000000  -0.000000  -0.000000   0.000000
     5  H   -0.000000   0.000000   0.000000  -0.000000
     6  H   -0.000000  -0.000000  -0.000000   0.000000
     7  H    0.000000  -0.000000  -0.000000   0.000000
     8  O    0.000000  -0.000000  -0.000000   0.000000
     9  O    0.000000   0.000001   0.000001  -0.000006
    10  H   -0.000004   0.000000  -0.000000   0.000000
    11  C    0.004898  -0.000050  -0.000055  -0.000123
    12  C   -0.008598  -0.002018  -0.002144  -0.002607
    13  C   -0.015044   0.001517   0.001617   0.001255
    14  H    0.001517   0.003119   0.000236  -0.001066
    15  H    0.001617   0.000236   0.003437  -0.001146
    16  H    0.001255  -0.001066  -0.001146   0.009608
 Mulliken charges and spin densities:
               1          2
     1  C   -0.287950   0.527207
     2  H    0.128032  -0.011038
     3  H    0.124867  -0.007338
     4  C   -0.041805  -0.001526
     5  H    0.074129   0.000610
     6  H    0.094265  -0.001296
     7  H    0.087394   0.001669
     8  O   -0.192954  -0.004202
     9  O   -0.176452   0.527096
    10  H    0.202042  -0.073867
    11  C   -0.069976  -0.128464
    12  C   -0.015692   0.175720
    13  C   -0.307024  -0.014244
    14  H    0.126613   0.001783
    15  H    0.125599   0.001991
    16  H    0.128913   0.005900
 Sum of Mulliken charges =  -0.00000   1.00000
 Mulliken charges and spin densities with hydrogens summed into heavy atoms:
               1          2
     1  C   -0.035051   0.508831
     4  C    0.213983  -0.000544
     8  O   -0.192954  -0.004202
     9  O    0.025589   0.453228
    11  C   -0.069976  -0.128464
    12  C   -0.015692   0.175720
    13  C    0.074101  -0.004570
 APT charges:
               1
     1  C    0.621107
     2  H   -0.030216
     3  H   -0.042169
     4  C    0.470402
     5  H   -0.033282
     6  H   -0.012145
     7  H   -0.031107
     8  O   -0.499673
     9  O    0.254127
    10  H   -0.380862
    11  C   -0.467902
    12  C    0.002531
    13  C    0.172056
    14  H   -0.005890
    15  H   -0.006633
    16  H   -0.010344
 Sum of APT charges =   0.00000
 APT charges with hydrogens summed into heavy atoms:
               1
     1  C    0.548721
     4  C    0.393868
     8  O   -0.499673
     9  O   -0.126735
    11  C   -0.467902
    12  C    0.002531
    13  C    0.149189
 Electronic spatial extent (au):  <R**2>=           1568.4808
 Charge=             -0.0000 electrons
 Dipole moment (field-independent basis, Debye):
    X=              0.7740    Y=             -0.6159    Z=              1.6401  Tot=              1.9153
 Quadrupole moment (field-independent basis, Debye-Ang):
   XX=            -32.5997   YY=            -41.5282   ZZ=            -44.0348
   XY=              0.4658   XZ=             -4.5170   YZ=             -0.1187
 Traceless Quadrupole moment (field-independent basis, Debye-Ang):
   XX=              6.7879   YY=             -2.1407   ZZ=             -4.6472
   XY=              0.4658   XZ=             -4.5170   YZ=             -0.1187
 Octapole moment (field-independent basis, Debye-Ang**2):
  XXX=              4.4580  YYY=              0.1286  ZZZ=             -1.1510  XYY=             -7.9066
  XXY=            -22.4053  XXZ=              7.8583  XZZ=             -7.0205  YZZ=             -0.4908
  YYZ=             -2.2750  XYZ=             -0.1604
 Hexadecapole moment (field-independent basis, Debye-Ang**3):
 XXXX=          -1525.7310 YYYY=           -168.9312 ZZZZ=           -111.2722 XXXY=             -2.4076
 XXXZ=            -32.9962 YYYX=             -5.6300 YYYZ=              0.3786 ZZZX=              3.5166
 ZZZY=              0.8477 XXYY=           -320.8859 XXZZ=           -313.1451 YYZZ=            -46.5715
 XXYZ=             -1.8898 YYXZ=             -0.6568 ZZXY=             -2.6123
 N-N= 2.672586956149D+02 E-N=-1.343047294761D+03  KE= 3.440228753796D+02
  Exact polarizability: 145.854   0.369  61.707   1.576   2.719  55.012
 Approx polarizability: 115.795  -8.404  69.861  -0.501   4.293  65.381
                          Isotropic Fermi Contact Couplings
        Atom                 a.u.       MegaHertz       Gauss      10(-4) cm-1
     1  C(13)              0.17579     197.61949      70.51555      65.91876
     2  H(1)              -0.00190      -8.51157      -3.03714      -2.83915
     3  H(1)               0.00029       1.28992       0.46028       0.43027
     4  C(13)             -0.00137      -1.53525      -0.54782      -0.51210
     5  H(1)               0.00164       7.32471       2.61364       2.44326
     6  H(1)              -0.00007      -0.31411      -0.11208      -0.10478
     7  H(1)               0.00007       0.30998       0.11061       0.10340
     8  O(17)              0.01282      -7.77030      -2.77264      -2.59189
     9  O(17)              0.06304     -38.21507     -13.63609     -12.74718
    10  H(1)              -0.01973     -88.20813     -31.47485     -29.42306
    11  C(13)             -0.01154     -12.97248      -4.62890      -4.32715
    12  C(13)              0.00209       2.34517       0.83682       0.78227
    13  C(13)             -0.00265      -2.97812      -1.06267      -0.99339
    14  H(1)               0.00055       2.46249       0.87868       0.82140
    15  H(1)               0.00069       3.07941       1.09881       1.02718
    16  H(1)               0.00292      13.03199       4.65014       4.34700
 --------------------------------------------------------
       Center         ----  Spin Dipole Couplings  ----
                      3XX-RR        3YY-RR        3ZZ-RR
 --------------------------------------------------------
     1   Atom        0.038895      0.049607     -0.088502
     2   Atom       -0.012873     -0.022206      0.035079
     3   Atom       -0.021732      0.030297     -0.008565
     4   Atom        0.003821     -0.003802     -0.000019
     5   Atom       -0.001993     -0.001905      0.003898
     6   Atom        0.003357     -0.002956     -0.000401
     7   Atom        0.003266      0.000593     -0.003859
     8   Atom        0.073630     -0.117215      0.043585
     9   Atom        0.062745     -0.205777      0.143032
    10   Atom        0.053369     -0.014008     -0.039362
    11   Atom        0.039348     -0.024667     -0.014681
    12   Atom       -0.048210      0.063387     -0.015177
    13   Atom        0.000552      0.001007     -0.001559
    14   Atom        0.003084     -0.001850     -0.001234
    15   Atom        0.002196     -0.000944     -0.001252
    16   Atom        0.001530      0.000209     -0.001739
 --------------------------------------------------------
                        XY            XZ            YZ
 --------------------------------------------------------
     1   Atom        0.347641      0.267303      0.272695
     2   Atom        0.013694     -0.013523      0.011519
     3   Atom        0.006743      0.015123     -0.020811
     4   Atom        0.004312     -0.007948     -0.004779
     5   Atom        0.003647     -0.004405     -0.005195
     6   Atom        0.001937     -0.004122     -0.000873
     7   Atom        0.006884     -0.003627     -0.002824
     8   Atom        0.118986      0.226656      0.075418
     9   Atom        1.001684      1.182526      1.038739
    10   Atom        0.163219      0.140080      0.116506
    11   Atom       -0.010785      0.002935     -0.011527
    12   Atom        0.045246      0.031614      0.089626
    13   Atom       -0.000586      0.000333      0.002242
    14   Atom       -0.000274     -0.001141      0.000093
    15   Atom       -0.001579      0.001430     -0.000742
    16   Atom       -0.002055     -0.000483      0.000952
 --------------------------------------------------------


 ---------------------------------------------------------------------------------
              Anisotropic Spin Dipole Couplings in Principal Axis System
 ---------------------------------------------------------------------------------

       Atom             a.u.   MegaHertz   Gauss  10(-4) cm-1        Axes

              Baa    -0.3036   -40.736   -14.536   -13.588 -0.6399  0.7520 -0.1581
     1 C(13)  Bbb    -0.2993   -40.160   -14.330   -13.396 -0.4623 -0.2123  0.8609
              Bcc     0.6028    80.896    28.866    26.984  0.6138  0.6240  0.4835
 
              Baa    -0.0362   -19.319    -6.893    -6.444 -0.5901  0.7718 -0.2367
     2 H(1)   Bbb    -0.0034    -1.840    -0.657    -0.614  0.7783  0.6218  0.0873
              Bcc     0.0397    21.159     7.550     7.058 -0.2145  0.1327  0.9677
 
              Baa    -0.0364   -19.397    -6.921    -6.470  0.7495 -0.2652 -0.6065
     3 H(1)   Bbb    -0.0030    -1.592    -0.568    -0.531  0.6619  0.2964  0.6885
              Bcc     0.0393    20.989     7.489     7.001  0.0028  0.9175 -0.3977
 
              Baa    -0.0073    -0.978    -0.349    -0.326  0.2495  0.6613  0.7075
     4 C(13)  Bbb    -0.0053    -0.706    -0.252    -0.235 -0.6486  0.6566 -0.3849
              Bcc     0.0125     1.684     0.601     0.562  0.7190  0.3629 -0.5927
 
              Baa    -0.0057    -3.029    -1.081    -1.010 -0.5973  0.7874  0.1524
     5 H(1)   Bbb    -0.0040    -2.141    -0.764    -0.714  0.6727  0.3885  0.6298
              Bcc     0.0097     5.169     1.845     1.724 -0.4367 -0.4787  0.7617
 
              Baa    -0.0036    -1.919    -0.685    -0.640 -0.4220  0.8513 -0.3117
     6 H(1)   Bbb    -0.0029    -1.536    -0.548    -0.513  0.3765  0.4773  0.7940
              Bcc     0.0065     3.456     1.233     1.153  0.8247  0.2177 -0.5219
 
              Baa    -0.0054    -2.874    -1.026    -0.959  0.4563 -0.1082  0.8832
     7 H(1)   Bbb    -0.0050    -2.686    -0.958    -0.896 -0.5000  0.7899  0.3551
              Bcc     0.0104     5.560     1.984     1.855  0.7361  0.6036 -0.3063
 
              Baa    -0.1898    13.737     4.902     4.582  0.6536 -0.6197 -0.4344
     8 O(17)  Bbb    -0.1390    10.058     3.589     3.355  0.2681  0.7264 -0.6328
              Bcc     0.3288   -23.795    -8.491    -7.937  0.7078  0.2972  0.6409
 
              Baa    -1.0848    78.492    28.008    26.182 -0.1171  0.8109 -0.5733
     9 O(17)  Bbb    -1.0798    78.136    27.881    26.063  0.7963 -0.2683 -0.5422
              Bcc     2.1646  -156.628   -55.889   -52.246  0.5935  0.5200  0.6143
 
              Baa    -0.1474   -78.634   -28.059   -26.230 -0.5244  0.8252 -0.2100
    10 H(1)   Bbb    -0.1404   -74.922   -26.734   -24.991 -0.5177 -0.1132  0.8480
              Bcc     0.2878   153.556    54.793    51.221  0.6760  0.5534  0.4865
 
              Baa    -0.0330    -4.431    -1.581    -1.478  0.1056  0.8495  0.5169
    11 C(13)  Bbb    -0.0085    -1.142    -0.407    -0.381 -0.1644 -0.4978  0.8516
              Bcc     0.0415     5.573     1.989     1.859  0.9807 -0.1749  0.0871
 
              Baa    -0.0740    -9.935    -3.545    -3.314 -0.1638 -0.5005  0.8501
    12 C(13)  Bbb    -0.0642    -8.621    -3.076    -2.876  0.9448 -0.3274 -0.0107
              Bcc     0.1383    18.556     6.621     6.190  0.2837  0.8014  0.5265
 
              Baa    -0.0030    -0.397    -0.142    -0.132 -0.1646 -0.5040  0.8479
    13 C(13)  Bbb     0.0006     0.078     0.028     0.026  0.9679  0.0831  0.2372
              Bcc     0.0024     0.318     0.114     0.106 -0.1900  0.8597  0.4741
 
              Baa    -0.0019    -0.996    -0.356    -0.332  0.0366  0.9961 -0.0803
    14 H(1)   Bbb    -0.0015    -0.808    -0.288    -0.270  0.2441  0.0690  0.9673
              Bcc     0.0034     1.805     0.644     0.602  0.9691 -0.0550 -0.2406
 
              Baa    -0.0019    -0.996    -0.356    -0.332 -0.1012  0.5120  0.8530
    15 H(1)   Bbb    -0.0015    -0.821    -0.293    -0.274  0.4836  0.7746 -0.4075
              Bcc     0.0034     1.818     0.649     0.606  0.8694 -0.3713  0.3260
 
              Baa    -0.0022    -1.162    -0.415    -0.388 -0.1507 -0.4755  0.8667
    16 H(1)   Bbb    -0.0010    -0.552    -0.197    -0.184  0.6060  0.6483  0.4610
              Bcc     0.0032     1.714     0.612     0.572  0.7811 -0.5947 -0.1904
 

 ---------------------------------------------------------------------------------

 Calling FoFJK, ICntrl=  10100127 FMM=F ISym2X=0 I1Cent= 0 IOpClX= 1 NMat=1 NMatS=1 NMatT=0.
 ***** Axes restored to original set *****
 -------------------------------------------------------------------
 Center     Atomic                   Forces (Hartrees/Bohr)
 Number     Number              X              Y              Z
 -------------------------------------------------------------------
      1        6          -0.068724413    0.065439452    0.001278341
      2        1          -0.000214831   -0.012150159    0.002921334
      3        1           0.000260935   -0.002201455    0.005276287
      4        6          -0.000887432   -0.002340514   -0.003631957
      5        1           0.000297716    0.000504750    0.000445616
      6        1           0.000074507   -0.000200284   -0.000325593
      7        1           0.000203508    0.000664274   -0.000254151
      8        8          -0.012632680   -0.000557327    0.019513910
      9        8           0.033341482   -0.038227592   -0.002970078
     10        1          -0.004674958    0.001161630   -0.001941551
     11        6           0.079915175   -0.016640163   -0.031521015
     12        6          -0.064919175    0.012180561    0.026420025
     13        6           0.048735602   -0.009366987   -0.019729227
     14        1           0.000234942    0.009425794    0.006705826
     15        1          -0.007556655    0.001434833   -0.008674249
     16        1          -0.003453721   -0.009126813    0.006486483
 -------------------------------------------------------------------
 Cartesian Forces:  Max     0.079915175 RMS     0.024299198
 FormGI is forming the generalized inverse of G from B-inverse, IUseBI=4.

 GradGradGradGradGradGradGradGradGradGradGradGradGradGradGradGradGradGrad
 Berny optimization.
 Internal  Forces:  Max     0.057976756 RMS     0.013985563
 Search for a saddle point.
 Step number   1 out of a maximum of  100
 All quantities printed in internal units (Hartrees-Bohrs-Radians)
 Swapping is turned off.
 Second derivative matrix not updated -- analytic derivatives used.
 ITU=  0
     Eigenvalues ---   -0.02514  -0.00000   0.00013   0.00630   0.01301
     Eigenvalues ---    0.01832   0.01859   0.02925   0.03428   0.03500
     Eigenvalues ---    0.03736   0.04132   0.05057   0.05912   0.06711
     Eigenvalues ---    0.08502   0.08541   0.09004   0.10576   0.11457
     Eigenvalues ---    0.11583   0.13033   0.14684   0.15193   0.15637
     Eigenvalues ---    0.16813   0.18505   0.20587   0.22879   0.24522
     Eigenvalues ---    0.31350   0.32683   0.33468   0.34045   0.34370
     Eigenvalues ---    0.34629   0.35150   0.38004   0.38027   0.38805
     Eigenvalues ---    0.39962   1.11585
 Eigenvectors required to have negative eigenvalues:
                          R10       R3        D16       R9        A4
   1                   -0.64018   0.54259  -0.29939   0.24176  -0.14907
                          A14       R4        D7        D8        D9
   1                   -0.11884  -0.11768   0.11553   0.11274   0.11182
 RFO step:  Lambda0=9.754447930D-04 Lambda=-4.21514375D-02.
 Linear search not attempted -- option 19 set.
 Maximum step size (   0.300) exceeded in Quadratic search.
    -- Step size scaled by   0.653
 Iteration  1 RMS(Cart)=  0.04679238 RMS(Int)=  0.00111568
 Iteration  2 RMS(Cart)=  0.00240041 RMS(Int)=  0.00058479
 Iteration  3 RMS(Cart)=  0.00000477 RMS(Int)=  0.00058479
 Iteration  4 RMS(Cart)=  0.00000000 RMS(Int)=  0.00058479
 Variable       Old X    -DE/DX   Delta X   Delta X   Delta X     New X
                                 (Linear)    (Quad)   (Total)
    R1        2.05827  -0.00268   0.00000  -0.00312  -0.00312   2.05515
    R2        2.05826   0.00014   0.00000  -0.00087  -0.00087   2.05740
    R3        2.26767   0.04255   0.00000   0.15302   0.15302   2.42069
    R4        2.91018  -0.05798   0.00000  -0.18796  -0.18796   2.72222
    R5        2.06161  -0.00037   0.00000  -0.00007  -0.00007   2.06154
    R6        2.05705   0.00031   0.00000   0.00015   0.00015   2.05721
    R7        2.05898  -0.00070   0.00000  -0.00058  -0.00058   2.05840
    R8        2.67252   0.00316   0.00000   0.00367   0.00367   2.67619
    R9        2.74736  -0.01979   0.00000  -0.03661  -0.03661   2.71075
   R10        2.12400   0.04655   0.00000   0.00323   0.00323   2.12724
   R11        2.25822   0.02953   0.00000   0.01938   0.01938   2.27760
   R12        2.91018  -0.04160   0.00000  -0.10996  -0.10996   2.80022
   R13        2.02201   0.01157   0.00000   0.01982   0.01982   2.04183
   R14        2.02201   0.01159   0.00000   0.01997   0.01997   2.04198
   R15        2.02201   0.01168   0.00000   0.02065   0.02065   2.04266
    A1        1.87778   0.00456   0.00000   0.03414   0.03081   1.90859
    A2        2.00819  -0.00852   0.00000  -0.08387  -0.08391   1.92428
    A3        1.94246   0.00306   0.00000   0.04463   0.04348   1.98594
    A4        1.78563  -0.00058   0.00000  -0.03912  -0.03930   1.74633
    A5        1.94242  -0.00037   0.00000   0.03567   0.03434   1.97676
    A6        1.90174   0.00161   0.00000   0.00512   0.00543   1.90717
    A7        1.91786   0.00017   0.00000   0.00082   0.00082   1.91868
    A8        1.91635   0.00040   0.00000  -0.00029  -0.00030   1.91606
    A9        1.94579  -0.00102   0.00000  -0.00289  -0.00290   1.94290
   A10        1.91599   0.00006   0.00000   0.00105   0.00105   1.91704
   A11        1.82748   0.00060   0.00000   0.00366   0.00367   1.83114
   A12        1.93861  -0.00020   0.00000  -0.00212  -0.00212   1.93648
   A13        1.84754   0.00372   0.00000   0.00893   0.00893   1.85647
   A14        1.74417   0.01128   0.00000   0.02746   0.02746   1.77164
   A15        1.91063   0.00054   0.00000   0.01343   0.01341   1.92405
   A16        1.91063   0.00026   0.00000   0.01318   0.01314   1.92377
   A17        1.91063  -0.00059   0.00000   0.01015   0.00997   1.92060
   A18        1.91063   0.00051   0.00000  -0.00973  -0.00961   1.90102
   A19        1.91063  -0.00009   0.00000  -0.01277  -0.01293   1.89770
   A20        1.91063  -0.00062   0.00000  -0.01426  -0.01445   1.89618
   A21        3.19069  -0.00270   0.00000  -0.00409  -0.00389   3.18680
   A22        3.14159   0.00236   0.00000   0.00150   0.00230   3.14389
   A23        3.14159   0.00257   0.00000   0.01262   0.01299   3.15459
   A24        2.95335   0.00461   0.00000   0.03168   0.03172   2.98507
   A25        3.14159  -0.00081   0.00000  -0.00759  -0.00731   3.13428
   A26        3.14159  -0.00009   0.00000   0.00171   0.00183   3.14342
    D1        0.63916   0.00115   0.00000  -0.00691  -0.00589   0.63327
    D2       -1.38478  -0.00041   0.00000   0.01496   0.01407  -1.37071
    D3        2.79450   0.00091   0.00000   0.00381   0.00369   2.79819
    D4       -2.12191  -0.00405   0.00000  -0.05486  -0.05541  -2.17732
    D5       -0.02752  -0.00429   0.00000  -0.05505  -0.05576  -0.08327
    D6        2.06688  -0.00395   0.00000  -0.05354  -0.05415   2.01273
    D7       -0.02752   0.00216   0.00000   0.04011   0.04080   0.01328
    D8        2.06687   0.00192   0.00000   0.03992   0.04046   2.10733
    D9       -2.12192   0.00227   0.00000   0.04143   0.04206  -2.07986
   D10        1.92857   0.00204   0.00000   0.01335   0.01342   1.94199
   D11       -2.26022   0.00180   0.00000   0.01316   0.01307  -2.24714
   D12       -0.16582   0.00214   0.00000   0.01467   0.01468  -0.15115
   D13        1.11675  -0.00024   0.00000  -0.00246  -0.00245   1.11430
   D14       -3.09357  -0.00020   0.00000  -0.00080  -0.00080  -3.09437
   D15       -1.02661   0.00012   0.00000   0.00150   0.00149  -1.02512
   D16       -2.02355   0.00492   0.00000   0.02780   0.02780  -1.99575
         Item               Value     Threshold  Converged?
 Maximum Force            0.057977     0.000450     NO 
 RMS     Force            0.013986     0.000300     NO 
 Maximum Displacement     0.146507     0.001800     NO 
 RMS     Displacement     0.046367     0.001200     NO 
 Predicted change in Energy=-1.997755D-02
 GradGradGradGradGradGradGradGradGradGradGradGradGradGradGradGradGradGrad

                          Input orientation:                          
 ---------------------------------------------------------------------
 Center     Atomic      Atomic             Coordinates (Angstroms)
 Number     Number       Type             X           Y           Z
 ---------------------------------------------------------------------
      1          6           0       -0.661853    0.428288   -0.476561
      2          1           0       -0.634534    0.358278   -1.561500
      3          1           0        0.079211    1.152768   -0.142977
      4          6           0        0.784693   -2.979599   -1.404680
      5          1           0       -0.144393   -2.758369   -1.931905
      6          1           0        1.584210   -3.159662   -2.121239
      7          1           0        0.650165   -3.856596   -0.772807
      8          8           0        1.221423   -1.868629   -0.642729
      9          8           0        0.216976   -1.643711    0.356366
     10          1           0       -0.184501   -0.638045    0.048765
     11          6           0       -1.977339    0.673382    0.056893
     12          6           0       -3.075017    0.881541    0.509013
     13          6           0       -4.422487    1.156277    1.060932
     14          1           0       -4.398333    2.038446    1.684353
     15          1           0       -5.129703    1.313112    0.259139
     16          1           0       -4.756351    0.318843    1.657290
 ---------------------------------------------------------------------
                    Distance matrix (angstroms):
                    1          2          3          4          5
     1  C    0.000000
     2  H    1.087539   0.000000
     3  H    1.088727   1.775628   0.000000
     4  C    3.816751   3.630457   4.377905   0.000000
     5  H    3.541268   3.176622   4.306652   1.090921   0.000000
     6  H    4.541272   4.196669   4.977509   1.088626   1.784643
     7  H    4.491034   4.476343   5.080984   1.089259   1.783517
     8  O    2.974923   3.041024   3.268522   1.416177   2.078236
     9  O    2.399851   2.900214   2.844049   2.282144   2.570843
    10  H    1.280975   1.946315   1.820253   2.921423   2.901798
    11  C    1.440537   2.126408   2.121122   4.807212   4.369431
    12  C    2.645780   3.242960   3.232307   5.785151   5.272152
    13  C    4.127495   4.675740   4.659903   7.092209   6.525613
    14  H    4.606890   5.246400   4.916499   7.847716   7.360894
    15  H    4.613659   4.942973   5.226873   7.495048   6.799335
    16  H    4.618464   5.229871   5.226764   7.138526   6.604674
                    6          7          8          9         10
     6  H    0.000000
     7  H    1.782253   0.000000
     8  O    1.996089   2.072503   0.000000
     9  O    3.210290   2.521814   1.434466   0.000000
    10  H    3.767732   3.425013   1.992265   1.125684   0.000000
    11  C    5.667549   5.302158   4.145283   3.205249   2.221301
    12  C    6.705068   6.161979   5.229659   4.151796   3.297886
    13  C    8.051953   7.363647   6.626178   5.464518   4.712176
    14  H    8.791682   8.141037   7.229260   6.051686   5.253107
    15  H    8.411215   7.822894   7.160562   6.110584   5.320367
    16  H    8.159656   7.250523   6.768228   5.502545   4.940122
                   11         12         13         14         15
    11  C    0.000000
    12  C    1.205255   0.000000
    13  C    2.687011   1.481813   0.000000
    14  H    3.220751   2.114478   1.080490   0.000000
    15  H    3.222974   2.114339   1.080567   1.758479   0.000000
    16  H    3.226435   2.112358   1.080928   1.756686   1.755788
                   16
    16  H    0.000000
 Stoichiometry    C5H9O2(2)
 Framework group  C1[X(C5H9O2)]
 Deg. of freedom    42
 Full point group                 C1      NOp   1
 Largest Abelian subgroup         C1      NOp   1
 Largest concise Abelian subgroup C1      NOp   1
                         Standard orientation:                         
 ---------------------------------------------------------------------
 Center     Atomic      Atomic             Coordinates (Angstroms)
 Number     Number       Type             X           Y           Z
 ---------------------------------------------------------------------
      1          6           0        0.193240    1.096811    0.259223
      2          1           0       -0.164409    1.214283    1.279531
      3          1           0        0.131155    2.053231   -0.257239
      4          6           0       -3.138623   -0.740152    0.562280
      5          1           0       -2.439494   -1.001290    1.357977
      6          1           0       -4.053860   -0.335133    0.990543
      7          1           0       -3.367973   -1.623945   -0.031684
      8          8           0       -2.626568    0.298758   -0.252596
      9          8           0       -1.450492   -0.225656   -0.884679
     10          1           0       -0.645604    0.416028   -0.429089
     11          6           0        1.493358    0.483458    0.166286
     12          6           0        2.582223   -0.026393    0.082233
     13          6           0        3.929103   -0.636137   -0.017254
     14          1           0        4.589214    0.005835   -0.582573
     15          1           0        4.345259   -0.785533    0.968707
     16          1           0        3.866388   -1.593805   -0.514589
 ---------------------------------------------------------------------
 Rotational constants (GHZ):           7.3819017           0.7552297           0.7342356
 Standard basis: CC-pVTZ (5D, 7F)
 There are   380 symmetry adapted cartesian basis functions of A   symmetry.
 There are   336 symmetry adapted basis functions of A   symmetry.
   336 basis functions,   517 primitive gaussians,   380 cartesian basis functions
    28 alpha electrons       27 beta electrons
       nuclear repulsion energy       268.6138479182 Hartrees.
 NAtoms=   16 NActive=   16 NUniq=   16 SFac= 1.00D+00 NAtFMM=   60 NAOKFM=F Big=F
 Integral buffers will be    131072 words long.
 Raffenetti 2 integral format.
 Two-electron integral symmetry is turned on.
 Nuclear repulsion after empirical dispersion term =      268.6066222290 Hartrees.
 One-electron integrals computed using PRISM.
 NBasis=   336 RedAO= T EigKep=  1.48D-05  NBF=   336
 NBsUse=   336 1.00D-06 EigRej= -1.00D+00 NBFU=   336
 Initial guess from the checkpoint file:  "/localscratch/341085/Gau-81949.chk"
 B after Tr=     0.000000   -0.000000    0.000000
         Rot=    0.999896    0.013961   -0.000526    0.003552 Ang=   1.65 deg.
 Initial guess <Sx>= 0.0000 <Sy>= 0.0000 <Sz>= 0.5000 <S**2>= 0.7732 S= 0.5115
 ExpMin= 1.03D-01 ExpMax= 1.53D+04 ExpMxC= 5.22D+02 IAcc=3 IRadAn=         5 AccDes= 0.00D+00
 Harris functional with IExCor=  419 and IRadAn=       5 diagonalized for initial guess.
 HarFok:  IExCor=  419 AccDes= 0.00D+00 IRadAn=         5 IDoV= 1 UseB2=F ITyADJ=14
 ICtDFT=  3500011 ScaDFX=  1.000000  1.000000  1.000000  1.000000
 FoFCou: FMM=F IPFlag=           0 FMFlag=      100000 FMFlg1=           0
         NFxFlg=           0 DoJE=T BraDBF=F KetDBF=T FulRan=T
         wScrn=  0.000000 ICntrl=       500 IOpCl=  0 I1Cent=   200000004 NGrid=           0
         NMat0=    1 NMatS0=      1 NMatT0=    0 NMatD0=    1 NMtDS0=    0 NMtDT0=    0
 Petite list used in FoFCou.
 Requested convergence on RMS density matrix=1.00D-08 within 128 cycles.
 Requested convergence on MAX density matrix=1.00D-06.
 Requested convergence on             energy=1.00D-06.
 No special actions if energy rises.
 Integral accuracy reduced to 1.0D-05 until final iterations.
 Initial convergence to 1.0D-05 achieved.  Increase integral accuracy.
 SCF Done:  E(UB2PLYPD3) =  -345.577051279     A.U. after   18 cycles
            NFock= 18  Conv=0.88D-08     -V/T= 2.0042
 <Sx>= 0.0000 <Sy>= 0.0000 <Sz>= 0.5000 <S**2>= 0.7834 S= 0.5166
 <L.S>=  0.00000000000    
 Annihilation of the first spin contaminant:
 S**2 before annihilation     0.7834,   after     0.7507
 DoSCS=T DFT=T ScalE2(SS,OS)=  0.270000  0.270000
 ExpMin= 1.03D-01 ExpMax= 1.53D+04 ExpMxC= 5.22D+02 IAcc=3 IRadAn=         5 AccDes= 0.00D+00
 HarFok:  IExCor=  205 AccDes= 0.00D+00 IRadAn=         5 IDoV=-2 UseB2=F ITyADJ=14
 ICtDFT= 12500011 ScaDFX=  1.000000  1.000000  1.000000  1.000000
 Range of M.O.s used for correlation:     8   336
 NBasis=   336 NAE=    28 NBE=    27 NFC=     7 NFV=     0
 NROrb=    329 NOA=    21 NOB=    20 NVA=   308 NVB=   309

 **** Warning!!: The largest alpha MO coefficient is  0.61791308D+02


 **** Warning!!: The largest beta MO coefficient is  0.62611289D+02

 DoSCS=T DFT=T ScalE2(SS,OS)=  0.270000  0.270000
 Disk-based method using ON**2 memory for 21 occupieds at a time.
 Estimated scratch disk usage=  1762646080 words.
 Actual    scratch disk usage=  1615337024 words.
 JobTyp=2 Pass  1:  I=   8 to  28 NPSUse= 40 ParTrn=T ParDer=T DoDerP=T.
 (rs|ai) integrals will be sorted in core.
 Actual    scratch disk usage=  1615337024 words.
 JobTyp=3 Pass  1:  I=   8 to  27 NPSUse= 40 ParTrn=T ParDer=T DoDerP=T.
 (rs|ai) integrals will be sorted in core.
 Spin components of T(2) and E(2):
     alpha-alpha T2 =       0.7877611205D-01 E2=     -0.5359130436D-01
     alpha-beta  T2 =       0.4658069771D+00 E2=     -0.3261807833D+00
     beta-beta   T2 =       0.8510530537D-01 E2=     -0.5243931641D-01
 (S**2,0)=  0.78340D+00           (S**2,1)=  0.74652D+00
 Scaling Projection term by:   0.270000
 E(PUHF)=      -0.34558464285D+03        E(PMP2)=      -0.34601019561D+03
 E2(B2PLYPD3) =    -0.4322114040D+00 E(B2PLYPD3) =    -0.34600926268348D+03
          IDoAtm=1111111111111111
          Differentiating once with respect to electric field.
                with respect to dipole field.
          Differentiating once with respect to nuclear coordinates.
 Keep R1 and R2 ints in memory in canonical form, NReq=3251778068.
          There are     1 degrees of freedom in the 1st order CPHF.  IDoFFX=0 NUNeed=     1.
 LinEq1:  Iter=  0 NonCon=     1 RMS=9.10D-04 Max=4.52D-02 NDo=     1
 AX will form     1 AO Fock derivatives at one time.
 LinEq1:  Iter=  1 NonCon=     1 RMS=3.02D-04 Max=8.66D-03 NDo=     1
 LinEq1:  Iter=  2 NonCon=     1 RMS=1.78D-04 Max=5.97D-03 NDo=     1
 LinEq1:  Iter=  3 NonCon=     1 RMS=9.82D-05 Max=3.73D-03 NDo=     1
 LinEq1:  Iter=  4 NonCon=     1 RMS=6.91D-05 Max=2.85D-03 NDo=     1
 LinEq1:  Iter=  5 NonCon=     1 RMS=4.79D-05 Max=2.57D-03 NDo=     1
 LinEq1:  Iter=  6 NonCon=     1 RMS=2.28D-05 Max=6.83D-04 NDo=     1
 LinEq1:  Iter=  7 NonCon=     1 RMS=5.94D-06 Max=2.03D-04 NDo=     1
 LinEq1:  Iter=  8 NonCon=     1 RMS=2.38D-06 Max=8.21D-05 NDo=     1
 LinEq1:  Iter=  9 NonCon=     1 RMS=1.20D-06 Max=3.91D-05 NDo=     1
 LinEq1:  Iter= 10 NonCon=     1 RMS=5.80D-07 Max=2.43D-05 NDo=     1
 LinEq1:  Iter= 11 NonCon=     1 RMS=4.12D-07 Max=1.24D-05 NDo=     1
 LinEq1:  Iter= 12 NonCon=     1 RMS=2.59D-07 Max=7.46D-06 NDo=     1
 LinEq1:  Iter= 13 NonCon=     1 RMS=9.82D-08 Max=1.61D-06 NDo=     1
 LinEq1:  Iter= 14 NonCon=     1 RMS=5.25D-08 Max=1.66D-06 NDo=     1
 LinEq1:  Iter= 15 NonCon=     1 RMS=2.03D-08 Max=5.86D-07 NDo=     1
[...]
   zz         0.540140D+02      0.800405D+01      0.890571D+01

 ----------------------------------------------------------------------

 Dipole orientation:
     6         -0.42958929          2.02657581         -0.42238599
     1         -1.04343701          3.42158762         -1.79568863
     1          1.53230789          2.23938256          0.13703158
     6         -0.53529602         -4.88350867          0.46282767
     1          0.47799249         -3.57759108          1.69045226
     1         -1.81584651         -6.04374834          1.57649973
     1          0.79340601         -6.06743516         -0.56821607
     8         -2.10989776         -3.53600695         -1.25440446
     8         -0.55988379         -2.10957408         -2.83614321
     1         -0.42954393         -0.10418948         -1.78474452
     6         -2.15565446          1.48130694          1.53361870
     6         -3.67100782          0.82697334          3.12666283
     6         -5.50361292          0.07968954          5.03210504
     1         -6.62636115         -1.51354820          4.36427508
     1         -4.57501432         -0.47925170          6.78184452
     1         -6.79667086          1.62536825          5.45562626

 Electric dipole moment (dipole orientation):
 (Debye = 10**-18 statcoulomb cm , SI units = C m)
                  (au)            (Debye)         (10**-30 SI)
   Tot        0.106408D+01      0.270462D+01      0.902163D+01
   x          0.000000D+00      0.000000D+00      0.000000D+00
   y          0.000000D+00      0.000000D+00      0.000000D+00
   z          0.106408D+01      0.270462D+01      0.902163D+01

 Dipole polarizability, Alpha (dipole orientation).
 (esu units = cm**3 , SI units = C**2 m**2 J**-1)
 Alpha(0;0):
               (au)            (10**-24 esu)      (10**-40 SI)
   iso        0.854682D+02      0.126651D+02      0.140918D+02
   aniso      0.537945D+02      0.797153D+01      0.886952D+01
   xx         0.723118D+02      0.107155D+02      0.119226D+02
   yx        -0.249893D+01     -0.370303D+00     -0.412017D+00
   yy         0.953462D+02      0.141289D+02      0.157205D+02
   zx        -0.266374D+02     -0.394725D+01     -0.439191D+01
   zy         0.103978D+02      0.154079D+01      0.171437D+01
   zz         0.887467D+02      0.131509D+02      0.146324D+02

 ----------------------------------------------------------------------
 1\1\GINC-N58\Freq\UB2PLYPD3-FC\CC-pVTZ\C5H9O2(2)\ROOT\06-Jun-2019\0\\#
 N Geom=AllCheck Guess=TCheck SCRF=Check GenChk UB2PLYPD3(FC)/CC-pVTZ F
 req\\Title Card Required\\0,2\C,0.00621518,1.0569816594,-0.3667004554\
 H,0.2794447662,1.7556611271,-1.1514196541\H,0.5630556235,1.2014089901,
 0.5537486411\C,-0.4203211509,-2.5751828764,0.1014496969\H,-0.461092690
 6,-1.8459855453,0.9099767881\H,-1.3285869211,-3.1739119497,0.094966917
 1\H,0.4544437175,-3.2130347267,0.2132670314\O,-0.3939197124,-1.9189338
 422,-1.1623429011\O,0.7902561943,-1.1881529148,-1.2450894506\H,0.47907
 01169,-0.1018225029,-0.8407198242\C,-1.3730120497,0.7992269926,-0.2245
 107491\C,-2.5405932802,0.4771388645,-0.1433318865\C,-3.9445580847,0.11
 03911964,-0.0543492919\H,-4.1513313905,-0.758316403,-0.6798920306\H,-4
 .2246084451,-0.1343992578,0.9693371534\H,-4.5822939532,0.9252543486,-0
 .3960357444\\Version=ES64L-G16RevB.01\State=2-A\HF=-345.5842757\MP2=-3
 46.0188929\PUHF=-345.592829\PMP2-0=-346.0199832\S2=0.791548\S2-1=0.746
 985\S2A=0.751114\RMSD=5.213e-09\RMSF=1.737e-06\ZeroPoint=0.1234356\The
 rmal=0.1333134\Dipole=-0.7276642,0.0480949,0.77489\DipoleDeriv=0.55439
 75,-0.7078565,-0.1482471,-0.2341353,0.7283625,0.0875862,-0.1266536,0.2
 980043,0.1929964,0.018991,0.0146859,0.0012859,-0.0373157,-0.095345,0.0
 499915,0.0485509,-0.0290366,0.014089,-0.009217,0.0187847,-0.0120303,-0
 .0030442,-0.0721738,-0.0332353,-0.0714218,-0.0299812,-0.0196084,0.2688
 883,0.016823,-0.0022397,-0.1210219,0.6025347,-0.0370118,0.1388258,-0.4
 584033,0.3852965,0.0348311,0.0033411,0.0077209,0.0098491,-0.074632,-0.
 120526,-0.0084532,0.0663983,-0.0519282,-0.0365528,-0.1127269,0.0010058
 ,-0.0429145,-0.0148988,0.0234691,-0.0327887,0.0474454,0.0380185,-0.070
 303,0.1584044,-0.0358113,0.0712176,-0.0629213,0.0352677,0.0147459,0.07
 33942,0.0303952,0.259228,-0.9830575,-0.2059038,0.247076,-0.8441601,-0.
 0889649,-0.1304661,0.260213,-0.30832,-0.6104435,0.8628845,0.2272165,-0
 .4070721,0.9104303,0.2775139,-0.061448,0.2366516,-0.228611,-0.0343812,
 0.2554876,0.0500727,0.5503228,-1.0400935,-0.2267268,0.1962451,-0.42408
 02,0.0569357,-0.80067,0.6093523,0.1757469,-0.1525596,-0.0744027,0.0395
 183,0.0369902,-0.074641,-0.1688344,0.5009938,-0.2114372,-0.0979329,0.1
 941189,-0.1608649,-0.012009,0.0043052,0.0245735,-0.1349144,0.0906248,0
 .0044461,0.0031927,-0.0238433,0.1285568,-0.0106687,-0.0885158,0.036845
 ,0.1509674,-0.0410749,0.0208005,0.0177683,-0.0716473,-0.0042026,-0.062
 7035,0.0091393,-0.0832876,0.0326,-0.039467,-0.0052296,0.0219155,-0.036
 2481,0.0727356,0.0343065,0.069613,0.0324361,-0.0597387,-0.0858451,0.05
 52974,-0.0037599,0.0572176,0.0010747,0.0441928,0.0013317,0.0234685,0.0
 706565\Polar=106.258876,-9.56396,96.1318383,-9.3867804,4.1677204,54.01
 40031\PG=C01 [X(C5H9O2)]\NImag=1\\0.50192541,0.16200727,0.26826915,0.0
 6585124,-0.12581010,0.52181986,-0.05861569,-0.04791062,0.04029484,0.06
 702090,-0.05673938,-0.14844080,0.14687208,0.05490756,0.15745393,0.0401
 8671,0.13558567,-0.18914654,-0.05043692,-0.14861934,0.20138351,-0.1108
 7898,-0.02580063,-0.11829127,0.00550429,0.00118415,0.00617368,0.126109
 46,-0.03595698,-0.03325266,-0.02979682,0.01035190,0.00552356,0.0179703
 2,0.02842638,0.03573017,-0.12401297,-0.02183558,-0.25278571,-0.0102046
 2,-0.00514776,-0.01494264,0.13172797,0.02857512,0.26479100,0.00136797,
 -0.00149837,-0.00130275,-0.00022631,0.00050091,0.00027866,-0.00001162,
 0.00025026,0.00007009,0.61783556,0.00475435,-0.00492078,-0.00092815,-0
 .00016408,0.00066727,0.00030208,-0.00070280,0.00138608,0.00017685,0.00
 764625,0.55551544,-0.00683150,0.00768170,0.00539416,0.00050458,-0.0013
 1418,-0.00120776,0.00024388,-0.00195041,-0.00043691,0.01978151,0.06824
 320,0.46943727,0.00066676,-0.00019366,-0.00032121,-0.00013339,0.000104
 55,0.00004885,0.00001686,-0.00028607,-0.00006322,-0.05332152,0.0080818
 9,0.00659582,0.04789674,-0.00049781,0.00018585,-0.00026624,-0.00003981
 ,-0.00002728,-0.00000587,0.00004645,-0.00017680,0.00009698,0.00622054,
 -0.18160059,-0.13625335,-0.00807354,0.18802998,0.00237712,-0.00217941,
 -0.00095052,-0.00009159,0.00023500,0.00023145,-0.00016556,0.00068905,0
 .00015642,0.00850103,-0.12942408,-0.17651212,-0.00720728,0.13951438,0.
 20887149,-0.00032796,0.00028266,0.00013146,0.00001478,-0.00003839,-0.0
 0004796,0.00000061,-0.00004668,-0.00000855,-0.24055527,-0.12301922,-0.
 00498323,0.00262211,0.00249249,-0.00023323,0.25571684,-0.00075569,0.00
 048829,0.00032675,0.00008503,-0.00009872,-0.00007579,0.00007840,-0.000
 02736,0.00000538,-0.11827408,-0.12832024,-0.00299593,-0.01813778,-0.01
 017291,-0.00004793,0.13699483,0.13823412,0.00030145,-0.00034961,-0.000
 18678,0.00002515,0.00001147,0.00009316,0.00000362,0.00019384,0.0000256
 2,-0.01447937,-0.00932259,-0.05112078,-0.01998105,-0.01138834,0.002206
 67,0.00343978,-0.00212984,0.05556786,0.00057501,-0.00071145,-0.0005555
 4,-0.00002302,0.00013993,0.00010293,0.00000095,0.00008906,0.00000562,-
 0.22895206,0.12588448,-0.01581288,0.00036216,-0.00097130,-0.00033774,-
 0.01804121,0.01563931,-0.00107545,0.24007347,-0.00063236,0.00081129,0.
 00022236,0.00004613,-0.00016448,-0.00009262,0.00010899,-0.00020616,-0.
 00004000,0.12154498,-0.13827398,0.00566079,0.01906572,-0.01131133,0.00
 054515,-0.01474548,0.01270844,-0.00235045,-0.13799708,0.14733929,0.001
 16890,-0.00108222,-0.00078544,-0.00012576,0.00023712,0.00017450,-0.000
 05620,0.00026578,0.00004976,-0.00848777,0.00445116,-0.04804857,0.01882
 942,-0.01302018,0.00403022,-0.00099815,-0.00048479,0.00062745,0.019198
 23,-0.01718602,0.06039427,-0.02730957,0.03054089,0.01568152,0.00139276
 ,-0.00463864,-0.00287489,0.00146038,-0.00491962,-0.00078354,-0.0718942
 2,0.00333957,-0.02107634,0.00137523,-0.00302438,0.00401871,-0.00294798
 ,-0.01657556,0.02874362,0.00338325,0.00898230,-0.02519709,0.25440806,-
 0.01237393,0.01557939,0.00531109,0.00064040,-0.00237277,-0.00179781,0.
 00145987,-0.00409470,-0.00052053,0.01621674,-0.08246486,0.05816499,-0.
 00299071,0.01236673,-0.00814873,-0.00171792,-0.01153404,0.01931015,-0.
 00195636,-0.01307298,0.03111515,0.10367444,0.20439962,0.00486449,-0.00
 588921,-0.00413520,-0.00037837,0.00091727,0.00071049,0.00003641,0.0005
 1394,0.00027036,-0.04549722,0.04074851,-0.19330624,0.00109665,0.021006
 31,-0.04260310,0.00119901,0.00132133,-0.00150611,-0.00270332,0.0153025
 2,-0.01937348,0.03396060,-0.09703423,0.30371121,0.01452297,-0.00013713
 ,-0.00224858,-0.00092525,0.00319771,0.00155340,-0.00093189,0.00364950,
 0.00119564,-0.02191693,-0.02102248,0.01715652,0.00064950,0.00244257,-0
 .00501115,0.00317743,0.00023163,0.00305338,0.00344096,0.00288846,-0.00
 368906,-0.18885978,-0.08741696,0.01941535,0.24850642,0.07769335,-0.119
 45083,-0.05361518,-0.00313790,0.00935989,0.00571904,-0.00377718,0.0103
 2174,0.00150428,-0.03781446,-0.02904934,0.01628074,0.00239212,0.003844
 00,-0.00546805,0.00024395,-0.00102441,0.00585078,-0.00127298,0.0039891
 0,-0.00626429,-0.05373295,-0.07286516,0.01645273,0.05708917,0.10751482
 ,0.02229495,-0.03889380,-0.01387521,-0.00077207,0.00150084,0.00190681,
 -0.00084354,0.00307122,0.00108669,0.03957417,0.01939886,0.00055186,0.0
 0066371,0.00064853,0.00285634,0.00143847,0.00445839,-0.00519862,0.0007
 5598,-0.00150500,0.00194421,-0.00645130,0.00538545,-0.04750862,-0.0551
 6035,-0.01920028,0.06196721,-0.00624545,-0.02558993,-0.01108962,0.0001
 3504,0.00010965,0.00086496,0.00106473,-0.00301738,-0.00239593,-0.00186
 981,-0.00338035,0.00225505,0.00046544,0.00042968,-0.00079417,0.0000388
 7,0.00008809,0.00041258,-0.00044219,0.00049620,-0.00049414,0.01310591,
 -0.01751292,-0.00839994,-0.04600343,-0.01009026,0.00475841,0.06234711,
 -0.08039109,0.07341181,0.04593490,0.00773523,-0.02233329,-0.01027134,0
 .00552271,-0.01597193,-0.00339877,0.00469022,0.00785832,-0.01519407,0.
 00008486,-0.00026215,0.00476485,-0.00033935,-0.00034988,0.00003616,0.0
 0112882,-0.00170920,0.00256118,-0.06602058,-0.04708675,0.00717743,0.03
 839039,0.09046829,0.02617155,0.04560979,-0.08410090,-0.02842622,0.0351
 5458,-0.00649439,-0.00184248,0.00523613,-0.00025913,0.00580297,-0.0160
 8281,-0.00673820,0.00225766,0.00582555,-0.00316705,0.00023598,-0.00072
 735,0.00121428,0.00008508,-0.00029340,-0.00065294,0.00032266,-0.000804
 71,0.00076672,-0.02429732,-0.01104385,0.00340798,0.02123417,0.03509731
 ,-0.00512307,0.00686161,-0.05038642,0.02134985,-0.28521096,-0.08914459
 ,0.00557951,-0.01191051,0.00107036,0.00631752,-0.02147272,0.00307090,0
 .00249215,-0.00054031,-0.00224153,0.00219381,-0.00053423,0.00155103,-0
 .00119133,0.00048487,0.00067580,-0.00064186,-0.00077130,0.00044049,0.0
 0006657,0.02047093,0.00025268,-0.00467086,-0.01727910,-0.03416841,-0.0
 0769169,-0.02443018,0.06003804,0.02332474,1.25094006,-0.04839994,-0.06
 143011,0.01098985,-0.02318613,-0.00038082,0.00128884,-0.00633633,-0.00
 002183,-0.00015112,0.00019173,-0.00089791,0.00075758,-0.00005390,-0.00
 055023,-0.00018097,-0.00001923,0.00017926,0.00006972,-0.00005432,0.000
 02333,-0.00023404,0.00274545,0.00080271,-0.00047384,0.00015522,-0.0040
 5130,-0.00130412,0.01432232,0.00396997,-0.00087570,0.29735103,0.156263
 28,0.01829937,0.01771363,-0.06904213,0.02423574,-0.00063844,0.00076686
 ,-0.02641692,-0.00376170,0.00942335,-0.00034215,0.00047152,-0.00113779
 ,0.00004646,0.00017249,0.00036692,-0.00004630,-0.00007851,0.00012275,0
 .00011201,0.00011298,0.00014679,-0.00233486,-0.00024414,0.00066190,0.0
 0312497,0.00425360,0.00153965,0.00870544,-0.00841121,-0.00517434,-0.08
 774677,-0.02617183,0.09519848,-0.03611669,0.00143189,0.00712250,-0.001
 26409,0.00013002,-0.00252620,-0.00026325,-0.00184978,0.00204544,0.0002
 3511,0.00157579,-0.00128712,0.00020176,-0.00050368,0.00048458,-0.00030
 386,-0.00047792,0.00026590,0.00038607,-0.00029009,0.00002782,-0.008185
 88,0.00046993,0.00210712,0.00862674,0.01028907,0.00197546,0.00306293,-
 0.02126041,-0.00731344,-0.90212397,-0.23376120,0.06206486,1.26347734,-
 0.00871190,0.00405088,0.00178230,-0.00021191,0.00083650,0.00000100,-0.
 00000367,0.00075854,0.00069874,0.00035151,0.00015318,0.00077527,0.0000
 3106,-0.00039799,-0.00024887,-0.00009497,-0.00008643,0.00012292,0.0001
 4029,-0.00012969,-0.00037768,-0.00114146,-0.00005138,0.00002958,0.0012
 3177,0.00165845,0.00031246,-0.00057947,-0.00485792,-0.00154666,-0.2335
 0822,-0.09657506,0.01577082,0.31379802,0.16758639,0.00341644,0.0000356
 7,0.00319628,-0.00038701,0.00080486,0.00041166,0.00029726,0.00027031,-
 0.00050680,-0.00040304,0.00016024,-0.00072081,0.00011173,0.00026306,0.
 00021997,0.00001988,-0.00005291,0.00002338,-0.00000750,0.00013497,0.00
 012689,0.00031542,-0.00077213,-0.00020330,-0.00031977,-0.00039900,-0.0
 0009289,-0.00027645,0.00082952,0.00075211,0.06232802,0.01615177,-0.035
 78615,-0.08306902,-0.02251938,0.08978738,0.00513616,-0.00163145,-0.000
 36218,-0.00056888,0.00005538,0.00038098,-0.00001996,0.00000262,-0.0002
 2584,0.00018468,0.00016945,0.00030539,-0.00014078,-0.00003779,-0.00015
 758,0.00003636,0.00002741,0.00000482,0.00000881,-0.00005953,-0.0000841
 6,0.00074964,-0.00031245,-0.00041365,-0.00073667,-0.00123510,-0.000199
 24,-0.00040101,0.00222185,0.00083220,-0.00713855,-0.00258831,0.0003263
 1,-0.27123211,-0.05487074,0.01424070,0.51691968,0.00035077,0.00489458,
 -0.00090113,0.00137016,-0.00033869,-0.00032790,-0.00038202,0.00043786,
 0.00007764,0.00002960,0.00000163,0.00024623,-0.00005156,0.00001639,-0.
 00010801,0.00001778,-0.00000820,-0.00000797,-0.00002939,-0.00003430,-0
 .00001732,0.00046970,0.00010125,-0.00010377,-0.00050012,-0.00049653,-0
 .00006197,-0.00082678,0.00095202,0.00045340,-0.00589166,0.00214303,0.0
 0085719,-0.05219092,-0.07358721,0.00449018,-0.00720024,0.53465689,0.00
 204914,-0.00046368,0.00654728,-0.00068090,0.00002875,-0.00009221,0.001
 79613,0.00002005,-0.00033656,0.00011912,-0.00024840,0.00069520,-0.0001
 1271,-0.00000419,-0.00016330,0.00005523,0.00004250,-0.00002336,-0.0000
 7374,0.00001290,-0.00009488,0.00145039,0.00056655,-0.00052330,-0.00148
 278,-0.00148069,-0.00020310,-0.00096528,0.00204906,0.00081115,-0.00305
 248,-0.00090141,0.00256018,0.01756592,0.00548907,-0.06308587,-0.002229
 78,-0.00308991,0.54369047,0.00017846,0.00035189,0.00056459,-0.00001618
 ,-0.00000783,-0.00001165,0.00002894,0.00002645,-0.00000161,-0.00019844
 ,-0.00040235,0.00033385,-0.00004250,0.00001376,-0.00010257,0.00003608,
 0.00021758,-0.00006628,0.00002694,0.00006370,-0.00005544,0.00153944,0.
 00074946,-0.00023889,-0.00113870,-0.00128151,-0.00011204,-0.00061773,0
 .00127083,0.00049993,-0.00131710,0.00015373,0.00059930,-0.01287320,-0.
 02865992,-0.01950459,-0.05144826,-0.03794417,-0.02729306,0.06128325,-0
 .00057937,0.00034353,0.00017382,-0.00004806,0.00007832,0.00003308,0.00
 017020,-0.00020072,-0.00001837,0.00002222,-0.00001480,-0.00000067,0.00
 000121,0.00002766,0.00000562,-0.00000884,-0.00002158,-0.00001640,-0.00
 003062,-0.00000201,0.00001183,0.00020565,0.00023426,0.00003477,-0.0001
 8025,-0.00011917,0.00002989,-0.00011500,-0.00006084,-0.00004064,0.0018
 0651,0.00038509,-0.00050692,-0.00734725,-0.00611231,-0.00165820,-0.035
 62037,-0.21297113,-0.12268868,0.04370321,0.23101499,-0.00079907,-0.000
 02722,0.00016814,-0.00002095,-0.00004797,-0.00002600,-0.00013244,0.000
 02943,0.00001156,-0.00011818,-0.00007502,-0.00008763,-0.00000471,-0.00
 002471,0.00000535,-0.00002708,0.00007626,0.00003975,0.00004993,0.00001
 938,-0.00001087,-0.00042876,-0.00000718,0.00014941,0.00046061,0.000512
 23,0.00000586,0.00023701,-0.00078288,-0.00028290,0.00267924,0.00021030
 ,-0.00003373,-0.00372174,0.00375685,0.00256528,-0.02510505,-0.12215250
 ,-0.13357158,0.02962516,0.13446318,0.14198161,0.00014565,-0.00052305,-
 0.00185584,0.00009246,0.00009640,0.00005296,-0.00062426,0.00010497,0.0
 0016741,-0.00005890,-0.00022752,0.00037569,-0.00007852,-0.00004547,-0.
 00006977,0.00002414,0.00010457,0.00000772,-0.00000585,0.00002836,-0.00
 007251,0.00059487,0.00038017,-0.00020846,-0.00050274,-0.00056780,-0.00
 013030,-0.00008461,0.00069536,0.00026264,-0.00031322,-0.00009252,-0.00
 048126,-0.01563600,-0.00918886,0.03276436,-0.06030107,-0.01401517,0.06
 116469,0.00088196,0.00240083,-0.00548127,0.07071056,-0.00033126,0.0000
 1138,-0.00040111,-0.00014623,0.00014697,0.00013175,-0.00002812,-0.0001
 3792,0.00001575,0.00001378,0.00006705,-0.00013657,0.00004251,0.0000309
 4,0.00005977,-0.00000183,-0.00004748,-0.00002870,-0.00001807,0.0000062
 6,0.00003618,-0.00010694,-0.00003120,0.00003858,0.00009850,0.00008166,
 0.00003992,0.00007724,-0.00016903,-0.00006457,0.00049099,0.00097371,0.
 00004390,-0.00490863,-0.00409297,0.00742540,-0.01349068,-0.05835330,0.
 05622545,0.00714629,0.00690599,-0.02511568,0.01801286,0.05996612,0.000
 11094,0.00018925,0.00003586,-0.00004678,-0.00006063,-0.00000488,-0.000
 06994,-0.00002330,-0.00006692,0.00006151,0.00012329,-0.00009635,0.0000
 1566,-0.00000369,0.00001570,-0.00000732,-0.00004592,-0.00001984,-0.000
 00149,-0.00002502,0.00001774,-0.00018847,-0.00011620,0.00006079,0.0001
 7263,0.00017107,0.00006126,0.00005822,-0.00022754,-0.00009687,-0.00180
 716,-0.00030567,-0.00004025,0.00476245,0.00036649,0.00317361,0.0596024
 2,0.05587950,-0.28452065,0.00376746,0.00471638,-0.01703967,-0.06815417
 ,-0.06191018,0.30749761,0.00018692,-0.00147372,0.00080134,-0.00047693,
 -0.00007239,-0.00006303,0.00001646,0.00010448,-0.00000805,-0.00007792,
 -0.00029145,0.00024497,-0.00000561,-0.00000274,-0.00001948,0.00002421,
 0.00007837,-0.00001401,-0.00002198,0.00005922,-0.00003068,0.00071699,0
 .00043756,-0.00016893,-0.00062952,-0.00062912,-0.00010063,-0.00012562,
 0.00062331,0.00015981,0.00114629,-0.00042759,-0.00014619,-0.02799089,0
 .02141848,-0.00952644,-0.13104804,0.11679403,-0.04830990,0.00367704,-0
 .00438007,0.00278730,0.00515553,-0.00685039,0.00172405,0.14945308,0.00
 056397,-0.00055097,0.00010558,-0.00029167,0.00009042,0.00015888,0.0000
 3360,-0.00006787,-0.00003860,-0.00009182,-0.00010648,0.00003468,-0.000
 01671,-0.00000226,-0.00000776,0.00000021,0.00008113,-0.00000114,0.0000
 1968,0.00002643,-0.00001185,0.00020213,0.00008991,-0.00004193,-0.00011
 799,-0.00018119,-0.00005192,-0.00002087,0.00024148,0.00009912,-0.00179
 343,-0.00083312,0.00041662,-0.00510485,0.01084702,-0.00516436,0.114569
 95,-0.19741430,0.06444261,0.01459889,-0.01948727,0.00916552,0.00283689
 ,-0.00535816,0.00127215,-0.12538798,0.21262524,-0.00085099,0.00017034,
 0.00024035,-0.00007288,-0.00001521,0.00000074,-0.00010606,0.00001598,-
 0.00000102,-0.00001326,0.00009696,-0.00023649,0.00004589,-0.00000782,0
 .00005423,-0.00001711,-0.00002560,0.00000179,0.00002028,-0.00000725,0.
 00003468,-0.00053769,-0.00016856,0.00018719,0.00054502,0.00058571,0.00
 008163,0.00026226,-0.00085242,-0.00031319,0.00182058,0.00113062,0.0004
 2750,-0.00050453,-0.00441290,0.00013926,-0.04691535,0.06476633,-0.0716
 8948,0.01199584,-0.01453869,0.00612544,-0.01834189,0.02364012,-0.00897
 714,0.05266988,-0.07037760,0.07392453\\0.00000511,-0.00000314,-0.00000
 070,0.00000034,0.00000023,0.00000039,0.00000084,0.00000158,-0.00000076
 ,-0.00000003,0.00000012,0.00000101,-0.00000003,0.,0.00000015,-0.000000
 12,0.00000006,0.00000045,0.00000004,-0.00000001,0.00000037,-0.00000408
 ,-0.00000283,0.00000030,0.00000481,0.00000247,-0.00000072,-0.00000062,
 0.00000072,0.00000019,-0.00000619,0.00000119,-0.00000023,0.00000139,-0
 .00000042,0.00000054,-0.00000133,0.00000095,0.00000067,0.00000032,-0.0
 0000010,-0.00000041,0.00000025,-0.00000029,-0.00000043,-0.00000071,-0.
 00000052,-0.00000083\\\@


 THE LENGTH OF A MEETING IS PROPORTIONAL TO THE
 SQUARE OF THE PARTICIPANTS.
 Job cpu time:       2 days  6 hours 59 minutes 27.9 seconds.
 Elapsed time:       0 days  1 hours 25 minutes 29.0 seconds.
 File lengths (MBytes):  RWF=  83473 Int=      0 D2E=      0 Chk=     18 Scr=      1
 Normal termination of Gaussian 16 at Thu Jun  6 20:36:35 2019.
