 Entering Gaussian System, Link 0=g16
 Initial command:
 /ichec/packages/gaussian/16b01/l1.exe "/localscratch/347860/Gau-15224.inp" -scrdir="/localscratch/347860/"
 Entering Link 1 = /ichec/packages/gaussian/16b01/l1.exe PID=     15596.
  
 Copyright (c) 1988-2017, Gaussian, Inc.  All Rights Reserved.
  
 This is part of the Gaussian(R) 16 program.  It is based on
 the Gaussian(R) 09 system (copyright 2009, Gaussian, Inc.),
 the Gaussian(R) 03 system (copyright 2003, Gaussian, Inc.),
 the Gaussian(R) 98 system (copyright 1998, Gaussian, Inc.),
 the Gaussian(R) 94 system (copyright 1995, Gaussian, Inc.),
 the Gaussian 92(TM) system (copyright 1992, Gaussian, Inc.),
 the Gaussian 90(TM) system (copyright 1990, Gaussian, Inc.),
 the Gaussian 88(TM) system (copyright 1988, Gaussian, Inc.),
 the Gaussian 86(TM) system (copyright 1986, Carnegie Mellon
 University), and the Gaussian 82(TM) system (copyright 1983,
 Carnegie Mellon University). Gaussian is a federally registered
 trademark of Gaussian, Inc.
  
 This software contains proprietary and confidential information,
 including trade secrets, belonging to Gaussian, Inc.
  
 This software is provided under written license and may be
 used, copied, transmitted, or stored only in accord with that
 written license.
  
 The following legend is applicable only to US Government
 contracts under FAR:
  
                    RESTRICTED RIGHTS LEGEND
  
 Use, reproduction and disclosure by the US Government is
 subject to restrictions as set forth in subparagraphs (a)
 and (c) of the Commercial Computer Software - Restricted
 Rights clause in FAR 52.227-19.
  
 Gaussian, Inc.
 340 Quinnipiac St., Bldg. 40, Wallingford CT 06492
  
  
 ---------------------------------------------------------------
 Warning -- This program may not be used in any manner that
 competes with the business of Gaussian, Inc. or will provide
 assistance to any competitor of Gaussian, Inc.  The licensee
 of this program is prohibited from giving any competitor of
 Gaussian, Inc. access to this program.  By using this program,
 the user acknowledges that Gaussian, Inc. is engaged in the
 business of creating and licensing software in the field of
 computational chemistry and represents and warrants to the
 licensee that it is not a competitor of Gaussian, Inc. and that
 it will not use this program in any manner prohibited above.
 ---------------------------------------------------------------
  

 Cite this work as:
 Gaussian 16, Revision B.01,
 M. J. Frisch, G. W. Trucks, H. B. Schlegel, G. E. Scuseria, 
 M. A. Robb, J. R. Cheeseman, G. Scalmani, V. Barone, 
 G. A. Petersson, H. Nakatsuji, X. Li, M. Caricato, A. V. Marenich, 
 J. Bloino, B. G. Janesko, R. Gomperts, B. Mennucci, H. P. Hratchian, 
 J. V. Ortiz, A. F. Izmaylov, J. L. Sonnenberg, D. Williams-Young, 
 F. Ding, F. Lipparini, F. Egidi, J. Goings, B. Peng, A. Petrone, 
 T. Henderson, D. Ranasinghe, V. G. Zakrzewski, J. Gao, N. Rega, 
 G. Zheng, W. Liang, M. Hada, M. Ehara, K. Toyota, R. Fukuda, 
 J. Hasegawa, M. Ishida, T. Nakajima, Y. Honda, O. Kitao, H. Nakai, 
 T. Vreven, K. Throssell, J. A. Montgomery, Jr., J. E. Peralta, 
 F. Ogliaro, M. J. Bearpark, J. J. Heyd, E. N. Brothers, K. N. Kudin, 
 V. N. Staroverov, T. A. Keith, R. Kobayashi, J. Normand, 
 K. Raghavachari, A. P. Rendell, J. C. Burant, S. S. Iyengar, 
 J. Tomasi, M. Cossi, J. M. Millam, M. Klene, C. Adamo, R. Cammi, 
 J. W. Ochterski, R. L. Martin, K. Morokuma, O. Farkas, 
 J. B. Foresman, and D. J. Fox, Gaussian, Inc., Wallingford CT, 2016.
 
 ******************************************
 Gaussian 16:  ES64L-G16RevB.01 20-Dec-2017
                13-Jun-2019 
 ******************************************
 %mem=80GB
 %nproc=40
 Will use up to   40 processors via shared memory.
 ----------------------------------------------------------------------
 # opt=(calcfc,ts,noeigentest,maxcyc=500,modredundant) uB2PLYPD3/cc-pvt
 z scf=maxcyc=500 nosymm
 ----------------------------------------------------------------------
 1/5=1,6=500,10=4,11=1,18=120,38=1/1,3;
 2/9=110,12=2,15=1,17=6,18=5,40=1/2;
 3/5=16,6=1,11=2,25=1,30=1,71=2,74=-60,116=2,140=1/1,2,3;
 4//1;
 5/5=2,7=500,38=5/2;
 8/6=3,8=1,10=1,19=11,30=-1/1;
 9/15=3,16=-3/6;
 11/6=1,8=1,15=11,17=12,24=-1,27=1,28=-2,29=300,31=1,32=6,42=3/1,2,10;
 10/6=2,21=1,31=1/2;
 8/6=4,8=1,10=1,19=11,30=-1/11,4;
 10/5=1,20=4,31=1/2;
 11/12=2,14=11,16=1,17=2,28=-2,31=1,42=3,76=2/2,10,12;
 6/7=2,8=2,9=2,10=2/1;
 7/10=1,12=2,25=1,30=1,44=2/1,2,3,16;
 1/5=1,6=500,10=4,11=1,18=20/3(2);
 2/9=110,15=1/2;
 99//99;
 2/9=110,15=1/2;
 3/5=16,6=1,11=2,25=1,30=1,71=1,74=-60,116=2/1,2,3;
 4/5=5,16=3,69=1/1;
 5/5=2,7=500,38=5/2;
 8/6=4,10=1/1;
 9/15=2,16=-3/6;
 10/5=1,31=1/2;
 7/12=2,30=1/1,2,3,16;
 1/5=1,6=500,11=1,18=20/3(-8);
 2/9=110,15=1/2;
 6/7=2,8=2,9=2,10=2/1;
 99/9=10/99;
 -------------------
 Title Card Required
 -------------------
 Symbolic Z-matrix:
 Charge =  0 Multiplicity = 2
 C                    -0.07239   1.83786   0.32675 
 H                     0.07228   2.79028  -0.17324 
 H                    -0.11649   1.92035   1.40846 
 C                     1.57464  -1.49512   0.48053 
 H                     0.9389   -1.12345   1.28339 
 H                     1.1823   -2.4354    0.0988 
 H                     2.59244  -1.62787   0.843 
 O                     1.55843  -0.60101  -0.62705 
 O                     2.08911   0.61767  -0.20535 
 H                     1.07792   1.27088   0.08985 
 C                    -1.02169   0.93278  -0.27843 
 C                    -1.72781   0.00596   0.39476 
 H                    -1.12572   0.97283  -1.35687 
 H                    -1.61744  -0.04172   1.47364 
 C                    -2.66229  -0.97288  -0.23119 
 H                    -2.34929  -1.99816  -0.02165 
 H                    -3.67207  -0.86809   0.17013 
 H                    -2.70584  -0.8446   -1.3108 
 
 Add virtual bond connecting atoms H10        and O9         Dist= 2.34D+00.
 Add virtual bond connecting atoms H10        and C1         Dist= 2.46D+00.
 The following ModRedundant input section has been read:
 D    *          1       9    *    R                                           
 D       2       1       9       8 S  36 10.000                                
 

 GradGradGradGradGradGradGradGradGradGradGradGradGradGradGradGradGradGrad
 Berny optimization.
 Initialization pass.
                           ----------------------------
                           !    Initial Parameters    !
                           ! (Angstroms and Degrees)  !
 --------------------------                            --------------------------
 ! Name  Definition              Value          Derivative Info.                !
 --------------------------------------------------------------------------------
 ! R1    R(1,2)                  1.0854         calculate D2E/DX2 analytically  !
 ! R2    R(1,3)                  1.0857         calculate D2E/DX2 analytically  !
 ! R3    R(1,10)                 1.3041         calculate D2E/DX2 analytically  !
 ! R4    R(1,11)                 1.4445         calculate D2E/DX2 analytically  !
 ! R5    R(4,5)                  1.0894         calculate D2E/DX2 analytically  !
 ! R6    R(4,6)                  1.088          calculate D2E/DX2 analytically  !
 ! R7    R(4,7)                  1.0885         calculate D2E/DX2 analytically  !
 ! R8    R(4,8)                  1.4235         calculate D2E/DX2 analytically  !
 ! R9    R(8,9)                  1.3945         calculate D2E/DX2 analytically  !
 ! R10   R(9,10)                 1.2395         calculate D2E/DX2 analytically  !
 ! R11   R(11,12)                1.3457         calculate D2E/DX2 analytically  !
 ! R12   R(11,13)                1.0842         calculate D2E/DX2 analytically  !
 ! R13   R(12,14)                1.0856         calculate D2E/DX2 analytically  !
 ! R14   R(12,15)                1.491          calculate D2E/DX2 analytically  !
 ! R15   R(15,16)                1.0923         calculate D2E/DX2 analytically  !
 ! R16   R(15,17)                1.0916         calculate D2E/DX2 analytically  !
 ! R17   R(15,18)                1.0881         calculate D2E/DX2 analytically  !
 ! A1    A(2,1,3)              113.4342         calculate D2E/DX2 analytically  !
 ! A2    A(2,1,10)             100.3844         calculate D2E/DX2 analytically  !
 ! A3    A(2,1,11)             116.3859         calculate D2E/DX2 analytically  !
 ! A4    A(3,1,10)             104.4683         calculate D2E/DX2 analytically  !
 ! A5    A(3,1,11)             115.9958         calculate D2E/DX2 analytically  !
 ! A6    A(10,1,11)            103.365          calculate D2E/DX2 analytically  !
 ! A7    A(5,4,6)              110.0577         calculate D2E/DX2 analytically  !
 ! A8    A(5,4,7)              109.9885         calculate D2E/DX2 analytically  !
 ! A9    A(5,4,8)              110.6381         calculate D2E/DX2 analytically  !
 ! A10   A(6,4,7)              110.4013         calculate D2E/DX2 analytically  !
 ! A11   A(6,4,8)              105.4101         calculate D2E/DX2 analytically  !
 ! A12   A(7,4,8)              110.2627         calculate D2E/DX2 analytically  !
 ! A13   A(4,8,9)              108.0165         calculate D2E/DX2 analytically  !
 ! A14   A(8,9,10)             102.8329         calculate D2E/DX2 analytically  !
 ! A15   A(1,11,12)            124.5281         calculate D2E/DX2 analytically  !
 ! A16   A(1,11,13)            117.1712         calculate D2E/DX2 analytically  !
 ! A17   A(12,11,13)           118.2102         calculate D2E/DX2 analytically  !
 ! A18   A(11,12,14)           118.3004         calculate D2E/DX2 analytically  !
 ! A19   A(11,12,15)           124.8208         calculate D2E/DX2 analytically  !
 ! A20   A(14,12,15)           116.8788         calculate D2E/DX2 analytically  !
 ! A21   A(12,15,16)           110.8602         calculate D2E/DX2 analytically  !
 ! A22   A(12,15,17)           111.2465         calculate D2E/DX2 analytically  !
 ! A23   A(12,15,18)           111.3598         calculate D2E/DX2 analytically  !
 ! A24   A(16,15,17)           106.538          calculate D2E/DX2 analytically  !
 ! A25   A(16,15,18)           108.2085         calculate D2E/DX2 analytically  !
 ! A26   A(17,15,18)           108.4469         calculate D2E/DX2 analytically  !
 ! A27   L(1,10,9,5,-1)        176.3622         calculate D2E/DX2 analytically  !
 ! A28   L(1,10,9,5,-2)        173.4138         calculate D2E/DX2 analytically  !
 ! D1    D(2,1,9,8)           -131.9154         Scan                            !
 ! D2    D(2,1,11,12)         -152.2074         calculate D2E/DX2 analytically  !
 ! D3    D(2,1,11,13)           31.3257         calculate D2E/DX2 analytically  !
 ! D4    D(3,1,11,12)          -14.8295         calculate D2E/DX2 analytically  !
 ! D5    D(3,1,11,13)          168.7036         calculate D2E/DX2 analytically  !
 ! D6    D(10,1,11,12)          98.8464         calculate D2E/DX2 analytically  !
 ! D7    D(10,1,11,13)         -77.6205         calculate D2E/DX2 analytically  !
 ! D8    D(5,4,8,9)             62.7173         calculate D2E/DX2 analytically  !
 ! D9    D(6,4,8,9)           -178.3379         calculate D2E/DX2 analytically  !
 ! D10   D(7,4,8,9)            -59.1809         calculate D2E/DX2 analytically  !
 ! D11   D(4,8,9,10)           -95.3402         calculate D2E/DX2 analytically  !
 ! D12   D(1,11,12,14)           2.9856         calculate D2E/DX2 analytically  !
 ! D13   D(1,11,12,15)        -177.0462         calculate D2E/DX2 analytically  !
 ! D14   D(13,11,12,14)        179.4187         calculate D2E/DX2 analytically  !
 ! D15   D(13,11,12,15)         -0.6131         calculate D2E/DX2 analytically  !
 ! D16   D(11,12,15,16)        120.4501         calculate D2E/DX2 analytically  !
 ! D17   D(11,12,15,17)       -121.191          calculate D2E/DX2 analytically  !
 ! D18   D(11,12,15,18)         -0.0865         calculate D2E/DX2 analytically  !
 ! D19   D(14,12,15,16)        -59.5813         calculate D2E/DX2 analytically  !
 ! D20   D(14,12,15,17)         58.7776         calculate D2E/DX2 analytically  !
 ! D21   D(14,12,15,18)        179.8821         calculate D2E/DX2 analytically  !
 --------------------------------------------------------------------------------
 Trust Radius=3.00D-01 FncErr=1.00D-07 GrdErr=1.00D-07 EigMax=2.50D+02 EigMin=1.00D-04
 Number of optimizations in scan=  37
 Number of steps in this run=    108 maximum allowed number of steps=    108.
 Search for a saddle point of order  1.
 GradGradGradGradGradGradGradGradGradGradGradGradGradGradGradGradGradGrad

                          Input orientation:                          
 ---------------------------------------------------------------------
 Center     Atomic      Atomic             Coordinates (Angstroms)
 Number     Number       Type             X           Y           Z
 ---------------------------------------------------------------------
      1          6           0       -0.072388    1.837857    0.326754
      2          1           0        0.072279    2.790278   -0.173236
      3          1           0       -0.116494    1.920347    1.408461
      4          6           0        1.574635   -1.495115    0.480527
      5          1           0        0.938896   -1.123450    1.283392
      6          1           0        1.182304   -2.435399    0.098795
      7          1           0        2.592435   -1.627867    0.842997
      8          8           0        1.558427   -0.601006   -0.627047
      9          8           0        2.089112    0.617669   -0.205354
     10          1           0        1.077917    1.270877    0.089846
     11          6           0       -1.021692    0.932781   -0.278430
     12          6           0       -1.727814    0.005963    0.394756
     13          1           0       -1.125719    0.972826   -1.356869
     14          1           0       -1.617444   -0.041723    1.473640
     15          6           0       -2.662290   -0.972877   -0.231188
     16          1           0       -2.349288   -1.998164   -0.021649
     17          1           0       -3.672065   -0.868085    0.170125
     18          1           0       -2.705836   -0.844596   -1.310802
 ---------------------------------------------------------------------
                    Distance matrix (angstroms):
                    1          2          3          4          5
     1  C    0.000000
     2  H    1.085368   0.000000
     3  H    1.085744   1.814988   0.000000
     4  C    3.720891   4.587927   3.922545   0.000000
     5  H    3.272184   4.264980   3.224002   1.089445   0.000000
     6  H    4.459477   5.349192   4.730182   1.088015   1.784300
     7  H    4.402162   5.186899   4.499763   1.088542   1.783977
     8  O    3.085020   3.730333   3.647722   1.423522   2.075221
     9  O    2.538519   2.964604   3.027551   2.280126   2.563368
    10  H    1.304145   1.840951   1.893984   2.837265   2.678933
    11  C    1.444503   2.158271   2.154129   3.634778   3.242110
    12  C    2.469999   3.363831   2.699781   3.628603   3.029289
    13  H    2.166188   2.477765   3.092472   4.093735   3.953225
    14  H    2.689864   3.686135   2.471198   3.645270   2.782302
    15  C    3.862527   4.652157   4.188111   4.327910   3.909625
    16  H    4.474451   5.368067   4.731312   3.987783   3.644230
    17  H    4.506033   5.246106   4.685180   5.293144   4.750320
    18  H    4.100267   4.714264   4.663045   4.685559   4.482374
                    6          7          8          9         10
     6  H    0.000000
     7  H    1.787292   0.000000
     8  O    2.008311   2.069939   0.000000
     9  O    3.199380   2.528795   1.394496   0.000000
    10  H    3.707757   3.356146   2.061255   1.239491   0.000000
    11  C    4.042837   4.569073   3.021763   3.127577   2.158308
    12  C    3.810069   4.640568   3.494549   3.911936   3.092750
    13  H    4.365997   5.042587   3.195970   3.433258   2.652891
    14  H    3.931726   4.542757   3.848615   4.122181   3.301935
    15  C    4.126592   5.403242   4.255519   5.010621   4.373402
    16  H    3.560593   5.030443   4.193900   5.155165   4.737594
    17  H    5.101613   6.346179   5.297628   5.961511   5.209984
    18  H    4.431168   5.772698   4.325598   5.133397   4.555637
                   11         12         13         14         15
    11  C    0.000000
    12  C    1.345652   0.000000
    13  H    1.084184   2.089386   0.000000
    14  H    2.091489   1.085563   3.046783   0.000000
    15  C    2.515020   1.491033   2.722860   2.205717   0.000000
    16  H    3.227830   2.139193   3.479471   2.568880   1.092287
    17  H    3.235552   2.143486   3.493500   2.569726   1.091641
    18  H    2.657292   2.142173   2.408716   3.095532   1.088080
                   16         17         18
    16  H    0.000000
    17  H    1.750313   0.000000
    18  H    1.766285   1.768416   0.000000
 Symmetry turned off by external request.
 Stoichiometry    C5H11O2(2)
 Framework group  C1[X(C5H11O2)]
 Deg. of freedom    48
 Full point group                 C1      NOp   1
 Rotational constants (GHZ):           3.2592161           1.5000073           1.1409446
 Standard basis: CC-pVTZ (5D, 7F)
   364 basis functions,   551 primitive gaussians,   410 cartesian basis functions
    29 alpha electrons       28 beta electrons
       nuclear repulsion energy       308.8798634463 Hartrees.
 NAtoms=   18 NActive=   18 NUniq=   18 SFac= 1.00D+00 NAtFMM=   60 NAOKFM=F Big=F
 Integral buffers will be    131072 words long.
 Raffenetti 2 integral format.
 Two-electron integral symmetry is turned off.
 Nuclear repulsion after empirical dispersion term =      308.8700616064 Hartrees.
 One-electron integrals computed using PRISM.
 NBasis=   364 RedAO= T EigKep=  2.69D-04  NBF=   364
 NBsUse=   364 1.00D-06 EigRej= -1.00D+00 NBFU=   364
 ExpMin= 1.03D-01 ExpMax= 1.53D+04 ExpMxC= 5.22D+02 IAcc=3 IRadAn=         5 AccDes= 0.00D+00
 Harris functional with IExCor=  419 and IRadAn=       5 diagonalized for initial guess.
 HarFok:  IExCor=  419 AccDes= 0.00D+00 IRadAn=         5 IDoV= 1 UseB2=F ITyADJ=14
 ICtDFT=  3500011 ScaDFX=  1.000000  1.000000  1.000000  1.000000
 FoFCou: FMM=F IPFlag=           0 FMFlag=      100000 FMFlg1=           0
         NFxFlg=           0 DoJE=T BraDBF=F KetDBF=T FulRan=T
         wScrn=  0.000000 ICntrl=       500 IOpCl=  0 I1Cent=   200000004 NGrid=           0
         NMat0=    1 NMatS0=      1 NMatT0=    0 NMatD0=    1 NMtDS0=    0 NMtDT0=    0
 Symmetry not used in FoFCou.
 Initial guess <Sx>= 0.0000 <Sy>= 0.0000 <Sz>= 0.5000 <S**2>= 0.7500 S= 0.5000
 Requested convergence on RMS density matrix=1.00D-08 within 500 cycles.
 Requested convergence on MAX density matrix=1.00D-06.
 Requested convergence on             energy=1.00D-06.
 No special actions if energy rises.
 Integral accuracy reduced to 1.0D-05 until final iterations.
 Initial convergence to 1.0D-05 achieved.  Increase integral accuracy.
 SCF Done:  E(UB2PLYPD3) =  -346.818521974     A.U. after   20 cycles
            NFock= 20  Conv=0.84D-08     -V/T= 2.0043
 <Sx>= 0.0000 <Sy>= 0.0000 <Sz>= 0.5000 <S**2>= 0.8141 S= 0.5315
 <L.S>=  0.00000000000    
 Annihilation of the first spin contaminant:
 S**2 before annihilation     0.8141,   after     0.7518
 DoSCS=T DFT=T ScalE2(SS,OS)=  0.270000  0.270000
 ExpMin= 1.03D-01 ExpMax= 1.53D+04 ExpMxC= 5.22D+02 IAcc=3 IRadAn=         5 AccDes= 0.00D+00
 HarFok:  IExCor=  205 AccDes= 0.00D+00 IRadAn=         5 IDoV=-2 UseB2=F ITyADJ=14
 ICtDFT= 12500011 ScaDFX=  1.000000  1.000000  1.000000  1.000000
 Range of M.O.s used for correlation:     8   364
 NBasis=   364 NAE=    29 NBE=    28 NFC=     7 NFV=     0
 NROrb=    357 NOA=    22 NOB=    21 NVA=   335 NVB=   336

 **** Warning!!: The largest alpha MO coefficient is  0.17094304D+02


 **** Warning!!: The largest beta MO coefficient is  0.17142111D+02

 DoSCS=T DFT=T ScalE2(SS,OS)=  0.270000  0.270000
 Disk-based method using ON**2 memory for 22 occupieds at a time.
 Permanent disk used for amplitudes=   135386230 words.
 Estimated scratch disk usage=  2622590564 words.
 Actual    scratch disk usage=  2536328804 words.
 JobTyp=2 Pass  1:  I=   8 to  29 NPSUse= 40 ParTrn=T ParDer=T DoDerP=T.
 (rs|ai) integrals will be sorted in core.
 Actual    scratch disk usage=  2536328804 words.
 JobTyp=3 Pass  1:  I=   8 to  28 NPSUse= 40 ParTrn=T ParDer=T DoDerP=T.
 (rs|ai) integrals will be sorted in core.
 Spin components of T(2) and E(2):
     alpha-alpha T2 =       0.7552482561D-01 E2=     -0.5358681114D-01
     alpha-beta  T2 =       0.4627099000D+00 E2=     -0.3345257190D+00
     beta-beta   T2 =       0.8504528504D-01 E2=     -0.5341903816D-01
 (S**2,0)=  0.81409D+00           (S**2,1)=  0.75652D+00
 Scaling Projection term by:   0.270000
 E(PUHF)=      -0.34682864885D+03        E(PMP2)=      -0.34726158037D+03
 E2(B2PLYPD3) =    -0.4415315683D+00 E(B2PLYPD3) =    -0.34726005354214D+03
 G2DrvN: will do    19 centers at a time, making    1 passes.
 Calling FoFCou, ICntrl=  3107 FMM=F I1Cent=   0 AccDes= 0.00D+00.
 End of G2Drv F.D. properties file   721 does not exist.
 End of G2Drv F.D. properties file   722 does not exist.
 End of G2Drv F.D. properties file   788 does not exist.
          IDoAtm=111111111111111111
          Differentiating once with respect to electric field.
                with respect to dipole field.
          Differentiating once with respect to nuclear coordinates.
 Keep R1 and R2 ints in memory in canonical form, NReq=4459303714.
          There are    57 degrees of freedom in the 1st order CPHF.  IDoFFX=6 NUNeed=    57.
     54 vectors produced by pass  0 Test12= 3.35D-14 1.75D-09 XBig12= 1.25D+02 8.16D+00.
 AX will form    54 AO Fock derivatives at one time.
     54 vectors produced by pass  1 Test12= 3.35D-14 1.75D-09 XBig12= 1.65D+01 5.69D-01.
     54 vectors produced by pass  2 Test12= 3.35D-14 1.75D-09 XBig12= 1.38D+00 1.99D-01.
     54 vectors produced by pass  3 Test12= 3.35D-14 1.75D-09 XBig12= 2.05D-02 1.74D-02.
     54 vectors produced by pass  4 Test12= 3.35D-14 1.75D-09 XBig12= 2.79D-04 1.83D-03.
     54 vectors produced by pass  5 Test12= 3.35D-14 1.75D-09 XBig12= 3.40D-06 1.58D-04.
     53 vectors produced by pass  6 Test12= 3.35D-14 1.75D-09 XBig12= 2.61D-08 1.34D-05.
     26 vectors produced by pass  7 Test12= 3.35D-14 1.75D-09 XBig12= 1.68D-10 9.86D-07.
      3 vectors produced by pass  8 Test12= 3.35D-14 1.75D-09 XBig12= 1.05D-12 7.06D-08.
      2 vectors produced by pass  9 Test12= 3.35D-14 1.75D-09 XBig12= 6.97D-15 7.57D-09.
 InvSVY:  IOpt=1 It=  1 EMax= 5.33D-15
 Solved reduced A of dimension   408 with    57 vectors.
 End of Minotr F.D. properties file   721 does not exist.
 End of Minotr F.D. properties file   722 does not exist.
 End of Minotr F.D. properties file   788 does not exist.
 MDV= 10737418240.
 DoSCS=T DFT=T ScalE2(SS,OS)=  0.270000  0.270000
 Form MO integral derivatives with frozen-active canonical formalism.
 Discarding MO integrals.
 Reordered first order wavefunction length =    545006183
 In DefCFB: NBatch=  1 ICI= 29 ICA=336 LFMax= 68
            Large arrays: LIAPS= 11415666080 LIARS=  1957569600 words.
 In DefCFB: NBatch=  1 ICI= 29 ICA=336 LFMax= 68
            Large arrays: LIAPS= 11415666080 LIARS=  1957569600 words.
 Semi-Direct transformation.
 ModeAB=           4 MOrb=            29 LenV=   10733545037
 LASXX=    664627481 LTotXX=   664627481 LenRXX=  1338891981
 LTotAB=   674264500 MaxLAS=   809961880 LenRXY=           0
 NonZer=  2003519462 LenScr=  3017065472 LnRSAI=   809961880
 LnScr1=  1219707904 LExtra=           0 Total=   6385627237
 MaxDsk=          -1 SrtSym=           T ITran=            4
 JobTyp=1 Pass  1:  I=   1 to  29.
 (rs|ai) integrals will be sorted in core.
 ModeAB=           4 MOrb=            28 LenV=   10733545037
 LASXX=    642894399 LTotXX=   642894399 LenRXX=  1195226319
 LTotAB=   552331920 MaxLAS=   782032160 LenRXY=           0
 NonZer=  1838120718 LenScr=  2767993856 LnRSAI=   782032160
 LnScr1=  1177649152 LExtra=           0 Total=   5922901487
 MaxDsk=          -1 SrtSym=           T ITran=            4
 JobTyp=2 Pass  1:  I=   1 to  28.
 (rs|ai) integrals will be sorted in core.
 DoSCS=T DFT=T ScalE2(SS,OS)=  0.270000  0.270000
 Spin components of T(2) and E(2):
     alpha-alpha T2 =       0.7552482561D-01 E2=     -0.5358681114D-01
     alpha-beta  T2 =       0.4627099000D+00 E2=     -0.3345257190D+00
     beta-beta   T2 =       0.8504528504D-01 E2=     -0.5341903816D-01
 E2(B2PLYPD3) =    -0.4415315683D+00 E(B2PLYPD3) =    -0.34726005354214D+03
 (S**2,0)=  0.81409D+00           (S**2,1)=  0.75652D+00
 Scaling Projection term by:   0.270000
 E(PUHF)=      -0.34682864885D+03        E(PMP2)=      -0.34726158037D+03
          IDoAtm=111111111111111111
          Differentiating once with respect to electric field.
                with respect to dipole field.
          Differentiating once with respect to nuclear coordinates.
 Keep R1 and R2 ints in memory in canonical form, NReq=4459438754.
          There are     1 degrees of freedom in the 1st order CPHF.  IDoFFX=0 NUNeed=     1.
 LinEq1:  Iter=  0 NonCon=     1 RMS=9.36D-04 Max=6.75D-02 NDo=     1
 AX will form     1 AO Fock derivatives at one time.
 LinEq1:  Iter=  1 NonCon=     1 RMS=3.36D-04 Max=1.42D-02 NDo=     1
 LinEq1:  Iter=  2 NonCon=     1 RMS=2.19D-04 Max=7.05D-03 NDo=     1
 LinEq1:  Iter=  3 NonCon=     1 RMS=1.14D-04 Max=3.96D-03 NDo=     1
 LinEq1:  Iter=  4 NonCon=     1 RMS=7.60D-05 Max=3.46D-03 NDo=     1
 LinEq1:  Iter=  5 NonCon=     1 RMS=5.50D-05 Max=3.95D-03 NDo=     1
 LinEq1:  Iter=  6 NonCon=     1 RMS=2.85D-05 Max=9.68D-04 NDo=     1
 LinEq1:  Iter=  7 NonCon=     1 RMS=8.22D-06 Max=3.70D-04 NDo=     1
 LinEq1:  Iter=  8 NonCon=     1 RMS=4.27D-06 Max=2.52D-04 NDo=     1
 LinEq1:  Iter=  9 NonCon=     1 RMS=2.22D-06 Max=7.17D-05 NDo=     1
 LinEq1:  Iter= 10 NonCon=     1 RMS=1.02D-06 Max=2.40D-05 NDo=     1
 LinEq1:  Iter= 11 NonCon=     1 RMS=5.27D-07 Max=1.58D-05 NDo=     1
 LinEq1:  Iter= 12 NonCon=     1 RMS=2.27D-07 Max=3.76D-06 NDo=     1
 LinEq1:  Iter= 13 NonCon=     1 RMS=9.48D-08 Max=1.83D-06 NDo=     1
 LinEq1:  Iter= 14 NonCon=     1 RMS=3.82D-08 Max=8.29D-07 NDo=     1
 LinEq1:  Iter= 15 NonCon=     1 RMS=1.65D-08 Max=5.27D-07 NDo=     1
 LinEq1:  Iter= 16 NonCon=     1 RMS=6.47D-09 Max=1.07D-07 NDo=     1
 LinEq1:  Iter= 17 NonCon=     1 RMS=2.52D-09 Max=5.11D-08 NDo=     1
 LinEq1:  Iter= 18 NonCon=     1 RMS=8.11D-10 Max=2.97D-08 NDo=     1
 LinEq1:  Iter= 19 NonCon=     1 RMS=2.78D-10 Max=1.53D-08 NDo=     1
 LinEq1:  Iter= 20 NonCon=     1 RMS=1.16D-10 Max=7.98D-09 NDo=     1
 LinEq1:  Iter= 21 NonCon=     1 RMS=6.32D-11 Max=3.91D-09 NDo=     1
 LinEq1:  Iter= 22 NonCon=     0 RMS=2.18D-11 Max=7.94D-10 NDo=     1
 Linear equations converged to 1.000D-10 1.000D-09 after    22 iterations.
 End of Minotr F.D. properties file   721 does not exist.
 End of Minotr F.D. properties file   722 does not exist.
 End of Minotr F.D. properties file   788 does not exist.
 Symmetrizing basis deriv contribution to polar:
 IMax=3 JMax=2 DiffMx= 0.00D+00
 G2DrvN: will do    19 centers at a time, making    1 passes.
 Calling FoFCou, ICntrl=  3107 FMM=F I1Cent=   0 AccDes= 0.00D+00.
 End of G2Drv F.D. properties file   721 does not exist.
 End of G2Drv F.D. properties file   722 does not exist.
 End of G2Drv F.D. properties file   788 does not exist.
 DoSCS=T DFT=T ScalE2(SS,OS)=  0.270000  0.270000
 R2 and R3 integrals will be kept in memory, NReq=  7133702340.
 DD1Dir will call FoFMem   1 times, MxPair=      2408
 NAB=   812 NAA=   406 NBB=   378.
 Discarding MO integrals.

 **********************************************************************

            Population analysis using the SCF Density.

 **********************************************************************

 Alpha  occ. eigenvalues --  -19.78650 -19.77888 -10.65742 -10.63111 -10.62699
 Alpha  occ. eigenvalues --  -10.62170 -10.61604  -1.27478  -1.00867  -0.93664
 Alpha  occ. eigenvalues --   -0.85524  -0.77388  -0.75262  -0.64670  -0.60093
 Alpha  occ. eigenvalues --   -0.55666  -0.54429  -0.53343  -0.53049  -0.49667
 Alpha  occ. eigenvalues --   -0.49190  -0.45555  -0.44439  -0.43972  -0.42078
 Alpha  occ. eigenvalues --   -0.39295  -0.35872  -0.34032  -0.26971
 Alpha virt. eigenvalues --    0.07094   0.07493   0.09282   0.10457   0.11509
 Alpha virt. eigenvalues --    0.13451   0.14662   0.15012   0.16108   0.16404
 Alpha virt. eigenvalues --    0.18397   0.18944   0.21024   0.22725   0.25959
 Alpha virt. eigenvalues --    0.26790   0.29413   0.31096   0.31216   0.32535
 Alpha virt. eigenvalues --    0.32816   0.36014   0.36615   0.40348   0.41271
 Alpha virt. eigenvalues --    0.42743   0.45123   0.46712   0.47054   0.49080
 Alpha virt. eigenvalues --    0.50383   0.50975   0.51691   0.52111   0.52757
 Alpha virt. eigenvalues --    0.53199   0.54021   0.54403   0.55135   0.56266
 Alpha virt. eigenvalues --    0.57372   0.58161   0.60723   0.62813   0.63313
 Alpha virt. eigenvalues --    0.64537   0.67521   0.68871   0.70252   0.72825
 Alpha virt. eigenvalues --    0.73410   0.74137   0.76918   0.77081   0.80879
 Alpha virt. eigenvalues --    0.85713   0.86184   0.89019   0.90693   0.91382
 Alpha virt. eigenvalues --    0.94609   0.95278   0.96433   0.96767   0.98662
 Alpha virt. eigenvalues --    1.00115   1.03064   1.04795   1.05559   1.06948
 Alpha virt. eigenvalues --    1.07855   1.09323   1.10320   1.10961   1.12387
 Alpha virt. eigenvalues --    1.13841   1.15076   1.16686   1.17744   1.19564
 Alpha virt. eigenvalues --    1.20858   1.21921   1.22637   1.23590   1.25553
 Alpha virt. eigenvalues --    1.28461   1.29294   1.32256   1.35200   1.35793
 Alpha virt. eigenvalues --    1.36996   1.37849   1.39362   1.40669   1.42289
 Alpha virt. eigenvalues --    1.42671   1.44229   1.47007   1.48348   1.48906
 Alpha virt. eigenvalues --    1.50896   1.53193   1.53787   1.55769   1.59225
 Alpha virt. eigenvalues --    1.59932   1.60129   1.62486   1.65678   1.67146
 Alpha virt. eigenvalues --    1.73041   1.77342   1.79967   1.84069   1.90481
 Alpha virt. eigenvalues --    1.91049   2.00695   2.03638   2.07990   2.15136
 Alpha virt. eigenvalues --    2.18632   2.21703   2.23789   2.29494   2.30527
 Alpha virt. eigenvalues --    2.31953   2.35300   2.39104   2.40102   2.42869
 Alpha virt. eigenvalues --    2.47743   2.48652   2.49997   2.50757   2.53482
 Alpha virt. eigenvalues --    2.54097   2.57398   2.61386   2.63317   2.63869
 Alpha virt. eigenvalues --    2.66001   2.71135   2.74888   2.77497   2.79457
 Alpha virt. eigenvalues --    2.79909   2.82746   2.83687   2.87288   2.89251
 Alpha virt. eigenvalues --    2.90263   2.91953   2.93503   2.94070   2.94610
 Alpha virt. eigenvalues --    2.95362   2.98370   3.01901   3.02902   3.03707
 Alpha virt. eigenvalues --    3.04344   3.04589   3.06244   3.08907   3.10318
 Alpha virt. eigenvalues --    3.10987   3.12607   3.13544   3.14018   3.14718
 Alpha virt. eigenvalues --    3.15903   3.16441   3.17765   3.18305   3.19978
 Alpha virt. eigenvalues --    3.20818   3.22486   3.25347   3.28478   3.29167
 Alpha virt. eigenvalues --    3.32488   3.35275   3.36598   3.38714   3.39513
 Alpha virt. eigenvalues --    3.41099   3.43142   3.44818   3.45121   3.46988
 Alpha virt. eigenvalues --    3.48577   3.49428   3.51783   3.52885   3.54290
 Alpha virt. eigenvalues --    3.54590   3.56479   3.58236   3.59234   3.59948
 Alpha virt. eigenvalues --    3.60385   3.63612   3.64614   3.66158   3.69924
 Alpha virt. eigenvalues --    3.71615   3.74071   3.78158   3.81073   3.81982
 Alpha virt. eigenvalues --    3.83654   3.84679   3.86834   3.88310   3.89568
 Alpha virt. eigenvalues --    3.90461   3.91739   3.94778   3.96171   3.96515
 Alpha virt. eigenvalues --    3.98167   3.99170   4.01235   4.04179   4.05813
 Alpha virt. eigenvalues --    4.06965   4.08079   4.09399   4.10801   4.11342
 Alpha virt. eigenvalues --    4.13322   4.15789   4.16982   4.18846   4.19322
 Alpha virt. eigenvalues --    4.21112   4.21815   4.22434   4.23535   4.25929
 Alpha virt. eigenvalues --    4.27152   4.30783   4.32064   4.34639   4.36412
 Alpha virt. eigenvalues --    4.37140   4.40510   4.41267   4.44328   4.47257
 Alpha virt. eigenvalues --    4.48581   4.49829   4.52837   4.54097   4.57293
 Alpha virt. eigenvalues --    4.59095   4.62001   4.64316   4.69645   4.74997
 Alpha virt. eigenvalues --    4.77314   4.80229   4.81586   4.83847   4.86090
 Alpha virt. eigenvalues --    4.90775   4.94345   4.94751   4.95264   5.00099
 Alpha virt. eigenvalues --    5.01365   5.02426   5.04751   5.05656   5.06598
 Alpha virt. eigenvalues --    5.08905   5.10969   5.16881   5.18471   5.23666
 Alpha virt. eigenvalues --    5.27974   5.29768   5.31068   5.32789   5.34404
 Alpha virt. eigenvalues --    5.35660   5.37019   5.38011   5.39086   5.41121
 Alpha virt. eigenvalues --    5.42725   5.45589   5.47310   5.50288   5.51560
 Alpha virt. eigenvalues --    5.56469   5.60881   5.65268   5.68064   5.72197
 Alpha virt. eigenvalues --    5.75036   5.85032   5.94207   5.96193   5.97070
 Alpha virt. eigenvalues --    5.99089   6.00784   6.02057   6.02784   6.08871
 Alpha virt. eigenvalues --    6.12244   6.18754   6.25557   6.27981   6.35687
 Alpha virt. eigenvalues --    6.41328   6.65395   6.72926   6.74485   6.80766
 Alpha virt. eigenvalues --    6.96312   7.03425   7.08429   7.13694   7.44511
 Alpha virt. eigenvalues --    7.46575   7.58429   7.70848   9.81527  10.63483
 Alpha virt. eigenvalues --   11.25481  13.24106  13.50473  13.79542  14.22077
  Beta  occ. eigenvalues --  -19.78374 -19.76146 -10.65756 -10.62624 -10.62410
  Beta  occ. eigenvalues --  -10.61775 -10.61658  -1.25385  -0.97685  -0.92774
  Beta  occ. eigenvalues --   -0.84373  -0.76909  -0.73727  -0.64260  -0.56823
  Beta  occ. eigenvalues --   -0.54288  -0.54037  -0.52908  -0.52728  -0.48270
  Beta  occ. eigenvalues --   -0.46602  -0.45297  -0.44055  -0.43012  -0.41774
  Beta  occ. eigenvalues --   -0.35477  -0.34432  -0.29303
  Beta virt. eigenvalues --   -0.05205   0.07306   0.08655   0.09410   0.10625
  Beta virt. eigenvalues --    0.11766   0.13915   0.14832   0.15190   0.16314
  Beta virt. eigenvalues --    0.16550   0.18521   0.19125   0.21826   0.22885
  Beta virt. eigenvalues --    0.26160   0.27371   0.29993   0.31179   0.31467
  Beta virt. eigenvalues --    0.32784   0.33260   0.36370   0.37135   0.41020
  Beta virt. eigenvalues --    0.41483   0.43273   0.45190   0.46666   0.47266
  Beta virt. eigenvalues --    0.49606   0.50876   0.51398   0.51954   0.52651
  Beta virt. eigenvalues --    0.53488   0.53685   0.54584   0.54973   0.55466
  Beta virt. eigenvalues --    0.56516   0.58206   0.58535   0.61020   0.63071
  Beta virt. eigenvalues --    0.63699   0.64942   0.67872   0.69288   0.70641
  Beta virt. eigenvalues --    0.72992   0.74328   0.74346   0.77177   0.77352
  Beta virt. eigenvalues --    0.81486   0.85963   0.86924   0.89142   0.90770
  Beta virt. eigenvalues --    0.91566   0.94799   0.95477   0.96708   0.96962
  Beta virt. eigenvalues --    0.98941   1.00471   1.03348   1.05004   1.05687
  Beta virt. eigenvalues --    1.07087   1.07975   1.09842   1.10672   1.11207
  Beta virt. eigenvalues --    1.12568   1.14163   1.15267   1.17253   1.17912
  Beta virt. eigenvalues --    1.19814   1.21144   1.22059   1.22754   1.23726
  Beta virt. eigenvalues --    1.25760   1.28830   1.29791   1.32730   1.35329
  Beta virt. eigenvalues --    1.36041   1.37094   1.38082   1.39499   1.40771
  Beta virt. eigenvalues --    1.42402   1.42853   1.44478   1.47404   1.48788
  Beta virt. eigenvalues --    1.49406   1.51125   1.53578   1.54245   1.56247
  Beta virt. eigenvalues --    1.59545   1.60261   1.60593   1.62778   1.66149
  Beta virt. eigenvalues --    1.67320   1.73731   1.78011   1.80277   1.85606
  Beta virt. eigenvalues --    1.91296   1.91732   2.01215   2.04246   2.08477
  Beta virt. eigenvalues --    2.15626   2.18791   2.22007   2.25795   2.30059
  Beta virt. eigenvalues --    2.31156   2.32537   2.35563   2.40335   2.40467
  Beta virt. eigenvalues --    2.43767   2.48048   2.49054   2.50228   2.51244
  Beta virt. eigenvalues --    2.53939   2.54265   2.57473   2.61933   2.63923
  Beta virt. eigenvalues --    2.64258   2.66542   2.71238   2.75402   2.77923
  Beta virt. eigenvalues --    2.79687   2.80286   2.82956   2.84275   2.87452
  Beta virt. eigenvalues --    2.89613   2.91036   2.92182   2.93818   2.94253
  Beta virt. eigenvalues --    2.95023   2.95600   2.98525   3.02150   3.03070
  Beta virt. eigenvalues --    3.03865   3.04782   3.05066   3.06337   3.09311
  Beta virt. eigenvalues --    3.10664   3.11323   3.12868   3.14025   3.14207
  Beta virt. eigenvalues --    3.15165   3.16226   3.16938   3.17910   3.18655
  Beta virt. eigenvalues --    3.20117   3.21388   3.22553   3.25588   3.29109
  Beta virt. eigenvalues --    3.30242   3.33220   3.35453   3.36904   3.38981
  Beta virt. eigenvalues --    3.39925   3.41334   3.43305   3.44887   3.45291
  Beta virt. eigenvalues --    3.47803   3.48881   3.49853   3.51857   3.53237
  Beta virt. eigenvalues --    3.54431   3.54810   3.56694   3.58471   3.59280
  Beta virt. eigenvalues --    3.60175   3.60608   3.63728   3.65046   3.66464
  Beta virt. eigenvalues --    3.70117   3.71839   3.74445   3.78398   3.81420
  Beta virt. eigenvalues --    3.82152   3.83888   3.84821   3.87005   3.88427
  Beta virt. eigenvalues --    3.89743   3.90593   3.91821   3.94803   3.96299
  Beta virt. eigenvalues --    3.96553   3.98449   3.99274   4.01310   4.04364
  Beta virt. eigenvalues --    4.05878   4.07115   4.08030   4.09412   4.10720
  Beta virt. eigenvalues --    4.11415   4.13474   4.15899   4.17195   4.19043
  Beta virt. eigenvalues --    4.19511   4.21343   4.22047   4.22588   4.23687
  Beta virt. eigenvalues --    4.26250   4.27446   4.30856   4.32348   4.34733
  Beta virt. eigenvalues --    4.36542   4.37293   4.40565   4.41559   4.44636
  Beta virt. eigenvalues --    4.47506   4.48870   4.50099   4.53182   4.54555
  Beta virt. eigenvalues --    4.57635   4.59818   4.62800   4.64776   4.70054
  Beta virt. eigenvalues --    4.75438   4.78053   4.80388   4.81850   4.84233
  Beta virt. eigenvalues --    4.86439   4.90881   4.94529   4.94968   4.95742
  Beta virt. eigenvalues --    5.00313   5.01591   5.02657   5.05151   5.05946
  Beta virt. eigenvalues --    5.06802   5.09184   5.11271   5.17502   5.19018
  Beta virt. eigenvalues --    5.24485   5.28570   5.29999   5.31581   5.32986
  Beta virt. eigenvalues --    5.34785   5.35904   5.37305   5.38278   5.39721
  Beta virt. eigenvalues --    5.41240   5.42983   5.45740   5.47630   5.50455
  Beta virt. eigenvalues --    5.51791   5.56792   5.61080   5.65388   5.68865
  Beta virt. eigenvalues --    5.72357   5.75776   5.86222   5.94411   5.96358
  Beta virt. eigenvalues --    5.97663   5.99804   6.01033   6.02922   6.03368
  Beta virt. eigenvalues --    6.09422   6.12936   6.19842   6.25962   6.28862
  Beta virt. eigenvalues --    6.37070   6.41749   6.66386   6.75988   6.77119
  Beta virt. eigenvalues --    6.82307   6.98511   7.05745   7.09192   7.15926
  Beta virt. eigenvalues --    7.44685   7.48660   7.60008   7.71842   9.82866
  Beta virt. eigenvalues --   10.64326  11.25638  13.24755  13.50471  13.79568
  Beta virt. eigenvalues --   14.22344
          Condensed to atoms (all electrons):
               1          2          3          4          5          6
     1  C    5.041442   0.411455   0.406954  -0.003156  -0.000620   0.000477
     2  H    0.411455   0.545745  -0.029849   0.000040  -0.000097   0.000016
     3  H    0.406954  -0.029849   0.563137   0.000204  -0.000506  -0.000060
     4  C   -0.003156   0.000040   0.000204   4.618660   0.387629   0.395965
     5  H   -0.000620  -0.000097  -0.000506   0.387629   0.682023  -0.036943
     6  H    0.000477   0.000016  -0.000060   0.395965  -0.036943   0.595056
     7  H   -0.000769   0.000021   0.000000   0.414200  -0.053090  -0.027889
     8  O   -0.001113   0.000512   0.000264   0.298445  -0.050309  -0.026202
     9  O   -0.065300  -0.000390  -0.000712  -0.046052  -0.000085   0.006750
    10  H    0.241579  -0.012265  -0.008087   0.001256   0.003951  -0.000795
    11  C    0.373091  -0.035738  -0.049427  -0.000449   0.001882  -0.000225
    12  C   -0.061198   0.005179   0.000454  -0.003471  -0.002812   0.000631
    13  H   -0.033228  -0.005918   0.005400  -0.000081   0.000138  -0.000062
    14  H   -0.004663  -0.000042   0.004344  -0.000679   0.000274   0.000092
    15  C    0.005925  -0.000271   0.000014  -0.000196  -0.000480  -0.000182
    16  H   -0.000145  -0.000020  -0.000037   0.000176  -0.000021   0.000029
    17  H   -0.000254   0.000051   0.000023   0.000001  -0.000034   0.000001
    18  H    0.000075  -0.000005   0.000032  -0.000056   0.000019   0.000045
               7          8          9         10         11         12
     1  C   -0.000769  -0.001113  -0.065300   0.241579   0.373091  -0.061198
     2  H    0.000021   0.000512  -0.000390  -0.012265  -0.035738   0.005179
     3  H    0.000000   0.000264  -0.000712  -0.008087  -0.049427   0.000454
     4  C    0.414200   0.298445  -0.046052   0.001256  -0.000449  -0.003471
     5  H   -0.053090  -0.050309  -0.000085   0.003951   0.001882  -0.002812
     6  H   -0.027889  -0.026202   0.006750  -0.000795  -0.000225   0.000631
     7  H    0.599634  -0.037896   0.004915   0.000539   0.000816   0.000139
     8  O   -0.037896   7.936313   0.075761  -0.024997   0.006155   0.001117
     9  O    0.004915   0.075761   8.101843   0.164461  -0.014975   0.001222
    10  H    0.000539  -0.024997   0.164461   0.435544  -0.006966  -0.007796
    11  C    0.000816   0.006155  -0.014975  -0.006966   4.952240   0.566244
    12  C    0.000139   0.001117   0.001222  -0.007796   0.566244   5.040297
    13  H   -0.000002   0.000723   0.000547  -0.000615   0.401274  -0.042870
    14  H    0.000022   0.000005  -0.000030  -0.000006  -0.048433   0.405336
    15  C    0.000035   0.000988  -0.000041   0.000110  -0.056516   0.356222
    16  H   -0.000033  -0.000110   0.000003   0.000120   0.001048  -0.042979
    17  H    0.000003   0.000024  -0.000002  -0.000038   0.000887  -0.042774
    18  H   -0.000002  -0.000047   0.000001  -0.000036  -0.001348  -0.040723
              13         14         15         16         17         18
     1  C   -0.033228  -0.004663   0.005925  -0.000145  -0.000254   0.000075
     2  H   -0.005918  -0.000042  -0.000271  -0.000020   0.000051  -0.000005
     3  H    0.005400   0.004344   0.000014  -0.000037   0.000023   0.000032
     4  C   -0.000081  -0.000679  -0.000196   0.000176   0.000001  -0.000056
     5  H    0.000138   0.000274  -0.000480  -0.000021  -0.000034   0.000019
     6  H   -0.000062   0.000092  -0.000182   0.000029   0.000001   0.000045
     7  H   -0.000002   0.000022   0.000035  -0.000033   0.000003  -0.000002
     8  O    0.000723   0.000005   0.000988  -0.000110   0.000024  -0.000047
     9  O    0.000547  -0.000030  -0.000041   0.000003  -0.000002   0.000001
    10  H   -0.000615  -0.000006   0.000110   0.000120  -0.000038  -0.000036
    11  C    0.401274  -0.048433  -0.056516   0.001048   0.000887  -0.001348
    12  C   -0.042870   0.405336   0.356222  -0.042979  -0.042774  -0.040723
    13  H    0.535464   0.006646  -0.006498   0.000064   0.000067   0.004951
    14  H    0.006646   0.542035  -0.037331  -0.002546  -0.002699   0.005502
    15  C   -0.006498  -0.037331   4.777426   0.405278   0.413841   0.412047
    16  H    0.000064  -0.002546   0.405278   0.609718  -0.040353  -0.027066
    17  H    0.000067  -0.002699   0.413841  -0.040353   0.595649  -0.028122
    18  H    0.004951   0.005502   0.412047  -0.027066  -0.028122   0.574033
          Atomic-Atomic Spin Densities.
               1          2          3          4          5          6
     1  C    0.487918   0.000165   0.002683   0.001869  -0.004899   0.000104
     2  H    0.000165  -0.018672   0.002588  -0.000077   0.000187  -0.000005
     3  H    0.002683   0.002588  -0.020304  -0.000210   0.000698  -0.000002
     4  C    0.001869  -0.000077  -0.000210  -0.007706   0.001463   0.001042
     5  H   -0.004899   0.000187   0.000698   0.001463   0.005229  -0.001292
     6  H    0.000104  -0.000005  -0.000002   0.001042  -0.001292  -0.001751
     7  H    0.000809  -0.000028  -0.000065  -0.000709  -0.001359   0.000917
     8  O    0.012020  -0.000493  -0.000464   0.002353  -0.002080   0.000310
     9  O   -0.067293   0.003485   0.002512  -0.003158   0.004239  -0.000213
    10  H    0.057497   0.001676   0.001599   0.002128  -0.004037   0.000141
    11  C   -0.024970   0.001212   0.001169  -0.001700   0.001623  -0.000173
    12  C   -0.018288  -0.000571  -0.000560  -0.002760   0.005172  -0.000321
    13  H   -0.001526   0.000179  -0.000008  -0.000009  -0.000005   0.000008
    14  H   -0.000129  -0.000054  -0.000177   0.000047  -0.000198  -0.000002
    15  C    0.000344   0.000016  -0.000021   0.000028  -0.000018   0.000026
    16  H    0.000045  -0.000013  -0.000029   0.000250  -0.000517   0.000087
    17  H    0.000119   0.000010   0.000019  -0.000024   0.000061  -0.000004
    18  H    0.000002   0.000002   0.000003   0.000001   0.000003  -0.000003
               7          8          9         10         11         12
     1  C    0.000809   0.012020  -0.067293   0.057497  -0.024970  -0.018288
     2  H   -0.000028  -0.000493   0.003485   0.001676   0.001212  -0.000571
     3  H   -0.000065  -0.000464   0.002512   0.001599   0.001169  -0.000560
     4  C   -0.000709   0.002353  -0.003158   0.002128  -0.001700  -0.002760
     5  H   -0.001359  -0.002080   0.004239  -0.004037   0.001623   0.005172
     6  H    0.000917   0.000310  -0.000213   0.000141  -0.000173  -0.000321
     7  H    0.001489  -0.000449   0.000114   0.001323  -0.000330  -0.000341
     8  O   -0.000449   0.090916  -0.052477   0.010927  -0.003904  -0.004718
     9  O    0.000114  -0.052477   0.612028  -0.055053   0.009936   0.002766
    10  H    0.001323   0.010927  -0.055053  -0.095928   0.006819  -0.001206
    11  C   -0.000330  -0.003904   0.009936   0.006819  -0.260412   0.021124
    12  C   -0.000341  -0.004718   0.002766  -0.001206   0.021124   0.425165
    13  H    0.000002   0.000040  -0.000077  -0.000238  -0.002205  -0.000951
    14  H    0.000013   0.000085  -0.000088   0.000085   0.001574   0.004560
    15  C    0.000003  -0.000002  -0.000021   0.000060   0.000209  -0.013911
    16  H    0.000033   0.000186  -0.000037   0.000024   0.000368  -0.010331
    17  H   -0.000002  -0.000014   0.000004  -0.000002  -0.000246  -0.007960
    18  H   -0.000000  -0.000006   0.000002  -0.000005   0.000064  -0.000842
              13         14         15         16         17         18
     1  C   -0.001526  -0.000129   0.000344   0.000045   0.000119   0.000002
     2  H    0.000179  -0.000054   0.000016  -0.000013   0.000010   0.000002
     3  H   -0.000008  -0.000177  -0.000021  -0.000029   0.000019   0.000003
     4  C   -0.000009   0.000047   0.000028   0.000250  -0.000024   0.000001
     5  H   -0.000005  -0.000198  -0.000018  -0.000517   0.000061   0.000003
     6  H    0.000008  -0.000002   0.000026   0.000087  -0.000004  -0.000003
     7  H    0.000002   0.000013   0.000003   0.000033  -0.000002  -0.000000
     8  O    0.000040   0.000085  -0.000002   0.000186  -0.000014  -0.000006
     9  O   -0.000077  -0.000088  -0.000021  -0.000037   0.000004   0.000002
    10  H   -0.000238   0.000085   0.000060   0.000024  -0.000002  -0.000005
    11  C   -0.002205   0.001574   0.000209   0.000368  -0.000246   0.000064
    12  C   -0.000951   0.004560  -0.013911  -0.010331  -0.007960  -0.000842
    13  H    0.013147  -0.000037   0.000050  -0.000026   0.000022   0.000061
    14  H   -0.000037  -0.022753   0.001599   0.000318  -0.000147  -0.000140
    15  C    0.000050   0.001599  -0.027770   0.004044   0.006415   0.000592
    16  H   -0.000026   0.000318   0.004044   0.029685  -0.006105  -0.000555
    17  H    0.000022  -0.000147   0.006415  -0.006105   0.021477   0.000120
    18  H    0.000061  -0.000140   0.000592  -0.000555   0.000120   0.001115
 Mulliken charges and spin densities:
               1          2
     1  C   -0.310551   0.446470
     2  H    0.121575  -0.010392
     3  H    0.107853  -0.010568
     4  C   -0.062434  -0.007170
     5  H    0.069081   0.004269
     6  H    0.093295  -0.001133
     7  H    0.099356   0.001421
     8  O   -0.179633   0.052230
     9  O   -0.227915   0.456667
    10  H    0.214042  -0.074193
    11  C   -0.089559  -0.249841
    12  C   -0.132218   0.396027
    13  H    0.134001   0.008426
    14  H    0.132172  -0.015445
    15  C   -0.270370  -0.028356
    16  H    0.096875   0.017428
    17  H    0.103730   0.013744
    18  H    0.100701   0.000416
 Sum of Mulliken charges =  -0.00000   1.00000
 Mulliken charges and spin densities with hydrogens summed into heavy atoms:
               1          2
     1  C   -0.081122   0.425510
     4  C    0.199297  -0.002612
     8  O   -0.179633   0.052230
     9  O   -0.013874   0.382474
    11  C    0.044442  -0.241415
    12  C   -0.000046   0.380582
    15  C    0.030936   0.003231
 APT charges:
               1
     1  C    0.475003
     2  H   -0.047017
     3  H   -0.037074
     4  C    0.403888
     5  H   -0.029528
     6  H   -0.004941
     7  H   -0.032983
     8  O   -0.290898
     9  O    0.013926
    10  H   -0.364976
    11  C   -0.249643
    12  C    0.153454
    13  H    0.021697
    14  H   -0.007783
    15  C    0.042000
    16  H   -0.017861
    17  H   -0.017709
    18  H   -0.009556
 Sum of APT charges =  -0.00000
 APT charges with hydrogens summed into heavy atoms:
               1
     1  C    0.390912
     4  C    0.336435
     8  O   -0.290898
     9  O   -0.351050
    11  C   -0.227946
    12  C    0.145672
    15  C   -0.003126
 Electronic spatial extent (au):  <R**2>=           1075.7467
 Charge=             -0.0000 electrons
 Dipole moment (field-independent basis, Debye):
    X=             -2.2194    Y=             -0.8526    Z=              1.4313  Tot=              2.7752
 Quadrupole moment (field-independent basis, Debye-Ang):
   XX=            -48.2072   YY=            -40.7009   ZZ=            -43.9349
   XY=             -1.0179   XZ=              2.6231   YZ=             -1.2155
 Traceless Quadrupole moment (field-independent basis, Debye-Ang):
   XX=             -3.9262   YY=              3.5801   ZZ=              0.3461
   XY=             -1.0179   XZ=              2.6231   YZ=             -1.2155
 Octapole moment (field-independent basis, Debye-Ang**2):
  XXX=              3.9199  YYY=             -2.2182  ZZZ=             -1.9209  XYY=             10.2982
  XXY=            -11.4060  XXZ=              3.3390  XZZ=              1.3074  YZZ=              1.2494
  YYZ=             -0.8816  XYZ=             -0.6760
 Hexadecapole moment (field-independent basis, Debye-Ang**3):
 XXXX=           -875.2083 YYYY=           -405.3244 ZZZZ=           -117.2727 XXXY=             -5.7125
 XXXZ=              1.5737 YYYX=              1.7146 YYYZ=             -2.5946 ZZZX=             -2.1724
 ZZZY=              0.5974 XXYY=           -219.5188 XXZZ=           -166.4964 YYZZ=            -91.8905
 XXYZ=             -4.2256 YYXZ=              1.3238 ZZXY=             -0.4108
 N-N= 3.088700616064D+02 E-N=-1.428989028608D+03  KE= 3.453325988010D+02
  Exact polarizability: 117.400  -0.191  88.794  -3.610  -0.184  61.674
 Approx polarizability: 106.245   6.674  93.021  -6.625  -0.950  75.201
                          Isotropic Fermi Contact Couplings
        Atom                 a.u.       MegaHertz       Gauss      10(-4) cm-1
     1  C(13)              0.06283      70.62851      25.20201      23.55913
     2  H(1)              -0.00251     -11.23242      -4.00801      -3.74673
     3  H(1)              -0.00277     -12.37718      -4.41649      -4.12858
     4  C(13)             -0.00475      -5.34535      -1.90735      -1.78302
     5  H(1)               0.00191       8.55130       3.05132       2.85241
     6  H(1)              -0.00019      -0.85681      -0.30573      -0.28580
     7  H(1)               0.00064       2.86263       1.02146       0.95487
     8  O(17)              0.02000     -12.12544      -4.32666      -4.04461
     9  O(17)              0.03590     -21.76526      -7.76639      -7.26011
    10  H(1)              -0.01813     -81.03641     -28.91581     -27.03084
    11  C(13)             -0.01047     -11.77164      -4.20041      -3.92660
    12  C(13)              0.00792       8.90187       3.17641       2.96934
    13  H(1)               0.00047       2.12264       0.75741       0.70804
    14  H(1)              -0.00331     -14.78137      -5.27436      -4.93053
    15  C(13)             -0.00771      -8.67182      -3.09432      -2.89261
    16  H(1)               0.00741      33.11479      11.81618      11.04590
    17  H(1)               0.00630      28.15671      10.04701       9.39207
    18  H(1)               0.00007       0.29328       0.10465       0.09783
 --------------------------------------------------------
       Center         ----  Spin Dipole Couplings  ----
                      3XX-RR        3YY-RR        3ZZ-RR
 --------------------------------------------------------
     1   Atom        0.315309     -0.088044     -0.227264
     2   Atom       -0.004220      0.019804     -0.015584
     3   Atom       -0.007395     -0.021623      0.029018
     4   Atom       -0.005279      0.006764     -0.001486
     5   Atom       -0.001175      0.001078      0.000097
     6   Atom       -0.002326      0.006201     -0.003875
     7   Atom       -0.003343      0.004596     -0.001253
     8   Atom        0.366227     -0.147959     -0.218268
     9   Atom        1.392580     -0.605223     -0.787357
    10   Atom        0.099910     -0.018066     -0.081844
    11   Atom       -0.003581     -0.018248      0.021830
    12   Atom        0.091801      0.061128     -0.152929
    13   Atom        0.002336     -0.002060     -0.000276
    14   Atom       -0.005980     -0.010941      0.016921
    15   Atom        0.002136      0.003593     -0.005729
    16   Atom       -0.001125      0.003955     -0.002830
    17   Atom        0.004640     -0.001781     -0.002858
    18   Atom        0.000150     -0.001428      0.001278
 --------------------------------------------------------
                        XY            XZ            YZ
 --------------------------------------------------------
     1   Atom       -0.295507     -0.098273      0.049689
     2   Atom       -0.002638     -0.011357     -0.022614
     3   Atom       -0.011427     -0.003426      0.004587
     4   Atom        0.001094     -0.000417     -0.006776
     5   Atom        0.001206     -0.001660     -0.006494
     6   Atom        0.000730     -0.000897     -0.002321
     7   Atom       -0.003211      0.002125     -0.005527
     8   Atom       -0.327909     -0.233774      0.084657
     9   Atom       -0.863247     -0.544373      0.201965
    10   Atom       -0.118038     -0.051896      0.032924
    11   Atom        0.064735      0.012337     -0.012743
    12   Atom       -0.231317     -0.038534      0.038270
    13   Atom        0.004327      0.002738     -0.001261
    14   Atom       -0.007654      0.001742     -0.003625
    15   Atom       -0.000532      0.001140      0.004431
    16   Atom        0.002856      0.000922      0.000558
    17   Atom        0.003731      0.000027      0.000375
    18   Atom        0.001709      0.003057      0.002537
 --------------------------------------------------------


 ---------------------------------------------------------------------------------
              Anisotropic Spin Dipole Couplings in Principal Axis System
 ---------------------------------------------------------------------------------

       Atom             a.u.   MegaHertz   Gauss  10(-4) cm-1        Axes

              Baa    -0.2461   -33.026   -11.784   -11.016  0.4230  0.5691  0.7051
     1 C(13)  Bbb    -0.2422   -32.505   -11.599   -10.842 -0.2387 -0.6807  0.6926
              Bcc     0.4883    65.531    23.383    21.859  0.8741 -0.4613 -0.1521
 
              Baa    -0.0314   -16.742    -5.974    -5.585  0.3873  0.3892  0.8358
     2 H(1)   Bbb     0.0003     0.187     0.067     0.062  0.9186 -0.2402 -0.3138
              Bcc     0.0310    16.556     5.907     5.522  0.0786  0.8893 -0.4506
 
              Baa    -0.0281   -14.976    -5.344    -4.995  0.4780  0.8774 -0.0418
     3 H(1)   Bbb    -0.0019    -1.027    -0.366    -0.342  0.8693 -0.4658  0.1653
              Bcc     0.0300    16.002     5.710     5.338 -0.1256  0.1154  0.9854
 
              Baa    -0.0055    -0.738    -0.263    -0.246  0.7720 -0.3587 -0.5247
     4 C(13)  Bbb    -0.0052    -0.692    -0.247    -0.231  0.6314  0.3387  0.6976
              Bcc     0.0107     1.430     0.510     0.477  0.0725  0.8699 -0.4879
 
              Baa    -0.0060    -3.180    -1.135    -1.061  0.0884  0.6673  0.7396
     5 H(1)   Bbb    -0.0016    -0.856    -0.305    -0.285  0.9704 -0.2252  0.0872
              Bcc     0.0076     4.036     1.440     1.346  0.2247  0.7100 -0.6674
 
              Baa    -0.0046    -2.464    -0.879    -0.822  0.3084  0.1796  0.9341
     6 H(1)   Bbb    -0.0022    -1.164    -0.415    -0.388  0.9461 -0.1603 -0.2815
              Bcc     0.0068     3.628     1.295     1.210  0.0992  0.9706 -0.2194
 
              Baa    -0.0047    -2.516    -0.898    -0.839 -0.6204  0.2309  0.7495
     7 H(1)   Bbb    -0.0044    -2.347    -0.837    -0.783  0.7266  0.5289  0.4385
              Bcc     0.0091     4.863     1.735     1.622 -0.2952  0.8166 -0.4960
 
              Baa    -0.3264    23.617     8.427     7.878  0.5004  0.6465  0.5759
     8 O(17)  Bbb    -0.2742    19.838     7.079     6.617 -0.0499 -0.6425  0.7646
              Bcc     0.6005   -43.455   -15.506   -14.495  0.8643 -0.4114 -0.2893
 
              Baa    -0.9266    67.047    23.924    22.364  0.3594  0.9316  0.0540
     9 O(17)  Bbb    -0.9155    66.248    23.639    22.098  0.1825 -0.1269  0.9750
              Bcc     1.8421  -133.294   -47.563   -44.462  0.9152 -0.3406 -0.2156
 
              Baa    -0.0960   -51.218   -18.276   -17.084  0.1143 -0.2347  0.9653
    10 H(1)   Bbb    -0.0909   -48.519   -17.313   -16.184  0.5476  0.8256  0.1359
              Bcc     0.1869    99.737    35.589    33.269  0.8289 -0.5131 -0.2229
 
              Baa    -0.0792   -10.624    -3.791    -3.544 -0.6568  0.7340  0.1728
    11 C(13)  Bbb     0.0249     3.344     1.193     1.116  0.0972 -0.1448  0.9847
              Bcc     0.0543     7.280     2.598     2.428  0.7478  0.6635  0.0238
 
              Baa    -0.1598   -21.445    -7.652    -7.153 -0.1522 -0.3213  0.9347
    12 C(13)  Bbb    -0.1548   -20.771    -7.411    -6.928  0.6717  0.6601  0.3363
              Bcc     0.3146    42.215    15.063    14.082  0.7250 -0.6790 -0.1153
 
              Baa    -0.0059    -3.142    -1.121    -1.048 -0.5282  0.7362  0.4231
    13 H(1)   Bbb     0.0004     0.191     0.068     0.064 -0.0423 -0.5204  0.8528
              Bcc     0.0055     2.951     1.053     0.984  0.8481  0.4325  0.3060
 
              Baa    -0.0166    -8.867    -3.164    -2.958  0.5768  0.8148  0.0581
    14 H(1)   Bbb    -0.0011    -0.587    -0.210    -0.196  0.8077 -0.5581 -0.1903
              Bcc     0.0177     9.454     3.373     3.153  0.1226 -0.1567  0.9800
 
              Baa    -0.0077    -1.028    -0.367    -0.343 -0.1272 -0.3686  0.9209
    15 C(13)  Bbb     0.0023     0.308     0.110     0.103  0.9916 -0.0259  0.1266
              Bcc     0.0054     0.720     0.257     0.240 -0.0228  0.9292  0.3688
 
              Baa    -0.0033    -1.776    -0.634    -0.592 -0.5383  0.1475  0.8298
    16 H(1)   Bbb    -0.0020    -1.070    -0.382    -0.357  0.7335 -0.4028  0.5474
              Bcc     0.0053     2.846     1.016     0.949  0.4149  0.9033  0.1086
 
              Baa    -0.0036    -1.939    -0.692    -0.647 -0.3769  0.8388 -0.3930
    17 H(1)   Bbb    -0.0027    -1.452    -0.518    -0.484 -0.1805  0.3496  0.9193
              Bcc     0.0064     3.391     1.210     1.131  0.9085  0.4175  0.0197
 
              Baa    -0.0030    -1.580    -0.564    -0.527  0.1081  0.8168 -0.5667
    18 H(1)   Bbb    -0.0023    -1.204    -0.430    -0.402  0.8156 -0.3987 -0.4192
              Bcc     0.0052     2.784     0.993     0.929  0.5684  0.4169  0.7093
 

 ---------------------------------------------------------------------------------

 Calling FoFJK, ICntrl=  10100127 FMM=F ISym2X=0 I1Cent= 0 IOpClX= 1 NMat=1 NMatS=1 NMatT=0.
 -------------------------------------------------------------------
 Center     Atomic                   Forces (Hartrees/Bohr)
 Number     Number              X              Y              Z
 -------------------------------------------------------------------
      1        6          -0.000001362    0.000000087    0.000000498
      2        1          -0.000000375    0.000000515    0.000000451
      3        1           0.000000336   -0.000001271   -0.000000293
      4        6           0.000000493    0.000000607   -0.000000068
      5        1           0.000001900   -0.000000660    0.000000021
      6        1          -0.000000718   -0.000000083    0.000000871
      7        1           0.000000523   -0.000000687   -0.000000438
      8        8           0.000009604    0.000008828    0.000006947
      9        8          -0.000008023   -0.000011906   -0.000006458
     10        1           0.000001273    0.000000175    0.000000245
     11        6          -0.000001606    0.000001527   -0.000001952
     12        6          -0.000002982    0.000003142   -0.000001181
     13        1           0.000000944   -0.000001042    0.000000273
     14        1           0.000000070    0.000000153    0.000000557
     15        6           0.000000411    0.000000081   -0.000000083
     16        1          -0.000000297    0.000000262    0.000000381
     17        1          -0.000000206    0.000000273    0.000000087
     18        1           0.000000015   -0.000000001    0.000000143
 -------------------------------------------------------------------
 Cartesian Forces:  Max     0.000011906 RMS     0.000003077
 FormGI is forming the generalized inverse of G from B-inverse, IUseBI=4.

 GradGradGradGradGradGradGradGradGradGradGradGradGradGradGradGradGradGrad
 Berny optimization.
 Internal  Forces:  Max     0.000018292 RMS     0.000004768
 Search for a saddle point.
 Step number   1 out of a maximum of  108 on scan point     1 out of    37
 All quantities printed in internal units (Hartrees-Bohrs-Radians)
 Swapping is turned off.
 Second derivative matrix not updated -- analytic derivatives used.
 ITU=  0
     Eigenvalues ---   -0.08383   0.00205   0.00548   0.00596   0.01713
     Eigenvalues ---    0.01955   0.02098   0.02662   0.03839   0.04137
     Eigenvalues ---    0.04363   0.05656   0.05769   0.06344   0.08462
     Eigenvalues ---    0.08495   0.10084   0.10952   0.11592   0.12188
     Eigenvalues ---    0.12567   0.12903   0.13513   0.14254   0.14517
     Eigenvalues ---    0.16547   0.16616   0.17277   0.18160   0.18696
     Eigenvalues ---    0.20870   0.26297   0.31824   0.32273   0.33130
     Eigenvalues ---    0.33783   0.34075   0.34368   0.34458   0.34854
     Eigenvalues ---    0.35024   0.35181   0.35506   0.35527   0.35643
     Eigenvalues ---    0.40832   0.580191000.000001000.000001000.00000
     Eigenvalues --- 1000.000001000.000001000.000001000.000001000.00000
     Eigenvalues --- 1000.000001000.000001000.000001000.000001000.00000
     Eigenvalues --- 1000.000001000.000001000.000001000.000001000.00000
     Eigenvalues --- 1000.00000
 Eigenvectors required to have negative eigenvalues:
                          R10       R3        R9        R4        D3
   1                    0.73518  -0.58793  -0.16342   0.12280   0.10736
                          D2        A2        D4        D5        A3
   1                    0.10725   0.08753  -0.07357  -0.07346  -0.06602
 RFO step:  Lambda0=1.438706793D-10 Lambda= 0.00000000D+00.
 Linear search not attempted -- option 19 set.
 Iteration  1 RMS(Cart)=  0.00041449 RMS(Int)=  0.00000002
 Iteration  2 RMS(Cart)=  0.00000004 RMS(Int)=  0.00000000
 Iteration  1 RMS(Cart)=  0.00000000 RMS(Int)=  0.00000000
 Variable       Old X    -DE/DX   Delta X   Delta X   Delta X     New X
                                 (Linear)    (Quad)   (Total)
    R1        2.05105   0.00000   0.00000   0.00000   0.00000   2.05105
    R2        2.05176  -0.00000   0.00000  -0.00000  -0.00000   2.05176
    R3        2.46448   0.00001   0.00000   0.00004   0.00004   2.46452
    R4        2.72971   0.00000   0.00000   0.00000   0.00000   2.72972
    R5        2.05875  -0.00000   0.00000  -0.00000  -0.00000   2.05875
    R6        2.05605   0.00000   0.00000  -0.00000  -0.00000   2.05605
    R7        2.05705   0.00000   0.00000   0.00000   0.00000   2.05705
    R8        2.69007  -0.00000   0.00000  -0.00000  -0.00000   2.69006
    R9        2.63522  -0.00001   0.00000  -0.00004  -0.00004   2.63517
   R10        2.34230   0.00001   0.00000  -0.00004  -0.00004   2.34225
   R11        2.54291  -0.00000   0.00000  -0.00000  -0.00000   2.54291
   R12        2.04881  -0.00000   0.00000  -0.00000  -0.00000   2.04881
   R13        2.05142   0.00000   0.00000   0.00000   0.00000   2.05142
   R14        2.81764  -0.00000   0.00000   0.00000   0.00000   2.81764
   R15        2.06412  -0.00000   0.00000  -0.00000  -0.00000   2.06412
   R16        2.06290   0.00000   0.00000   0.00000   0.00000   2.06290
   R17        2.05617  -0.00000   0.00000  -0.00000  -0.00000   2.05617
    A1        1.97980   0.00000   0.00000   0.00002   0.00002   1.97982
    A2        1.75204  -0.00000   0.00000  -0.00004  -0.00004   1.75200
    A3        2.03132  -0.00001   0.00000  -0.00003  -0.00003   2.03128
    A4        1.82332  -0.00000   0.00000   0.00001   0.00001   1.82333
    A5        2.02451   0.00000   0.00000  -0.00000  -0.00000   2.02451
    A6        1.80406   0.00001   0.00000   0.00005   0.00005   1.80411
    A7        1.92087  -0.00000   0.00000   0.00000   0.00000   1.92087
    A8        1.91966  -0.00000   0.00000  -0.00000  -0.00000   1.91966
    A9        1.93100   0.00000   0.00000  -0.00000  -0.00000   1.93100
   A10        1.92687  -0.00000   0.00000  -0.00000  -0.00000   1.92686
   A11        1.83975   0.00000   0.00000   0.00000   0.00000   1.83976
   A12        1.92445  -0.00000   0.00000   0.00000   0.00000   1.92445
   A13        1.88524  -0.00000   0.00000   0.00001   0.00001   1.88525
   A14        1.79477   0.00002   0.00000   0.00006   0.00006   1.79483
   A15        2.17342   0.00000   0.00000  -0.00000  -0.00000   2.17342
   A16        2.04502  -0.00000   0.00000  -0.00000  -0.00000   2.04502
   A17        2.06316  -0.00000   0.00000   0.00001   0.00001   2.06316
   A18        2.06473  -0.00000   0.00000  -0.00000  -0.00000   2.06473
   A19        2.17853   0.00000   0.00000   0.00000   0.00000   2.17854
   A20        2.03992  -0.00000   0.00000  -0.00000  -0.00000   2.03992
   A21        1.93488   0.00000   0.00000   0.00000   0.00000   1.93488
   A22        1.94162  -0.00000   0.00000  -0.00000  -0.00000   1.94161
   A23        1.94360  -0.00000   0.00000   0.00000   0.00000   1.94360
   A24        1.85944  -0.00000   0.00000  -0.00000  -0.00000   1.85944
   A25        1.88859   0.00000   0.00000   0.00000   0.00000   1.88860
   A26        1.89276   0.00000   0.00000  -0.00000  -0.00000   1.89275
   A27        3.07810   0.00002   0.00000   0.00015   0.00015   3.07825
   A28        3.02664   0.00001   0.00000   0.00006   0.00006   3.02670
    D1       -2.30236  -0.00001   0.00000   0.00000  -0.00000  -2.30236
    D2       -2.65652   0.00000   0.00000   0.00018   0.00018  -2.65634
    D3        0.54674   0.00000   0.00000   0.00013   0.00013   0.54687
    D4       -0.25882  -0.00000   0.00000   0.00017   0.00017  -0.25865
    D5        2.94443  -0.00000   0.00000   0.00013   0.00013   2.94456
    D6        1.72520   0.00000   0.00000   0.00021   0.00021   1.72541
    D7       -1.35473   0.00000   0.00000   0.00017   0.00017  -1.35457
    D8        1.09462  -0.00000   0.00000  -0.00020  -0.00020   1.09442
    D9       -3.11258  -0.00000   0.00000  -0.00020  -0.00020  -3.11278
   D10       -1.03290  -0.00000   0.00000  -0.00020  -0.00020  -1.03310
   D11       -1.66400  -0.00001   0.00000  -0.00006  -0.00006  -1.66406
   D12        0.05211  -0.00000   0.00000  -0.00005  -0.00005   0.05206
   D13       -3.09004  -0.00000   0.00000  -0.00006  -0.00006  -3.09010
   D14        3.13145   0.00000   0.00000  -0.00000  -0.00000   3.13145
   D15       -0.01070   0.00000   0.00000  -0.00001  -0.00001  -0.01071
   D16        2.10225   0.00000   0.00000   0.00006   0.00006   2.10231
   D17       -2.11518   0.00000   0.00000   0.00005   0.00005  -2.11513
   D18       -0.00151   0.00000   0.00000   0.00005   0.00005  -0.00146
   D19       -1.03989   0.00000   0.00000   0.00004   0.00004  -1.03985
   D20        1.02586   0.00000   0.00000   0.00004   0.00004   1.02591
   D21        3.13953   0.00000   0.00000   0.00004   0.00004   3.13957
         Item               Value     Threshold  Converged?
 Maximum Force            0.000018     0.000450     YES
 RMS     Force            0.000005     0.000300     YES
 Maximum Displacement     0.001185     0.001800     YES
 RMS     Displacement     0.000414     0.001200     YES
 Predicted change in Energy=-4.799027D-09
 Optimization completed.
    -- Stationary point found.
                           ----------------------------
                           !   Optimized Parameters   !
                           ! (Angstroms and Degrees)  !
 --------------------------                            --------------------------
 ! Name  Definition              Value          Derivative Info.                !
 --------------------------------------------------------------------------------
 ! R1    R(1,2)                  1.0854         -DE/DX =    0.0                 !
 ! R2    R(1,3)                  1.0857         -DE/DX =    0.0                 !
 ! R3    R(1,10)                 1.3041         -DE/DX =    0.0                 !
 ! R4    R(1,11)                 1.4445         -DE/DX =    0.0                 !
 ! R5    R(4,5)                  1.0894         -DE/DX =    0.0                 !
 ! R6    R(4,6)                  1.088          -DE/DX =    0.0                 !
 ! R7    R(4,7)                  1.0885         -DE/DX =    0.0                 !
 ! R8    R(4,8)                  1.4235         -DE/DX =    0.0                 !
 ! R9    R(8,9)                  1.3945         -DE/DX =    0.0                 !
 ! R10   R(9,10)                 1.2395         -DE/DX =    0.0                 !
 ! R11   R(11,12)                1.3457         -DE/DX =    0.0                 !
 ! R12   R(11,13)                1.0842         -DE/DX =    0.0                 !
 ! R13   R(12,14)                1.0856         -DE/DX =    0.0                 !
 ! R14   R(12,15)                1.491          -DE/DX =    0.0                 !
 ! R15   R(15,16)                1.0923         -DE/DX =    0.0                 !
 ! R16   R(15,17)                1.0916         -DE/DX =    0.0                 !
 ! R17   R(15,18)                1.0881         -DE/DX =    0.0                 !
 ! A1    A(2,1,3)              113.4342         -DE/DX =    0.0                 !
 ! A2    A(2,1,10)             100.3844         -DE/DX =    0.0                 !
 ! A3    A(2,1,11)             116.3859         -DE/DX =    0.0                 !
 ! A4    A(3,1,10)             104.4683         -DE/DX =    0.0                 !
 ! A5    A(3,1,11)             115.9958         -DE/DX =    0.0                 !
 ! A6    A(10,1,11)            103.365          -DE/DX =    0.0                 !
 ! A7    A(5,4,6)              110.0577         -DE/DX =    0.0                 !
 ! A8    A(5,4,7)              109.9885         -DE/DX =    0.0                 !
 ! A9    A(5,4,8)              110.6381         -DE/DX =    0.0                 !
 ! A10   A(6,4,7)              110.4013         -DE/DX =    0.0                 !
 ! A11   A(6,4,8)              105.4101         -DE/DX =    0.0                 !
 ! A12   A(7,4,8)              110.2627         -DE/DX =    0.0                 !
 ! A13   A(4,8,9)              108.0165         -DE/DX =    0.0                 !
 ! A14   A(8,9,10)             102.8329         -DE/DX =    0.0                 !
 ! A15   A(1,11,12)            124.5281         -DE/DX =    0.0                 !
 ! A16   A(1,11,13)            117.1712         -DE/DX =    0.0                 !
 ! A17   A(12,11,13)           118.2102         -DE/DX =    0.0                 !
 ! A18   A(11,12,14)           118.3004         -DE/DX =    0.0                 !
 ! A19   A(11,12,15)           124.8208         -DE/DX =    0.0                 !
 ! A20   A(14,12,15)           116.8788         -DE/DX =    0.0                 !
 ! A21   A(12,15,16)           110.8602         -DE/DX =    0.0                 !
 ! A22   A(12,15,17)           111.2465         -DE/DX =    0.0                 !
 ! A23   A(12,15,18)           111.3598         -DE/DX =    0.0                 !
 ! A24   A(16,15,17)           106.538          -DE/DX =    0.0                 !
 ! A25   A(16,15,18)           108.2085         -DE/DX =    0.0                 !
 ! A26   A(17,15,18)           108.4469         -DE/DX =    0.0                 !
 ! A27   L(1,10,9,5,-1)        176.3622         -DE/DX =    0.0                 !
 ! A28   L(1,10,9,5,-2)        173.4138         -DE/DX =    0.0                 !
 ! D1    D(2,1,9,8)           -131.9154         -DE/DX =    0.0                 !
 ! D2    D(2,1,11,12)         -152.2074         -DE/DX =    0.0                 !
 ! D3    D(2,1,11,13)           31.3257         -DE/DX =    0.0                 !
 ! D4    D(3,1,11,12)          -14.8295         -DE/DX =    0.0                 !
 ! D5    D(3,1,11,13)          168.7036         -DE/DX =    0.0                 !
 ! D6    D(10,1,11,12)          98.8464         -DE/DX =    0.0                 !
 ! D7    D(10,1,11,13)         -77.6205         -DE/DX =    0.0                 !
 ! D8    D(5,4,8,9)             62.7173         -DE/DX =    0.0                 !
 ! D9    D(6,4,8,9)           -178.3379         -DE/DX =    0.0                 !
 ! D10   D(7,4,8,9)            -59.1809         -DE/DX =    0.0                 !
 ! D11   D(4,8,9,10)           -95.3402         -DE/DX =    0.0                 !
 ! D12   D(1,11,12,14)           2.9856         -DE/DX =    0.0                 !
 ! D13   D(1,11,12,15)        -177.0462         -DE/DX =    0.0                 !
 ! D14   D(13,11,12,14)        179.4187         -DE/DX =    0.0                 !
 ! D15   D(13,11,12,15)         -0.6131         -DE/DX =    0.0                 !
 ! D16   D(11,12,15,16)        120.4501         -DE/DX =    0.0                 !
 ! D17   D(11,12,15,17)       -121.191          -DE/DX =    0.0                 !
 ! D18   D(11,12,15,18)         -0.0865         -DE/DX =    0.0                 !
 ! D19   D(14,12,15,16)        -59.5813         -DE/DX =    0.0                 !
 ! D20   D(14,12,15,17)         58.7776         -DE/DX =    0.0                 !
 ! D21   D(14,12,15,18)        179.8821         -DE/DX =    0.0                 !
 --------------------------------------------------------------------------------
 Iteration  1 RMS(Cart)=  0.11748676 RMS(Int)=  0.00559264
 Iteration  2 RMS(Cart)=  0.01474712 RMS(Int)=  0.00007744
 Iteration  3 RMS(Cart)=  0.00019407 RMS(Int)=  0.00000001
 Iteration  4 RMS(Cart)=  0.00000002 RMS(Int)=  0.00000000
 Iteration  1 RMS(Cart)=  0.00000000 RMS(Int)=  0.00000000
 GradGradGradGradGradGradGradGradGradGradGradGradGradGradGradGradGradGrad

                          Input orientation:                          
 ---------------------------------------------------------------------
 Center     Atomic      Atomic             Coordinates (Angstroms)
 Number     Number       Type             X           Y           Z
 ---------------------------------------------------------------------
      1          6           0       -0.074106    1.865618    0.314177
      2          1           0        0.089147    2.782590   -0.243083
      3          1           0       -0.172858    2.022240    1.384016
      4          6           0        1.503029   -1.504016    0.385115
      5          1           0        0.775658   -1.187024    1.131665
      6          1           0        1.151188   -2.400178   -0.121714
      7          1           0        2.465628   -1.688990    0.858526
      8          8           0        1.636282   -0.520143   -0.635005
      9          8           0        2.123243    0.647042   -0.047550
     10          1           0        1.090357    1.295218    0.174473
     11          6           0       -0.985976    0.911420   -0.272845
     12          6           0       -1.718975    0.026465    0.427399
     13          1           0       -1.036046    0.875695   -1.355283
     14          1           0       -1.662537    0.054666    1.511128
     15          6           0       -2.614571   -1.002560   -0.174428
     16          1           0       -2.305907   -2.007732    0.121280
     17          1           0       -3.643859   -0.880217    0.168031
     18          1           0       -2.604725   -0.949776   -1.261183
 ---------------------------------------------------------------------
                    Distance matrix (angstroms):
                    1          2          3          4          5
     1  C    0.000000
     2  H    1.085369   0.000000
     3  H    1.085743   1.815002   0.000000
     4  C    3.721132   4.557267   4.029998   0.000000
     5  H    3.272463   4.256649   3.356000   1.089445   0.000000
     6  H    4.459638   5.291856   4.855729   1.088015   1.784299
     7  H    4.402477   5.182299   4.583773   1.088544   1.783977
     8  O    3.085163   3.668143   3.716604   1.423520   2.075218
     9  O    2.538527   2.955731   3.035232   2.280113   2.563266
    10  H    1.304166   1.840937   1.894008   2.837319   2.678951
    11  C    1.444505   2.158252   2.154128   3.530211   3.078874
    12  C    2.470000   3.363789   2.699761   3.567278   2.862122
    13  H    2.166188   2.477760   3.092477   3.890876   3.704320
    14  H    2.689861   3.686085   2.471163   3.703810   2.762351
    15  C    3.862531   4.652114   4.188093   4.185592   3.637795
    16  H    4.474482   5.368075   4.731287   3.851147   3.345218
    17  H    4.506008   5.245999   4.685160   5.189095   4.533745
    18  H    4.100273   4.714237   4.663039   4.459947   4.148373
                    6          7          8          9         10
     6  H    0.000000
     7  H    1.787292   0.000000
     8  O    2.008312   2.069940   0.000000
     9  O    3.199366   2.528882   1.394473   0.000000
    10  H    3.707746   3.356307   2.061268   1.239468   0.000000
    11  C    3.944235   4.467180   3.009446   3.128561   2.158368
    12  C    3.798416   4.543078   3.561634   3.920884   3.092904
    13  H    4.127594   4.872400   3.099758   3.426887   2.652875
    14  H    4.075473   4.528573   3.977248   4.136728   3.302127
    15  C    4.017095   5.229398   4.302860   5.018383   4.373558
    16  H    3.487774   4.838665   4.280858   5.166595   4.737819
    17  H    5.038522   6.201349   5.352981   5.969796   5.210121
    18  H    4.184368   5.545095   4.308460   5.135798   4.555737
                   11         12         13         14         15
    11  C    0.000000
    12  C    1.345650   0.000000
    13  H    1.084184   2.089387   0.000000
    14  H    2.091488   1.085564   3.046783   0.000000
    15  C    2.515020   1.491033   2.722866   2.205719   0.000000
[...]
    10  H    0.057513   0.001677   0.001598   0.002128  -0.004036   0.000141
    11  C   -0.024978   0.001219   0.001169  -0.001699   0.001621  -0.000173
    12  C   -0.018288  -0.000573  -0.000562  -0.002748   0.005157  -0.000320
    13  H   -0.001527   0.000180  -0.000008  -0.000009  -0.000005   0.000008
    14  H   -0.000129  -0.000054  -0.000176   0.000047  -0.000197  -0.000002
    15  C    0.000344   0.000016  -0.000021   0.000028  -0.000018   0.000026
    16  H    0.000044  -0.000013  -0.000029   0.000249  -0.000514   0.000087
    17  H    0.000120   0.000010   0.000019  -0.000024   0.000060  -0.000004
    18  H    0.000002   0.000002   0.000003   0.000001   0.000003  -0.000003
               7          8          9         10         11         12
     1  C    0.000809   0.012019  -0.067301   0.057513  -0.024978  -0.018288
     2  H   -0.000028  -0.000493   0.003487   0.001677   0.001219  -0.000573
     3  H   -0.000065  -0.000464   0.002511   0.001598   0.001169  -0.000562
     4  C   -0.000710   0.002348  -0.003154   0.002128  -0.001699  -0.002748
     5  H   -0.001360  -0.002079   0.004237  -0.004036   0.001621   0.005157
     6  H    0.000917   0.000310  -0.000213   0.000141  -0.000173  -0.000320
     7  H    0.001495  -0.000450   0.000116   0.001323  -0.000329  -0.000340
     8  O   -0.000450   0.090911  -0.052477   0.010929  -0.003903  -0.004708
     9  O    0.000116  -0.052477   0.611996  -0.055056   0.009937   0.002760
    10  H    0.001323   0.010929  -0.055056  -0.095933   0.006809  -0.001201
    11  C   -0.000329  -0.003903   0.009937   0.006809  -0.260393   0.021118
    12  C   -0.000340  -0.004708   0.002760  -0.001201   0.021118   0.425155
    13  H    0.000002   0.000039  -0.000076  -0.000240  -0.002206  -0.000951
    14  H    0.000012   0.000084  -0.000088   0.000084   0.001573   0.004562
    15  C    0.000003  -0.000002  -0.000021   0.000060   0.000209  -0.013914
    16  H    0.000033   0.000185  -0.000037   0.000023   0.000369  -0.010317
    17  H   -0.000002  -0.000014   0.000004  -0.000002  -0.000247  -0.007970
    18  H   -0.000000  -0.000006   0.000002  -0.000005   0.000065  -0.000842
              13         14         15         16         17         18
     1  C   -0.001527  -0.000129   0.000344   0.000044   0.000120   0.000002
     2  H    0.000180  -0.000054   0.000016  -0.000013   0.000010   0.000002
     3  H   -0.000008  -0.000176  -0.000021  -0.000029   0.000019   0.000003
     4  C   -0.000009   0.000047   0.000028   0.000249  -0.000024   0.000001
     5  H   -0.000005  -0.000197  -0.000018  -0.000514   0.000060   0.000003
     6  H    0.000008  -0.000002   0.000026   0.000087  -0.000004  -0.000003
     7  H    0.000002   0.000012   0.000003   0.000033  -0.000002  -0.000000
     8  O    0.000039   0.000084  -0.000002   0.000185  -0.000014  -0.000006
     9  O   -0.000076  -0.000088  -0.000021  -0.000037   0.000004   0.000002
    10  H   -0.000240   0.000084   0.000060   0.000023  -0.000002  -0.000005
    11  C   -0.002206   0.001573   0.000209   0.000369  -0.000247   0.000065
    12  C   -0.000951   0.004562  -0.013914  -0.010317  -0.007970  -0.000842
    13  H    0.013150  -0.000037   0.000050  -0.000026   0.000022   0.000061
    14  H   -0.000037  -0.022757   0.001599   0.000317  -0.000146  -0.000139
    15  C    0.000050   0.001599  -0.027765   0.004044   0.006418   0.000590
    16  H   -0.000026   0.000317   0.004044   0.029645  -0.006105  -0.000547
    17  H    0.000022  -0.000146   0.006418  -0.006105   0.021506   0.000114
    18  H    0.000061  -0.000139   0.000590  -0.000547   0.000114   0.001114
 Mulliken charges and spin densities:
               1          2
     1  C   -0.310505   0.446512
     2  H    0.121577  -0.010397
     3  H    0.107835  -0.010564
     4  C   -0.062409  -0.007171
     5  H    0.069101   0.004266
     6  H    0.093290  -0.001132
     7  H    0.099333   0.001426
     8  O   -0.179651   0.052230
     9  O   -0.227922   0.456628
    10  H    0.214030  -0.074190
    11  C   -0.089578  -0.249839
    12  C   -0.132201   0.396020
    13  H    0.134020   0.008428
    14  H    0.132145  -0.015448
    15  C   -0.270384  -0.028353
    16  H    0.096884   0.017408
    17  H    0.103728   0.013760
    18  H    0.100706   0.000416
 Sum of Mulliken charges =  -0.00000   1.00000
 Mulliken charges and spin densities with hydrogens summed into heavy atoms:
               1          2
     1  C   -0.081093   0.425551
     4  C    0.199315  -0.002611
     8  O   -0.179651   0.052230
     9  O   -0.013891   0.382438
    11  C    0.044442  -0.241411
    12  C   -0.000056   0.380572
    15  C    0.030934   0.003231
 Electronic spatial extent (au):  <R**2>=           1095.7541
 Charge=             -0.0000 electrons
 Dipole moment (field-independent basis, Debye):
    X=             -1.4824    Y=              1.7965    Z=              1.5086  Tot=              2.7750
 Quadrupole moment (field-independent basis, Debye-Ang):
   XX=            -45.3623   YY=            -46.9377   ZZ=            -41.4964
   XY=              3.2329   XZ=              2.7677   YZ=             -1.2389
 Traceless Quadrupole moment (field-independent basis, Debye-Ang):
   XX=             -0.7635   YY=             -2.3389   ZZ=              3.1024
   XY=              3.2329   XZ=              2.7677   YZ=             -1.2389
 Octapole moment (field-independent basis, Debye-Ang**2):
  XXX=             22.5109  YYY=             38.4566  ZZZ=              2.7627  XYY=              2.6271
  XXY=             10.7120  XXZ=             13.0895  XZZ=              6.9748  YZZ=              9.7593
  YYZ=              3.3870  XYZ=             -6.0543
 Hexadecapole moment (field-independent basis, Debye-Ang**3):
 XXXX=           -786.8673 YYYY=           -212.4588 ZZZZ=           -419.9754 XXXY=             98.8063
 XXXZ=             54.9470 YYYX=            104.3769 YYYZ=              6.7467 ZZZX=             55.4584
 ZZZY=              4.3190 XXYY=           -169.5892 XXZZ=           -209.4593 YYZZ=           -108.8465
 XXYZ=              1.4732 YYXZ=             18.6942 ZZXY=             33.8374
 N-N= 3.088483816107D+02 E-N=-1.428945904173D+03  KE= 3.453326051219D+02
                          Isotropic Fermi Contact Couplings
        Atom                 a.u.       MegaHertz       Gauss      10(-4) cm-1
     1  C(13)              0.06283      70.63636      25.20481      23.56175
     2  H(1)              -0.00252     -11.24665      -4.01308      -3.75148
     3  H(1)              -0.00277     -12.36902      -4.41357      -4.12586
     4  C(13)             -0.00476      -5.34649      -1.90776      -1.78340
     5  H(1)               0.00191       8.55681       3.05328       2.85425
     6  H(1)              -0.00019      -0.85779      -0.30608      -0.28613
     7  H(1)               0.00064       2.87051       1.02427       0.95750
     8  O(17)              0.02000     -12.12421      -4.32622      -4.04420
     9  O(17)              0.03592     -21.77153      -7.76862      -7.26220
    10  H(1)              -0.01813     -81.04303     -28.91817     -27.03304
    11  C(13)             -0.01047     -11.77560      -4.20183      -3.92792
    12  C(13)              0.00792       8.90651       3.17806       2.97089
    13  H(1)               0.00048       2.12685       0.75891       0.70944
    14  H(1)              -0.00331     -14.78098      -5.27422      -4.93040
    15  C(13)             -0.00771      -8.67213      -3.09443      -2.89271
    16  H(1)               0.00740      33.08694      11.80624      11.03661
    17  H(1)               0.00631      28.18617      10.05753       9.40190
    18  H(1)               0.00007       0.29306       0.10457       0.09775
 --------------------------------------------------------
       Center         ----  Spin Dipole Couplings  ----
                      3XX-RR        3YY-RR        3ZZ-RR
 --------------------------------------------------------
     1   Atom        0.273299     -0.070883     -0.202416
     2   Atom       -0.008517     -0.015524      0.024042
     3   Atom       -0.003184      0.028852     -0.025668
     4   Atom       -0.004485     -0.003970      0.008455
     5   Atom       -0.001689     -0.001729      0.003419
     6   Atom       -0.002790     -0.003823      0.006613
     7   Atom       -0.000162     -0.004070      0.004232
     8   Atom        0.241834      0.028819     -0.270653
     9   Atom        1.028459     -0.131082     -0.897377
    10   Atom        0.078834     -0.009954     -0.068880
    11   Atom       -0.011732     -0.001011      0.012743
    12   Atom        0.107125     -0.061564     -0.045561
    13   Atom        0.002453     -0.002596      0.000142
    14   Atom       -0.000134      0.012452     -0.012318
    15   Atom        0.001761     -0.003531      0.001770
    16   Atom       -0.001519     -0.003014      0.004533
    17   Atom        0.002609     -0.002512     -0.000097
    18   Atom        0.001291      0.000220     -0.001511
 --------------------------------------------------------
                        XY            XZ            YZ
 --------------------------------------------------------
     1   Atom       -0.300366      0.146571     -0.082825
     2   Atom       -0.011869      0.012100      0.015520
     3   Atom        0.005568      0.007731      0.002069
     4   Atom        0.001229      0.003283      0.004388
     5   Atom       -0.000177      0.001397      0.006077
     6   Atom       -0.001080      0.001295      0.000495
     7   Atom        0.001714      0.006081      0.002269
     8   Atom       -0.426153      0.134370     -0.071660
     9   Atom       -1.235510      0.237556     -0.147984
    10   Atom       -0.121955      0.061443     -0.045187
    11   Atom        0.034123     -0.052243      0.029568
    12   Atom       -0.160222      0.169595     -0.105455
    13   Atom        0.002638     -0.003943      0.001954
    14   Atom        0.006843      0.008308      0.005137
    15   Atom       -0.001986     -0.001074     -0.005651
    16   Atom        0.000683     -0.001915     -0.001292
    17   Atom       -0.001156     -0.004692      0.000766
    18   Atom        0.002984     -0.002296     -0.002088
 --------------------------------------------------------


 ---------------------------------------------------------------------------------
              Anisotropic Spin Dipole Couplings in Principal Axis System
 ---------------------------------------------------------------------------------

       Atom             a.u.   MegaHertz   Gauss  10(-4) cm-1        Axes

              Baa    -0.2461   -33.030   -11.786   -11.018  0.5309  0.6569 -0.5353
     1 C(13)  Bbb    -0.2423   -32.509   -11.600   -10.844  0.1050  0.5759  0.8108
              Bcc     0.4884    65.539    23.386    21.861  0.8409 -0.4867  0.2368
 
              Baa    -0.0314   -16.744    -5.975    -5.585  0.5676  0.7523 -0.3346
     2 H(1)   Bbb     0.0004     0.187     0.067     0.062  0.7961 -0.6051 -0.0102
              Bcc     0.0310    16.557     5.908     5.523  0.2101  0.2606  0.9423
 
              Baa    -0.0281   -14.978    -5.344    -4.996 -0.2955 -0.0058  0.9553
     3 H(1)   Bbb    -0.0019    -1.027    -0.367    -0.343  0.9384 -0.1892  0.2891
              Bcc     0.0300    16.005     5.711     5.339  0.1791  0.9819  0.0614
 
              Baa    -0.0055    -0.739    -0.264    -0.246 -0.6177  0.7801 -0.1000
     4 C(13)  Bbb    -0.0052    -0.691    -0.247    -0.231  0.7535  0.5506 -0.3593
              Bcc     0.0107     1.430     0.510     0.477  0.2252  0.2973  0.9278
 
              Baa    -0.0060    -3.178    -1.134    -1.060  0.2145  0.8047 -0.5536
     5 H(1)   Bbb    -0.0016    -0.860    -0.307    -0.287  0.9699 -0.2423  0.0235
              Bcc     0.0076     4.038     1.441     1.347  0.1152  0.5420  0.8325
 
              Baa    -0.0046    -2.463    -0.879    -0.821  0.5585  0.8234 -0.1007
     6 H(1)   Bbb    -0.0022    -1.165    -0.416    -0.389  0.8192 -0.5666 -0.0887
              Bcc     0.0068     3.628     1.295     1.210  0.1301  0.0330  0.9909
 
              Baa    -0.0047    -2.516    -0.898    -0.839 -0.3776  0.9257  0.0218
     7 H(1)   Bbb    -0.0044    -2.346    -0.837    -0.783  0.7352  0.3141 -0.6007
              Bcc     0.0091     4.862     1.735     1.622  0.5629  0.2108  0.7992
 
              Baa    -0.3263    23.613     8.426     7.876 -0.5500 -0.5297  0.6457
     8 O(17)  Bbb    -0.2741    19.835     7.078     6.616  0.2991  0.5969  0.7445
              Bcc     0.6004   -43.448   -15.503   -14.493  0.7798 -0.6026  0.1699
 
              Baa    -0.9266    67.045    23.923    22.364 -0.2071 -0.1415  0.9680
     9 O(17)  Bbb    -0.9155    66.245    23.638    22.097  0.5020  0.8339  0.2293
              Bcc     1.8421  -133.290   -47.561   -44.461  0.8397 -0.5334  0.1016
 
              Baa    -0.0960   -51.222   -18.277   -17.086  0.4519  0.8222  0.3461
    10 H(1)   Bbb    -0.0909   -48.526   -17.315   -16.187 -0.4256 -0.1423  0.8936
              Bcc     0.1870    99.748    35.593    33.272  0.7840 -0.5511  0.2856
 
              Baa    -0.0792   -10.626    -3.792    -3.545  0.6741 -0.4999  0.5438
    11 C(13)  Bbb     0.0249     3.344     1.193     1.115  0.4275  0.8644  0.2646
              Bcc     0.0543     7.282     2.599     2.429 -0.6024  0.0541  0.7964
 
              Baa    -0.1598   -21.443    -7.652    -7.153  0.2063  0.8523  0.4806
    12 C(13)  Bbb    -0.1548   -20.770    -7.411    -6.928 -0.6317 -0.2591  0.7307
              Bcc     0.3146    42.213    15.063    14.081  0.7473 -0.4543  0.4849
 
              Baa    -0.0059    -3.142    -1.121    -1.048 -0.4743  0.6982 -0.5363
    13 H(1)   Bbb     0.0004     0.189     0.067     0.063  0.3142  0.7033  0.6377
              Bcc     0.0055     2.953     1.054     0.985  0.8224  0.1340 -0.5529
 
              Baa    -0.0166    -8.865    -3.163    -2.957 -0.4301 -0.0580  0.9009
    14 H(1)   Bbb    -0.0011    -0.590    -0.211    -0.197  0.7817 -0.5232  0.3395
              Bcc     0.0177     9.455     3.374     3.154  0.4517  0.8502  0.2703
 
              Baa    -0.0077    -1.028    -0.367    -0.343  0.2326  0.8224  0.5193
    15 C(13)  Bbb     0.0023     0.308     0.110     0.103  0.9713 -0.1692 -0.1671
              Bcc     0.0054     0.720     0.257     0.240  0.0495 -0.5432  0.8381
 
              Baa    -0.0033    -1.775    -0.633    -0.592 -0.2637  0.9601  0.0935
    16 H(1)   Bbb    -0.0020    -1.071    -0.382    -0.357  0.9228  0.2228  0.3143
              Bcc     0.0053     2.846     1.015     0.949 -0.2809 -0.1692  0.9447
 
              Baa    -0.0036    -1.939    -0.692    -0.647  0.6089  0.0891  0.7883
    17 H(1)   Bbb    -0.0027    -1.452    -0.518    -0.484  0.0687  0.9840 -0.1643
              Bcc     0.0064     3.391     1.210     1.131  0.7903 -0.1542 -0.5930
 
              Baa    -0.0030    -1.579    -0.564    -0.527  0.2079  0.3931  0.8957
    18 H(1)   Bbb    -0.0023    -1.204    -0.430    -0.402 -0.6914  0.7068 -0.1498
              Bcc     0.0052     2.784     0.993     0.928  0.6919  0.5882 -0.4187
 

 ---------------------------------------------------------------------------------

 1\1\GINC-N137\Scan\UB2PLYPD3-FC\CC-pVTZ\C5H11O2(2)\ROOT\14-Jun-2019\0\
 \# opt=(calcfc,ts,noeigentest,maxcyc=500,modredundant) uB2PLYPD3/cc-pv
 tz scf=maxcyc=500 nosymm\\Title Card Required\\0,2\C,-0.3302087533,0.4
 15325951,-1.75862859\H,-0.5042291718,0.1026840653,-2.783325181\H,-0.03
 91798914,1.457452955,-1.6686046289\C,1.7827973225,-0.5997615815,1.1316
 012486\H,1.3874495758,0.410062842,1.0274075372\H,1.4419477063,-1.03930
 1581,2.0666973199\H,2.8705738756,-0.5789105588,1.0964101832\O,1.272556
 2116,-1.4465790371,0.1073934609\O,1.7114303928,-0.951382478,-1.1200928
 967\H,0.7582522191,-0.2514342833,-1.4912686725\C,-1.2683839451,-0.0674
 887727,-0.7720820303\C,-1.5684082174,0.5728605878,0.3727847825\H,-1.71
 57643559,-1.0392365317,-0.9481655746\H,-1.113794117,1.5416597136,0.554
 9920932\C,-2.4881415546,0.0513699639,1.4241376891\H,-1.9683854633,-0.0
 520198329,2.3792514413\H,-3.3209430425,0.7358874634,1.5960940492\H,-2.
 8925937914,-0.920872885,1.1501157689\\Version=ES64L-G16RevB.01\HF=-346
 .818522,-346.8184715,-346.8183047,-346.8180847,-346.8178555,-346.81761
 49,-346.8173911,-346.8172114,-346.8170889,-346.8170319,-346.8170395,-3
 46.8170969,-346.817175,-346.8172502,-346.8173079,-346.8173445,-346.817
 3622,-346.817364,-346.8173519,-346.8173303,-346.8173047,-346.8172787,-
 346.817256,-346.8172323,-346.817216,-346.8172134,-346.8172341,-346.817
 2841,-346.8173625,-346.8174559,-346.8175529,-346.8176528,-346.8177872,
 -346.8180009,-346.8182621,-346.8184539,-346.8185259\MP2=-347.2600535,-
 347.2599374,-347.2595853,-347.2590441,-347.2584423,-347.2578904,-347.2
 574425,-347.2571197,-347.2569229,-347.2568365,-347.2568389,-347.256895
 8,-347.256964,-347.2570105,-347.2570272,-347.2570231,-347.2570058,-347
 .2569775,-347.2569419,-347.2569052,-347.2568763,-347.2568615,-347.2568
 619,-347.256874,-347.2568983,-347.2569445,-347.2570312,-347.2571781,-3
 47.2574013,-347.257706,-347.2580904,-347.2585341,-347.2589943,-347.259
 4003,-347.2597214,-347.259958,-347.2600529\PUHF=-346.8286489,-346.8286
 331,-346.8284437,-346.8281355,-346.8277707,-346.8273989,-346.8270818,-
 346.8268532,-346.8267131,-346.8266608,-346.8266832,-346.8267587,-346.8
 268518,-346.8269359,-346.8269977,-346.8270369,-346.827054,-346.8270594
 ,-346.8270549,-346.8270445,-346.8270324,-346.8270185,-346.8270035,-346
 .8269794,-346.8269518,-346.8269324,-346.8269326,-346.8269552,-346.8270
 015,-346.827067,-346.8271486,-346.827266,-346.8274646,-346.827792,-346
 .8281901,-346.8284987,-346.8286523\PMP2-0=-347.2615804,-347.2614722,-3
 47.261118,-347.2605617,-347.2599342,-347.2593563,-347.2588895,-347.258
 5564,-347.2583552,-347.2582687,-347.2582727,-347.2583319,-347.2584024,
 -347.2584503,-347.2584681,-347.2584652,-347.2584486,-347.2584222,-347.
 2583892,-347.258356,-347.2583309,-347.2583196,-347.2583221,-347.258334
 5,-347.2583566,-347.2583995,-347.2584822,-347.2586237,-347.2588407,-34
 7.2591398,-347.2595209,-347.2599673,-347.2604392,-347.2608658,-347.261
 2112,-347.261469,-347.2615797\S2=0.81409,0.814448,0.814165,0.813084,0.
 811395,0.809759,0.808608,0.808009,0.807774,0.807795,0.807925,0.808094,
 0.808251,0.808357,0.808434,0.808516,0.808572,0.808685,0.808849,0.80905
 6,0.809281,0.80948,0.809618,0.809643,0.809529,0.809354,0.809147,0.8088
 72,0.808562,0.808322,0.808252,0.808578,0.809402,0.810659,0.812055,0.81
 3238,0.814085\S2-1=0.756524,0.75669,0.75672,0.756526,0.756107,0.755658
 ,0.755326,0.755139,0.755036,0.754999,0.754985,0.754985,0.754999,0.7550
 16,0.755044,0.755085,0.755132,0.755201,0.755286,0.755389,0.755492,0.75
 5582,0.755641,0.755661,0.755627,0.755572,0.75551,0.755433,0.755343,0.7
 55261,0.755206,0.755244,0.755413,0.75569,0.755996,0.756277,0.756522\S2
 A=0.751827,0.75184,0.751833,0.751803,0.751753,0.751704,0.751668,0.7516
 49,0.751643,0.751644,0.751648,0.751652,0.751655,0.751656,0.751656,0.75
 1657,0.751656,0.751659,0.751663,0.751669,0.751676,0.751683,0.751687,0.
 751688,0.751683,0.751676,0.751667,0.751654,0.751639,0.751626,0.75162,0
 .751628,0.751656,0.751701,0.751754,0.751797,0.751827\RMSD=8.437e-09,8.
 733e-09,8.842e-09,9.333e-09,9.755e-09,3.757e-09,3.898e-09,8.468e-09,6.
 692e-09,3.727e-09,5.085e-09,6.244e-09,8.843e-09,5.198e-09,6.321e-09,4.
 338e-09,7.685e-09,6.960e-09,9.032e-09,7.004e-09,5.742e-09,4.391e-09,5.
 202e-09,5.308e-09,9.225e-09,4.958e-09,6.127e-09,3.708e-09,7.415e-09,8.
 514e-09,4.927e-09,8.278e-09,8.628e-09,7.740e-09,8.739e-09,8.485e-09,9.
 642e-09\PG=C01 [X(C5H11O2)]\\@


 WHEN YOU'VE SEEN ONE NUCLEAR WAR YOU'VE SEEN THEM ALL.
 Job cpu time:      23 days 11 hours 44 minutes 36.2 seconds.
 Elapsed time:       0 days 20 hours 39 minutes 46.3 seconds.
 File lengths (MBytes):  RWF= 108514 Int=      0 D2E=      0 Chk=     23 Scr=      1
 Normal termination of Gaussian 16 at Fri Jun 14 13:22:18 2019.
