 Entering Gaussian System, Link 0=g16
 Initial command:
 /ichec/packages/gaussian/16b01/l1.exe "/localscratch/353444/Gau-9245.inp" -scrdir="/localscratch/353444/"
 Entering Link 1 = /ichec/packages/gaussian/16b01/l1.exe PID=      9595.
  
 Copyright (c) 1988-2017, Gaussian, Inc.  All Rights Reserved.
  
 This is part of the Gaussian(R) 16 program.  It is based on
 the Gaussian(R) 09 system (copyright 2009, Gaussian, Inc.),
 the Gaussian(R) 03 system (copyright 2003, Gaussian, Inc.),
 the Gaussian(R) 98 system (copyright 1998, Gaussian, Inc.),
 the Gaussian(R) 94 system (copyright 1995, Gaussian, Inc.),
 the Gaussian 92(TM) system (copyright 1992, Gaussian, Inc.),
 the Gaussian 90(TM) system (copyright 1990, Gaussian, Inc.),
 the Gaussian 88(TM) system (copyright 1988, Gaussian, Inc.),
 the Gaussian 86(TM) system (copyright 1986, Carnegie Mellon
 University), and the Gaussian 82(TM) system (copyright 1983,
 Carnegie Mellon University). Gaussian is a federally registered
 trademark of Gaussian, Inc.
  
 This software contains proprietary and confidential information,
 including trade secrets, belonging to Gaussian, Inc.
  
 This software is provided under written license and may be
 used, copied, transmitted, or stored only in accord with that
 written license.
  
 The following legend is applicable only to US Government
 contracts under FAR:
  
                    RESTRICTED RIGHTS LEGEND
  
 Use, reproduction and disclosure by the US Government is
 subject to restrictions as set forth in subparagraphs (a)
 and (c) of the Commercial Computer Software - Restricted
 Rights clause in FAR 52.227-19.
  
 Gaussian, Inc.
 340 Quinnipiac St., Bldg. 40, Wallingford CT 06492
  
  
 ---------------------------------------------------------------
 Warning -- This program may not be used in any manner that
 competes with the business of Gaussian, Inc. or will provide
 assistance to any competitor of Gaussian, Inc.  The licensee
 of this program is prohibited from giving any competitor of
 Gaussian, Inc. access to this program.  By using this program,
 the user acknowledges that Gaussian, Inc. is engaged in the
 business of creating and licensing software in the field of
 computational chemistry and represents and warrants to the
 licensee that it is not a competitor of Gaussian, Inc. and that
 it will not use this program in any manner prohibited above.
 ---------------------------------------------------------------
  

 Cite this work as:
 Gaussian 16, Revision B.01,
 M. J. Frisch, G. W. Trucks, H. B. Schlegel, G. E. Scuseria, 
 M. A. Robb, J. R. Cheeseman, G. Scalmani, V. Barone, 
 G. A. Petersson, H. Nakatsuji, X. Li, M. Caricato, A. V. Marenich, 
 J. Bloino, B. G. Janesko, R. Gomperts, B. Mennucci, H. P. Hratchian, 
 J. V. Ortiz, A. F. Izmaylov, J. L. Sonnenberg, D. Williams-Young, 
 F. Ding, F. Lipparini, F. Egidi, J. Goings, B. Peng, A. Petrone, 
 T. Henderson, D. Ranasinghe, V. G. Zakrzewski, J. Gao, N. Rega, 
 G. Zheng, W. Liang, M. Hada, M. Ehara, K. Toyota, R. Fukuda, 
 J. Hasegawa, M. Ishida, T. Nakajima, Y. Honda, O. Kitao, H. Nakai, 
 T. Vreven, K. Throssell, J. A. Montgomery, Jr., J. E. Peralta, 
 F. Ogliaro, M. J. Bearpark, J. J. Heyd, E. N. Brothers, K. N. Kudin, 
 V. N. Staroverov, T. A. Keith, R. Kobayashi, J. Normand, 
 K. Raghavachari, A. P. Rendell, J. C. Burant, S. S. Iyengar, 
 J. Tomasi, M. Cossi, J. M. Millam, M. Klene, C. Adamo, R. Cammi, 
 J. W. Ochterski, R. L. Martin, K. Morokuma, O. Farkas, 
 J. B. Foresman, and D. J. Fox, Gaussian, Inc., Wallingford CT, 2016.
 
 ******************************************
 Gaussian 16:  ES64L-G16RevB.01 20-Dec-2017
                24-Jun-2019 
 ******************************************
 %mem=80GB
 %nproc=40
 Will use up to   40 processors via shared memory.
 ----------------------------------------------------------------------
 # opt=(calcfc,ts,noeigentest,maxcyc=500) freq=noraman uB2PLYPD3/cc-pvt
 z
 ----------------------------------------------------------------------
 1/5=1,6=500,10=4,11=1,18=20,38=1/1,3;
 2/9=110,12=2,17=6,18=5,40=1/2;
 3/5=16,6=1,11=2,25=1,30=1,71=2,74=-60,116=2,140=1/1,2,3;
 4//1;
 5/5=2,38=5/2;
 8/6=3,8=1,10=1,19=11,30=-1/1;
 9/15=3,16=-3/6;
 11/6=1,8=1,15=11,17=12,24=-1,27=1,28=-2,29=300,32=6,42=3/1,2,10;
 10/6=2,21=1/2;
 8/6=4,8=1,10=1,19=11,30=-1/11,4;
 10/5=1,20=4/2;
 11/12=2,14=11,16=1,17=2,28=-2,42=3,76=2/2,10,12;
 6/7=2,8=2,9=2,10=2/1;
 7/10=1,12=2,25=1,44=2/1,2,3,16;
 1/5=1,6=500,10=4,11=1,18=20/3(2);
 2/9=110/2;
 99//99;
 2/9=110/2;
 3/5=16,6=1,11=2,25=1,30=1,71=1,74=-60,116=2/1,2,3;
 4/5=5,16=3,69=1/1;
 5/5=2,38=5/2;
 8/6=4,10=1/1;
 9/15=2,16=-3/6;
 10/5=1/2;
 7/12=2/1,2,3,16;
 1/5=1,6=500,11=1,18=20/3(-8);
 2/9=110/2;
 6/7=2,8=2,9=2,10=2/1;
 99/9=10/99;
 -------------------
 Title Card Required
 -------------------
 Symbolic Z-matrix:
 Charge =  0 Multiplicity = 2
 C                    -1.20155  -0.46606  -0.19822 
 C                    -1.75189   0.72359  -0.31647 
 C                     2.34164  -0.0288    0.27918 
 H                     1.54829   0.58974   0.70312 
 H                     3.00877  -0.36919   1.06873 
 H                     2.89816   0.53952  -0.46455 
 O                     1.80511  -1.21219  -0.29155 
 O                     0.99479  -0.82773  -1.38771 
 H                    -0.01609  -0.65883  -0.91386 
 H                    -2.6781    0.90237   0.23262 
 C                    -1.52719  -1.69659   0.55435 
 H                    -2.40359  -1.53089   1.18696 
 H                    -1.73772  -2.52567  -0.12061 
 H                    -0.69344  -1.99665   1.18877 
 C                    -1.23241   1.86185  -1.14296 
 H                    -0.30212   1.59337  -1.63697 
 H                    -1.95878   2.14924  -1.90393 
 H                    -1.05611   2.74076  -0.52158 
 
 Add virtual bond connecting atoms H9         and C1         Dist= 2.64D+00.

 GradGradGradGradGradGradGradGradGradGradGradGradGradGradGradGradGradGrad
 Berny optimization.
 Initialization pass.
                           ----------------------------
                           !    Initial Parameters    !
                           ! (Angstroms and Degrees)  !
 --------------------------                            --------------------------
 ! Name  Definition              Value          Derivative Info.                !
 --------------------------------------------------------------------------------
 ! R1    R(1,2)                  1.3161         calculate D2E/DX2 analytically  !
 ! R2    R(1,9)                  1.3981         calculate D2E/DX2 analytically  !
 ! R3    R(1,11)                 1.4787         calculate D2E/DX2 analytically  !
 ! R4    R(2,10)                 1.0915         calculate D2E/DX2 analytically  !
 ! R5    R(2,15)                 1.4995         calculate D2E/DX2 analytically  !
 ! R6    R(3,4)                  1.0917         calculate D2E/DX2 analytically  !
 ! R7    R(3,5)                  1.0883         calculate D2E/DX2 analytically  !
 ! R8    R(3,6)                  1.089          calculate D2E/DX2 analytically  !
 ! R9    R(3,7)                  1.4192         calculate D2E/DX2 analytically  !
 ! R10   R(7,8)                  1.4163         calculate D2E/DX2 analytically  !
 ! R11   R(8,9)                  1.1291         calculate D2E/DX2 analytically  !
 ! R12   R(11,12)                1.0935         calculate D2E/DX2 analytically  !
 ! R13   R(11,13)                1.0896         calculate D2E/DX2 analytically  !
 ! R14   R(11,14)                1.0898         calculate D2E/DX2 analytically  !
 ! R15   R(15,16)                1.087          calculate D2E/DX2 analytically  !
 ! R16   R(15,17)                1.0905         calculate D2E/DX2 analytically  !
 ! R17   R(15,18)                1.0907         calculate D2E/DX2 analytically  !
 ! A1    A(2,1,9)              115.6717         calculate D2E/DX2 analytically  !
 ! A2    A(2,1,11)             134.8978         calculate D2E/DX2 analytically  !
 ! A3    A(9,1,11)             109.4203         calculate D2E/DX2 analytically  !
 ! A4    A(1,2,10)             117.2388         calculate D2E/DX2 analytically  !
 ! A5    A(1,2,15)             126.2142         calculate D2E/DX2 analytically  !
 ! A6    A(10,2,15)            116.5459         calculate D2E/DX2 analytically  !
 ! A7    A(4,3,5)              109.9361         calculate D2E/DX2 analytically  !
 ! A8    A(4,3,6)              109.9336         calculate D2E/DX2 analytically  !
 ! A9    A(4,3,7)              110.7262         calculate D2E/DX2 analytically  !
 ! A10   A(5,3,6)              110.2094         calculate D2E/DX2 analytically  !
 ! A11   A(5,3,7)              105.2309         calculate D2E/DX2 analytically  !
 ! A12   A(6,3,7)              110.7164         calculate D2E/DX2 analytically  !
 ! A13   A(3,7,8)              107.5291         calculate D2E/DX2 analytically  !
 ! A14   A(7,8,9)              103.1808         calculate D2E/DX2 analytically  !
 ! A15   A(1,11,12)            110.1716         calculate D2E/DX2 analytically  !
 ! A16   A(1,11,13)            111.1291         calculate D2E/DX2 analytically  !
 ! A17   A(1,11,14)            110.9115         calculate D2E/DX2 analytically  !
 ! A18   A(12,11,13)           108.5903         calculate D2E/DX2 analytically  !
 ! A19   A(12,11,14)           108.5483         calculate D2E/DX2 analytically  !
 ! A20   A(13,11,14)           107.3929         calculate D2E/DX2 analytically  !
 ! A21   A(2,15,16)            111.0685         calculate D2E/DX2 analytically  !
 ! A22   A(2,15,17)            110.726          calculate D2E/DX2 analytically  !
 ! A23   A(2,15,18)            110.7116         calculate D2E/DX2 analytically  !
 ! A24   A(16,15,17)           108.5422         calculate D2E/DX2 analytically  !
 ! A25   A(16,15,18)           108.6391         calculate D2E/DX2 analytically  !
 ! A26   A(17,15,18)           107.0279         calculate D2E/DX2 analytically  !
 ! A27   L(1,9,8,4,-1)         175.2873         calculate D2E/DX2 analytically  !
 ! A28   L(1,9,8,4,-2)         176.2649         calculate D2E/DX2 analytically  !
 ! D1    D(9,1,2,10)          -179.9315         calculate D2E/DX2 analytically  !
 ! D2    D(9,1,2,15)             0.4554         calculate D2E/DX2 analytically  !
 ! D3    D(11,1,2,10)           -1.2417         calculate D2E/DX2 analytically  !
 ! D4    D(11,1,2,15)          179.1452         calculate D2E/DX2 analytically  !
 ! D5    D(2,1,8,7)            122.8224         calculate D2E/DX2 analytically  !
 ! D6    D(11,1,8,7)           -54.194          calculate D2E/DX2 analytically  !
 ! D7    D(2,1,11,12)           -3.7016         calculate D2E/DX2 analytically  !
 ! D8    D(2,1,11,13)          116.7013         calculate D2E/DX2 analytically  !
 ! D9    D(2,1,11,14)         -123.9106         calculate D2E/DX2 analytically  !
 ! D10   D(9,1,11,12)          175.0463         calculate D2E/DX2 analytically  !
 ! D11   D(9,1,11,13)          -64.5508         calculate D2E/DX2 analytically  !
 ! D12   D(9,1,11,14)           54.8374         calculate D2E/DX2 analytically  !
 ! D13   D(1,2,15,16)           -1.2812         calculate D2E/DX2 analytically  !
 ! D14   D(1,2,15,17)          119.3915         calculate D2E/DX2 analytically  !
 ! D15   D(1,2,15,18)         -122.0667         calculate D2E/DX2 analytically  !
 ! D16   D(10,2,15,16)         179.1033         calculate D2E/DX2 analytically  !
 ! D17   D(10,2,15,17)         -60.224          calculate D2E/DX2 analytically  !
 ! D18   D(10,2,15,18)          58.3179         calculate D2E/DX2 analytically  !
 ! D19   D(4,3,7,8)             65.0916         calculate D2E/DX2 analytically  !
 ! D20   D(5,3,7,8)           -176.1666         calculate D2E/DX2 analytically  !
 ! D21   D(6,3,7,8)            -57.105          calculate D2E/DX2 analytically  !
 ! D22   D(3,7,8,9)            -88.5367         calculate D2E/DX2 analytically  !
 --------------------------------------------------------------------------------
 Trust Radius=3.00D-01 FncErr=1.00D-07 GrdErr=1.00D-07 EigMax=2.50D+02 EigMin=1.00D-04
 Number of steps in this run=    108 maximum allowed number of steps=    108.
 Search for a saddle point of order  1.
 GradGradGradGradGradGradGradGradGradGradGradGradGradGradGradGradGradGrad

                          Input orientation:                          
 ---------------------------------------------------------------------
 Center     Atomic      Atomic             Coordinates (Angstroms)
 Number     Number       Type             X           Y           Z
 ---------------------------------------------------------------------
      1          6           0       -1.201550   -0.466059   -0.198222
      2          6           0       -1.751890    0.723591   -0.316467
      3          6           0        2.341638   -0.028798    0.279177
      4          1           0        1.548294    0.589737    0.703122
      5          1           0        3.008769   -0.369190    1.068735
      6          1           0        2.898164    0.539524   -0.464549
      7          8           0        1.805112   -1.212193   -0.291548
      8          8           0        0.994791   -0.827729   -1.387707
      9          1           0       -0.016093   -0.658833   -0.913860
     10          1           0       -2.678103    0.902365    0.232616
     11          6           0       -1.527187   -1.696586    0.554353
     12          1           0       -2.403588   -1.530894    1.186957
     13          1           0       -1.737720   -2.525668   -0.120610
     14          1           0       -0.693437   -1.996653    1.188773
     15          6           0       -1.232414    1.861854   -1.142960
     16          1           0       -0.302118    1.593369   -1.636974
     17          1           0       -1.958783    2.149244   -1.903929
     18          1           0       -1.056112    2.740764   -0.521576
 ---------------------------------------------------------------------
                    Distance matrix (angstroms):
                    1          2          3          4          5
     1  C    0.000000
     2  C    1.316101   0.000000
     3  C    3.601845   4.204504   0.000000
     4  H    3.080384   3.456688   1.091655   0.000000
     5  H    4.397880   5.077089   1.088270   1.784993   0.000000
     6  H    4.229631   4.656051   1.088963   1.785532   1.785764
     7  O    3.099265   4.049709   1.419159   2.074193   2.002452
     8  O    2.523805   3.331427   2.287092   2.585951   3.209435
     9  H    1.398073   2.298035   2.716464   2.573104   3.628273
    10  H    2.058741   1.091477   5.105588   4.263982   5.886974
    11  C    1.478717   2.581874   4.221972   3.835100   4.754100
    12  H    2.120729   2.787059   5.059400   4.510936   5.536889
    13  H    2.129669   3.255187   4.799516   4.602409   5.347345
    14  H    2.127123   3.284174   3.729812   3.456968   4.045908
    15  C    2.512501   1.499529   4.286127   3.571923   5.277953
    16  H    2.668376   2.145249   3.645889   3.147594   4.704729
    17  H    3.212888   2.143671   5.291828   4.639867   6.313146
    18  H    3.226364   2.143633   4.456050   3.593012   5.359493
                    6          7          8          9         10
     6  H    0.000000
     7  O    2.072005   0.000000
     8  O    2.518815   1.416332   0.000000
     9  H    3.182897   2.002565   1.129134   0.000000
    10  H    5.631380   4.984508   4.371364   3.292118   0.000000
    11  C    5.061826   3.471945   3.299528   2.348614   2.860536
    12  H    5.926439   4.472215   4.321147   3.297583   2.628093
    13  H    5.568224   3.782340   3.457622   2.660511   3.572184
    14  H    4.697368   3.008235   3.294654   2.582561   3.641077
    15  C    4.389815   4.404683   3.500600   2.808164   2.214237
    16  H    3.567489   3.757894   2.757866   2.382670   3.101316
    17  H    5.315350   5.297729   4.225216   3.555218   2.576228
    18  H    4.526037   4.885221   4.206011   3.576700   2.565029
                   11         12         13         14         15
    11  C    0.000000
    12  H    1.093490   0.000000
    13  H    1.089622   1.772763   0.000000
    14  H    1.089802   1.772442   1.756379   0.000000
    15  C    3.953512   4.279124   4.533308   4.540435   0.000000
    16  H    4.138419   4.706568   4.618093   4.585437   1.087007
    17  H    4.584739   4.826473   5.008383   5.324882   1.090541
    18  H    4.590164   4.793938   5.325474   5.049747   1.090726
                   16         17         18
    16  H    0.000000
    17  H    1.767711   0.000000
    18  H    1.768936   1.753742   0.000000
 Stoichiometry    C5H11O2(2)
 Framework group  C1[X(C5H11O2)]
 Deg. of freedom    48
 Full point group                 C1      NOp   1
 Largest Abelian subgroup         C1      NOp   1
 Largest concise Abelian subgroup C1      NOp   1
                         Standard orientation:                         
 ---------------------------------------------------------------------
 Center     Atomic      Atomic             Coordinates (Angstroms)
 Number     Number       Type             X           Y           Z
 ---------------------------------------------------------------------
      1          6           0       -1.027009    0.646546    0.041115
      2          6           0       -1.938317   -0.257958   -0.247871
      3          6           0        2.204805   -0.692338   -0.816822
      4          1           0        1.278771   -0.820018   -1.380621
      5          1           0        2.988830   -0.316345   -1.471242
      6          1           0        2.505422   -1.641939   -0.376679
      7          8           0        2.049293    0.299181    0.186531
      8          8           0        1.098773   -0.183136    1.119203
      9          1           0        0.115499    0.169289    0.690353
     10          1           0       -2.840641    0.086657   -0.756178
     11          6           0       -0.894782    2.102656   -0.179941
     12          1           0       -1.741195    2.473711   -0.764427
     13          1           0       -0.862777    2.642253    0.766149
     14          1           0        0.024991    2.332562   -0.717370
     15          6           0       -1.861687   -1.723168    0.061764
     16          1           0       -0.923431   -1.970462    0.551770
     17          1           0       -2.682936   -2.023381    0.713456
     18          1           0       -1.945116   -2.315114   -0.850553
 ---------------------------------------------------------------------
 Rotational constants (GHZ):           2.8717613           1.5191174           1.1687546
 Standard basis: CC-pVTZ (5D, 7F)
 There are   410 symmetry adapted cartesian basis functions of A   symmetry.
 There are   364 symmetry adapted basis functions of A   symmetry.
   364 basis functions,   551 primitive gaussians,   410 cartesian basis functions
    29 alpha electrons       28 beta electrons
       nuclear repulsion energy       306.4318429213 Hartrees.
 NAtoms=   18 NActive=   18 NUniq=   18 SFac= 1.00D+00 NAtFMM=   60 NAOKFM=F Big=F
 Integral buffers will be    131072 words long.
 Raffenetti 2 integral format.
 Two-electron integral symmetry is turned on.
 Nuclear repulsion after empirical dispersion term =      306.4223470925 Hartrees.
 One-electron integrals computed using PRISM.
 NBasis=   364 RedAO= T EigKep=  2.50D-04  NBF=   364
 NBsUse=   364 1.00D-06 EigRej= -1.00D+00 NBFU=   364
 ExpMin= 1.03D-01 ExpMax= 1.53D+04 ExpMxC= 5.22D+02 IAcc=3 IRadAn=         5 AccDes= 0.00D+00
 Harris functional with IExCor=  419 and IRadAn=       5 diagonalized for initial guess.
 HarFok:  IExCor=  419 AccDes= 0.00D+00 IRadAn=         5 IDoV= 1 UseB2=F ITyADJ=14
 ICtDFT=  3500011 ScaDFX=  1.000000  1.000000  1.000000  1.000000
 FoFCou: FMM=F IPFlag=           0 FMFlag=      100000 FMFlg1=           0
         NFxFlg=           0 DoJE=T BraDBF=F KetDBF=T FulRan=T
         wScrn=  0.000000 ICntrl=       500 IOpCl=  0 I1Cent=   200000004 NGrid=           0
         NMat0=    1 NMatS0=      1 NMatT0=    0 NMatD0=    1 NMtDS0=    0 NMtDT0=    0
 Petite list used in FoFCou.
 Initial guess <Sx>= 0.0000 <Sy>= 0.0000 <Sz>= 0.5000 <S**2>= 0.7500 S= 0.5000
 Requested convergence on RMS density matrix=1.00D-08 within 128 cycles.
 Requested convergence on MAX density matrix=1.00D-06.
 Requested convergence on             energy=1.00D-06.
 No special actions if energy rises.
 Integral accuracy reduced to 1.0D-05 until final iterations.
 Initial convergence to 1.0D-05 achieved.  Increase integral accuracy.
 SCF Done:  E(UB2PLYPD3) =  -346.806892655     A.U. after   22 cycles
            NFock= 22  Conv=0.69D-08     -V/T= 2.0044
 <Sx>= 0.0000 <Sy>= 0.0000 <Sz>= 0.5000 <S**2>= 0.7774 S= 0.5136
 <L.S>=  0.00000000000    
 Annihilation of the first spin contaminant:
 S**2 before annihilation     0.7774,   after     0.7505
 DoSCS=T DFT=T ScalE2(SS,OS)=  0.270000  0.270000
 ExpMin= 1.03D-01 ExpMax= 1.53D+04 ExpMxC= 5.22D+02 IAcc=3 IRadAn=         5 AccDes= 0.00D+00
 HarFok:  IExCor=  205 AccDes= 0.00D+00 IRadAn=         5 IDoV=-2 UseB2=F ITyADJ=14
 ICtDFT= 12500011 ScaDFX=  1.000000  1.000000  1.000000  1.000000
 Range of M.O.s used for correlation:     8   364
 NBasis=   364 NAE=    29 NBE=    28 NFC=     7 NFV=     0
 NROrb=    357 NOA=    22 NOB=    21 NVA=   335 NVB=   336

 **** Warning!!: The largest alpha MO coefficient is  0.19123059D+02


 **** Warning!!: The largest beta MO coefficient is  0.19123155D+02

 DoSCS=T DFT=T ScalE2(SS,OS)=  0.270000  0.270000
 Disk-based method using ON**2 memory for 22 occupieds at a time.
 Permanent disk used for amplitudes=   135386230 words.
 Estimated scratch disk usage=  2604815664 words.
 Actual    scratch disk usage=  2518855984 words.
 JobTyp=2 Pass  1:  I=   8 to  29 NPSUse= 40 ParTrn=T ParDer=T DoDerP=T.
 (rs|ai) integrals will be sorted in core.
 Actual    scratch disk usage=  2518855984 words.
 JobTyp=3 Pass  1:  I=   8 to  28 NPSUse= 40 ParTrn=T ParDer=T DoDerP=T.
 (rs|ai) integrals will be sorted in core.
 Spin components of T(2) and E(2):
     alpha-alpha T2 =       0.7572503069D-01 E2=     -0.5353920859D-01
     alpha-beta  T2 =       0.4626824312D+00 E2=     -0.3342989806D+00
     beta-beta   T2 =       0.8073908156D-01 E2=     -0.5229525429D-01
 (S**2,0)=  0.77737D+00           (S**2,1)=  0.74887D+00
 Scaling Projection term by:   0.270000
 E(PUHF)=      -0.34681325002D+03        E(PMP2)=      -0.34724785918D+03
 E2(B2PLYPD3) =    -0.4401334435D+00 E(B2PLYPD3) =    -0.34724702609849D+03
 G2DrvN: will do    19 centers at a time, making    1 passes.
 Calling FoFCou, ICntrl=  3107 FMM=F I1Cent=   0 AccDes= 0.00D+00.
 End of G2Drv F.D. properties file   721 does not exist.
 End of G2Drv F.D. properties file   722 does not exist.
 End of G2Drv F.D. properties file   788 does not exist.
          IDoAtm=111111111111111111
          Differentiating once with respect to electric field.
                with respect to dipole field.
          Differentiating once with respect to nuclear coordinates.
 Keep R1 and R2 ints in memory in canonical form, NReq=4459304645.
          There are    57 degrees of freedom in the 1st order CPHF.  IDoFFX=6 NUNeed=    57.
     54 vectors produced by pass  0 Test12= 3.35D-14 1.75D-09 XBig12= 9.14D+01 4.75D+00.
 AX will form    54 AO Fock derivatives at one time.
     54 vectors produced by pass  1 Test12= 3.35D-14 1.75D-09 XBig12= 6.99D+00 3.24D-01.
     54 vectors produced by pass  2 Test12= 3.35D-14 1.75D-09 XBig12= 3.67D-01 1.06D-01.
     54 vectors produced by pass  3 Test12= 3.35D-14 1.75D-09 XBig12= 6.60D-03 6.97D-03.
     54 vectors produced by pass  4 Test12= 3.35D-14 1.75D-09 XBig12= 7.41D-05 7.86D-04.
     54 vectors produced by pass  5 Test12= 3.35D-14 1.75D-09 XBig12= 8.87D-07 6.92D-05.
     53 vectors produced by pass  6 Test12= 3.35D-14 1.75D-09 XBig12= 7.84D-09 5.96D-06.
     25 vectors produced by pass  7 Test12= 3.35D-14 1.75D-09 XBig12= 4.77D-11 5.63D-07.
      4 vectors produced by pass  8 Test12= 3.35D-14 1.75D-09 XBig12= 3.95D-13 5.95D-08.
      3 vectors produced by pass  9 Test12= 3.35D-14 1.75D-09 XBig12= 3.14D-15 5.73D-09.
 InvSVY:  IOpt=1 It=  1 EMax= 5.33D-15
 Solved reduced A of dimension   409 with    57 vectors.
 End of Minotr F.D. properties file   721 does not exist.
 End of Minotr F.D. properties file   722 does not exist.
 End of Minotr F.D. properties file   788 does not exist.
 MDV= 10737418240.
 DoSCS=T DFT=T ScalE2(SS,OS)=  0.270000  0.270000
 Form MO integral derivatives with frozen-active canonical formalism.
 Discarding MO integrals.
 Reordered first order wavefunction length =    545006183
 In DefCFB: NBatch=  1 ICI= 29 ICA=336 LFMax= 68
            Large arrays: LIAPS= 11415666080 LIARS=  1957569600 words.
 In DefCFB: NBatch=  1 ICI= 29 ICA=336 LFMax= 68
            Large arrays: LIAPS= 11415666080 LIARS=  1957569600 words.
 Semi-Direct transformation.
 ModeAB=           4 MOrb=            29 LenV=   10733549865
 LASXX=    664627481 LTotXX=   664627481 LenRXX=  1338891981
 LTotAB=   674264500 MaxLAS=   801675420 LenRXY=           0
 NonZer=  2003519462 LenScr=  3017065472 LnRSAI=   801675420
 LnScr1=  1207229440 LExtra=           0 Total=   6364862313
 MaxDsk=          -1 SrtSym=           T ITran=            4
 JobTyp=1 Pass  1:  I=   1 to  29.
 (rs|ai) integrals will be sorted in core.
 ModeAB=           4 MOrb=            28 LenV=   10733549865
 LASXX=    642894399 LTotXX=   642894399 LenRXX=  1195226319
 LTotAB=   552331920 MaxLAS=   774031440 LenRXY=           0
 NonZer=  1838120718 LenScr=  2767993856 LnRSAI=   774031440
 LnScr1=  1165600768 LExtra=           0 Total=   5902852383
 MaxDsk=          -1 SrtSym=           T ITran=            4
 JobTyp=2 Pass  1:  I=   1 to  28.
 (rs|ai) integrals will be sorted in core.
 SymMOI:  orbitals are not symmetric.
 DoSCS=T DFT=T ScalE2(SS,OS)=  0.270000  0.270000
 Spin components of T(2) and E(2):
     alpha-alpha T2 =       0.7572503069D-01 E2=     -0.5353920859D-01
     alpha-beta  T2 =       0.4626824312D+00 E2=     -0.3342989806D+00
     beta-beta   T2 =       0.8073908156D-01 E2=     -0.5229525429D-01
 E2(B2PLYPD3) =    -0.4401334435D+00 E(B2PLYPD3) =    -0.34724702609849D+03
 (S**2,0)=  0.77737D+00           (S**2,1)=  0.74887D+00
 Scaling Projection term by:   0.270000
 E(PUHF)=      -0.34681325002D+03        E(PMP2)=      -0.34724785918D+03
          IDoAtm=111111111111111111
          Differentiating once with respect to electric field.
                with respect to dipole field.
          Differentiating once with respect to nuclear coordinates.
 Keep R1 and R2 ints in memory in canonical form, NReq=4459439664.
          There are     1 degrees of freedom in the 1st order CPHF.  IDoFFX=0 NUNeed=     1.
 LinEq1:  Iter=  0 NonCon=     1 RMS=8.44D-04 Max=6.27D-02 NDo=     1
 AX will form     1 AO Fock derivatives at one time.
 LinEq1:  Iter=  1 NonCon=     1 RMS=2.93D-04 Max=1.24D-02 NDo=     1
 LinEq1:  Iter=  2 NonCon=     1 RMS=1.81D-04 Max=1.03D-02 NDo=     1
 LinEq1:  Iter=  3 NonCon=     1 RMS=9.40D-05 Max=6.80D-03 NDo=     1
 LinEq1:  Iter=  4 NonCon=     1 RMS=6.58D-05 Max=4.19D-03 NDo=     1
 LinEq1:  Iter=  5 NonCon=     1 RMS=2.32D-05 Max=1.12D-03 NDo=     1
 LinEq1:  Iter=  6 NonCon=     1 RMS=1.63D-05 Max=6.96D-04 NDo=     1
 LinEq1:  Iter=  7 NonCon=     1 RMS=4.64D-06 Max=8.09D-05 NDo=     1
 LinEq1:  Iter=  8 NonCon=     1 RMS=2.66D-06 Max=8.48D-05 NDo=     1
 LinEq1:  Iter=  9 NonCon=     1 RMS=2.06D-06 Max=5.74D-05 NDo=     1
 LinEq1:  Iter= 10 NonCon=     1 RMS=9.62D-07 Max=1.64D-05 NDo=     1
 LinEq1:  Iter= 11 NonCon=     1 RMS=4.75D-07 Max=7.69D-06 NDo=     1
 LinEq1:  Iter= 12 NonCon=     1 RMS=1.91D-07 Max=3.69D-06 NDo=     1
 LinEq1:  Iter= 13 NonCon=     1 RMS=6.53D-08 Max=1.69D-06 NDo=     1
 LinEq1:  Iter= 14 NonCon=     1 RMS=2.18D-08 Max=4.51D-07 NDo=     1
 LinEq1:  Iter= 15 NonCon=     1 RMS=9.58D-09 Max=2.00D-07 NDo=     1
 LinEq1:  Iter= 16 NonCon=     1 RMS=3.59D-09 Max=8.78D-08 NDo=     1
 LinEq1:  Iter= 17 NonCon=     1 RMS=1.26D-09 Max=2.79D-08 NDo=     1
 LinEq1:  Iter= 18 NonCon=     1 RMS=4.20D-10 Max=1.56D-08 NDo=     1
 LinEq1:  Iter= 19 NonCon=     1 RMS=1.40D-10 Max=4.91D-09 NDo=     1
 LinEq1:  Iter= 20 NonCon=     1 RMS=4.55D-11 Max=2.06D-09 NDo=     1
 LinEq1:  Iter= 21 NonCon=     0 RMS=2.20D-11 Max=8.07D-10 NDo=     1
 Linear equations converged to 1.000D-10 1.000D-09 after    21 iterations.
 End of Minotr F.D. properties file   721 does not exist.
 End of Minotr F.D. properties file   722 does not exist.
 End of Minotr F.D. properties file   788 does not exist.
 Symmetrizing basis deriv contribution to polar:
 IMax=3 JMax=2 DiffMx= 0.00D+00
 G2DrvN: will do    19 centers at a time, making    1 passes.
 Calling FoFCou, ICntrl=  3107 FMM=F I1Cent=   0 AccDes= 0.00D+00.
 End of G2Drv F.D. properties file   721 does not exist.
 End of G2Drv F.D. properties file   722 does not exist.
 End of G2Drv F.D. properties file   788 does not exist.
 DoSCS=T DFT=T ScalE2(SS,OS)=  0.270000  0.270000
 R2 and R3 integrals will be kept in memory, NReq=  7133702340.
 DD1Dir will call FoFMem   1 times, MxPair=      2408
 NAB=   812 NAA=   406 NBB=   378.
 Discarding MO integrals.

 **********************************************************************

            Population analysis using the SCF Density.

 **********************************************************************

 Orbital symmetries:
 Alpha Orbitals:
       Occupied  (A) (A) (A) (A) (A) (A) (A) (A) (A) (A) (A) (A)
                 (A) (A) (A) (A) (A) (A) (A) (A) (A) (A) (A) (A)
                 (A) (A) (A) (A) (A)
       Virtual   (A) (A) (A) (A) (A) (A) (A) (A) (A) (A) (A) (A)
                 (A) (A) (A) (A) (A) (A) (A) (A) (A) (A) (A) (A)
                 (A) (A) (A) (A) (A) (A) (A) (A) (A) (A) (A) (A)
                 (A) (A) (A) (A) (A) (A) (A) (A) (A) (A) (A) (A)
                 (A) (A) (A) (A) (A) (A) (A) (A) (A) (A) (A) (A)
                 (A) (A) (A) (A) (A) (A) (A) (A) (A) (A) (A) (A)
                 (A) (A) (A) (A) (A) (A) (A) (A) (A) (A) (A) (A)
                 (A) (A) (A) (A) (A) (A) (A) (A) (A) (A) (A) (A)
                 (A) (A) (A) (A) (A) (A) (A) (A) (A) (A) (A) (A)
                 (A) (A) (A) (A) (A) (A) (A) (A) (A) (A) (A) (A)
                 (A) (A) (A) (A) (A) (A) (A) (A) (A) (A) (A) (A)
                 (A) (A) (A) (A) (A) (A) (A) (A) (A) (A) (A) (A)
                 (A) (A) (A) (A) (A) (A) (A) (A) (A) (A) (A) (A)
                 (A) (A) (A) (A) (A) (A) (A) (A) (A) (A) (A) (A)
                 (A) (A) (A) (A) (A) (A) (A) (A) (A) (A) (A) (A)
                 (A) (A) (A) (A) (A) (A) (A) (A) (A) (A) (A) (A)
                 (A) (A) (A) (A) (A) (A) (A) (A) (A) (A) (A) (A)
                 (A) (A) (A) (A) (A) (A) (A) (A) (A) (A) (A) (A)
                 (A) (A) (A) (A) (A) (A) (A) (A) (A) (A) (A) (A)
                 (A) (A) (A) (A) (A) (A) (A) (A) (A) (A) (A) (A)
                 (A) (A) (A) (A) (A) (A) (A) (A) (A) (A) (A) (A)
                 (A) (A) (A) (A) (A) (A) (A) (A) (A) (A) (A) (A)
                 (A) (A) (A) (A) (A) (A) (A) (A) (A) (A) (A) (A)
                 (A) (A) (A) (A) (A) (A) (A) (A) (A) (A) (A) (A)
                 (A) (A) (A) (A) (A) (A) (A) (A) (A) (A) (A) (A)
                 (A) (A) (A) (A) (A) (A) (A) (A) (A) (A) (A) (A)
                 (A) (A) (A) (A) (A) (A) (A) (A) (A) (A) (A) (A)
                 (A) (A) (A) (A) (A) (A) (A) (A) (A) (A) (A)
 Beta  Orbitals:
       Occupied  (A) (A) (A) (A) (A) (A) (A) (A) (A) (A) (A) (A)
                 (A) (A) (A) (A) (A) (A) (A) (A) (A) (A) (A) (A)
                 (A) (A) (A) (A)
       Virtual   (A) (A) (A) (A) (A) (A) (A) (A) (A) (A) (A) (A)
                 (A) (A) (A) (A) (A) (A) (A) (A) (A) (A) (A) (A)
                 (A) (A) (A) (A) (A) (A) (A) (A) (A) (A) (A) (A)
                 (A) (A) (A) (A) (A) (A) (A) (A) (A) (A) (A) (A)
                 (A) (A) (A) (A) (A) (A) (A) (A) (A) (A) (A) (A)
                 (A) (A) (A) (A) (A) (A) (A) (A) (A) (A) (A) (A)
                 (A) (A) (A) (A) (A) (A) (A) (A) (A) (A) (A) (A)
                 (A) (A) (A) (A) (A) (A) (A) (A) (A) (A) (A) (A)
                 (A) (A) (A) (A) (A) (A) (A) (A) (A) (A) (A) (A)
                 (A) (A) (A) (A) (A) (A) (A) (A) (A) (A) (A) (A)
                 (A) (A) (A) (A) (A) (A) (A) (A) (A) (A) (A) (A)
                 (A) (A) (A) (A) (A) (A) (A) (A) (A) (A) (A) (A)
                 (A) (A) (A) (A) (A) (A) (A) (A) (A) (A) (A) (A)
                 (A) (A) (A) (A) (A) (A) (A) (A) (A) (A) (A) (A)
                 (A) (A) (A) (A) (A) (A) (A) (A) (A) (A) (A) (A)
                 (A) (A) (A) (A) (A) (A) (A) (A) (A) (A) (A) (A)
                 (A) (A) (A) (A) (A) (A) (A) (A) (A) (A) (A) (A)
                 (A) (A) (A) (A) (A) (A) (A) (A) (A) (A) (A) (A)
                 (A) (A) (A) (A) (A) (A) (A) (A) (A) (A) (A) (A)
                 (A) (A) (A) (A) (A) (A) (A) (A) (A) (A) (A) (A)
                 (A) (A) (A) (A) (A) (A) (A) (A) (A) (A) (A) (A)
                 (A) (A) (A) (A) (A) (A) (A) (A) (A) (A) (A) (A)
                 (A) (A) (A) (A) (A) (A) (A) (A) (A) (A) (A) (A)
                 (A) (A) (A) (A) (A) (A) (A) (A) (A) (A) (A) (A)
                 (A) (A) (A) (A) (A) (A) (A) (A) (A) (A) (A) (A)
                 (A) (A) (A) (A) (A) (A) (A) (A) (A) (A) (A) (A)
                 (A) (A) (A) (A) (A) (A) (A) (A) (A) (A) (A) (A)
                 (A) (A) (A) (A) (A) (A) (A) (A) (A) (A) (A) (A)
 The electronic state is 2-A.
 Alpha  occ. eigenvalues --  -19.78262 -19.78130 -10.65764 -10.64572 -10.62742
 Alpha  occ. eigenvalues --  -10.62459 -10.61483  -1.26879  -1.02159  -0.93645
 Alpha  occ. eigenvalues --   -0.85480  -0.77573  -0.76292  -0.65229  -0.58427
 Alpha  occ. eigenvalues --   -0.55422  -0.54235  -0.53300  -0.51859  -0.49880
 Alpha  occ. eigenvalues --   -0.48339  -0.47965  -0.45016  -0.44534  -0.43671
 Alpha  occ. eigenvalues --   -0.36910  -0.36121  -0.31032  -0.29804
 Alpha virt. eigenvalues --    0.06928   0.07842   0.09324   0.10199   0.12214
 Alpha virt. eigenvalues --    0.13214   0.14478   0.15097   0.16285   0.16306
 Alpha virt. eigenvalues --    0.17120   0.18980   0.20050   0.22289   0.25019
 Alpha virt. eigenvalues --    0.27046   0.28452   0.30194   0.31281   0.32769
 Alpha virt. eigenvalues --    0.34382   0.36046   0.37585   0.41380   0.41859
 Alpha virt. eigenvalues --    0.42305   0.43690   0.46185   0.47222   0.48447
 Alpha virt. eigenvalues --    0.49812   0.50910   0.51858   0.52054   0.52693
 Alpha virt. eigenvalues --    0.53409   0.53638   0.54664   0.55526   0.55869
 Alpha virt. eigenvalues --    0.57205   0.59166   0.59872   0.61577   0.61885
 Alpha virt. eigenvalues --    0.63624   0.65791   0.68212   0.69869   0.71539
 Alpha virt. eigenvalues --    0.73164   0.73747   0.76407   0.80546   0.81263
 Alpha virt. eigenvalues --    0.83624   0.87184   0.89089   0.89686   0.90393
 Alpha virt. eigenvalues --    0.92856   0.94022   0.95230   0.97145   0.97585
 Alpha virt. eigenvalues --    0.99111   1.00291   1.05380   1.06270   1.07495
 Alpha virt. eigenvalues --    1.08021   1.08680   1.10241   1.11218   1.11916
 Alpha virt. eigenvalues --    1.12479   1.13378   1.15681   1.17195   1.18280
 Alpha virt. eigenvalues --    1.18953   1.21451   1.21944   1.24590   1.25321
 Alpha virt. eigenvalues --    1.27607   1.29631   1.32850   1.34117   1.34442
 Alpha virt. eigenvalues --    1.36709   1.38044   1.38404   1.40269   1.41564
 Alpha virt. eigenvalues --    1.42011   1.43743   1.44415   1.44889   1.47565
 Alpha virt. eigenvalues --    1.48788   1.51945   1.52449   1.55069   1.56740
 Alpha virt. eigenvalues --    1.58344   1.58732   1.60496   1.64796   1.66468
 Alpha virt. eigenvalues --    1.68819   1.76609   1.80475   1.86899   1.88658
 Alpha virt. eigenvalues --    1.96157   1.98889   2.02991   2.09125   2.12959
 Alpha virt. eigenvalues --    2.17596   2.20458   2.21548   2.26933   2.28343
 Alpha virt. eigenvalues --    2.34787   2.37313   2.38376   2.39164   2.41277
 Alpha virt. eigenvalues --    2.44956   2.45449   2.48802   2.49803   2.52426
 Alpha virt. eigenvalues --    2.54575   2.57334   2.59231   2.62187   2.64395
 Alpha virt. eigenvalues --    2.65986   2.71081   2.73905   2.78063   2.78773
 Alpha virt. eigenvalues --    2.79660   2.81745   2.83656   2.85955   2.88295
 Alpha virt. eigenvalues --    2.90399   2.92111   2.93096   2.93982   2.94819
 Alpha virt. eigenvalues --    2.95449   2.96723   2.99131   3.00745   3.03112
 Alpha virt. eigenvalues --    3.04241   3.05011   3.05985   3.07729   3.08570
 Alpha virt. eigenvalues --    3.09191   3.09961   3.12121   3.12833   3.14887
 Alpha virt. eigenvalues --    3.16379   3.16602   3.17025   3.18330   3.19209
 Alpha virt. eigenvalues --    3.20045   3.22628   3.23713   3.25347   3.28447
 Alpha virt. eigenvalues --    3.30671   3.31253   3.36258   3.38959   3.40697
 Alpha virt. eigenvalues --    3.42517   3.43070   3.44233   3.45387   3.45983
 Alpha virt. eigenvalues --    3.47342   3.50170   3.50993   3.52094   3.54340
 Alpha virt. eigenvalues --    3.54702   3.56165   3.57873   3.58385   3.60219
 Alpha virt. eigenvalues --    3.60292   3.61925   3.62917   3.64239   3.65017
 Alpha virt. eigenvalues --    3.68508   3.71818   3.73897   3.77421   3.79419
 Alpha virt. eigenvalues --    3.81581   3.84726   3.86077   3.87148   3.87870
 Alpha virt. eigenvalues --    3.89708   3.91240   3.93071   3.94086   3.95646
 Alpha virt. eigenvalues --    3.97387   3.97808   3.98384   3.98818   4.01607
 Alpha virt. eigenvalues --    4.04409   4.06361   4.06962   4.09299   4.10635
 Alpha virt. eigenvalues --    4.11523   4.14363   4.15450   4.16665   4.18220
 Alpha virt. eigenvalues --    4.19707   4.20955   4.21467   4.23350   4.23775
 Alpha virt. eigenvalues --    4.25104   4.26326   4.30050   4.32172   4.33085
 Alpha virt. eigenvalues --    4.35392   4.37290   4.38247   4.43256   4.45093
 Alpha virt. eigenvalues --    4.46938   4.47351   4.48454   4.51254   4.54776
 Alpha virt. eigenvalues --    4.62776   4.65417   4.67423   4.69258   4.71590
 Alpha virt. eigenvalues --    4.78089   4.81256   4.82677   4.84120   4.90283
 Alpha virt. eigenvalues --    4.91246   4.94852   4.96608   4.97197   5.00409
 Alpha virt. eigenvalues --    5.01636   5.02789   5.04009   5.06173   5.07878
 Alpha virt. eigenvalues --    5.13165   5.16121   5.23406   5.25805   5.27156
 Alpha virt. eigenvalues --    5.28753   5.30781   5.31637   5.33018   5.34840
 Alpha virt. eigenvalues --    5.35052   5.37463   5.38019   5.39925   5.40608
 Alpha virt. eigenvalues --    5.42812   5.44069   5.45982   5.47874   5.48152
 Alpha virt. eigenvalues --    5.49758   5.52740   5.57391   5.61604   5.69060
 Alpha virt. eigenvalues --    5.76804   5.79467   5.83306   5.95016   5.96555
 Alpha virt. eigenvalues --    5.97699   5.99778   6.00720   6.04032   6.06945
 Alpha virt. eigenvalues --    6.08793   6.10972   6.27103   6.34992   6.39003
 Alpha virt. eigenvalues --    6.46992   6.64401   6.76946   6.80156   6.86615
 Alpha virt. eigenvalues --    6.96907   7.05610   7.06783   7.19801   7.40347
 Alpha virt. eigenvalues --    7.43414   7.59956   7.77143   9.72879  10.02327
 Alpha virt. eigenvalues --   10.71193  13.42081  13.83267  14.01801  14.29769
  Beta  occ. eigenvalues --  -19.78164 -19.76684 -10.65769 -10.63102 -10.62919
  Beta  occ. eigenvalues --  -10.62432 -10.61413  -1.25216  -0.99583  -0.91970
  Beta  occ. eigenvalues --   -0.84952  -0.77168  -0.75611  -0.61457  -0.56499
  Beta  occ. eigenvalues --   -0.54406  -0.53896  -0.52532  -0.50269  -0.49568
  Beta  occ. eigenvalues --   -0.48009  -0.45457  -0.44463  -0.44002  -0.42838
  Beta  occ. eigenvalues --   -0.35489  -0.33534  -0.30372
  Beta virt. eigenvalues --   -0.04749   0.07698   0.08196   0.09410   0.10339
  Beta virt. eigenvalues --    0.12639   0.13490   0.14548   0.15225   0.16342
  Beta virt. eigenvalues --    0.16500   0.17394   0.19174   0.20410   0.22576
  Beta virt. eigenvalues --    0.25436   0.27140   0.28798   0.30322   0.31369
  Beta virt. eigenvalues --    0.32930   0.35273   0.36623   0.37935   0.41579
  Beta virt. eigenvalues --    0.42421   0.42729   0.44290   0.46222   0.47597
  Beta virt. eigenvalues --    0.49215   0.50124   0.50997   0.52056   0.52288
  Beta virt. eigenvalues --    0.52909   0.53509   0.54350   0.54819   0.55856
  Beta virt. eigenvalues --    0.57168   0.57318   0.59709   0.60580   0.61824
  Beta virt. eigenvalues --    0.62785   0.64456   0.65971   0.68734   0.70137
  Beta virt. eigenvalues --    0.72189   0.73746   0.74027   0.77310   0.80769
  Beta virt. eigenvalues --    0.82223   0.83939   0.87582   0.89209   0.89912
  Beta virt. eigenvalues --    0.90791   0.93013   0.94123   0.95372   0.97395
  Beta virt. eigenvalues --    0.97840   0.99380   1.00688   1.05542   1.06485
  Beta virt. eigenvalues --    1.07633   1.08392   1.08897   1.10381   1.11391
  Beta virt. eigenvalues --    1.12130   1.12703   1.13535   1.15997   1.17417
  Beta virt. eigenvalues --    1.18434   1.19040   1.21923   1.22349   1.24847
  Beta virt. eigenvalues --    1.25663   1.27855   1.29828   1.33085   1.34379
  Beta virt. eigenvalues --    1.34763   1.37359   1.38182   1.38486   1.40398
  Beta virt. eigenvalues --    1.41631   1.42186   1.43917   1.44670   1.44981
  Beta virt. eigenvalues --    1.48087   1.49147   1.52297   1.52712   1.55290
  Beta virt. eigenvalues --    1.57036   1.58741   1.59194   1.61000   1.64988
  Beta virt. eigenvalues --    1.67021   1.69651   1.77445   1.80795   1.87824
  Beta virt. eigenvalues --    1.90368   1.96618   1.99396   2.03649   2.09889
  Beta virt. eigenvalues --    2.13653   2.18456   2.21612   2.21741   2.27346
  Beta virt. eigenvalues --    2.28930   2.34699   2.37732   2.39142   2.39730
  Beta virt. eigenvalues --    2.42010   2.45516   2.46501   2.49103   2.50279
  Beta virt. eigenvalues --    2.52783   2.54813   2.57732   2.59575   2.62546
  Beta virt. eigenvalues --    2.64693   2.66393   2.71253   2.74797   2.78339
  Beta virt. eigenvalues --    2.79271   2.79800   2.81788   2.84142   2.86289
  Beta virt. eigenvalues --    2.88546   2.90668   2.92401   2.93353   2.94144
  Beta virt. eigenvalues --    2.94947   2.95724   2.96883   2.99319   3.00990
  Beta virt. eigenvalues --    3.03657   3.04911   3.05910   3.06764   3.08258
  Beta virt. eigenvalues --    3.08715   3.09569   3.10579   3.12209   3.12863
  Beta virt. eigenvalues --    3.15036   3.16494   3.17043   3.17258   3.18525
  Beta virt. eigenvalues --    3.19700   3.20564   3.22802   3.23940   3.26385
  Beta virt. eigenvalues --    3.28715   3.31404   3.33222   3.37000   3.39526
  Beta virt. eigenvalues --    3.40952   3.42693   3.43207   3.44353   3.45565
  Beta virt. eigenvalues --    3.46643   3.47777   3.50335   3.51196   3.52304
  Beta virt. eigenvalues --    3.54504   3.54869   3.56256   3.58121   3.58527
  Beta virt. eigenvalues --    3.60225   3.60792   3.62291   3.63169   3.64467
  Beta virt. eigenvalues --    3.65182   3.68998   3.72037   3.74241   3.77694
  Beta virt. eigenvalues --    3.79988   3.81804   3.84893   3.86157   3.87340
  Beta virt. eigenvalues --    3.88071   3.89806   3.91532   3.93249   3.94173
  Beta virt. eigenvalues --    3.95921   3.97625   3.98189   3.98427   3.98982
  Beta virt. eigenvalues --    4.01820   4.04567   4.06691   4.07252   4.09467
  Beta virt. eigenvalues --    4.11227   4.11733   4.14632   4.15732   4.17280
  Beta virt. eigenvalues --    4.18588   4.19957   4.21248   4.21719   4.23614
  Beta virt. eigenvalues --    4.24080   4.25243   4.26352   4.30248   4.32744
  Beta virt. eigenvalues --    4.33554   4.35748   4.37506   4.38861   4.43548
  Beta virt. eigenvalues --    4.45302   4.47250   4.47741   4.48640   4.51586
  Beta virt. eigenvalues --    4.55317   4.63669   4.65819   4.67936   4.69638
  Beta virt. eigenvalues --    4.72248   4.78670   4.81540   4.82981   4.84369
  Beta virt. eigenvalues --    4.90843   4.91645   4.94937   4.96670   4.97488
  Beta virt. eigenvalues --    5.00549   5.01841   5.02891   5.04150   5.06331
  Beta virt. eigenvalues --    5.08302   5.13412   5.16960   5.23623   5.26161
  Beta virt. eigenvalues --    5.27271   5.29143   5.31169   5.32013   5.33323
  Beta virt. eigenvalues --    5.34974   5.35274   5.37665   5.38440   5.40199
  Beta virt. eigenvalues --    5.41279   5.43350   5.44531   5.46056   5.48051
  Beta virt. eigenvalues --    5.48348   5.50008   5.52899   5.57581   5.62509
  Beta virt. eigenvalues --    5.69675   5.77391   5.80102   5.84127   5.95091
  Beta virt. eigenvalues --    5.96977   5.98137   5.99885   6.01070   6.04080
  Beta virt. eigenvalues --    6.07949   6.09268   6.11429   6.27325   6.35908
  Beta virt. eigenvalues --    6.40261   6.48824   6.65370   6.78232   6.82111
  Beta virt. eigenvalues --    6.88055   6.98416   7.06172   7.08117   7.21852
  Beta virt. eigenvalues --    7.41220   7.44592   7.61851   7.77657   9.73885
  Beta virt. eigenvalues --   10.02758  10.72256  13.42081  13.83332  14.01963
  Beta virt. eigenvalues --   14.30079
          Condensed to atoms (all electrons):
               1          2          3          4          5          6
     1  C    5.264550   0.611978  -0.005804   0.003515   0.000670  -0.000544
     2  C    0.611978   4.987018  -0.000751  -0.000224  -0.000070   0.000451
     3  C   -0.005804  -0.000751   4.587536   0.394346   0.403481   0.410075
     4  H    0.003515  -0.000224   0.394346   0.680282  -0.034749  -0.061818
     5  H    0.000670  -0.000070   0.403481  -0.034749   0.582879  -0.029817
     6  H   -0.000544   0.000451   0.410075  -0.061818  -0.029817   0.629557
     7  O    0.005595   0.000058   0.305529  -0.049444  -0.026120  -0.040128
     8  O   -0.080421  -0.002968  -0.038244  -0.006166   0.006288   0.003828
     9  H    0.191303  -0.003952   0.006746   0.005522  -0.001716   0.000581
    10  H   -0.045886   0.386620  -0.000011   0.000007   0.000000   0.000006
    11  C    0.329406  -0.045618  -0.000422   0.000391   0.000056  -0.000085
    12  H   -0.040306  -0.002908  -0.000039  -0.000005  -0.000004   0.000003
    13  H   -0.039983  -0.000519  -0.000002   0.000118  -0.000008  -0.000010
    14  H   -0.038561   0.000339  -0.000096  -0.001867  -0.000038   0.000250
    15  C   -0.059356   0.330469  -0.000463  -0.000475   0.000029  -0.000452
    16  H    0.002788  -0.040803  -0.000095  -0.001204   0.000122   0.000755
    17  H    0.000889  -0.040439  -0.000018   0.000087   0.000001  -0.000007
    18  H    0.000894  -0.043088   0.000167  -0.000227  -0.000010   0.000023
               7          8          9         10         11         12
     1  C    0.005595  -0.080421   0.191303  -0.045886   0.329406  -0.040306
     2  C    0.000058  -0.002968  -0.003952   0.386620  -0.045618  -0.002908
     3  C    0.305529  -0.038244   0.006746  -0.000011  -0.000422  -0.000039
     4  H   -0.049444  -0.006166   0.005522   0.000007   0.000391  -0.000005
     5  H   -0.026120   0.006288  -0.001716   0.000000   0.000056  -0.000004
     6  H   -0.040128   0.003828   0.000581   0.000006  -0.000085   0.000003
     7  O    7.955759   0.070666  -0.033930  -0.000001  -0.001871   0.000073
     8  O    0.070666   8.032237   0.228226  -0.000415   0.004815  -0.000207
     9  H   -0.033930   0.228226   0.408702   0.002480  -0.017977   0.002317
    10  H   -0.000001  -0.000415   0.002480   0.564370  -0.006926   0.006026
    11  C   -0.001871   0.004815  -0.017977  -0.006926   4.785412   0.397143
    12  H    0.000073  -0.000207   0.002317   0.006026   0.397143   0.596214
    13  H   -0.000516   0.001331  -0.000696  -0.000066   0.410322  -0.027308
    14  H    0.008808  -0.001827  -0.001493  -0.000141   0.403429  -0.028715
    15  C    0.000311  -0.001544  -0.006551  -0.040378   0.006772  -0.000350
    16  H   -0.000520   0.011002  -0.000986   0.005083   0.000278   0.000005
    17  H   -0.000001   0.000020  -0.000240  -0.002567  -0.000195  -0.000000
    18  H   -0.000007  -0.000054   0.000596  -0.002033  -0.000227   0.000014
              13         14         15         16         17         18
     1  C   -0.039983  -0.038561  -0.059356   0.002788   0.000889   0.000894
     2  C   -0.000519   0.000339   0.330469  -0.040803  -0.040439  -0.043088
     3  C   -0.000002  -0.000096  -0.000463  -0.000095  -0.000018   0.000167
     4  H    0.000118  -0.001867  -0.000475  -0.001204   0.000087  -0.000227
     5  H   -0.000008  -0.000038   0.000029   0.000122   0.000001  -0.000010
     6  H   -0.000010   0.000250  -0.000452   0.000755  -0.000007   0.000023
     7  O   -0.000516   0.008808   0.000311  -0.000520  -0.000001  -0.000007
     8  O    0.001331  -0.001827  -0.001544   0.011002   0.000020  -0.000054
     9  H   -0.000696  -0.001493  -0.006551  -0.000986  -0.000240   0.000596
    10  H   -0.000066  -0.000141  -0.040378   0.005083  -0.002567  -0.002033
    11  C    0.410322   0.403429   0.006772   0.000278  -0.000195  -0.000227
    12  H   -0.027308  -0.028715  -0.000350   0.000005  -0.000000   0.000014
    13  H    0.576388  -0.034098  -0.000191  -0.000070   0.000098  -0.000040
    14  H   -0.034098   0.577364  -0.000143   0.000098  -0.000038   0.000096
    15  C   -0.000191  -0.000143   4.820252   0.406615   0.413354   0.408391
    16  H   -0.000070   0.000098   0.406615   0.557027  -0.024976  -0.027064
    17  H    0.000098  -0.000038   0.413354  -0.024976   0.583055  -0.035753
    18  H   -0.000040   0.000096   0.408391  -0.027064  -0.035753   0.600003
          Atomic-Atomic Spin Densities.
               1          2          3          4          5          6
     1  C    0.789747   0.002638   0.000377  -0.004414   0.000070   0.001237
     2  C    0.002638  -0.167342   0.000012   0.000198   0.000006  -0.000092
     3  C    0.000377   0.000012  -0.002768   0.003865  -0.000052  -0.002596
     4  H   -0.004414   0.000198   0.003865   0.001335  -0.000429  -0.001220
     5  H    0.000070   0.000006  -0.000052  -0.000429  -0.001424   0.000914
     6  H    0.001237  -0.000092  -0.002596  -0.001220   0.000914   0.003859
     7  O    0.011633  -0.000207   0.000134  -0.000730   0.000133  -0.000463
     8  O   -0.087368   0.002540  -0.001528   0.003657  -0.000133  -0.000639
     9  H    0.062390   0.001335   0.000419  -0.003217   0.000126   0.001343
    10  H   -0.014146  -0.000901   0.000004  -0.000213   0.000001   0.000019
    11  C   -0.035735   0.006873  -0.000090   0.000617  -0.000025  -0.000096
    12  H   -0.006384  -0.002646   0.000033  -0.000119   0.000002   0.000009
    13  H   -0.004107   0.000271   0.000004   0.000003   0.000001  -0.000001
    14  H   -0.004844   0.000211  -0.000117   0.000159  -0.000008  -0.000019
    15  C   -0.013896   0.019958   0.000118   0.000588  -0.000005  -0.000105
    16  H    0.004884  -0.000873  -0.000191  -0.000177  -0.000006   0.000128
    17  H    0.000064   0.003250   0.000002  -0.000020  -0.000000   0.000004
    18  H    0.000126   0.003041  -0.000021  -0.000046   0.000000   0.000019
               7          8          9         10         11         12
     1  C    0.011633  -0.087368   0.062390  -0.014146  -0.035735  -0.006384
     2  C   -0.000207   0.002540   0.001335  -0.000901   0.006873  -0.002646
     3  C    0.000134  -0.001528   0.000419   0.000004  -0.000090   0.000033
     4  H   -0.000730   0.003657  -0.003217  -0.000213   0.000617  -0.000119
     5  H    0.000133  -0.000133   0.000126   0.000001  -0.000025   0.000002
     6  H   -0.000463  -0.000639   0.001343   0.000019  -0.000096   0.000009
     7  O    0.034087  -0.034099   0.009455   0.000073  -0.002522   0.000191
     8  O   -0.034099   0.522580  -0.048441  -0.000680   0.009024  -0.000649
     9  H    0.009455  -0.048441  -0.086257   0.001337  -0.007804   0.000916
    10  H    0.000073  -0.000680   0.001337   0.087240  -0.005074   0.006626
    11  C   -0.002522   0.009024  -0.007804  -0.005074   0.023857  -0.010121
    12  H    0.000191  -0.000649   0.000916   0.006626  -0.010121   0.058567
    13  H   -0.000030   0.000222  -0.000430  -0.000114   0.005032  -0.001099
    14  H   -0.000415   0.000275   0.000659  -0.000136   0.006710  -0.001418
    15  C   -0.000225   0.003151  -0.003921  -0.015431   0.001733  -0.000716
    16  H    0.000172  -0.002533   0.002221   0.001176  -0.000326   0.000070
    17  H    0.000002  -0.000052   0.000048   0.000688  -0.000032   0.000013
    18  H    0.000008  -0.000053   0.000055   0.000760  -0.000032   0.000019
              13         14         15         16         17         18
     1  C   -0.004107  -0.004844  -0.013896   0.004884   0.000064   0.000126
     2  C    0.000271   0.000211   0.019958  -0.000873   0.003250   0.003041
     3  C    0.000004  -0.000117   0.000118  -0.000191   0.000002  -0.000021
     4  H    0.000003   0.000159   0.000588  -0.000177  -0.000020  -0.000046
     5  H    0.000001  -0.000008  -0.000005  -0.000006  -0.000000   0.000000
     6  H   -0.000001  -0.000019  -0.000105   0.000128   0.000004   0.000019
     7  O   -0.000030  -0.000415  -0.000225   0.000172   0.000002   0.000008
     8  O    0.000222   0.000275   0.003151  -0.002533  -0.000052  -0.000053
     9  H   -0.000430   0.000659  -0.003921   0.002221   0.000048   0.000055
    10  H   -0.000114  -0.000136  -0.015431   0.001176   0.000688   0.000760
    11  C    0.005032   0.006710   0.001733  -0.000326  -0.000032  -0.000032
    12  H   -0.001099  -0.001418  -0.000716   0.000070   0.000013   0.000019
    13  H    0.004083  -0.000974   0.000030  -0.000001  -0.000003   0.000001
    14  H   -0.000974   0.004653   0.000040  -0.000016   0.000001  -0.000002
    15  C    0.000030   0.000040   0.041502  -0.004715  -0.003491  -0.003344
    16  H   -0.000001  -0.000016  -0.004715  -0.000353   0.000748   0.000809
    17  H   -0.000003   0.000001  -0.003491   0.000748  -0.007182   0.001652
    18  H    0.000001  -0.000002  -0.003344   0.000809   0.001652  -0.007292
 Mulliken charges and spin densities:
               1          2
     1  C   -0.100726   0.702272
     2  C   -0.135592  -0.131729
     3  C   -0.061934  -0.002396
     4  H    0.071913  -0.000164
     5  H    0.099006  -0.000829
     6  H    0.087332   0.002300
     7  O   -0.194262   0.017194
     8  O   -0.226567   0.365277
     9  H    0.221068  -0.069766
    10  H    0.133832   0.061231
    11  C   -0.264705  -0.008011
    12  H    0.098047   0.043294
    13  H    0.115251   0.002888
    14  H    0.116634   0.004759
    15  C   -0.276291   0.021269
    16  H    0.111946   0.001017
    17  H    0.106730  -0.004306
    18  H    0.098318  -0.004301
 Sum of Mulliken charges =  -0.00000   1.00000
 Mulliken charges and spin densities with hydrogens summed into heavy atoms:
               1          2
     1  C   -0.100726   0.702272
     2  C   -0.001760  -0.070498
     3  C    0.196316  -0.001088
     7  O   -0.194262   0.017194
     8  O   -0.005499   0.295511
    11  C    0.065227   0.042930
    15  C    0.040704   0.013679
 APT charges:
               1
     1  C    0.397556
     2  C   -0.129601
     3  C    0.410986
     4  H   -0.037005
     5  H   -0.005577
     6  H   -0.028615
     7  O   -0.410711
     8  O    0.096577
     9  H   -0.274087
    10  H   -0.014649
    11  C   -0.058313
    12  H   -0.014595
    13  H    0.004645
    14  H    0.018914
    15  C    0.064468
    16  H    0.011979
    17  H   -0.015909
    18  H   -0.016064
 Sum of APT charges =  -0.00000
 APT charges with hydrogens summed into heavy atoms:
               1
     1  C    0.397556
     2  C   -0.144250
     3  C    0.339790
     7  O   -0.410711
     8  O   -0.177511
    11  C   -0.049348
    15  C    0.044474
 Electronic spatial extent (au):  <R**2>=           1087.4585
 Charge=             -0.0000 electrons
 Dipole moment (field-independent basis, Debye):
    X=             -1.6838    Y=             -0.3019    Z=             -2.1830  Tot=              2.7734
 Quadrupole moment (field-independent basis, Debye-Ang):
   XX=            -42.9522   YY=            -41.5719   ZZ=            -46.1824
   XY=             -2.0789   XZ=             -3.2939   YZ=              0.3186
 Traceless Quadrupole moment (field-independent basis, Debye-Ang):
   XX=              0.6166   YY=              1.9969   ZZ=             -2.6136
   XY=             -2.0789   XZ=             -3.2939   YZ=              0.3186
 Octapole moment (field-independent basis, Debye-Ang**2):
  XXX=             10.6688  YYY=              3.5980  ZZZ=              1.6292  XYY=              1.9639
  XXY=             -6.8950  XXZ=            -10.0119  XZZ=              4.7364  YZZ=              0.3447
  YYZ=              1.1098  XYZ=              1.2559
 Hexadecapole moment (field-independent basis, Debye-Ang**3):
 XXXX=           -799.2901 YYYY=           -460.1510 ZZZZ=           -153.7832 XXXY=             -8.0492
 XXXZ=             -7.3554 YYYX=             -4.3388 YYYZ=              1.8391 ZZZX=             -0.8227
 ZZZY=              1.5253 XXYY=           -208.5551 XXZZ=           -158.1842 YYZZ=            -99.2382
 XXYZ=             -4.4615 YYXZ=              1.8937 ZZXY=              1.3466
 N-N= 3.064223470925D+02 E-N=-1.423959933256D+03  KE= 3.452960492545D+02
  Exact polarizability: 105.861   0.000  83.216   3.740  -0.975  60.627
 Approx polarizability:  98.020   5.857  84.924   4.913  -0.693  74.050
                          Isotropic Fermi Contact Couplings
        Atom                 a.u.       MegaHertz       Gauss      10(-4) cm-1
     1  C(13)              0.14856     167.01232      59.59415      55.70931
     2  C(13)              0.01145      12.87463       4.59399       4.29451
     3  C(13)             -0.00292      -3.27707      -1.16934      -1.09311
     4  H(1)               0.00225      10.06732       3.59227       3.35810
     5  H(1)              -0.00010      -0.44316      -0.15813      -0.14782
     6  H(1)               0.00051       2.29658       0.81948       0.76605
     7  O(17)              0.01268      -7.68617      -2.74262      -2.56383
     8  O(17)              0.04179     -25.33572      -9.04042      -8.45109
     9  H(1)              -0.02331    -104.18238     -37.17486     -34.75150
    10  H(1)               0.02266     101.28687      36.14167      33.78566
    11  C(13)              0.01767      19.86410       7.08800       6.62595
    12  H(1)               0.01808      80.82652      28.84091      26.96082
    13  H(1)               0.00068       3.04975       1.08823       1.01729
    14  H(1)               0.00276      12.34030       4.40332       4.11628
    15  C(13)              0.01867      20.98876       7.48931       7.00110
    16  H(1)              -0.00026      -1.18294      -0.42210      -0.39459
    17  H(1)              -0.00071      -3.16701      -1.13007      -1.05640
    18  H(1)              -0.00075      -3.34631      -1.19405      -1.11621
 --------------------------------------------------------
       Center         ----  Spin Dipole Couplings  ----
                      3XX-RR        3YY-RR        3ZZ-RR
 --------------------------------------------------------
     1   Atom        0.354239     -0.229664     -0.124575
     2   Atom        0.022935      0.014020     -0.036955
     3   Atom        0.002506     -0.004564      0.002058
     4   Atom       -0.000885     -0.003468      0.004353
     5   Atom        0.001300     -0.002951      0.001650
     6   Atom        0.000401      0.000661     -0.001061
     7   Atom        0.231064     -0.129836     -0.101227
     8   Atom        0.624241     -0.492697     -0.131544
     9   Atom        0.149088     -0.088829     -0.060259
    10   Atom        0.006421     -0.001369     -0.005052
    11   Atom       -0.025899      0.053606     -0.027707
    12   Atom       -0.000323      0.004526     -0.004203
    13   Atom       -0.007677      0.012652     -0.004975
    14   Atom       -0.002238      0.006630     -0.004391
    15   Atom       -0.012696      0.029066     -0.016370
    16   Atom       -0.002763      0.009750     -0.006988
    17   Atom        0.000785      0.002119     -0.002904
    18   Atom       -0.002075      0.003938     -0.001863
 --------------------------------------------------------
                        XY            XZ            YZ
 --------------------------------------------------------
     1   Atom       -0.334675      0.397035     -0.181605
     2   Atom        0.041801      0.037719      0.009694
     3   Atom       -0.001581     -0.004038      0.004979
     4   Atom       -0.003336     -0.003188      0.005094
     5   Atom       -0.001304     -0.003971      0.001049
     6   Atom       -0.004536     -0.003422      0.003883
     7   Atom       -0.130017      0.171890     -0.016717
     8   Atom       -0.666979      0.984282     -0.464240
     9   Atom       -0.099663      0.125814     -0.048050
    10   Atom        0.001888      0.006183      0.000141
    11   Atom       -0.018317      0.003819     -0.021898
    12   Atom       -0.003249      0.006127     -0.004367
    13   Atom       -0.002173      0.001143      0.007570
    14   Atom        0.007626     -0.004239     -0.010087
    15   Atom        0.009036      0.000625     -0.004425
    16   Atom        0.003148      0.001779     -0.001851
    17   Atom        0.004372     -0.001316     -0.001904
    18   Atom        0.002565      0.001505      0.003235
 --------------------------------------------------------


 ---------------------------------------------------------------------------------
              Anisotropic Spin Dipole Couplings in Principal Axis System
 ---------------------------------------------------------------------------------

       Atom             a.u.   MegaHertz   Gauss  10(-4) cm-1        Axes

              Baa    -0.3819   -51.241   -18.284   -17.092  0.4034  0.9147  0.0231
     1 C(13)  Bbb    -0.3477   -46.660   -16.650   -15.564 -0.4248  0.1649  0.8901
              Bcc     0.7296    97.902    34.934    32.657  0.8104 -0.3689  0.4551
 
              Baa    -0.0569    -7.629    -2.722    -2.545 -0.4942  0.1750  0.8515
     2 C(13)  Bbb    -0.0150    -2.009    -0.717    -0.670 -0.4485  0.7878 -0.4222
              Bcc     0.0718     9.639     3.439     3.215  0.7447  0.5906  0.3108
 
              Baa    -0.0073    -0.975    -0.348    -0.325 -0.0624  0.8689 -0.4911
     3 C(13)  Bbb    -0.0008    -0.108    -0.039    -0.036  0.7875  0.3451  0.5106
              Bcc     0.0081     1.083     0.386     0.361 -0.6131  0.3549  0.7058
 
              Baa    -0.0066    -3.503    -1.250    -1.168  0.3446  0.8852 -0.3124
     4 H(1)   Bbb    -0.0023    -1.210    -0.432    -0.404  0.8430 -0.1455  0.5178
              Bcc     0.0088     4.713     1.682     1.572 -0.4129  0.4418  0.7964
 
              Baa    -0.0033    -1.772    -0.632    -0.591  0.3060  0.9510  0.0438
     5 H(1)   Bbb    -0.0024    -1.304    -0.465    -0.435  0.6635 -0.2460  0.7065
              Bcc     0.0058     3.076     1.098     1.026 -0.6827  0.1871  0.7063
 
              Baa    -0.0042    -2.255    -0.805    -0.752  0.2698  0.7400 -0.6162
     6 H(1)   Bbb    -0.0038    -2.021    -0.721    -0.674  0.7547  0.2349  0.6125
              Bcc     0.0080     4.276     1.526     1.426 -0.5980  0.6303  0.4951
 
              Baa    -0.2037    14.736     5.258     4.915 -0.4410 -0.6325  0.6368
     7 O(17)  Bbb    -0.1345     9.736     3.474     3.247 -0.0612  0.7291  0.6817
              Bcc     0.3382   -24.472    -8.732    -8.163  0.8954 -0.2616  0.3602
 
              Baa    -0.8117    58.731    20.957    19.591 -0.2518  0.5900  0.7672
     8 O(17)  Bbb    -0.8025    58.065    20.719    19.368  0.5882  0.7228 -0.3628
              Bcc     1.6141  -116.797   -41.676   -38.959  0.7685 -0.3599  0.5290
 
              Baa    -0.1257   -67.078   -23.935   -22.375  0.2072  0.9349  0.2881
     9 H(1)   Bbb    -0.1191   -63.520   -22.665   -21.188 -0.4683 -0.1638  0.8683
              Bcc     0.2448   130.598    46.600    43.563  0.8590 -0.3148  0.4039
 
              Baa    -0.0078    -4.168    -1.487    -1.390 -0.4075  0.0996  0.9077
    10 H(1)   Bbb    -0.0016    -0.855    -0.305    -0.285 -0.1099  0.9815 -0.1570
              Bcc     0.0094     5.024     1.793     1.676  0.9066  0.1638  0.3890
 
              Baa    -0.0334    -4.481    -1.599    -1.495  0.2042  0.2792  0.9383
    11 C(13)  Bbb    -0.0297    -3.981    -1.420    -1.328  0.9571  0.1444 -0.2513
              Bcc     0.0631     8.462     3.019     2.823 -0.2057  0.9493 -0.2377
 
              Baa    -0.0089    -4.757    -1.697    -1.587 -0.5394  0.1394  0.8304
    12 H(1)   Bbb    -0.0007    -0.377    -0.134    -0.126  0.6638  0.6771  0.3175
              Bcc     0.0096     5.134     1.832     1.712 -0.5181  0.7225 -0.4578
 
              Baa    -0.0096    -5.127    -1.829    -1.710  0.7068  0.2886 -0.6458
    13 H(1)   Bbb    -0.0060    -3.182    -1.136    -1.061  0.7038 -0.1955  0.6829
              Bcc     0.0156     8.309     2.965     2.772 -0.0708  0.9373  0.3414
 
              Baa    -0.0104    -5.542    -1.978    -1.849 -0.0505  0.5259  0.8490
    14 H(1)   Bbb    -0.0063    -3.338    -1.191    -1.113  0.9064 -0.3328  0.2601
              Bcc     0.0166     8.880     3.169     2.962  0.4194  0.7827 -0.4599
 
              Baa    -0.0175    -2.350    -0.838    -0.784 -0.4300  0.1677  0.8871
    15 C(13)  Bbb    -0.0138    -1.852    -0.661    -0.618  0.8806 -0.1389  0.4531
              Bcc     0.0313     4.201     1.499     1.401  0.1992  0.9760 -0.0880
 
              Baa    -0.0081    -4.325    -1.543    -1.443 -0.3972  0.1636  0.9030
    16 H(1)   Bbb    -0.0025    -1.336    -0.477    -0.446  0.8914 -0.1652  0.4220
              Bcc     0.0106     5.661     2.020     1.888  0.2183  0.9726 -0.0802
 
              Baa    -0.0036    -1.902    -0.679    -0.634 -0.1365  0.4074  0.9030
    17 H(1)   Bbb    -0.0029    -1.535    -0.548    -0.512  0.7662 -0.5344  0.3570
              Bcc     0.0064     3.437     1.226     1.147  0.6280  0.7405 -0.2392
 
              Baa    -0.0035    -1.885    -0.673    -0.629 -0.5565 -0.1618  0.8149
    18 H(1)   Bbb    -0.0029    -1.537    -0.548    -0.513  0.7629 -0.4881  0.4240
              Bcc     0.0064     3.422     1.221     1.141  0.3292  0.8576  0.3951
 

 ---------------------------------------------------------------------------------

 Calling FoFJK, ICntrl=  10100127 FMM=F ISym2X=0 I1Cent= 0 IOpClX= 1 NMat=1 NMatS=1 NMatT=0.
 ***** Axes restored to original set *****
 -------------------------------------------------------------------
 Center     Atomic                   Forces (Hartrees/Bohr)
 Number     Number              X              Y              Z
 -------------------------------------------------------------------
      1        6          -0.000091666   -0.000083297   -0.000151357
      2        6           0.000003059    0.000000713    0.000001651
      3        6          -0.000000199   -0.000001606    0.000000601
      4        1          -0.000000668   -0.000002362   -0.000001116
      5        1           0.000000627    0.000000788    0.000000435
      6        1          -0.000000739    0.000000618   -0.000000083
      7        8          -0.000040198   -0.000144772   -0.000022614
      8        8           0.000056265    0.000173814    0.000049394
      9        1          -0.000000290    0.000004742    0.000000050
     10        1           0.000000556   -0.000001207    0.000001232
     11        6           0.000074816    0.000055177    0.000123584
     12        1           0.000000816    0.000000490    0.000000960
     13        1          -0.000000348    0.000000389   -0.000000424
     14        1          -0.000000444   -0.000003096    0.000000530
     15        6           0.000000380    0.000001508   -0.000000535
     16        1          -0.000000262   -0.000003148   -0.000002595
     17        1          -0.000000973   -0.000000005    0.000000477
     18        1          -0.000000733    0.000001253   -0.000000189
 -------------------------------------------------------------------
 Cartesian Forces:  Max     0.000173814 RMS     0.000047367
 FormGI is forming the generalized inverse of G from B-inverse, IUseBI=4.

 GradGradGradGradGradGradGradGradGradGradGradGradGradGradGradGradGradGrad
 Berny optimization.
 Internal  Forces:  Max     0.000237659 RMS     0.000038491
 Search for a saddle point.
 Step number   1 out of a maximum of  108
 All quantities printed in internal units (Hartrees-Bohrs-Radians)
 Swapping is turned off.
 Second derivative matrix not updated -- analytic derivatives used.
 ITU=  0
     Eigenvalues ---   -0.06146   0.00157   0.00209   0.00282   0.00735
     Eigenvalues ---    0.00790   0.01615   0.01750   0.01907   0.03062
     Eigenvalues ---    0.03311   0.05515   0.05587   0.05805   0.05830
     Eigenvalues ---    0.06546   0.08479   0.08589   0.09844   0.11089
     Eigenvalues ---    0.12118   0.12334   0.13111   0.14282   0.14327
     Eigenvalues ---    0.15019   0.15189   0.16171   0.16808   0.17329
     Eigenvalues ---    0.18277   0.19868   0.26096   0.31762   0.31972
     Eigenvalues ---    0.32100   0.33214   0.33445   0.33464   0.33643
     Eigenvalues ---    0.33751   0.34272   0.34414   0.35019   0.35132
     Eigenvalues ---    0.35565   0.40600   0.64327
 Eigenvectors required to have negative eigenvalues:
                          R2        R11       A2        R10       A3
   1                   -0.75607   0.59802  -0.14759  -0.14569   0.08994
                          A14       A1        D22       A13       R3
   1                    0.08303   0.05769   0.05126   0.03251   0.03155
 RFO step:  Lambda0=5.380625737D-10 Lambda=-2.98515344D-05.
 Linear search not attempted -- option 19 set.
 Iteration  1 RMS(Cart)=  0.05621762 RMS(Int)=  0.00079316
 Iteration  2 RMS(Cart)=  0.00116624 RMS(Int)=  0.00000085
 Iteration  3 RMS(Cart)=  0.00000075 RMS(Int)=  0.00000078
 Variable       Old X    -DE/DX   Delta X   Delta X   Delta X     New X
                                 (Linear)    (Quad)   (Total)
    R1        2.48707  -0.00000   0.00000  -0.00006  -0.00006   2.48701
    R2        2.64197  -0.00001   0.00000   0.00003   0.00003   2.64200
    R3        2.79437   0.00000   0.00000  -0.00012  -0.00012   2.79425
    R4        2.06259  -0.00000   0.00000  -0.00003  -0.00003   2.06256
    R5        2.83370   0.00000   0.00000   0.00003   0.00003   2.83373
    R6        2.06293  -0.00000   0.00000   0.00005   0.00005   2.06298
    R7        2.05653   0.00000   0.00000   0.00001   0.00001   2.05655
    R8        2.05784  -0.00000   0.00000  -0.00006  -0.00006   2.05778
    R9        2.68182  -0.00000   0.00000   0.00019   0.00019   2.68201
   R10        2.67648  -0.00000   0.00000  -0.00003  -0.00003   2.67645
   R11        2.13375  -0.00000   0.00000   0.00016   0.00016   2.13392
   R12        2.06640   0.00000   0.00000   0.00000   0.00000   2.06640
   R13        2.05909  -0.00000   0.00000   0.00004   0.00004   2.05913
   R14        2.05943   0.00000   0.00000  -0.00002  -0.00002   2.05941
   R15        2.05415   0.00000   0.00000   0.00007   0.00007   2.05421
   R16        2.06082   0.00000   0.00000   0.00003   0.00003   2.06085
   R17        2.06117   0.00000   0.00000  -0.00009  -0.00009   2.06108
    A1        2.01885  -0.00000   0.00000  -0.00117  -0.00117   2.01768
    A2        2.35441  -0.00001   0.00000   0.00061   0.00061   2.35502
    A3        1.90974   0.00001   0.00000   0.00053   0.00053   1.91028
    A4        2.04620  -0.00000   0.00000   0.00048   0.00048   2.04669
    A5        2.20285  -0.00000   0.00000  -0.00076  -0.00076   2.20209
    A6        2.03411   0.00000   0.00000   0.00027   0.00027   2.03438
    A7        1.91875   0.00000   0.00000   0.00043   0.00043   1.91918
    A8        1.91870   0.00000   0.00000  -0.00045  -0.00045   1.91825
    A9        1.93254  -0.00000   0.00000  -0.00013  -0.00013   1.93241
   A10        1.92352   0.00000   0.00000   0.00010   0.00010   1.92362
   A11        1.83663   0.00000   0.00000   0.00018   0.00018   1.83681
   A12        1.93237   0.00000   0.00000  -0.00010  -0.00010   1.93227
   A13        1.87674  -0.00000   0.00000  -0.00072  -0.00072   1.87602
   A14        1.80084  -0.00001   0.00000  -0.00065  -0.00065   1.80020
   A15        1.92286  -0.00000   0.00000  -0.00006  -0.00006   1.92280
   A16        1.93957  -0.00000   0.00000   0.00012   0.00012   1.93969
   A17        1.93577   0.00000   0.00000   0.00038   0.00038   1.93615
   A18        1.89526   0.00000   0.00000   0.00019   0.00019   1.89544
   A19        1.89453  -0.00000   0.00000   0.00007   0.00007   1.89460
   A20        1.87436  -0.00000   0.00000  -0.00071  -0.00071   1.87364
   A21        1.93851  -0.00000   0.00000   0.00004   0.00004   1.93855
   A22        1.93253  -0.00000   0.00000   0.00031   0.00031   1.93284
   A23        1.93228   0.00000   0.00000  -0.00028  -0.00028   1.93201
   A24        1.89442   0.00000   0.00000   0.00019   0.00019   1.89461
   A25        1.89611   0.00000   0.00000  -0.00044  -0.00044   1.89567
   A26        1.86799  -0.00000   0.00000   0.00017   0.00017   1.86816
   A27        3.05934  -0.00008   0.00000  -0.00632  -0.00632   3.05302
   A28        3.07640  -0.00002   0.00000   0.00265   0.00265   3.07906
    D1       -3.14040   0.00003   0.00000  -0.00313  -0.00313   3.13966
    D2        0.00795   0.00003   0.00000  -0.00279  -0.00279   0.00516
    D3       -0.02167  -0.00003   0.00000  -0.00499  -0.00499  -0.02666
    D4        3.12667  -0.00002   0.00000  -0.00465  -0.00465   3.12202
    D5        2.14365   0.00017   0.00000   0.07054   0.07054   2.21419
    D6       -0.94586   0.00024   0.00000   0.07282   0.07282  -0.87304
    D7       -0.06461   0.00003   0.00000  -0.00142  -0.00142  -0.06602
    D8        2.03682   0.00003   0.00000  -0.00114  -0.00114   2.03568
    D9       -2.16265   0.00003   0.00000  -0.00171  -0.00172  -2.16436
   D10        3.05513  -0.00003   0.00000  -0.00321  -0.00321   3.05192
   D11       -1.12662  -0.00003   0.00000  -0.00294  -0.00294  -1.12956
   D12        0.95709  -0.00003   0.00000  -0.00351  -0.00351   0.95358
   D13       -0.02236   0.00000   0.00000  -0.00757  -0.00757  -0.02993
   D14        2.08377  -0.00000   0.00000  -0.00709  -0.00709   2.07668
   D15       -2.13047  -0.00000   0.00000  -0.00686  -0.00686  -2.13733
   D16        3.12594   0.00000   0.00000  -0.00723  -0.00723   3.11871
   D17       -1.05111   0.00000   0.00000  -0.00675  -0.00675  -1.05786
   D18        1.01784   0.00000   0.00000  -0.00652  -0.00652   1.01132
   D19        1.13606  -0.00000   0.00000  -0.00215  -0.00215   1.13391
   D20       -3.07469  -0.00000   0.00000  -0.00159  -0.00159  -3.07628
   D21       -0.99667   0.00000   0.00000  -0.00142  -0.00142  -0.99809
   D22       -1.54526   0.00001   0.00000  -0.00398  -0.00398  -1.54924
         Item               Value     Threshold  Converged?
 Maximum Force            0.000238     0.000450     YES
 RMS     Force            0.000038     0.000300     YES
 Maximum Displacement     0.195348     0.001800     NO 
 RMS     Displacement     0.056380     0.001200     NO 
 Predicted change in Energy=-1.508776D-05
 GradGradGradGradGradGradGradGradGradGradGradGradGradGradGradGradGradGrad

                          Input orientation:                          
 ---------------------------------------------------------------------
 Center     Atomic      Atomic             Coordinates (Angstroms)
 Number     Number       Type             X           Y           Z
 ---------------------------------------------------------------------
      1          6           0       -1.195063   -0.444382   -0.203507
      2          6           0       -1.768828    0.733401   -0.328663
      3          6           0        2.349298   -0.082911    0.305625
      4          1           0        1.562581    0.525835    0.755376
      5          1           0        3.006411   -0.472564    1.080686
      6          1           0        2.918690    0.513484   -0.405626
      7          8           0        1.798524   -1.227838   -0.326894
      8          8           0        0.999373   -0.775328   -1.405110
      9          1           0       -0.012093   -0.620173   -0.927614
     10          1           0       -2.695418    0.899449    0.223739
     11          6           0       -1.489364   -1.673082    0.564676
     12          1           0       -2.361597   -1.517235    1.205491
     13          1           0       -1.691714   -2.512770   -0.099627
     14          1           0       -0.643271   -1.951838    1.192427
     15          6           0       -1.275074    1.873667   -1.168085
     16          1           0       -0.338628    1.620867   -1.658820
     17          1           0       -2.007468    2.136206   -1.932276
     18          1           0       -1.118586    2.763056   -0.556468
 ---------------------------------------------------------------------
                    Distance matrix (angstroms):
                    1          2          3          4          5
     1  C    0.000000
     2  C    1.316070   0.000000
     3  C    3.598940   4.245898   0.000000
     4  H    3.076585   3.509488   1.091683   0.000000
     5  H    4.393442   5.122843   1.088277   1.785293   0.000000
     6  H    4.228631   4.693305   1.088931   1.785248   1.785808
     7  O    3.096868   4.070929   1.419257   2.074209   2.002676
     8  O    2.523673   3.331357   2.286559   2.584168   3.209213
     9  H    1.398088   2.297177   2.717664   2.573983   3.628557
    10  H    2.059002   1.091462   5.140127   4.307294   5.926858
    11  C    1.478656   2.582114   4.163061   3.766426   4.681827
    12  H    2.120635   2.787537   5.005955   4.447012   5.470140
    13  H    2.129715   3.255154   4.732676   4.533716   5.256231
    14  H    2.127330   3.284981   3.637964   3.345991   3.939660
    15  C    2.512004   1.499544   4.374482   3.683564   5.375211
    16  H    2.667709   2.145318   3.739900   3.262214   4.803815
    17  H    3.210619   2.143919   5.377182   4.749949   6.404889
    18  H    3.227706   2.143411   4.568255   3.730248   5.492277
                    6          7          8          9         10
     6  H    0.000000
     7  O    2.071997   0.000000
     8  O    2.518687   1.416318   0.000000
     9  H    3.185458   2.002113   1.129221   0.000000
    10  H    5.662445   5.002406   4.371443   3.291672   0.000000
    11  C    5.015326   3.435600   3.298459   2.349016   2.861595
    12  H    5.882257   4.442810   4.319929   3.297730   2.629760
    13  H    5.523375   3.726186   3.459037   2.662445   3.571447
    14  H    4.617267   2.965616   3.290844   2.581916   3.644106
    15  C    4.474271   4.446790   3.499495   2.805742   2.214419
    16  H    3.661545   3.802179   2.756151   2.379821   3.101441
    17  H    5.406562   5.327252   4.218534   3.548027   2.579001
    18  H    4.624167   4.948683   4.210238   3.578871   2.562841
                   11         12         13         14         15
    11  C    0.000000
    12  H    1.093491   0.000000
    13  H    1.089642   1.772898   0.000000
    14  H    1.089793   1.772483   1.755928   0.000000
    15  C    3.953203   4.279324   4.533875   4.539349   0.000000
    16  H    4.137419   4.705780   4.620485   4.581118   1.087042
    17  H    4.584090   4.828936   5.007123   5.323243   1.090557
    18  H    4.590616   4.792751   5.326492   5.051216   1.090676
                   16         17         18
    16  H    0.000000
    17  H    1.767874   0.000000
    18  H    1.768646   1.753824   0.000000
 Stoichiometry    C5H11O2(2)
 Framework group  C1[X(C5H11O2)]
 Deg. of freedom    48
 Full point group                 C1      NOp   1
 Largest Abelian subgroup         C1      NOp   1
 Largest concise Abelian subgroup C1      NOp   1
                         Standard orientation:                         
 ---------------------------------------------------------------------
 Center     Atomic      Atomic             Coordinates (Angstroms)
 Number     Number       Type             X           Y           Z
[...]
 02723,0.0216806,0.0410852,-0.1211631,0.0258218,-0.015424,-0.0335351,-0
 .0498181,0.0291165,-0.1303265,-0.0159858,0.0031539,0.1037622,0.0762719
 ,-0.035699,-0.6900119,0.0423208,0.1127296,0.1044843,-0.3916668,-0.0985
 188,-0.7176429,0.0689266,-0.1580959,0.7062515,-0.1966503,-0.2013286,-0
 .4105872,-0.1791403,0.0497685,0.4165458,-0.1607423,-0.238281,-0.932518
 ,0.1225579,0.1916412,0.1904915,0.1190114,-0.0135253,0.4801671,-0.03889
 64,-0.0019969,-0.0877314,0.0183092,0.1037736,0.1002343,0.0123204,0.024
 2287,0.1031169,0.0282854,0.0297569,-0.1918106,0.003161,0.0848376,0.233
 2188,-0.0407906,0.0345934,0.1310968,0.0986213,0.0548337,-0.0627361,-0.
 0024363,0.1026768,-0.0529486,0.0200165,0.0106746,0.1366541,0.0206271,0
 .0024642,0.0887095,-0.0486963,0.0079549,-0.0241782,-0.0705482,-0.02064
 51,-0.0363663,-0.0535818,-0.0049748,0.0142288,0.0210558,-0.0824669,0.0
 038297,0.0205647,0.0235233,-0.063823,0.0631957,0.0217368,0.0395357,0.0
 510815,0.0635195,-0.0408979,0.0575063,0.0600436,0.0952673,0.0423544,0.
 0986735,-0.0291549,-0.0204256,0.0748231,0.0370238,0.0325509,-0.0298287
 ,0.0426946,0.0126588,0.0327681,-0.0170565,0.0128469,-0.0929992,0.02950
 1,0.0022827,0.0441585,-0.0979054,0.1082263,-0.0343342,0.0822474,-0.069
 2826,0.0060606,0.0035545,-0.1160118,-0.0344485,-0.0210013,-0.0723441,-
 0.0151389\Polar=102.866942,-9.8597918,82.4867726,-3.6373486,-8.1875042
 ,64.5128653\PG=C01 [X(C5H11O2)]\NImag=1\\0.24086127,-0.17504384,0.7334
 7161,-0.01207622,-0.16172053,0.18840728,-0.15448108,0.20364636,-0.0131
 9579,0.48718663,0.18078299,-0.46047690,0.06224169,-0.19295949,0.718110
 96,-0.00416639,0.04799757,-0.06008139,-0.15138037,-0.12726687,0.295414
 90,-0.00510547,-0.00016195,0.00286316,0.00131647,0.00008946,-0.0009951
 0,0.56578462,-0.00811696,0.00246578,0.00462750,0.00236343,-0.00019137,
 -0.00168685,-0.05452780,0.51566677,-0.00485937,0.00181164,0.00332379,0
 .00142317,-0.00027156,-0.00102488,-0.01561980,-0.07292465,0.56455860,0
 .00076534,-0.00014697,-0.00013140,-0.00040627,0.00032129,0.00019916,-0
 .19794785,0.10399192,0.07899054,0.20420675,0.00253375,-0.00036306,-0.0
 0127928,-0.00068089,0.00023711,0.00043920,0.09833470,-0.11716793,-0.05
 084284,-0.10859853,0.13997356,0.00119919,-0.00025363,-0.00054405,-0.00
 041964,0.00011213,0.00024185,0.07696641,-0.04799756,-0.09257679,-0.083
 86582,0.06591846,0.09654228,0.00052760,-0.00007986,-0.00043967,-0.0001
 7567,-0.00009870,0.00016626,-0.14533514,0.05878659,-0.11078460,-0.0121
 2126,0.00842519,-0.01655760,0.15634672,0.00076682,-0.00018990,-0.00017
 151,-0.00026187,0.00000970,0.00021036,0.06638432,-0.09278137,0.0785448
 1,0.00832094,-0.00464756,0.01277778,-0.06272571,0.09417085,0.00079914,
 -0.00023053,-0.00029073,-0.00029523,0.00002512,0.00020815,-0.11065434,
 0.06927598,-0.18057373,0.00863381,-0.00421970,0.01136308,0.12914801,-0
 .07349596,0.19812221,0.00054909,0.00000399,-0.00050747,-0.00021833,-0.
 00018768,0.00021077,-0.12083255,-0.06578196,0.09230316,-0.01127400,-0.
 01198956,0.01788905,0.01224604,0.01135856,-0.01281440,0.12636195,0.001
 36926,-0.00051436,-0.00088484,-0.00035575,0.00009874,0.00027673,-0.066
 98932,-0.11749313,0.09072283,0.00952632,0.01103116,-0.01109243,-0.0054
 1013,-0.00457161,0.00743311,0.08270130,0.13955042,-0.00035504,0.000170
 97,0.00021293,0.00010415,0.00007879,-0.00008200,0.09557573,0.09876165,
 -0.17575878,0.00526207,0.00730874,-0.00722156,0.01237799,0.00988793,-0
 .01257321,-0.10002822,-0.09912482,0.18083356,0.01694140,-0.00089217,-0
 .01062381,-0.00491465,-0.00044340,0.00294919,-0.07717310,-0.05288510,-
 0.01583039,0.01313419,0.01335772,0.00264973,-0.01081224,-0.01797699,-0
 .01196687,-0.00850565,-0.02381414,-0.01489399,0.19905108,-0.00821053,0
 .00066598,0.00531356,0.00172764,-0.00021245,-0.00101278,-0.02724737,-0
 .20441707,-0.02420370,-0.01186099,-0.03050553,-0.01951067,0.00444522,0
 .00998611,0.00527583,-0.01696234,-0.03070816,-0.01554970,0.02366851,0.
 32927228,0.03132672,-0.00654754,-0.01878083,-0.00780811,0.00029418,0.0
 0542877,-0.01502174,-0.05609413,-0.07983659,-0.01199691,-0.02249766,-0
 .01090432,-0.01272790,-0.02143683,-0.01518327,-0.00080431,0.01058740,0
 .01121344,0.13439895,0.02281671,0.22882953,-0.12126220,0.02134589,0.07
 491376,0.01352736,-0.00546341,-0.00697539,-0.02700195,0.00623712,-0.03
 327227,0.00486201,0.00247001,0.00421539,-0.00052100,-0.00534383,-0.002
 31370,0.00298916,0.00479350,0.00141320,-0.08177259,0.01276418,-0.06096
 951,0.15805115,0.03017292,-0.00225304,-0.01741374,-0.00524380,0.001094
 17,0.00277442,-0.01160496,0.01583866,-0.02120469,-0.00197673,0.0008940
 7,-0.00017710,-0.00356283,-0.00189128,-0.00395745,0.00019618,0.0021993
 2,-0.00150162,0.03940606,-0.06735012,0.06155692,-0.01881209,0.05702204
 ,0.02225320,-0.00201051,-0.00591944,0.00356903,0.00149827,-0.00461442,
 -0.02735731,0.00696084,-0.03605628,0.00136940,0.00410287,0.00250400,-0
 .00144919,-0.00578199,-0.00080588,0.00317161,0.00148600,0.00393734,-0.
 07089063,0.03034433,-0.14818081,0.03615389,-0.03641264,0.25139223,0.09
 299400,-0.02359385,-0.06942337,-0.02257818,0.01185207,0.01367072,0.004
 88281,0.00775479,0.00678988,-0.00089728,-0.00306514,-0.00184674,0.0001
 3560,-0.00021254,-0.00028312,-0.00117435,-0.00150603,0.00038182,-0.041
 78196,0.01910563,-0.04867499,0.04034736,-0.02445617,0.02903979,-0.0561
 0228,-0.01887882,-0.01634892,0.00977724,0.01225577,-0.00316471,-0.0051
 0563,-0.00318641,-0.00037784,-0.00067196,0.00035218,0.00057122,-0.0001
 1784,0.00014341,-0.00027724,-0.00028181,0.00032119,0.00017296,0.000122
 68,0.01741191,-0.00647042,0.00841277,-0.01703174,-0.00769171,0.0039727
 1,0.01228818,0.03829855,-0.05380815,0.00879758,0.00572937,0.01006291,-
 0.00282313,-0.00091158,-0.00524672,-0.00067623,-0.00205324,0.00118977,
 0.00075190,0.00073316,0.00012004,-0.00053230,-0.00031266,0.00057213,0.
 00051515,-0.00046993,-0.01723542,-0.00168952,0.02325290,-0.00520879,0.
 01490052,-0.05971838,0.05657015,-0.02342372,0.03990801,-0.01273563,0.0
 0842544,0.01255998,-0.23045995,0.03369312,0.11582221,0.00033069,-0.000
 02542,-0.00002694,-0.00024208,-0.00005072,0.00003160,-0.00004415,-0.00
 001885,-0.00002498,-0.00004739,-0.00002353,0.00000934,-0.00022502,0.00
 031582,-0.00084210,-0.00046010,-0.00023871,0.00175450,0.00139640,0.001
 43821,0.00000717,0.24603611,0.02733168,-0.00806518,-0.01004786,0.03673
 891,-0.05278768,-0.01743330,-0.00042475,-0.00089077,-0.00050694,-0.000
 02122,0.00022193,0.00013364,0.00006986,0.00008715,0.00008159,0.0000764
 9,0.00013962,-0.00002506,0.00155821,-0.00046631,0.00213344,-0.00180230
 ,0.00135899,-0.00178559,0.00314816,-0.00162737,0.00022510,-0.04376228,
 0.05701900,0.00539479,0.00212190,0.00674898,0.11398198,-0.01472153,-0.
 10693109,0.00019555,-0.00034360,-0.00025077,-0.00026034,0.00005691,0.0
 0001153,-0.00000349,-0.00001219,0.00000949,-0.00008666,0.00004913,0.00
 003475,0.00018657,0.00007289,-0.00022287,0.00100696,0.00001296,0.00046
 724,-0.00087292,0.00070428,0.00257882,-0.13442751,0.01248228,0.1031257
 5,-0.06614094,-0.03482709,0.01484871,0.00724023,0.01481807,-0.00928262
 ,0.00079382,0.00209313,0.00108855,-0.00022532,-0.00072286,-0.00018488,
 -0.00026132,-0.00024717,-0.00028078,-0.00004301,-0.00032491,0.00011169
 ,-0.00270950,0.00172201,-0.00704245,0.01123758,-0.00470640,0.00337012,
 -0.01913815,-0.00436883,0.01408191,-0.00057193,-0.00204547,-0.00354042
 ,0.53869417,-0.02202185,-0.18056515,0.06799619,-0.00943538,-0.02161055
 ,0.01665536,-0.00069854,-0.00118004,-0.00071145,0.00019549,0.00027420,
 0.00004950,0.00022256,0.00012489,0.00017132,0.00016126,0.00021526,-0.0
 0009922,0.00162986,-0.00061494,0.00423451,-0.00413407,0.00241792,-0.00
 407973,0.00584599,-0.00146582,-0.00040231,-0.00222856,0.00156848,-0.00
 088540,-0.01929953,0.50815130,0.00908926,0.07547136,-0.10710325,0.0012
 4503,0.00038639,0.00109899,-0.00051659,-0.00080019,-0.00046691,0.00021
 362,0.00018390,0.00011307,0.00003175,0.00007528,0.00010038,0.00008024,
 0.00018700,-0.00007639,0.00124679,-0.00062452,0.00246683,-0.00613008,0
 .00156957,-0.00105627,0.01291082,0.00536182,-0.00704737,-0.00196293,-0
 .00175136,-0.00241463,0.01051902,0.03115689,0.51883296,-0.00697775,-0.
 00309698,0.00677594,0.00067082,0.00125984,-0.00144889,0.00017278,0.000
 31043,0.00017340,0.00001078,-0.00004808,-0.00000994,-0.00001527,-0.000
 01859,-0.00001896,-0.00002465,-0.00007018,0.00000040,-0.00045561,-0.00
 007804,-0.00015871,-0.00035622,0.00019177,0.00005786,0.00143869,-0.000
 77550,0.00013220,0.00076549,-0.00056133,0.00045317,-0.20833270,0.03403
 364,0.11740992,0.22661771,-0.02122631,-0.00018741,0.01744372,0.0005231
 3,0.00233219,-0.00155204,0.00032689,0.00059666,0.00027394,-0.00009584,
 -0.00018931,-0.00003510,-0.00009160,-0.00007821,-0.00008660,-0.0000268
 3,-0.00008105,0.00005114,-0.00090503,0.00066376,-0.00242057,0.00287746
 ,-0.00120305,0.00171820,-0.00422210,-0.00054528,0.00269029,0.00079985,
 -0.00055758,-0.00032980,0.02989920,-0.04994777,-0.02236984,-0.03384944
 ,0.05420734,0.01455016,0.00305226,-0.01259535,-0.00083752,-0.00236452,
 0.00115643,-0.00019753,-0.00033695,-0.00019655,0.00007253,0.00010900,0
 .00002392,0.00006302,0.00004144,0.00004480,0.00003626,0.00006057,-0.00
 002308,0.00060622,-0.00043195,0.00160681,-0.00138860,0.00052013,-0.001
 35405,0.00153378,0.00122515,-0.00046305,-0.00052734,0.00092753,0.00047
 218,0.11952707,-0.02623841,-0.13059644,-0.13392298,0.02286264,0.141398
 10,-0.00167555,-0.00529586,-0.00241957,-0.00006273,0.00059924,-0.00038
 042,0.00003507,-0.00013171,-0.00014838,0.00002367,0.00008547,0.0000064
 0,0.00003192,0.00001257,0.00001640,0.00001053,0.00005720,0.00002392,-0
 .00019341,0.00014811,0.00011978,-0.00001979,0.00034932,0.00000685,0.00
 060860,-0.00028990,-0.00012909,0.00062175,0.00025188,0.00070090,-0.054
 71631,-0.03762387,-0.02998528,0.00531528,0.02058044,0.01575658,0.05517
 010,-0.00298141,-0.02650683,-0.01301987,-0.00288460,-0.00032439,0.0013
 0911,0.00005530,-0.00008880,-0.00006147,0.00000503,-0.00001832,0.00003
 570,-0.00001283,0.00001755,0.00001102,0.00000494,0.00001396,-0.0000016
 5,-0.00020335,0.00013415,-0.00017745,-0.00004588,0.00018390,0.00021619
 ,0.00043896,-0.00009039,0.00009259,-0.00039512,0.00000680,-0.00049159,
 -0.03763084,-0.19820606,-0.12801216,-0.00059963,-0.00309304,-0.0020854
 5,0.04191940,0.22135579,0.00418185,0.01602983,0.01383163,0.00053029,0.
 00174427,-0.00093879,0.00006675,0.00010242,0.00002023,-0.00002047,0.00
 004180,-0.00003533,0.00001323,-0.00002365,-0.00002178,-0.00001981,-0.0
 0000146,0.00002772,-0.00014391,-0.00002700,-0.00013793,0.00036719,-0.0
 0024624,0.00004760,-0.00080522,0.00003039,0.00047310,0.00002155,0.0000
 2234,0.00007906,-0.02915223,-0.12602753,-0.14860178,-0.00439434,-0.012
 79297,-0.01110786,0.03291423,0.13563832,0.15988528,0.00814639,0.001105
 68,0.00569381,0.00003409,-0.00161616,0.00019266,-0.00022541,-0.0003495
 6,-0.00024907,0.00003423,0.00001486,0.00002135,-0.00000692,0.00000463,
 0.00002425,0.00005560,0.00008474,0.00000172,0.00002733,0.00003061,0.00
 027171,-0.00045522,0.00036053,-0.00032017,0.00101311,-0.00010667,-0.00
 013858,0.00007234,-0.00010420,-0.00000689,-0.20842412,0.04936257,-0.11
 900438,-0.01878433,0.00548096,-0.01494498,-0.00502450,0.00113741,-0.00
 271622,0.22372084,0.02339606,-0.01142275,0.01707737,-0.00219117,-0.001
 49871,0.00283493,-0.00030171,0.00000737,0.00013042,0.00000605,-0.00022
 479,0.00004033,-0.00004377,0.00001378,0.00000914,0.00007060,-0.0000565
 4,-0.00006822,0.00010855,0.00006689,-0.00075133,0.00005862,-0.00006270
 ,0.00061248,0.00020696,-0.00008674,-0.00019682,0.00016653,0.00058828,0
 .00052987,0.05078941,-0.05945022,0.03739962,0.00364152,-0.00212821,0.0
 0263211,-0.02020994,0.00685592,-0.01460775,-0.05488118,0.06890685,-0.0
 1230366,0.00840936,-0.01060494,0.00155709,-0.00048002,-0.00116247,0.00
 025057,0.00050097,0.00042688,0.00007093,-0.00004135,-0.00006885,-0.000
 00175,-0.00000996,-0.00002746,-0.00004699,-0.00014799,-0.00004285,-0.0
 0022800,-0.00053147,0.00072457,-0.00043998,-0.00012691,-0.00084097,-0.
 00012658,0.00047859,0.00013322,0.00012321,-0.00001337,0.00033983,-0.11
 957127,0.03579394,-0.13297908,0.01533375,-0.00527938,0.01180320,-0.016
 29343,0.00480583,-0.01233036,0.13156500,-0.04426123,0.14431899,0.00814
 148,0.00808694,-0.00911372,-0.09683530,-0.03385352,0.03373052,0.000283
 40,0.00033218,0.00011171,0.00010996,-0.00003044,-0.00013517,0.00002158
 ,-0.00004336,0.00001185,-0.00011282,-0.00003075,0.00002621,-0.00079522
 ,-0.00002350,-0.00031326,0.00153838,-0.00095649,-0.00001700,-0.0014969
 5,0.00149349,-0.00111078,-0.00541210,-0.02021901,0.01693161,0.00170149
 ,0.00471505,0.00562074,-0.00005676,-0.00027298,-0.00026850,0.00006821,
 0.00154033,-0.00107299,-0.00004393,-0.00063911,-0.00010115,0.56572927,
 -0.00266089,-0.03137728,0.01594716,-0.03605169,-0.15161338,0.06067980,
 -0.00000430,0.00032987,0.00016954,-0.00000552,-0.00005603,0.00002110,-
 0.00004949,-0.00000138,-0.00004501,0.00002155,-0.00004367,0.00000990,-
 0.00067674,-0.00004335,-0.00107918,0.00257498,-0.00077247,0.00027115,-
 0.00405680,0.00019223,0.00155269,0.00358460,0.00546913,-0.00219751,0.0
 0386072,0.00215724,0.00200360,-0.00044838,0.00004529,0.00017103,-0.000
 33708,0.00008837,-0.00016767,-0.00035417,-0.00124713,0.00075395,-0.031
 24433,0.51345178,-0.00506440,0.00817195,-0.00014422,0.03432395,0.05907
 098,-0.11899435,-0.00028553,0.00009096,0.00016452,0.00016641,-0.000030
 66,0.00008730,0.00000405,0.00006141,-0.00000653,0.00019520,-0.00006152
 ,-0.00006914,0.00022219,-0.00006696,0.00057641,-0.00191345,0.00109656,
 -0.00070823,0.00160481,-0.00171948,-0.00188294,0.00615761,0.01356041,-
 0.00427971,0.00700457,0.00129398,0.00781110,-0.00032359,0.00003175,-0.
 00028171,-0.00026703,0.00159563,-0.00100861,-0.00058634,-0.00176550,0.
 00067978,-0.00460946,0.03166209,0.52645601,0.00031821,0.00120312,-0.00
 089470,-0.00903397,0.00158749,0.00452918,0.00001271,0.00001069,-0.0001
 0342,-0.00001033,0.00000887,-0.00000650,-0.00001427,-0.00002006,0.0000
 2353,-0.00004798,0.00000662,0.00000606,0.00001806,0.00022662,0.0000758
 8,-0.00051284,0.00034536,-0.00029258,0.00053020,-0.00039132,0.00003913
 ,0.00065689,-0.00131687,0.00106581,0.00018486,-0.00013730,-0.00013462,
 0.00001077,0.00010588,-0.00006783,-0.00003018,-0.00004607,0.00004954,-
 0.00000621,-0.00002746,-0.00000212,-0.25048754,0.05555298,0.10488711,0
 .26965576,-0.00109758,0.00183008,-0.00015634,-0.02373631,0.00599826,0.
 01221793,0.00020841,0.00030257,0.00011582,0.00003366,-0.00003516,-0.00
 002723,-0.00003212,-0.00004938,-0.00002806,-0.00004358,-0.00002374,0.0
 0003202,-0.00007459,0.00007220,-0.00000271,0.00068208,-0.00034329,-0.0
 0064041,-0.00074957,-0.00088972,0.00068339,-0.00138495,-0.00357883,0.0
 0332530,0.00004903,-0.00015505,0.00000487,0.00015024,0.00002599,-0.000
 13788,-0.00002851,-0.00002474,0.00001955,0.00000959,-0.00002909,-0.000
 00307,0.05852903,-0.06447407,-0.03105616,-0.06077783,0.06968575,0.0003
 4208,-0.00179047,0.00022116,0.01596332,-0.00401497,-0.00951603,-0.0001
 4762,0.00036627,0.00021259,0.00008257,0.00001632,-0.00023219,0.0000463
 5,-0.00011273,-0.00003556,-0.00009985,0.00002232,0.00004355,-0.0001121
 6,-0.00012751,-0.00043422,-0.00005550,-0.00084742,0.00037536,0.0000117
 9,0.00079365,0.00007768,0.00129331,0.00327509,-0.00063786,-0.00024625,
 0.00010673,-0.00007420,-0.00009495,-0.00008499,0.00009825,-0.00002549,
 -0.00000734,0.00002230,0.00003757,0.00006128,-0.00005189,0.10339902,-0
 .02918119,-0.10230841,-0.11598067,0.02922724,0.10859406,-0.00021328,-0
 .00059859,0.00062281,0.01026922,-0.00222481,0.00973422,0.00007178,-0.0
 0018701,-0.00011425,-0.00006090,-0.00003042,0.00011911,-0.00001780,0.0
 0005819,0.00001115,0.00006343,-0.00001053,-0.00002271,0.00007038,0.000
 19060,0.00017060,-0.00000309,0.00037684,-0.00017669,-0.00015891,-0.000
 40998,-0.00008276,0.00016105,0.00070099,-0.00068140,-0.00011664,-0.000
 52589,-0.00085859,0.00004171,0.00005927,0.00003475,-0.00004087,-0.0002
 9637,0.00015259,-0.00002662,0.00006584,0.00005965,-0.16927278,0.040666
 06,-0.12269674,-0.01731773,0.00497163,-0.02030944,0.18031355,-0.002038
 13,0.00015847,0.00286706,0.01843494,-0.01143847,0.01988850,-0.00012882
 ,-0.00023928,-0.00014005,-0.00005085,0.00000483,0.00003810,0.00000843,
 0.00002105,0.00002124,0.00002851,0.00002921,-0.00002147,0.00038340,-0.
 00007415,0.00036424,-0.00053503,0.00025229,-0.00009194,0.00070455,0.00
 002135,0.00007706,-0.00065754,0.00051339,-0.00116975,-0.00083252,-0.00
 156307,-0.00172247,0.00004928,0.00009327,0.00003973,-0.00000473,-0.000
 50748,0.00038543,0.00003789,0.00025244,-0.00006437,0.04230572,-0.05619
 682,0.04201964,0.00489891,-0.00272028,0.00572647,-0.04367555,0.0648597
 1,0.00190919,-0.00066569,-0.00163428,-0.01171728,0.00674777,-0.0118572
 3,0.00013253,0.00015061,0.00005180,0.00001979,-0.00000865,-0.00002964,
 -0.00001613,-0.00002099,-0.00001131,-0.00005491,-0.00001669,0.00002493
 ,-0.00028086,-0.00000440,-0.00033191,0.00038924,-0.00038937,0.00029204
 ,-0.00034434,0.00020130,-0.00000954,0.00055592,-0.00005934,0.00060678,
 0.00022086,0.00097471,0.00110510,-0.00003561,-0.00006901,-0.00004252,0
 .00002095,0.00031165,-0.00028252,0.00003185,-0.00010551,-0.00007221,-0
 .12425444,0.04164671,-0.17472567,0.01014373,-0.00358342,0.01197253,0.1
 3667292,-0.04908290,0.18895486,-0.00065288,-0.00008027,0.00054755,-0.0
 0107869,-0.00815640,-0.00657571,-0.00006267,0.00012522,0.00012809,0.00
 003835,-0.00001394,-0.00007193,0.00001558,-0.00003707,-0.00001576,0.00
 000494,-0.00000368,0.00000566,0.00009650,0.00003783,-0.00000365,-0.000
 18800,0.00015920,-0.00024267,-0.00001871,-0.00026517,0.00018487,0.0001
 5762,0.00038126,-0.00003770,0.00082780,-0.00006144,0.00022530,-0.00004
 074,0.00003703,-0.00002508,-0.00012181,-0.00000529,0.00002797,-0.00010
 668,-0.00021581,0.00015472,-0.05308038,-0.03037151,-0.01881936,0.00607
 359,0.02329138,0.01589590,-0.00376251,-0.01892847,-0.01339340,0.051898
 70,-0.00407716,-0.00032114,0.00140248,-0.00188924,-0.02456253,-0.01122
 644,-0.00012315,-0.00038009,-0.00022968,0.00000377,-0.00000040,0.00008
 484,0.00000580,0.00005686,0.00004079,0.00004737,0.00004159,-0.00003205
 ,0.00034727,0.00000115,0.00060724,-0.00063551,0.00030632,-0.00038022,0
 .00051691,-0.00022014,-0.00054224,0.00036210,0.00100095,0.00079586,0.0
 0177404,-0.00015062,0.00148022,-0.00009058,0.00004641,-0.00004644,-0.0
 0008203,0.00020362,-0.00012008,-0.00021754,-0.00048464,0.00021649,-0.0
 2968927,-0.21590832,-0.12395508,-0.00122963,-0.00559151,-0.00342874,0.
 00086973,0.00653354,0.00397323,0.03410712,0.23942894,0.00158765,0.0011
 8447,-0.00077667,0.00289303,0.01974302,0.01256513,-0.00000842,0.000022
 97,0.00003610,0.00000434,-0.00000897,-0.00000745,0.00000962,-0.0000009
 2,-0.00000600,0.00000422,-0.00001049,-0.00001130,-0.00005358,-0.000043
 12,-0.00008653,0.00020765,-0.00015390,0.00023892,-0.00013630,0.0002398
 7,-0.00001755,-0.00052458,-0.00121859,0.00026252,-0.00147161,0.0000109
 2,-0.00111210,0.00007133,-0.00005137,0.00005692,0.00008268,-0.00015906
 ,0.00007806,0.00012672,0.00042882,-0.00024538,-0.01883520,-0.12221815,
 -0.13136561,-0.00333753,-0.00999085,-0.00832713,-0.00263521,-0.0191345
 0,-0.01401120,0.02201520,0.13135984,0.14272926\\0.00000020,-0.00000006
 ,0.00000042,-0.00000002,0.00000066,-0.00000030,0.00000031,-0.00000003,
 0.00000008,-0.00000053,0.,-0.00000037,0.00000014,-0.00000031,-0.000000
 13,0.,-0.00000043,-0.00000009,0.00000018,-0.00000038,-0.00000083,0.000
 00090,0.00000020,0.00000015,-0.00000098,-0.00000121,0.00000035,-0.0000
 0019,0.00000025,-0.00000033,-0.00000084,0.00000081,0.00000134,-0.00000
 017,0.00000040,-0.00000002,-0.00000010,0.00000020,0.00000008,0.0000000
 5,-0.00000037,-0.00000082,0.00000039,0.00000041,0.00000045,0.00000025,
 -0.00000018,0.00000021,0.00000019,0.,-0.00000002,0.00000020,0.00000002
 ,-0.00000018\\\@


 ABSOLUTISM, OBSOLETISM -- IF IT WORKS, IT'S OUT OF DATE

                          -- STAFFORD BEER
 Job cpu time:       3 days  4 hours  4 minutes 30.8 seconds.
 Elapsed time:       0 days  1 hours 57 minutes 57.2 seconds.
 File lengths (MBytes):  RWF= 108510 Int=      0 D2E=      0 Chk=     21 Scr=      1
 Normal termination of Gaussian 16 at Mon Jun 24 14:41:56 2019.
