 Entering Gaussian System, Link 0=g16
 Initial command:
 /ichec/packages/gaussian/16b01/l1.exe "/localscratch/341085/Gau-39181.inp" -scrdir="/localscratch/341085/"
 Entering Link 1 = /ichec/packages/gaussian/16b01/l1.exe PID=     39402.
  
 Copyright (c) 1988-2017, Gaussian, Inc.  All Rights Reserved.
  
 This is part of the Gaussian(R) 16 program.  It is based on
 the Gaussian(R) 09 system (copyright 2009, Gaussian, Inc.),
 the Gaussian(R) 03 system (copyright 2003, Gaussian, Inc.),
 the Gaussian(R) 98 system (copyright 1998, Gaussian, Inc.),
 the Gaussian(R) 94 system (copyright 1995, Gaussian, Inc.),
 the Gaussian 92(TM) system (copyright 1992, Gaussian, Inc.),
 the Gaussian 90(TM) system (copyright 1990, Gaussian, Inc.),
 the Gaussian 88(TM) system (copyright 1988, Gaussian, Inc.),
 the Gaussian 86(TM) system (copyright 1986, Carnegie Mellon
 University), and the Gaussian 82(TM) system (copyright 1983,
 Carnegie Mellon University). Gaussian is a federally registered
 trademark of Gaussian, Inc.
  
 This software contains proprietary and confidential information,
 including trade secrets, belonging to Gaussian, Inc.
  
 This software is provided under written license and may be
 used, copied, transmitted, or stored only in accord with that
 written license.
  
 The following legend is applicable only to US Government
 contracts under FAR:
  
                    RESTRICTED RIGHTS LEGEND
  
 Use, reproduction and disclosure by the US Government is
 subject to restrictions as set forth in subparagraphs (a)
 and (c) of the Commercial Computer Software - Restricted
 Rights clause in FAR 52.227-19.
  
 Gaussian, Inc.
 340 Quinnipiac St., Bldg. 40, Wallingford CT 06492
  
  
 ---------------------------------------------------------------
 Warning -- This program may not be used in any manner that
 competes with the business of Gaussian, Inc. or will provide
 assistance to any competitor of Gaussian, Inc.  The licensee
 of this program is prohibited from giving any competitor of
 Gaussian, Inc. access to this program.  By using this program,
 the user acknowledges that Gaussian, Inc. is engaged in the
 business of creating and licensing software in the field of
 computational chemistry and represents and warrants to the
 licensee that it is not a competitor of Gaussian, Inc. and that
 it will not use this program in any manner prohibited above.
 ---------------------------------------------------------------
  

 Cite this work as:
 Gaussian 16, Revision B.01,
 M. J. Frisch, G. W. Trucks, H. B. Schlegel, G. E. Scuseria, 
 M. A. Robb, J. R. Cheeseman, G. Scalmani, V. Barone, 
 G. A. Petersson, H. Nakatsuji, X. Li, M. Caricato, A. V. Marenich, 
 J. Bloino, B. G. Janesko, R. Gomperts, B. Mennucci, H. P. Hratchian, 
 J. V. Ortiz, A. F. Izmaylov, J. L. Sonnenberg, D. Williams-Young, 
 F. Ding, F. Lipparini, F. Egidi, J. Goings, B. Peng, A. Petrone, 
 T. Henderson, D. Ranasinghe, V. G. Zakrzewski, J. Gao, N. Rega, 
 G. Zheng, W. Liang, M. Hada, M. Ehara, K. Toyota, R. Fukuda, 
 J. Hasegawa, M. Ishida, T. Nakajima, Y. Honda, O. Kitao, H. Nakai, 
 T. Vreven, K. Throssell, J. A. Montgomery, Jr., J. E. Peralta, 
 F. Ogliaro, M. J. Bearpark, J. J. Heyd, E. N. Brothers, K. N. Kudin, 
 V. N. Staroverov, T. A. Keith, R. Kobayashi, J. Normand, 
 K. Raghavachari, A. P. Rendell, J. C. Burant, S. S. Iyengar, 
 J. Tomasi, M. Cossi, J. M. Millam, M. Klene, C. Adamo, R. Cammi, 
 J. W. Ochterski, R. L. Martin, K. Morokuma, O. Farkas, 
 J. B. Foresman, and D. J. Fox, Gaussian, Inc., Wallingford CT, 2016.
 
 ******************************************
 Gaussian 16:  ES64L-G16RevB.01 20-Dec-2017
                 7-Jun-2019 
 ******************************************
 %mem=80GB
 %nproc=40
 Will use up to   40 processors via shared memory.
 ----------------------------------------------------------------------
 # opt=(calcfc,ts,noeigentest,maxcyc=500) freq=noraman uB2PLYPD3/cc-pvt
 z
 ----------------------------------------------------------------------
 1/5=1,6=500,10=4,11=1,18=20,38=1/1,3;
 2/9=110,12=2,17=6,18=5,40=1/2;
 3/5=16,6=1,11=2,25=1,30=1,71=2,74=-60,116=2,140=1/1,2,3;
 4//1;
 5/5=2,38=5/2;
 8/6=3,8=1,10=1,19=11,30=-1/1;
 9/15=3,16=-3/6;
 11/6=1,8=1,15=11,17=12,24=-1,27=1,28=-2,29=300,32=6,42=3/1,2,10;
 10/6=2,21=1/2;
 8/6=4,8=1,10=1,19=11,30=-1/11,4;
 10/5=1,20=4/2;
 11/12=2,14=11,16=1,17=2,28=-2,42=3,76=2/2,10,12;
 6/7=2,8=2,9=2,10=2/1;
 7/10=1,12=2,25=1,44=2/1,2,3,16;
 1/5=1,6=500,10=4,11=1,18=20/3(2);
 2/9=110/2;
 99//99;
 2/9=110/2;
 3/5=16,6=1,11=2,25=1,30=1,71=1,74=-60,116=2/1,2,3;
 4/5=5,16=3,69=1/1;
 5/5=2,38=5/2;
 8/6=4,10=1/1;
 9/15=2,16=-3/6;
 10/5=1/2;
 7/12=2/1,2,3,16;
 1/5=1,6=500,11=1,18=20/3(-8);
 2/9=110/2;
 6/7=2,8=2,9=2,10=2/1;
 99/9=10/99;
 -------------------
 Title Card Required
 -------------------
 Symbolic Z-matrix:
 Charge =  0 Multiplicity = 2
 C                     1.13178   0.53342   0.0793 
 C                     1.73087  -0.57539  -0.28959 
 C                    -2.26428   0.3088   -0.82578 
 H                    -1.42889   0.77158  -1.35859 
 H                    -2.84087  -0.31027  -1.51055 
 H                    -2.89772   1.07832  -0.38449 
 O                    -1.7832   -0.56651   0.17134 
 O                    -1.13108   0.18842   1.13395 
 H                    -0.08358   0.33404   0.71185 
 H                     2.68281  -0.47233  -0.81615 
 C                     1.46446   1.97081  -0.05229 
 H                     2.41269   2.08653  -0.58456 
 H                     0.69095   2.50731  -0.60311 
 H                     1.55916   2.44422   0.92529 
 C                     1.24336  -1.97255  -0.05088 
 H                     0.30032  -1.97262   0.48979 
 H                     1.10135  -2.49559  -0.99773 
 H                     1.98088  -2.53704   0.52137 
 
 Add virtual bond connecting atoms H9         and O8         Dist= 2.15D+00.
 Add virtual bond connecting atoms H9         and C1         Dist= 2.62D+00.

 GradGradGradGradGradGradGradGradGradGradGradGradGradGradGradGradGradGrad
 Berny optimization.
 Initialization pass.
                           ----------------------------
                           !    Initial Parameters    !
                           ! (Angstroms and Degrees)  !
 --------------------------                            --------------------------
 ! Name  Definition              Value          Derivative Info.                !
 --------------------------------------------------------------------------------
 ! R1    R(1,2)                  1.3132         calculate D2E/DX2 analytically  !
 ! R2    R(1,9)                  1.3845         calculate D2E/DX2 analytically  !
 ! R3    R(1,11)                 1.4812         calculate D2E/DX2 analytically  !
 ! R4    R(2,10)                 1.0927         calculate D2E/DX2 analytically  !
 ! R5    R(2,15)                 1.4989         calculate D2E/DX2 analytically  !
 ! R6    R(3,4)                  1.0936         calculate D2E/DX2 analytically  !
 ! R7    R(3,5)                  1.0884         calculate D2E/DX2 analytically  !
 ! R8    R(3,6)                  1.09           calculate D2E/DX2 analytically  !
 ! R9    R(3,7)                  1.4113         calculate D2E/DX2 analytically  !
 ! R10   R(7,8)                  1.3863         calculate D2E/DX2 analytically  !
 ! R11   R(8,9)                  1.1387         calculate D2E/DX2 analytically  !
 ! R12   R(11,12)                1.0935         calculate D2E/DX2 analytically  !
 ! R13   R(11,13)                1.0907         calculate D2E/DX2 analytically  !
 ! R14   R(11,14)                1.0903         calculate D2E/DX2 analytically  !
 ! R15   R(15,16)                1.087          calculate D2E/DX2 analytically  !
 ! R16   R(15,17)                1.091          calculate D2E/DX2 analytically  !
 ! R17   R(15,18)                1.0909         calculate D2E/DX2 analytically  !
 ! A1    A(2,1,9)              114.0294         calculate D2E/DX2 analytically  !
 ! A2    A(2,1,11)             133.7848         calculate D2E/DX2 analytically  !
 ! A3    A(9,1,11)             112.1779         calculate D2E/DX2 analytically  !
 ! A4    A(1,2,10)             116.9465         calculate D2E/DX2 analytically  !
 ! A5    A(1,2,15)             126.4371         calculate D2E/DX2 analytically  !
 ! A6    A(10,2,15)            116.6146         calculate D2E/DX2 analytically  !
 ! A7    A(4,3,5)              109.8065         calculate D2E/DX2 analytically  !
 ! A8    A(4,3,6)              110.0243         calculate D2E/DX2 analytically  !
 ! A9    A(4,3,7)              110.2604         calculate D2E/DX2 analytically  !
 ! A10   A(5,3,6)              110.3892         calculate D2E/DX2 analytically  !
 ! A11   A(5,3,7)              105.8024         calculate D2E/DX2 analytically  !
 ! A12   A(6,3,7)              110.4819         calculate D2E/DX2 analytically  !
 ! A13   A(3,7,8)              108.2516         calculate D2E/DX2 analytically  !
 ! A14   A(7,8,9)              104.1806         calculate D2E/DX2 analytically  !
 ! A15   A(1,11,12)            109.9184         calculate D2E/DX2 analytically  !
 ! A16   A(1,11,13)            111.2796         calculate D2E/DX2 analytically  !
 ! A17   A(1,11,14)            111.1736         calculate D2E/DX2 analytically  !
 ! A18   A(12,11,13)           108.4877         calculate D2E/DX2 analytically  !
 ! A19   A(12,11,14)           108.3699         calculate D2E/DX2 analytically  !
 ! A20   A(13,11,14)           107.5078         calculate D2E/DX2 analytically  !
 ! A21   A(2,15,16)            111.1881         calculate D2E/DX2 analytically  !
 ! A22   A(2,15,17)            110.5489         calculate D2E/DX2 analytically  !
 ! A23   A(2,15,18)            110.2423         calculate D2E/DX2 analytically  !
 ! A24   A(16,15,17)           108.5847         calculate D2E/DX2 analytically  !
 ! A25   A(16,15,18)           108.9998         calculate D2E/DX2 analytically  !
 ! A26   A(17,15,18)           107.1683         calculate D2E/DX2 analytically  !
 ! A27   L(1,9,8,4,-1)         174.4269         calculate D2E/DX2 analytically  !
 ! A28   L(1,9,8,4,-2)         179.8504         calculate D2E/DX2 analytically  !
 ! D1    D(9,1,2,10)           178.5137         calculate D2E/DX2 analytically  !
 ! D2    D(9,1,2,15)            -1.9845         calculate D2E/DX2 analytically  !
 ! D3    D(11,1,2,10)           -0.3579         calculate D2E/DX2 analytically  !
 ! D4    D(11,1,2,15)          179.1439         calculate D2E/DX2 analytically  !
 ! D5    D(2,1,8,7)            -53.9183         calculate D2E/DX2 analytically  !
 ! D6    D(11,1,8,7)           123.0736         calculate D2E/DX2 analytically  !
 ! D7    D(2,1,11,12)            0.739          calculate D2E/DX2 analytically  !
 ! D8    D(2,1,11,13)          120.9433         calculate D2E/DX2 analytically  !
 ! D9    D(2,1,11,14)         -119.2496         calculate D2E/DX2 analytically  !
 ! D10   D(9,1,11,12)         -178.1481         calculate D2E/DX2 analytically  !
 ! D11   D(9,1,11,13)          -57.9438         calculate D2E/DX2 analytically  !
 ! D12   D(9,1,11,14)           61.8633         calculate D2E/DX2 analytically  !
 ! D13   D(1,2,15,16)           -0.3275         calculate D2E/DX2 analytically  !
 ! D14   D(1,2,15,17)          120.3594         calculate D2E/DX2 analytically  !
 ! D15   D(1,2,15,18)         -121.3318         calculate D2E/DX2 analytically  !
 ! D16   D(10,2,15,16)         179.1758         calculate D2E/DX2 analytically  !
 ! D17   D(10,2,15,17)         -60.1373         calculate D2E/DX2 analytically  !
 ! D18   D(10,2,15,18)          58.1715         calculate D2E/DX2 analytically  !
 ! D19   D(4,3,7,8)             66.1717         calculate D2E/DX2 analytically  !
 ! D20   D(5,3,7,8)           -175.1529         calculate D2E/DX2 analytically  !
 ! D21   D(6,3,7,8)            -55.6658         calculate D2E/DX2 analytically  !
 ! D22   D(3,7,8,9)            -83.4921         calculate D2E/DX2 analytically  !
 --------------------------------------------------------------------------------
 Trust Radius=3.00D-01 FncErr=1.00D-07 GrdErr=1.00D-07 EigMax=2.50D+02 EigMin=1.00D-04
 Number of steps in this run=    108 maximum allowed number of steps=    108.
 Search for a saddle point of order  1.
 GradGradGradGradGradGradGradGradGradGradGradGradGradGradGradGradGradGrad

                          Input orientation:                          
 ---------------------------------------------------------------------
 Center     Atomic      Atomic             Coordinates (Angstroms)
 Number     Number       Type             X           Y           Z
 ---------------------------------------------------------------------
      1          6           0        1.131779    0.533423    0.079300
      2          6           0        1.730867   -0.575389   -0.289589
      3          6           0       -2.264278    0.308799   -0.825775
      4          1           0       -1.428890    0.771581   -1.358586
      5          1           0       -2.840866   -0.310270   -1.510551
      6          1           0       -2.897723    1.078318   -0.384491
      7          8           0       -1.783197   -0.566511    0.171339
      8          8           0       -1.131081    0.188416    1.133947
      9          1           0       -0.083577    0.334037    0.711850
     10          1           0        2.682808   -0.472331   -0.816152
     11          6           0        1.464461    1.970813   -0.052292
     12          1           0        2.412691    2.086534   -0.584555
     13          1           0        0.690953    2.507312   -0.603105
     14          1           0        1.559163    2.444217    0.925292
     15          6           0        1.243360   -1.972545   -0.050883
     16          1           0        0.300315   -1.972616    0.489791
     17          1           0        1.101345   -2.495591   -0.997726
     18          1           0        1.980879   -2.537044    0.521366
 ---------------------------------------------------------------------
                    Distance matrix (angstroms):
                    1          2          3          4          5
     1  C    0.000000
     2  C    1.313183   0.000000
     3  C    3.521764   4.126799   0.000000
     4  H    2.946398   3.597381   1.093585   0.000000
     5  H    4.361348   4.739386   1.088402   1.785265   0.000000
     6  H    4.092542   4.916055   1.090020   1.788972   1.788692
     7  O    3.116955   3.544175   1.411327   2.063176   2.003267
     8  O    2.520287   3.286427   2.266967   2.577109   3.188326
     9  H    1.384545   2.263215   2.668405   2.507592   3.599561
    10  H    2.054037   1.092740   5.008385   4.329851   5.569509
    11  C    1.481244   2.571075   4.155004   3.393529   5.085833
    12  H    2.119810   2.763643   5.009248   4.133518   5.848248
    13  H    2.134536   3.268449   3.690045   2.842050   4.608250
    14  H    2.132954   3.259362   4.716455   4.116099   5.734177
    15  C    2.511827   1.498896   4.255410   4.047374   4.644856
    16  H    2.672090   2.146196   3.675963   3.733265   4.078208
    17  H    3.214940   2.141245   4.384243   4.148099   4.536479
    18  H    3.216234   2.137345   5.285354   5.109574   5.686513
                    6          7          8          9         10
     6  H    0.000000
     7  O    2.063148   0.000000
     8  O    2.493713   1.386284   0.000000
     9  H    3.110520   1.997961   1.138699   0.000000
    10  H    5.808026   4.574845   4.334192   3.261580   0.000000
    11  C    4.464925   4.127385   3.364661   2.378943   2.834926
    12  H    5.408976   5.021504   4.372004   3.314101   2.583484
    13  H    3.868903   4.021140   3.422636   2.655584   3.590424
    14  H    4.842008   4.561173   3.517042   2.682725   3.577912
    15  C    5.154379   3.344602   3.422213   2.768184   2.215466
    16  H    4.505554   2.533686   2.670934   2.348900   3.103645
    17  H    5.398280   3.661782   4.090434   3.511906   2.574408
    18  H    6.139395   4.263073   4.181828   3.541380   2.558261
                   11         12         13         14         15
    11  C    0.000000
    12  H    1.093543   0.000000
    13  H    1.090661   1.772507   0.000000
    14  H    1.090298   1.770900   1.758911   0.000000
    15  C    3.949552   4.257730   4.547441   4.534362   0.000000
    16  H    4.147255   4.700325   4.627826   4.613326   1.087043
    17  H    4.579789   4.783953   5.035195   5.320648   1.090989
    18  H    4.573461   4.773573   5.326713   5.015373   1.090900
                   16         17         18
    16  H    0.000000
    17  H    1.768575   0.000000
    18  H    1.773097   1.755830   0.000000
 Stoichiometry    C5H11O2(2)
 Framework group  C1[X(C5H11O2)]
 Deg. of freedom    48
 Full point group                 C1      NOp   1
 Largest Abelian subgroup         C1      NOp   1
 Largest concise Abelian subgroup C1      NOp   1
                         Standard orientation:                         
 ---------------------------------------------------------------------
 Center     Atomic      Atomic             Coordinates (Angstroms)
 Number     Number       Type             X           Y           Z
 ---------------------------------------------------------------------
      1          6           0       -1.131779   -0.533423    0.079300
      2          6           0       -1.730867    0.575389   -0.289589
      3          6           0        2.264278   -0.308799   -0.825775
      4          1           0        1.428890   -0.771581   -1.358586
      5          1           0        2.840866    0.310269   -1.510551
      6          1           0        2.897723   -1.078319   -0.384491
      7          8           0        1.783197    0.566511    0.171339
      8          8           0        1.131081   -0.188416    1.133947
      9          1           0        0.083577   -0.334037    0.711850
     10          1           0       -2.682808    0.472331   -0.816152
     11          6           0       -1.464461   -1.970813   -0.052292
     12          1           0       -2.412691   -2.086534   -0.584555
     13          1           0       -0.690953   -2.507312   -0.603105
     14          1           0       -1.559163   -2.444217    0.925292
     15          6           0       -1.243360    1.972545   -0.050883
     16          1           0       -0.300315    1.972616    0.489791
     17          1           0       -1.101345    2.495591   -0.997726
     18          1           0       -1.980878    2.537044    0.521366
 ---------------------------------------------------------------------
 Rotational constants (GHZ):           2.7792950           1.6451921           1.2279298
 Standard basis: CC-pVTZ (5D, 7F)
 There are   410 symmetry adapted cartesian basis functions of A   symmetry.
 There are   364 symmetry adapted basis functions of A   symmetry.
   364 basis functions,   551 primitive gaussians,   410 cartesian basis functions
    29 alpha electrons       28 beta electrons
       nuclear repulsion energy       309.8617094867 Hartrees.
 NAtoms=   18 NActive=   18 NUniq=   18 SFac= 1.00D+00 NAtFMM=   60 NAOKFM=F Big=F
 Integral buffers will be    131072 words long.
 Raffenetti 2 integral format.
 Two-electron integral symmetry is turned on.
 Nuclear repulsion after empirical dispersion term =      309.8520683109 Hartrees.
 One-electron integrals computed using PRISM.
 NBasis=   364 RedAO= T EigKep=  2.51D-04  NBF=   364
 NBsUse=   364 1.00D-06 EigRej= -1.00D+00 NBFU=   364
 ExpMin= 1.03D-01 ExpMax= 1.53D+04 ExpMxC= 5.22D+02 IAcc=3 IRadAn=         5 AccDes= 0.00D+00
 Harris functional with IExCor=  419 and IRadAn=       5 diagonalized for initial guess.
 HarFok:  IExCor=  419 AccDes= 0.00D+00 IRadAn=         5 IDoV= 1 UseB2=F ITyADJ=14
 ICtDFT=  3500011 ScaDFX=  1.000000  1.000000  1.000000  1.000000
 FoFCou: FMM=F IPFlag=           0 FMFlag=      100000 FMFlg1=           0
         NFxFlg=           0 DoJE=T BraDBF=F KetDBF=T FulRan=T
         wScrn=  0.000000 ICntrl=       500 IOpCl=  0 I1Cent=   200000004 NGrid=           0
         NMat0=    1 NMatS0=      1 NMatT0=    0 NMatD0=    1 NMtDS0=    0 NMtDT0=    0
 Petite list used in FoFCou.
 Initial guess <Sx>= 0.0000 <Sy>= 0.0000 <Sz>= 0.5000 <S**2>= 0.7500 S= 0.5000
 Requested convergence on RMS density matrix=1.00D-08 within 128 cycles.
 Requested convergence on MAX density matrix=1.00D-06.
 Requested convergence on             energy=1.00D-06.
 No special actions if energy rises.
 Integral accuracy reduced to 1.0D-05 until final iterations.
 Initial convergence to 1.0D-05 achieved.  Increase integral accuracy.
 SCF Done:  E(UB2PLYPD3) =  -346.806072991     A.U. after   21 cycles
            NFock= 21  Conv=0.98D-08     -V/T= 2.0042
 <Sx>= 0.0000 <Sy>= 0.0000 <Sz>= 0.5000 <S**2>= 0.7772 S= 0.5135
 <L.S>=  0.00000000000    
 Annihilation of the first spin contaminant:
 S**2 before annihilation     0.7772,   after     0.7505
 DoSCS=T DFT=T ScalE2(SS,OS)=  0.270000  0.270000
 ExpMin= 1.03D-01 ExpMax= 1.53D+04 ExpMxC= 5.22D+02 IAcc=3 IRadAn=         5 AccDes= 0.00D+00
 HarFok:  IExCor=  205 AccDes= 0.00D+00 IRadAn=         5 IDoV=-2 UseB2=F ITyADJ=14
 ICtDFT= 12500011 ScaDFX=  1.000000  1.000000  1.000000  1.000000
 Range of M.O.s used for correlation:     8   364
 NBasis=   364 NAE=    29 NBE=    28 NFC=     7 NFV=     0
 NROrb=    357 NOA=    22 NOB=    21 NVA=   335 NVB=   336

 **** Warning!!: The largest alpha MO coefficient is  0.17273153D+02


 **** Warning!!: The largest beta MO coefficient is  0.17094310D+02

 DoSCS=T DFT=T ScalE2(SS,OS)=  0.270000  0.270000
 Disk-based method using ON**2 memory for 22 occupieds at a time.
 Permanent disk used for amplitudes=   135386230 words.
 Estimated scratch disk usage=  2620467680 words.
 Actual    scratch disk usage=  2533985248 words.
 JobTyp=2 Pass  1:  I=   8 to  29 NPSUse= 40 ParTrn=T ParDer=T DoDerP=T.
 (rs|ai) integrals will be sorted in core.
 Actual    scratch disk usage=  2533985248 words.
 JobTyp=3 Pass  1:  I=   8 to  28 NPSUse= 40 ParTrn=T ParDer=T DoDerP=T.
 (rs|ai) integrals will be sorted in core.
 Spin components of T(2) and E(2):
     alpha-alpha T2 =       0.7504849353D-01 E2=     -0.5343241949D-01
     alpha-beta  T2 =       0.4593727377D+00 E2=     -0.3337075161D+00
     beta-beta   T2 =       0.8104473406D-01 E2=     -0.5249264110D-01
 (S**2,0)=  0.77715D+00           (S**2,1)=  0.74804D+00
 Scaling Projection term by:   0.270000
 E(PUHF)=      -0.34681261737D+03        E(PMP2)=      -0.34724653593D+03
 E2(B2PLYPD3) =    -0.4396325767D+00 E(B2PLYPD3) =    -0.34724570556784D+03
 G2DrvN: will do    19 centers at a time, making    1 passes.
 Calling FoFCou, ICntrl=  3107 FMM=F I1Cent=   0 AccDes= 0.00D+00.
 End of G2Drv F.D. properties file   721 does not exist.
 End of G2Drv F.D. properties file   722 does not exist.
 End of G2Drv F.D. properties file   788 does not exist.
          IDoAtm=111111111111111111
          Differentiating once with respect to electric field.
                with respect to dipole field.
          Differentiating once with respect to nuclear coordinates.
 Keep R1 and R2 ints in memory in canonical form, NReq=4459304645.
          There are    57 degrees of freedom in the 1st order CPHF.  IDoFFX=6 NUNeed=    57.
     54 vectors produced by pass  0 Test12= 3.35D-14 1.75D-09 XBig12= 8.77D+01 5.14D+00.
 AX will form    54 AO Fock derivatives at one time.
     54 vectors produced by pass  1 Test12= 3.35D-14 1.75D-09 XBig12= 7.25D+00 3.86D-01.
     54 vectors produced by pass  2 Test12= 3.35D-14 1.75D-09 XBig12= 4.16D-01 1.11D-01.
     54 vectors produced by pass  3 Test12= 3.35D-14 1.75D-09 XBig12= 7.46D-03 7.06D-03.
     54 vectors produced by pass  4 Test12= 3.35D-14 1.75D-09 XBig12= 7.01D-05 8.23D-04.
     54 vectors produced by pass  5 Test12= 3.35D-14 1.75D-09 XBig12= 8.45D-07 8.21D-05.
     53 vectors produced by pass  6 Test12= 3.35D-14 1.75D-09 XBig12= 7.43D-09 7.29D-06.
     25 vectors produced by pass  7 Test12= 3.35D-14 1.75D-09 XBig12= 4.92D-11 6.47D-07.
      3 vectors produced by pass  8 Test12= 3.35D-14 1.75D-09 XBig12= 3.45D-13 4.87D-08.
      3 vectors produced by pass  9 Test12= 3.35D-14 1.75D-09 XBig12= 2.70D-15 3.90D-09.
 InvSVY:  IOpt=1 It=  1 EMax= 7.11D-15
 Solved reduced A of dimension   408 with    57 vectors.
 End of Minotr F.D. properties file   721 does not exist.
 End of Minotr F.D. properties file   722 does not exist.
 End of Minotr F.D. properties file   788 does not exist.
 MDV= 10737418240.
 DoSCS=T DFT=T ScalE2(SS,OS)=  0.270000  0.270000
 Form MO integral derivatives with frozen-active canonical formalism.
 Discarding MO integrals.
 Reordered first order wavefunction length =    545006183
 In DefCFB: NBatch=  1 ICI= 29 ICA=336 LFMax= 68
            Large arrays: LIAPS= 11415666080 LIARS=  1957569600 words.
 In DefCFB: NBatch=  1 ICI= 29 ICA=336 LFMax= 68
            Large arrays: LIAPS= 11415666080 LIARS=  1957569600 words.
 Semi-Direct transformation.
 ModeAB=           4 MOrb=            29 LenV=   10733545803
 LASXX=    664627481 LTotXX=   664627481 LenRXX=  1338891981
 LTotAB=   674264500 MaxLAS=   807217320 LenRXY=           0
 NonZer=  2003519462 LenScr=  3017065472 LnRSAI=   807217320
 LnScr1=  1215575040 LExtra=           0 Total=   6378749813
 MaxDsk=          -1 SrtSym=           T ITran=            4
 JobTyp=1 Pass  1:  I=   1 to  29.
 (rs|ai) integrals will be sorted in core.
 ModeAB=           4 MOrb=            28 LenV=   10733545803
 LASXX=    642894399 LTotXX=   642894399 LenRXX=  1195226319
 LTotAB=   552331920 MaxLAS=   779382240 LenRXY=           0
 NonZer=  1838120718 LenScr=  2767993856 LnRSAI=   779382240
 LnScr1=  1173658624 LExtra=           0 Total=   5916261039
 MaxDsk=          -1 SrtSym=           T ITran=            4
 JobTyp=2 Pass  1:  I=   1 to  28.
 (rs|ai) integrals will be sorted in core.
 SymMOI:  orbitals are not symmetric.
 DoSCS=T DFT=T ScalE2(SS,OS)=  0.270000  0.270000
 Spin components of T(2) and E(2):
     alpha-alpha T2 =       0.7504849353D-01 E2=     -0.5343241949D-01
     alpha-beta  T2 =       0.4593727377D+00 E2=     -0.3337075161D+00
     beta-beta   T2 =       0.8104473406D-01 E2=     -0.5249264110D-01
 E2(B2PLYPD3) =    -0.4396325767D+00 E(B2PLYPD3) =    -0.34724570556784D+03
 (S**2,0)=  0.77715D+00           (S**2,1)=  0.74804D+00
 Scaling Projection term by:   0.270000
 E(PUHF)=      -0.34681261737D+03        E(PMP2)=      -0.34724653593D+03
          IDoAtm=111111111111111111
          Differentiating once with respect to electric field.
                with respect to dipole field.
          Differentiating once with respect to nuclear coordinates.
 Keep R1 and R2 ints in memory in canonical form, NReq=4459439664.
          There are     1 degrees of freedom in the 1st order CPHF.  IDoFFX=0 NUNeed=     1.
 LinEq1:  Iter=  0 NonCon=     1 RMS=8.47D-04 Max=6.19D-02 NDo=     1
 AX will form     1 AO Fock derivatives at one time.
 LinEq1:  Iter=  1 NonCon=     1 RMS=2.99D-04 Max=1.30D-02 NDo=     1
 LinEq1:  Iter=  2 NonCon=     1 RMS=1.88D-04 Max=1.01D-02 NDo=     1
 LinEq1:  Iter=  3 NonCon=     1 RMS=1.02D-04 Max=7.60D-03 NDo=     1
 LinEq1:  Iter=  4 NonCon=     1 RMS=7.01D-05 Max=4.60D-03 NDo=     1
 LinEq1:  Iter=  5 NonCon=     1 RMS=2.76D-05 Max=1.25D-03 NDo=     1
 LinEq1:  Iter=  6 NonCon=     1 RMS=1.91D-05 Max=9.33D-04 NDo=     1
 LinEq1:  Iter=  7 NonCon=     1 RMS=6.60D-06 Max=1.22D-04 NDo=     1
 LinEq1:  Iter=  8 NonCon=     1 RMS=5.02D-06 Max=1.56D-04 NDo=     1
 LinEq1:  Iter=  9 NonCon=     1 RMS=2.50D-06 Max=6.37D-05 NDo=     1
 LinEq1:  Iter= 10 NonCon=     1 RMS=9.61D-07 Max=1.87D-05 NDo=     1
 LinEq1:  Iter= 11 NonCon=     1 RMS=4.48D-07 Max=7.90D-06 NDo=     1
 LinEq1:  Iter= 12 NonCon=     1 RMS=1.75D-07 Max=3.39D-06 NDo=     1
 LinEq1:  Iter= 13 NonCon=     1 RMS=5.98D-08 Max=1.46D-06 NDo=     1
 LinEq1:  Iter= 14 NonCon=     1 RMS=2.19D-08 Max=5.07D-07 NDo=     1
 LinEq1:  Iter= 15 NonCon=     1 RMS=9.10D-09 Max=2.38D-07 NDo=     1
 LinEq1:  Iter= 16 NonCon=     1 RMS=3.45D-09 Max=9.22D-08 NDo=     1
 LinEq1:  Iter= 17 NonCon=     1 RMS=1.21D-09 Max=2.14D-08 NDo=     1
 LinEq1:  Iter= 18 NonCon=     1 RMS=4.01D-10 Max=1.00D-08 NDo=     1
 LinEq1:  Iter= 19 NonCon=     1 RMS=1.45D-10 Max=5.64D-09 NDo=     1
 LinEq1:  Iter= 20 NonCon=     1 RMS=4.67D-11 Max=2.40D-09 NDo=     1
 LinEq1:  Iter= 21 NonCon=     1 RMS=2.31D-11 Max=1.01D-09 NDo=     1
 LinEq1:  Iter= 22 NonCon=     0 RMS=9.82D-12 Max=4.20D-10 NDo=     1
 Linear equations converged to 1.000D-10 1.000D-09 after    22 iterations.
 End of Minotr F.D. properties file   721 does not exist.
 End of Minotr F.D. properties file   722 does not exist.
 End of Minotr F.D. properties file   788 does not exist.
 Symmetrizing basis deriv contribution to polar:
 IMax=3 JMax=2 DiffMx= 0.00D+00
 G2DrvN: will do    19 centers at a time, making    1 passes.
 Calling FoFCou, ICntrl=  3107 FMM=F I1Cent=   0 AccDes= 0.00D+00.
 End of G2Drv F.D. properties file   721 does not exist.
 End of G2Drv F.D. properties file   722 does not exist.
 End of G2Drv F.D. properties file   788 does not exist.
 DoSCS=T DFT=T ScalE2(SS,OS)=  0.270000  0.270000
 R2 and R3 integrals will be kept in memory, NReq=  7133702340.
 DD1Dir will call FoFMem   1 times, MxPair=      2408
 NAB=   812 NAA=   406 NBB=   378.
 Discarding MO integrals.

 **********************************************************************

            Population analysis using the SCF Density.

 **********************************************************************

 Orbital symmetries:
 Alpha Orbitals:
       Occupied  (A) (A) (A) (A) (A) (A) (A) (A) (A) (A) (A) (A)
                 (A) (A) (A) (A) (A) (A) (A) (A) (A) (A) (A) (A)
                 (A) (A) (A) (A) (A)
       Virtual   (A) (A) (A) (A) (A) (A) (A) (A) (A) (A) (A) (A)
                 (A) (A) (A) (A) (A) (A) (A) (A) (A) (A) (A) (A)
                 (A) (A) (A) (A) (A) (A) (A) (A) (A) (A) (A) (A)
                 (A) (A) (A) (A) (A) (A) (A) (A) (A) (A) (A) (A)
                 (A) (A) (A) (A) (A) (A) (A) (A) (A) (A) (A) (A)
                 (A) (A) (A) (A) (A) (A) (A) (A) (A) (A) (A) (A)
                 (A) (A) (A) (A) (A) (A) (A) (A) (A) (A) (A) (A)
                 (A) (A) (A) (A) (A) (A) (A) (A) (A) (A) (A) (A)
                 (A) (A) (A) (A) (A) (A) (A) (A) (A) (A) (A) (A)
                 (A) (A) (A) (A) (A) (A) (A) (A) (A) (A) (A) (A)
                 (A) (A) (A) (A) (A) (A) (A) (A) (A) (A) (A) (A)
                 (A) (A) (A) (A) (A) (A) (A) (A) (A) (A) (A) (A)
                 (A) (A) (A) (A) (A) (A) (A) (A) (A) (A) (A) (A)
                 (A) (A) (A) (A) (A) (A) (A) (A) (A) (A) (A) (A)
                 (A) (A) (A) (A) (A) (A) (A) (A) (A) (A) (A) (A)
                 (A) (A) (A) (A) (A) (A) (A) (A) (A) (A) (A) (A)
                 (A) (A) (A) (A) (A) (A) (A) (A) (A) (A) (A) (A)
                 (A) (A) (A) (A) (A) (A) (A) (A) (A) (A) (A) (A)
                 (A) (A) (A) (A) (A) (A) (A) (A) (A) (A) (A) (A)
                 (A) (A) (A) (A) (A) (A) (A) (A) (A) (A) (A) (A)
                 (A) (A) (A) (A) (A) (A) (A) (A) (A) (A) (A) (A)
                 (A) (A) (A) (A) (A) (A) (A) (A) (A) (A) (A) (A)
                 (A) (A) (A) (A) (A) (A) (A) (A) (A) (A) (A) (A)
                 (A) (A) (A) (A) (A) (A) (A) (A) (A) (A) (A) (A)
                 (A) (A) (A) (A) (A) (A) (A) (A) (A) (A) (A) (A)
                 (A) (A) (A) (A) (A) (A) (A) (A) (A) (A) (A) (A)
                 (A) (A) (A) (A) (A) (A) (A) (A) (A) (A) (A) (A)
                 (A) (A) (A) (A) (A) (A) (A) (A) (A) (A) (A)
 Beta  Orbitals:
       Occupied  (A) (A) (A) (A) (A) (A) (A) (A) (A) (A) (A) (A)
                 (A) (A) (A) (A) (A) (A) (A) (A) (A) (A) (A) (A)
                 (A) (A) (A) (A)
       Virtual   (A) (A) (A) (A) (A) (A) (A) (A) (A) (A) (A) (A)
                 (A) (A) (A) (A) (A) (A) (A) (A) (A) (A) (A) (A)
                 (A) (A) (A) (A) (A) (A) (A) (A) (A) (A) (A) (A)
                 (A) (A) (A) (A) (A) (A) (A) (A) (A) (A) (A) (A)
                 (A) (A) (A) (A) (A) (A) (A) (A) (A) (A) (A) (A)
                 (A) (A) (A) (A) (A) (A) (A) (A) (A) (A) (A) (A)
                 (A) (A) (A) (A) (A) (A) (A) (A) (A) (A) (A) (A)
                 (A) (A) (A) (A) (A) (A) (A) (A) (A) (A) (A) (A)
                 (A) (A) (A) (A) (A) (A) (A) (A) (A) (A) (A) (A)
                 (A) (A) (A) (A) (A) (A) (A) (A) (A) (A) (A) (A)
                 (A) (A) (A) (A) (A) (A) (A) (A) (A) (A) (A) (A)
                 (A) (A) (A) (A) (A) (A) (A) (A) (A) (A) (A) (A)
                 (A) (A) (A) (A) (A) (A) (A) (A) (A) (A) (A) (A)
                 (A) (A) (A) (A) (A) (A) (A) (A) (A) (A) (A) (A)
                 (A) (A) (A) (A) (A) (A) (A) (A) (A) (A) (A) (A)
                 (A) (A) (A) (A) (A) (A) (A) (A) (A) (A) (A) (A)
                 (A) (A) (A) (A) (A) (A) (A) (A) (A) (A) (A) (A)
                 (A) (A) (A) (A) (A) (A) (A) (A) (A) (A) (A) (A)
                 (A) (A) (A) (A) (A) (A) (A) (A) (A) (A) (A) (A)
                 (A) (A) (A) (A) (A) (A) (A) (A) (A) (A) (A) (A)
                 (A) (A) (A) (A) (A) (A) (A) (A) (A) (A) (A) (A)
                 (A) (A) (A) (A) (A) (A) (A) (A) (A) (A) (A) (A)
                 (A) (A) (A) (A) (A) (A) (A) (A) (A) (A) (A) (A)
                 (A) (A) (A) (A) (A) (A) (A) (A) (A) (A) (A) (A)
                 (A) (A) (A) (A) (A) (A) (A) (A) (A) (A) (A) (A)
                 (A) (A) (A) (A) (A) (A) (A) (A) (A) (A) (A) (A)
                 (A) (A) (A) (A) (A) (A) (A) (A) (A) (A) (A) (A)
                 (A) (A) (A) (A) (A) (A) (A) (A) (A) (A) (A) (A)
 The electronic state is 2-A.
 Alpha  occ. eigenvalues --  -19.78509 -19.78370 -10.65914 -10.64139 -10.62687
 Alpha  occ. eigenvalues --  -10.62384 -10.60689  -1.28732  -1.02133  -0.93443
 Alpha  occ. eigenvalues --   -0.85160  -0.77872  -0.75952  -0.65442  -0.58485
 Alpha  occ. eigenvalues --   -0.56140  -0.55217  -0.52979  -0.51722  -0.49982
 Alpha  occ. eigenvalues --   -0.48592  -0.47459  -0.44658  -0.44352  -0.43658
 Alpha  occ. eigenvalues --   -0.37219  -0.35832  -0.30789  -0.29758
 Alpha virt. eigenvalues --    0.07186   0.07606   0.09718   0.10266   0.12818
 Alpha virt. eigenvalues --    0.13487   0.14951   0.15646   0.15667   0.16595
 Alpha virt. eigenvalues --    0.18626   0.19479   0.20118   0.22627   0.24812
 Alpha virt. eigenvalues --    0.27556   0.28794   0.29865   0.31494   0.34120
 Alpha virt. eigenvalues --    0.34920   0.36122   0.37779   0.38693   0.41355
 Alpha virt. eigenvalues --    0.43434   0.43852   0.46621   0.47260   0.48854
 Alpha virt. eigenvalues --    0.50617   0.51128   0.51751   0.52444   0.52685
 Alpha virt. eigenvalues --    0.53124   0.53915   0.54422   0.55270   0.56089
 Alpha virt. eigenvalues --    0.56278   0.58694   0.60785   0.62522   0.62837
 Alpha virt. eigenvalues --    0.63858   0.67072   0.68907   0.69454   0.73066
 Alpha virt. eigenvalues --    0.74150   0.75844   0.77082   0.78926   0.81673
 Alpha virt. eigenvalues --    0.82528   0.87800   0.88940   0.90271   0.91098
 Alpha virt. eigenvalues --    0.92474   0.93591   0.95124   0.95991   0.98178
 Alpha virt. eigenvalues --    0.99460   1.03060   1.05134   1.06246   1.07504
 Alpha virt. eigenvalues --    1.08107   1.09699   1.11030   1.11157   1.12126
 Alpha virt. eigenvalues --    1.12505   1.13641   1.16117   1.17219   1.17696
 Alpha virt. eigenvalues --    1.19267   1.21341   1.23009   1.25239   1.27144
 Alpha virt. eigenvalues --    1.27893   1.30579   1.32965   1.34629   1.35265
 Alpha virt. eigenvalues --    1.35903   1.38670   1.39688   1.40388   1.40893
 Alpha virt. eigenvalues --    1.41437   1.42883   1.44171   1.45208   1.48699
 Alpha virt. eigenvalues --    1.50214   1.51694   1.53488   1.56782   1.57800
 Alpha virt. eigenvalues --    1.58988   1.59663   1.61327   1.63046   1.67686
 Alpha virt. eigenvalues --    1.68903   1.77885   1.82528   1.86558   1.87010
 Alpha virt. eigenvalues --    1.95948   2.01468   2.03241   2.09654   2.14627
 Alpha virt. eigenvalues --    2.20396   2.21549   2.24078   2.26426   2.30979
 Alpha virt. eigenvalues --    2.35835   2.36715   2.38575   2.39339   2.42727
 Alpha virt. eigenvalues --    2.42845   2.44965   2.48810   2.50733   2.53228
 Alpha virt. eigenvalues --    2.56282   2.57147   2.59643   2.63260   2.64725
 Alpha virt. eigenvalues --    2.66533   2.71989   2.74246   2.78712   2.79544
 Alpha virt. eigenvalues --    2.79937   2.81967   2.83596   2.85903   2.88159
 Alpha virt. eigenvalues --    2.90470   2.91640   2.93214   2.94526   2.95206
 Alpha virt. eigenvalues --    2.96137   2.96899   2.99053   3.02459   3.03000
 Alpha virt. eigenvalues --    3.04966   3.05150   3.06577   3.08190   3.08575
 Alpha virt. eigenvalues --    3.10041   3.10945   3.12869   3.12999   3.15292
 Alpha virt. eigenvalues --    3.16389   3.17813   3.18286   3.19253   3.19837
 Alpha virt. eigenvalues --    3.20580   3.23025   3.24218   3.26511   3.29406
 Alpha virt. eigenvalues --    3.30472   3.32455   3.37231   3.39693   3.40904
 Alpha virt. eigenvalues --    3.42420   3.43193   3.45027   3.45733   3.46249
 Alpha virt. eigenvalues --    3.47600   3.50506   3.51400   3.52803   3.54066
 Alpha virt. eigenvalues --    3.55393   3.56478   3.58394   3.59456   3.60388
 Alpha virt. eigenvalues --    3.60960   3.62979   3.63693   3.64471   3.65894
 Alpha virt. eigenvalues --    3.68451   3.72486   3.74284   3.76106   3.79542
 Alpha virt. eigenvalues --    3.82927   3.85230   3.86124   3.88073   3.89364
 Alpha virt. eigenvalues --    3.90593   3.91764   3.92889   3.94931   3.96081
 Alpha virt. eigenvalues --    3.97325   3.97805   3.99904   4.00428   4.03402
 Alpha virt. eigenvalues --    4.05371   4.06423   4.07727   4.09196   4.10258
 Alpha virt. eigenvalues --    4.13910   4.14510   4.14901   4.17136   4.18570
 Alpha virt. eigenvalues --    4.19685   4.21214   4.21711   4.22342   4.25250
 Alpha virt. eigenvalues --    4.25795   4.26627   4.30347   4.31701   4.33559
 Alpha virt. eigenvalues --    4.35420   4.36917   4.39493   4.43900   4.45292
 Alpha virt. eigenvalues --    4.47171   4.47277   4.50972   4.52822   4.55650
 Alpha virt. eigenvalues --    4.62882   4.67161   4.68176   4.69695   4.71755
 Alpha virt. eigenvalues --    4.78313   4.81419   4.82050   4.84193   4.90075
 Alpha virt. eigenvalues --    4.91002   4.94617   4.97055   4.97971   4.99922
 Alpha virt. eigenvalues --    5.02115   5.02566   5.03161   5.07187   5.08455
 Alpha virt. eigenvalues --    5.13249   5.18197   5.22533   5.26031   5.27252
 Alpha virt. eigenvalues --    5.28773   5.30995   5.31345   5.32869   5.34782
 Alpha virt. eigenvalues --    5.35963   5.37330   5.38147   5.40019   5.40404
 Alpha virt. eigenvalues --    5.43541   5.43969   5.46733   5.47952   5.48575
 Alpha virt. eigenvalues --    5.51025   5.53847   5.57495   5.62192   5.70821
 Alpha virt. eigenvalues --    5.77413   5.80118   5.84890   5.94615   5.97185
 Alpha virt. eigenvalues --    5.97773   5.99510   6.01150   6.03705   6.07104
 Alpha virt. eigenvalues --    6.10855   6.12062   6.30370   6.36674   6.42816
 Alpha virt. eigenvalues --    6.50373   6.69547   6.76884   6.81154   6.87624
 Alpha virt. eigenvalues --    6.98430   7.08140   7.09441   7.19531   7.42402
 Alpha virt. eigenvalues --    7.47204   7.62709   7.77196   9.81066  10.04067
 Alpha virt. eigenvalues --   10.89315  13.45965  13.86793  14.01381  14.31577
  Beta  occ. eigenvalues --  -19.78351 -19.76847 -10.65922 -10.62730 -10.62658
  Beta  occ. eigenvalues --  -10.62546 -10.60620  -1.26924  -0.99428  -0.91790
  Beta  occ. eigenvalues --   -0.84737  -0.77356  -0.75251  -0.61691  -0.56718
  Beta  occ. eigenvalues --   -0.54880  -0.54788  -0.52188  -0.50087  -0.49608
  Beta  occ. eigenvalues --   -0.47588  -0.45672  -0.44069  -0.43657  -0.42960
  Beta  occ. eigenvalues --   -0.35524  -0.33131  -0.30128
  Beta virt. eigenvalues --   -0.04779   0.07739   0.08011   0.09857   0.10413
  Beta virt. eigenvalues --    0.13001   0.13835   0.15125   0.15669   0.15809
  Beta virt. eigenvalues --    0.16828   0.18968   0.19824   0.20394   0.22980
  Beta virt. eigenvalues --    0.25191   0.27736   0.28996   0.29894   0.31648
  Beta virt. eigenvalues --    0.34357   0.35757   0.36537   0.38387   0.39031
  Beta virt. eigenvalues --    0.41709   0.43645   0.44453   0.46724   0.47687
  Beta virt. eigenvalues --    0.49580   0.50866   0.51161   0.52134   0.52651
  Beta virt. eigenvalues --    0.52742   0.53369   0.54167   0.54745   0.55702
  Beta virt. eigenvalues --    0.56586   0.57650   0.59201   0.61174   0.62971
  Beta virt. eigenvalues --    0.63548   0.64761   0.67150   0.69465   0.69697
  Beta virt. eigenvalues --    0.73769   0.74622   0.76901   0.77340   0.79140
  Beta virt. eigenvalues --    0.81957   0.83271   0.88201   0.89407   0.90359
  Beta virt. eigenvalues --    0.91309   0.92607   0.93808   0.95490   0.96078
  Beta virt. eigenvalues --    0.98624   0.99710   1.03242   1.05246   1.06346
  Beta virt. eigenvalues --    1.07646   1.08325   1.10103   1.11196   1.11334
  Beta virt. eigenvalues --    1.12388   1.12767   1.13910   1.16266   1.17432
  Beta virt. eigenvalues --    1.17853   1.19443   1.21615   1.23570   1.25526
  Beta virt. eigenvalues --    1.27439   1.28105   1.30776   1.33255   1.34760
  Beta virt. eigenvalues --    1.35430   1.36573   1.38817   1.39783   1.40501
  Beta virt. eigenvalues --    1.41109   1.41608   1.43128   1.44275   1.45406
  Beta virt. eigenvalues --    1.49120   1.50520   1.52258   1.53728   1.56968
  Beta virt. eigenvalues --    1.58129   1.59293   1.60055   1.61863   1.63294
  Beta virt. eigenvalues --    1.68536   1.69334   1.78683   1.83307   1.86899
  Beta virt. eigenvalues --    1.88725   1.96758   2.02076   2.03755   2.10529
  Beta virt. eigenvalues --    2.15347   2.20678   2.23438   2.24326   2.26678
  Beta virt. eigenvalues --    2.31529   2.35882   2.37212   2.38917   2.39679
  Beta virt. eigenvalues --    2.43514   2.44095   2.45584   2.49344   2.50925
  Beta virt. eigenvalues --    2.53447   2.56691   2.57708   2.59952   2.63631
  Beta virt. eigenvalues --    2.64980   2.66918   2.72253   2.74747   2.78952
  Beta virt. eigenvalues --    2.80002   2.80295   2.82058   2.84222   2.86062
  Beta virt. eigenvalues --    2.88480   2.90610   2.91733   2.93248   2.94888
  Beta virt. eigenvalues --    2.95466   2.96210   2.97392   2.99164   3.02560
  Beta virt. eigenvalues --    3.03785   3.05236   3.05935   3.07327   3.08667
  Beta virt. eigenvalues --    3.09015   3.10399   3.11343   3.12920   3.13314
  Beta virt. eigenvalues --    3.15405   3.16682   3.17977   3.18504   3.19687
  Beta virt. eigenvalues --    3.20193   3.20745   3.23579   3.25546   3.26620
  Beta virt. eigenvalues --    3.29669   3.31221   3.33891   3.38141   3.40162
  Beta virt. eigenvalues --    3.41200   3.42508   3.43335   3.45258   3.46210
  Beta virt. eigenvalues --    3.46473   3.47917   3.50649   3.51466   3.53200
  Beta virt. eigenvalues --    3.54119   3.55570   3.56552   3.58844   3.59591
  Beta virt. eigenvalues --    3.60546   3.61376   3.63190   3.63646   3.64736
  Beta virt. eigenvalues --    3.66185   3.68940   3.72655   3.74641   3.76750
  Beta virt. eigenvalues --    3.79727   3.83058   3.85557   3.86213   3.88182
  Beta virt. eigenvalues --    3.89490   3.90755   3.91936   3.93141   3.95193
  Beta virt. eigenvalues --    3.96325   3.97539   3.97991   4.00155   4.00766
  Beta virt. eigenvalues --    4.03170   4.05745   4.06792   4.07866   4.09367
  Beta virt. eigenvalues --    4.10565   4.14207   4.14942   4.15418   4.17432
  Beta virt. eigenvalues --    4.19042   4.19835   4.21383   4.21964   4.22712
  Beta virt. eigenvalues --    4.25658   4.26128   4.26742   4.30836   4.31995
  Beta virt. eigenvalues --    4.33854   4.35862   4.37210   4.39936   4.44178
  Beta virt. eigenvalues --    4.45762   4.47387   4.47446   4.51275   4.53019
  Beta virt. eigenvalues --    4.56253   4.63807   4.67591   4.68700   4.69983
  Beta virt. eigenvalues --    4.72430   4.78903   4.81865   4.82272   4.84431
  Beta virt. eigenvalues --    4.90648   4.91309   4.94711   4.97216   4.98242
  Beta virt. eigenvalues --    5.00092   5.02287   5.02718   5.03272   5.07347
  Beta virt. eigenvalues --    5.08855   5.13467   5.18963   5.22813   5.26276
  Beta virt. eigenvalues --    5.27425   5.29403   5.31545   5.31687   5.33158
  Beta virt. eigenvalues --    5.35033   5.36088   5.37483   5.38614   5.40432
  Beta virt. eigenvalues --    5.40929   5.43707   5.44566   5.46763   5.48143
  Beta virt. eigenvalues --    5.48760   5.51288   5.54172   5.57644   5.63095
  Beta virt. eigenvalues --    5.71416   5.77960   5.80935   5.85652   5.94706
  Beta virt. eigenvalues --    5.97489   5.98300   5.99613   6.01414   6.03762
  Beta virt. eigenvalues --    6.08297   6.11263   6.12837   6.30615   6.38267
  Beta virt. eigenvalues --    6.43725   6.52107   6.70354   6.78421   6.83637
  Beta virt. eigenvalues --    6.88977   7.00160   7.09812   7.09959   7.21667
  Beta virt. eigenvalues --    7.43456   7.48342   7.64177   7.78071   9.82050
  Beta virt. eigenvalues --   10.04695  10.90301  13.45966  13.86862  14.01503
  Beta virt. eigenvalues --   14.31909
          Condensed to atoms (all electrons):
               1          2          3          4          5          6
     1  C    5.292416   0.603404  -0.006396   0.002554   0.000126  -0.000490
     2  C    0.603404   4.977727   0.000046   0.001737   0.000107   0.000105
     3  C   -0.006396   0.000046   4.590011   0.394798   0.401633   0.406131
     4  H    0.002554   0.001737   0.394798   0.689887  -0.036416  -0.063575
     5  H    0.000126   0.000107   0.401633  -0.036416   0.585630  -0.027854
     6  H   -0.000490   0.000105   0.406131  -0.063575  -0.027854   0.634076
     7  O    0.004225   0.001129   0.310258  -0.050249  -0.026609  -0.041133
     8  O   -0.084319  -0.003498  -0.043131  -0.007469   0.006739   0.006636
     9  H    0.208512  -0.006871   0.005531   0.003787  -0.000779   0.000461
    10  H   -0.048670   0.386860  -0.000015  -0.000002   0.000002   0.000002
    11  C    0.329842  -0.043750  -0.000438  -0.000593   0.000025  -0.000010
    12  H   -0.041575  -0.000416  -0.000007   0.000100   0.000005   0.000003
    13  H   -0.044949  -0.000390   0.000555  -0.001750   0.000060   0.000068
    14  H   -0.042016  -0.001077  -0.000018   0.000243  -0.000006   0.000003
    15  C   -0.061486   0.338216  -0.000860  -0.000914   0.000177   0.000042
    16  H    0.000780  -0.036273  -0.000310   0.000412  -0.000322   0.000107
    17  H    0.001690  -0.043909   0.000036  -0.000062   0.000001  -0.000018
    18  H    0.000376  -0.038985   0.000005  -0.000029  -0.000001   0.000009
               7          8          9         10         11         12
     1  C    0.004225  -0.084319   0.208512  -0.048670   0.329842  -0.041575
     2  C    0.001129  -0.003498  -0.006871   0.386860  -0.043750  -0.000416
     3  C    0.310258  -0.043131   0.005531  -0.000015  -0.000438  -0.000007
     4  H   -0.050249  -0.007469   0.003787  -0.000002  -0.000593   0.000100
     5  H   -0.026609   0.006739  -0.000779   0.000002   0.000025   0.000005
     6  H   -0.041133   0.006636   0.000461   0.000002  -0.000010   0.000003
     7  O    7.953991   0.058555  -0.034724  -0.000002  -0.000156  -0.000022
     8  O    0.058555   8.048469   0.224509  -0.000416   0.006103  -0.000127
     9  H   -0.034724   0.224509   0.397383   0.002679  -0.015517   0.001968
    10  H   -0.000002  -0.000416   0.002679   0.569486  -0.007223   0.006521
    11  C   -0.000156   0.006103  -0.015517  -0.007223   4.772310   0.397781
    12  H   -0.000022  -0.000127   0.001968   0.006521   0.397781   0.591810
    13  H    0.000109   0.000923  -0.000416  -0.000136   0.407364  -0.028733
    14  H   -0.000022  -0.000018  -0.001376  -0.000105   0.415261  -0.027426
    15  C    0.000198   0.001186  -0.006679  -0.039558   0.006212  -0.000368
    16  H    0.003594   0.002295   0.004006   0.004900   0.000051   0.000014
    17  H   -0.000580   0.000208   0.000534  -0.001721  -0.000207  -0.000003
    18  H    0.000575  -0.000314  -0.000093  -0.003059  -0.000294   0.000012
              13         14         15         16         17         18
     1  C   -0.044949  -0.042016  -0.061486   0.000780   0.001690   0.000376
     2  C   -0.000390  -0.001077   0.338216  -0.036273  -0.043909  -0.038985
     3  C    0.000555  -0.000018  -0.000860  -0.000310   0.000036   0.000005
     4  H   -0.001750   0.000243  -0.000914   0.000412  -0.000062  -0.000029
     5  H    0.000060  -0.000006   0.000177  -0.000322   0.000001  -0.000001
     6  H    0.000068   0.000003   0.000042   0.000107  -0.000018   0.000009
     7  O    0.000109  -0.000022   0.000198   0.003594  -0.000580   0.000575
     8  O    0.000923  -0.000018   0.001186   0.002295   0.000208  -0.000314
     9  H   -0.000416  -0.001376  -0.006679   0.004006   0.000534  -0.000093
    10  H   -0.000136  -0.000105  -0.039558   0.004900  -0.001721  -0.003059
    11  C    0.407364   0.415261   0.006212   0.000051  -0.000207  -0.000294
    12  H   -0.028733  -0.027426  -0.000368   0.000014  -0.000003   0.000012
    13  H    0.600925  -0.038339  -0.000119  -0.000013   0.000109  -0.000042
    14  H   -0.038339   0.580000  -0.000108   0.000003  -0.000038   0.000096
    15  C   -0.000119  -0.000108   4.810486   0.410963   0.407742   0.406789
    16  H   -0.000013   0.000003   0.410963   0.533379  -0.023965  -0.026108
    17  H    0.000109  -0.000038   0.407742  -0.023965   0.602740  -0.038208
    18  H   -0.000042   0.000096   0.406789  -0.026108  -0.038208   0.599438
          Atomic-Atomic Spin Densities.
               1          2          3          4          5          6
     1  C    0.760025  -0.004910   0.000489  -0.005857   0.000072   0.001604
     2  C   -0.004910  -0.153407  -0.000180   0.000367  -0.000002  -0.000093
     3  C    0.000489  -0.000180  -0.004388   0.004149   0.000343  -0.002313
     4  H   -0.005857   0.000367   0.004149   0.002630  -0.000311  -0.001554
     5  H    0.000072  -0.000002   0.000343  -0.000311  -0.001713   0.000768
     6  H    0.001604  -0.000093  -0.002313  -0.001554   0.000768   0.004663
     7  O    0.011628  -0.001128  -0.000664  -0.000963   0.000101  -0.000578
     8  O   -0.086748   0.004824  -0.001088   0.004651  -0.000175  -0.001152
     9  H    0.064930  -0.002946   0.000393  -0.003927   0.000074   0.001673
    10  H   -0.009755  -0.004335   0.000030  -0.000221   0.000002   0.000014
    11  C   -0.038050   0.009668   0.000153   0.001256  -0.000010  -0.000267
    12  H   -0.002988  -0.004099   0.000002  -0.000262   0.000000   0.000027
    13  H   -0.004814   0.000552   0.000001   0.000420  -0.000006  -0.000086
    14  H   -0.004756   0.000480   0.000008   0.000020   0.000000  -0.000008
    15  C   -0.011608   0.019787  -0.000013   0.000307  -0.000024  -0.000027
    16  H    0.002583  -0.000188   0.000013  -0.000090   0.000027   0.000026
    17  H    0.000091   0.003185   0.000015  -0.000023   0.000001   0.000005
    18  H    0.000569   0.002242   0.000004  -0.000009   0.000000   0.000001
               7          8          9         10         11         12
     1  C    0.011628  -0.086748   0.064930  -0.009755  -0.038050  -0.002988
     2  C   -0.001128   0.004824  -0.002946  -0.004335   0.009668  -0.004099
     3  C   -0.000664  -0.001088   0.000393   0.000030   0.000153   0.000002
     4  H   -0.000963   0.004651  -0.003927  -0.000221   0.001256  -0.000262
     5  H    0.000101  -0.000175   0.000074   0.000002  -0.000010   0.000000
     6  H   -0.000578  -0.001152   0.001673   0.000014  -0.000267   0.000027
     7  O    0.055304  -0.041438   0.010583   0.000204  -0.000754   0.000058
     8  O   -0.041438   0.549427  -0.050166  -0.000765   0.007655  -0.000541
     9  H    0.010583  -0.050166  -0.085066   0.001518  -0.008110   0.000995
    10  H    0.000204  -0.000765   0.001518   0.084917  -0.005775   0.006591
    11  C   -0.000754   0.007655  -0.008110  -0.005775   0.024123  -0.008837
    12  H    0.000058  -0.000541   0.000995   0.006591  -0.008837   0.052490
    13  H   -0.000068   0.000425  -0.000249  -0.000267   0.005485  -0.002222
    14  H   -0.000013   0.000287  -0.000384  -0.000176   0.005811  -0.001395
    15  C   -0.001212   0.002691  -0.002955  -0.014803   0.001664  -0.000647
    16  H    0.000620  -0.001513   0.000654   0.000633  -0.000146   0.000036
    17  H    0.000115  -0.000099   0.000033   0.000635  -0.000041   0.000017
    18  H    0.000044  -0.000137   0.000273   0.001433  -0.000073   0.000035
              13         14         15         16         17         18
     1  C   -0.004814  -0.004756  -0.011608   0.002583   0.000091   0.000569
     2  C    0.000552   0.000480   0.019787  -0.000188   0.003185   0.002242
     3  C    0.000001   0.000008  -0.000013   0.000013   0.000015   0.000004
     4  H    0.000420   0.000020   0.000307  -0.000090  -0.000023  -0.000009
     5  H   -0.000006   0.000000  -0.000024   0.000027   0.000001   0.000000
     6  H   -0.000086  -0.000008  -0.000027   0.000026   0.000005   0.000001
     7  O   -0.000068  -0.000013  -0.001212   0.000620   0.000115   0.000044
     8  O    0.000425   0.000287   0.002691  -0.001513  -0.000099  -0.000137
     9  H   -0.000249  -0.000384  -0.002955   0.000654   0.000033   0.000273
    10  H   -0.000267  -0.000176  -0.014803   0.000633   0.000635   0.001433
    11  C    0.005485   0.005811   0.001664  -0.000146  -0.000041  -0.000073
    12  H   -0.002222  -0.001395  -0.000647   0.000036   0.000017   0.000035
    13  H    0.005082  -0.000796   0.000049  -0.000006  -0.000005  -0.000000
    14  H   -0.000796   0.004081   0.000040  -0.000006   0.000001  -0.000005
    15  C    0.000049   0.000040   0.037300  -0.002572  -0.002805  -0.004411
    16  H   -0.000006  -0.000006  -0.002572  -0.001184   0.000440   0.000759
    17  H   -0.000005   0.000001  -0.002805   0.000440  -0.007484   0.001788
    18  H   -0.000000  -0.000005  -0.004411   0.000759   0.001788  -0.005808
 Mulliken charges and spin densities:
               1          2
     1  C   -0.114023   0.672506
     2  C   -0.134161  -0.130184
     3  C   -0.057828  -0.003047
     4  H    0.067540   0.000583
     5  H    0.097483  -0.000851
     6  H    0.085437   0.002702
     7  O   -0.179138   0.031838
     8  O   -0.216332   0.386138
     9  H    0.217084  -0.072679
    10  H    0.130459   0.059877
    11  C   -0.266761  -0.006248
    12  H    0.100465   0.039264
    13  H    0.104774   0.003493
    14  H    0.114945   0.003188
    15  C   -0.271918   0.020761
    16  H    0.126487   0.000086
    17  H    0.095651  -0.004132
    18  H    0.099836  -0.003295
 Sum of Mulliken charges =  -0.00000   1.00000
 Mulliken charges and spin densities with hydrogens summed into heavy atoms:
               1          2
     1  C   -0.114023   0.672506
     2  C   -0.003702  -0.070307
     3  C    0.192633  -0.000613
     7  O   -0.179138   0.031838
     8  O    0.000753   0.313459
    11  C    0.053423   0.039697
    15  C    0.050055   0.013421
 APT charges:
               1
     1  C    0.413464
     2  C   -0.132997
     3  C    0.430604
     4  H   -0.040810
     5  H   -0.003800
     6  H   -0.032700
     7  O   -0.439511
     8  O    0.174172
     9  H   -0.338416
    10  H   -0.015688
    11  C   -0.041966
    12  H   -0.027299
    13  H   -0.002234
    14  H    0.002864
    15  C    0.057884
    16  H    0.024821
    17  H   -0.014133
    18  H   -0.014253
 Sum of APT charges =  -0.00000
 APT charges with hydrogens summed into heavy atoms:
               1
     1  C    0.413464
     2  C   -0.148684
     3  C    0.353293
     7  O   -0.439511
     8  O   -0.164244
    11  C   -0.068636
    15  C    0.054319
 Electronic spatial extent (au):  <R**2>=           1049.2701
 Charge=             -0.0000 electrons
 Dipole moment (field-independent basis, Debye):
    X=             -1.2541    Y=             -1.1443    Z=             -2.1038  Tot=              2.7034
 Quadrupole moment (field-independent basis, Debye-Ang):
   XX=            -41.6461   YY=            -42.4052   ZZ=            -46.0516
   XY=             -1.1834   XZ=             -3.1360   YZ=             -0.2099
 Traceless Quadrupole moment (field-independent basis, Debye-Ang):
   XX=              1.7215   YY=              0.9624   ZZ=             -2.6840
   XY=             -1.1834   XZ=             -3.1360   YZ=             -0.2099
 Octapole moment (field-independent basis, Debye-Ang**2):
  XXX=             15.9803  YYY=             -0.8896  ZZZ=              1.7243  XYY=             -0.3575
  XXY=             -3.0859  XXZ=             -9.2440  XZZ=              4.6456  YZZ=              0.6018
  YYZ=              1.2676  XYZ=              0.1207
 Hexadecapole moment (field-independent basis, Debye-Ang**3):
 XXXX=           -731.6961 YYYY=           -477.1337 ZZZZ=           -153.9691 XXXY=             -3.5076
 XXXZ=             -1.1490 YYYX=              2.5905 YYYZ=             -1.6549 ZZZX=             -1.4027
 ZZZY=             -3.6169 XXYY=           -201.7364 XXZZ=           -149.4552 YYZZ=           -100.9437
 XXYZ=             -1.0723 YYXZ=             -1.5844 ZZXY=              3.5445
 N-N= 3.098520683109D+02 E-N=-1.430869873100D+03  KE= 3.453657402187D+02
  Exact polarizability: 105.544  -0.126  84.527   4.030  -2.615  60.666
 Approx polarizability:  94.119  -0.744  89.286   5.743  -5.081  74.452
                          Isotropic Fermi Contact Couplings
        Atom                 a.u.       MegaHertz       Gauss      10(-4) cm-1
     1  C(13)              0.14853     166.97647      59.58136      55.69736
     2  C(13)              0.01316      14.79315       5.27856       4.93446
     3  C(13)             -0.00405      -4.55269      -1.62451      -1.51862
     4  H(1)               0.00296      13.22046       4.71739       4.40987
     5  H(1)              -0.00009      -0.38485      -0.13733      -0.12837
     6  H(1)               0.00083       3.72462       1.32904       1.24240
     7  O(17)              0.01598      -9.68699      -3.45656      -3.23123
     8  O(17)              0.04080     -24.73388      -8.82566      -8.25033
     9  H(1)              -0.02398    -107.16920     -38.24064     -35.74780
    10  H(1)               0.02190      97.90545      34.93510      32.65774
    11  C(13)              0.01377      15.47474       5.52177       5.16182
    12  H(1)               0.01591      71.10876      25.37338      23.71933
    13  H(1)               0.00111       4.94126       1.76316       1.64823
    14  H(1)               0.00148       6.60050       2.35522       2.20169
    15  C(13)              0.02005      22.54220       8.04362       7.51927
    16  H(1)              -0.00030      -1.34228      -0.47896      -0.44774
    17  H(1)              -0.00075      -3.33171      -1.18884      -1.11134
    18  H(1)              -0.00060      -2.67870      -0.95583      -0.89352
 --------------------------------------------------------
       Center         ----  Spin Dipole Couplings  ----
                      3XX-RR        3YY-RR        3ZZ-RR
 --------------------------------------------------------
     1   Atom        0.438475     -0.344399     -0.094076
     2   Atom        0.002415      0.032844     -0.035259
     3   Atom        0.001448     -0.004411      0.002963
     4   Atom        0.000907     -0.005764      0.004858
     5   Atom        0.001210     -0.003566      0.002356
     6   Atom        0.003373     -0.002242     -0.001131
     7   Atom        0.331222     -0.205036     -0.126187
     8   Atom        1.010875     -0.850182     -0.160693
     9   Atom        0.182231     -0.117032     -0.065199
    10   Atom        0.004111     -0.000106     -0.004005
    11   Atom       -0.014306      0.039281     -0.024974
    12   Atom        0.002773      0.002696     -0.005469
    13   Atom       -0.005306      0.010326     -0.005019
    14   Atom       -0.004933      0.009106     -0.004173
    15   Atom       -0.013484      0.029735     -0.016251
    16   Atom       -0.002535      0.010016     -0.007481
    17   Atom       -0.002689      0.004236     -0.001547
    18   Atom       -0.001099      0.004293     -0.003193
 --------------------------------------------------------
                        XY            XZ            YZ
 --------------------------------------------------------
     1   Atom        0.119639      0.426786      0.066893
     2   Atom       -0.034348      0.032948     -0.021896
     3   Atom        0.001695     -0.005606      0.004440
     4   Atom       -0.000819     -0.004930      0.003873
     5   Atom        0.000525     -0.004481     -0.000353
     6   Atom       -0.003735     -0.004968      0.002835
     7   Atom        0.054661      0.202979      0.056053
     8   Atom        0.050241      1.143752      0.029043
     9   Atom        0.051066      0.128693      0.019940
    10   Atom       -0.003084      0.006367     -0.001956
    11   Atom        0.034040      0.009124      0.018658
    12   Atom        0.004190      0.006032      0.001980
    13   Atom       -0.002360     -0.000363      0.009106
    14   Atom        0.006962     -0.001477     -0.008339
    15   Atom        0.002092      0.001750      0.001119
    16   Atom       -0.000483      0.002065      0.000638
    17   Atom       -0.000604      0.000650     -0.004047
    18   Atom       -0.003459     -0.000448      0.001519
 --------------------------------------------------------


 ---------------------------------------------------------------------------------
              Anisotropic Spin Dipole Couplings in Principal Axis System
 ---------------------------------------------------------------------------------

       Atom             a.u.   MegaHertz   Gauss  10(-4) cm-1        Axes

              Baa    -0.3625   -48.645   -17.358   -16.226 -0.1076  0.9913 -0.0760
     1 C(13)  Bbb    -0.3308   -44.395   -15.841   -14.809 -0.4867  0.0141  0.8734
              Bcc     0.6933    93.040    33.199    31.035  0.8669  0.1309  0.4810
 
              Baa    -0.0544    -7.303    -2.606    -2.436 -0.4896  0.0260  0.8716
     2 C(13)  Bbb    -0.0139    -1.861    -0.664    -0.621  0.6662  0.6561  0.3546
              Bcc     0.0683     9.164     3.270     3.057 -0.5626  0.7543 -0.3385
 
              Baa    -0.0083    -1.118    -0.399    -0.373 -0.4202  0.7539 -0.5050
     3 C(13)  Bbb     0.0000     0.003     0.001     0.001  0.6880  0.6275  0.3644
              Bcc     0.0083     1.114     0.398     0.372 -0.5916  0.1943  0.7824
 
              Baa    -0.0071    -3.797    -1.355    -1.267 -0.1202  0.9290 -0.3500
     4 H(1)   Bbb    -0.0020    -1.063    -0.379    -0.355  0.8472  0.2798  0.4516
              Bcc     0.0091     4.860     1.734     1.621 -0.5175  0.2422  0.8207
 
              Baa    -0.0036    -1.938    -0.692    -0.647 -0.1722  0.9825 -0.0709
     5 H(1)   Bbb    -0.0027    -1.444    -0.515    -0.482  0.7310  0.1757  0.6594
              Bcc     0.0063     3.382     1.207     1.128 -0.6603 -0.0617  0.7485
 
              Baa    -0.0046    -2.470    -0.881    -0.824  0.1891 -0.6141  0.7663
     6 H(1)   Bbb    -0.0040    -2.116    -0.755    -0.706  0.6149  0.6825  0.3952
              Bcc     0.0086     4.586     1.636     1.530  0.7656 -0.3964 -0.5066
 
              Baa    -0.2414    17.465     6.232     5.826  0.1547  0.7534 -0.6392
     7 O(17)  Bbb    -0.1751    12.668     4.520     4.226 -0.3427  0.6477  0.6805
              Bcc     0.4164   -30.133   -10.752   -10.051  0.9266  0.1138  0.3584
 
              Baa    -0.8602    62.242    22.209    20.762 -0.5178  0.1622  0.8400
     8 O(17)  Bbb    -0.8513    61.597    21.979    20.546  0.0655  0.9865 -0.1500
              Bcc     1.7114  -123.838   -44.189   -41.308  0.8530  0.0226  0.5215
 
              Baa    -0.1258   -67.113   -23.947   -22.386 -0.2391  0.9512  0.1949
     9 H(1)   Bbb    -0.1195   -63.777   -22.757   -21.274 -0.3387 -0.2699  0.9014
              Bcc     0.2453   130.890    46.705    43.660  0.9100  0.1495  0.3867
 
              Baa    -0.0075    -4.004    -1.429    -1.336 -0.4731  0.0355  0.8803
    10 H(1)   Bbb    -0.0015    -0.826    -0.295    -0.276  0.3416  0.9284  0.1461
              Bcc     0.0091     4.831     1.724     1.611  0.8121 -0.3698  0.4513
 
              Baa    -0.0308    -4.138    -1.477    -1.380  0.9044 -0.4215 -0.0660
    11 C(13)  Bbb    -0.0300    -4.025    -1.436    -1.343 -0.0415 -0.2408  0.9697
              Bcc     0.0608     8.163     2.913     2.723  0.4246  0.8743  0.2353
 
              Baa    -0.0087    -4.619    -1.648    -1.541 -0.4726  0.0208  0.8811
    12 H(1)   Bbb    -0.0006    -0.309    -0.110    -0.103 -0.5014  0.8158 -0.2881
              Bcc     0.0092     4.928     1.758     1.644  0.7248  0.5779  0.3751
 
              Baa    -0.0094    -4.999    -1.784    -1.668 -0.1708 -0.4303  0.8864
    13 H(1)   Bbb    -0.0055    -2.909    -1.038    -0.970  0.9788  0.0294  0.2028
              Bcc     0.0148     7.908     2.822     2.638 -0.1133  0.9022  0.4161
 
              Baa    -0.0094    -5.020    -1.791    -1.675 -0.5744  0.5058  0.6436
    14 H(1)   Bbb    -0.0061    -3.240    -1.156    -1.081  0.7524  0.0167  0.6585
              Bcc     0.0155     8.260     2.947     2.755  0.3224  0.8625 -0.3902
 
              Baa    -0.0171    -2.294    -0.819    -0.765 -0.4348 -0.0021  0.9005
    15 C(13)  Bbb    -0.0128    -1.714    -0.611    -0.572  0.8992 -0.0557  0.4341
              Bcc     0.0299     4.008     1.430     1.337  0.0492  0.9984  0.0261
 
              Baa    -0.0083    -4.408    -1.573    -1.470 -0.3420 -0.0418  0.9388
    16 H(1)   Bbb    -0.0018    -0.955    -0.341    -0.319  0.9391  0.0199  0.3430
              Bcc     0.0101     5.364     1.914     1.789 -0.0330  0.9989  0.0325
 
              Baa    -0.0037    -1.987    -0.709    -0.663 -0.2982  0.4146  0.8598
    17 H(1)   Bbb    -0.0027    -1.425    -0.509    -0.475  0.9501  0.2153  0.2257
              Bcc     0.0064     3.412     1.217     1.138 -0.0916  0.8842 -0.4581
 
              Baa    -0.0035    -1.890    -0.674    -0.630 -0.2269 -0.2810  0.9325
    18 H(1)   Bbb    -0.0027    -1.440    -0.514    -0.480  0.8745  0.3626  0.3221
              Bcc     0.0062     3.330     1.188     1.111 -0.4287  0.8886  0.1635
 

 ---------------------------------------------------------------------------------

 Calling FoFJK, ICntrl=  10100127 FMM=F ISym2X=0 I1Cent= 0 IOpClX= 1 NMat=1 NMatS=1 NMatT=0.
 ***** Axes restored to original set *****
 -------------------------------------------------------------------
 Center     Atomic                   Forces (Hartrees/Bohr)
 Number     Number              X              Y              Z
 -------------------------------------------------------------------
      1        6          -0.004229169    0.003393482    0.003396899
      2        6           0.003035157   -0.002847788   -0.001678706
      3        6          -0.001392373    0.003687155   -0.003289907
      4        1          -0.001150982   -0.000149318   -0.000006946
      5        1           0.000274262    0.000024367    0.000413841
      6        1           0.000229750   -0.000124322   -0.000723016
      7        8          -0.006188077   -0.010954657   -0.005686556
      8        8           0.002507353    0.006625050    0.010569356
      9        1           0.006283012    0.001442341   -0.002691825
     10        1          -0.000441181   -0.000423139    0.000075768
     11        6           0.000119432   -0.000517478   -0.000177866
     12        1          -0.000136859    0.000446852    0.000117905
     13        1           0.000556247    0.000075199    0.000251551
     14        1           0.000046533    0.000147226   -0.000385944
     15        6          -0.000256996   -0.000104036    0.000314637
     16        1           0.001046152   -0.000475259   -0.000667242
     17        1          -0.000010871   -0.000133861    0.000321418
     18        1          -0.000291389   -0.000111814   -0.000153367
 -------------------------------------------------------------------
 Cartesian Forces:  Max     0.010954657 RMS     0.003026454
 FormGI is forming the generalized inverse of G from B-inverse, IUseBI=4.

 GradGradGradGradGradGradGradGradGradGradGradGradGradGradGradGradGradGrad
 Berny optimization.
 Internal  Forces:  Max     0.014389551 RMS     0.002309014
 Search for a saddle point.
 Step number   1 out of a maximum of  108
 All quantities printed in internal units (Hartrees-Bohrs-Radians)
 Swapping is turned off.
 Second derivative matrix not updated -- analytic derivatives used.
 ITU=  0
     Eigenvalues ---   -0.06994   0.00150   0.00168   0.00374   0.00716
     Eigenvalues ---    0.00781   0.01548   0.01778   0.01923   0.03632
     Eigenvalues ---    0.04284   0.05583   0.05623   0.05745   0.05823
     Eigenvalues ---    0.07584   0.08458   0.08594   0.10444   0.11640
     Eigenvalues ---    0.12236   0.12460   0.13301   0.14344   0.15091
     Eigenvalues ---    0.15327   0.16208   0.16714   0.17613   0.18304
     Eigenvalues ---    0.19280   0.21094   0.28193   0.31898   0.32051
     Eigenvalues ---    0.32564   0.33149   0.33374   0.33400   0.33497
     Eigenvalues ---    0.33523   0.34399   0.34540   0.34930   0.35261
     Eigenvalues ---    0.36439   0.43619   0.65813
 Eigenvectors required to have negative eigenvalues:
                          R2        R11       R10       A2        A3
   1                   -0.73269   0.62715  -0.14935  -0.14604   0.07446
                          A14       A1        A13       D22       R3
   1                    0.07301   0.07165   0.03311   0.03257   0.03081
 RFO step:  Lambda0=1.569753216D-04 Lambda=-1.18620116D-03.
 Linear search not attempted -- option 19 set.
 Iteration  1 RMS(Cart)=  0.08522405 RMS(Int)=  0.00266615
 Iteration  2 RMS(Cart)=  0.00505127 RMS(Int)=  0.00013420
 Iteration  3 RMS(Cart)=  0.00002810 RMS(Int)=  0.00013376
 Iteration  4 RMS(Cart)=  0.00000001 RMS(Int)=  0.00013376
 Variable       Old X    -DE/DX   Delta X   Delta X   Delta X     New X
                                 (Linear)    (Quad)   (Total)
    R1        2.48156   0.00537   0.00000   0.00563   0.00563   2.48718
    R2        2.61641  -0.00122   0.00000   0.03413   0.03413   2.65054
    R3        2.79915   0.00030   0.00000  -0.00177  -0.00177   2.79737
    R4        2.06498  -0.00046   0.00000  -0.00146  -0.00146   2.06352
    R5        2.83250   0.00058   0.00000   0.00056   0.00056   2.83307
    R6        2.06658  -0.00093   0.00000  -0.00309  -0.00308   2.06349
    R7        2.05678  -0.00042   0.00000  -0.00045  -0.00045   2.05634
    R8        2.05984  -0.00051   0.00000  -0.00208  -0.00208   2.05776
    R9        2.66702   0.00539   0.00000   0.01290   0.01290   2.67992
   R10        2.61970   0.01439   0.00000   0.05036   0.05035   2.67005
   R11        2.15183   0.00585   0.00000  -0.01856  -0.01856   2.13327
   R12        2.06650  -0.00013   0.00000  -0.00012  -0.00012   2.06637
   R13        2.06105  -0.00048   0.00000  -0.00151  -0.00151   2.05954
   R14        2.06037  -0.00028   0.00000  -0.00077  -0.00077   2.05960
   R15        2.05421  -0.00124   0.00000  -0.00270  -0.00270   2.05152
   R16        2.06167  -0.00021   0.00000  -0.00051  -0.00051   2.06116
   R17        2.06150  -0.00022   0.00000  -0.00057  -0.00057   2.06094
    A1        1.99019   0.00214   0.00000   0.01473   0.01470   2.00489
    A2        2.33499  -0.00175   0.00000   0.00371   0.00370   2.33868
    A3        1.95787  -0.00039   0.00000  -0.01825  -0.01828   1.93960
    A4        2.04110  -0.00035   0.00000  -0.00204  -0.00204   2.03906
    A5        2.20674   0.00150   0.00000   0.00482   0.00482   2.21157
    A6        2.03531  -0.00115   0.00000  -0.00277  -0.00277   2.03254
    A7        1.91648  -0.00029   0.00000  -0.00062  -0.00061   1.91587
    A8        1.92029  -0.00053   0.00000  -0.00027  -0.00030   1.91999
    A9        1.92441   0.00101   0.00000   0.00727   0.00726   1.93167
   A10        1.92666  -0.00021   0.00000  -0.00166  -0.00166   1.92499
   A11        1.84660  -0.00079   0.00000  -0.00887  -0.00886   1.83774
   A12        1.92827   0.00081   0.00000   0.00392   0.00390   1.93218
   A13        1.88935   0.00148   0.00000  -0.00819  -0.00820   1.88115
   A14        1.81829   0.00493   0.00000   0.00298   0.00297   1.82127
   A15        1.91844   0.00051   0.00000   0.00125   0.00125   1.91969
   A16        1.94220   0.00037   0.00000   0.00208   0.00208   1.94428
   A17        1.94035   0.00025   0.00000   0.00229   0.00228   1.94263
   A18        1.89347  -0.00044   0.00000  -0.00241  -0.00241   1.89106
   A19        1.89141  -0.00041   0.00000  -0.00236  -0.00236   1.88905
   A20        1.87637  -0.00034   0.00000  -0.00113  -0.00113   1.87523
   A21        1.94060   0.00059   0.00000   0.00380   0.00380   1.94439
   A22        1.92944   0.00020   0.00000  -0.00069  -0.00069   1.92875
   A23        1.92409   0.00021   0.00000   0.00240   0.00240   1.92649
   A24        1.89516  -0.00039   0.00000  -0.00234  -0.00234   1.89282
   A25        1.90241  -0.00035   0.00000  -0.00092  -0.00093   1.90148
   A26        1.87044  -0.00031   0.00000  -0.00256  -0.00256   1.86788
   A27        3.04432   0.00219   0.00000   0.05103   0.05130   3.09562
   A28        3.13898   0.00199   0.00000   0.05907   0.05909   3.19807
    D1        3.11565  -0.00014   0.00000   0.01562   0.01579   3.13144
    D2       -0.03464  -0.00014   0.00000   0.01791   0.01808  -0.01655
    D3       -0.00625  -0.00006   0.00000   0.00175   0.00158  -0.00467
    D4        3.12665  -0.00006   0.00000   0.00404   0.00387   3.13052
    D5       -0.94105  -0.00032   0.00000   0.06645   0.06714  -0.87391
    D6        2.14804   0.00037   0.00000   0.10045   0.09974   2.24778
    D7        0.01290  -0.00006   0.00000  -0.00271  -0.00265   0.01025
    D8        2.11086  -0.00003   0.00000  -0.00356  -0.00349   2.10737
    D9       -2.08130  -0.00005   0.00000  -0.00205  -0.00198  -2.08328
   D10       -3.10927  -0.00000   0.00000  -0.01667  -0.01674  -3.12601
   D11       -1.01131   0.00003   0.00000  -0.01751  -0.01758  -1.02889
   D12        1.07972   0.00001   0.00000  -0.01601  -0.01607   1.06364
   D13       -0.00572   0.00003   0.00000   0.03018   0.03018   0.02447
   D14        2.10067   0.00007   0.00000   0.02929   0.02929   2.12996
   D15       -2.11764  -0.00005   0.00000   0.02720   0.02720  -2.09044
   D16        3.12721   0.00003   0.00000   0.03247   0.03248  -3.12350
   D17       -1.04959   0.00007   0.00000   0.03158   0.03158  -1.01801
   D18        1.01528  -0.00005   0.00000   0.02949   0.02949   1.04477
   D19        1.15491   0.00034   0.00000   0.00350   0.00353   1.15844
   D20       -3.05699   0.00007   0.00000   0.00147   0.00147  -3.05553
   D21       -0.97155  -0.00021   0.00000  -0.00363  -0.00365  -0.97520
   D22       -1.45721  -0.00100   0.00000  -0.02710  -0.02710  -1.48432
         Item               Value     Threshold  Converged?
 Maximum Force            0.014390     0.000450     NO 
 RMS     Force            0.002309     0.000300     NO 
 Maximum Displacement     0.217600     0.001800     NO 
 RMS     Displacement     0.087496     0.001200     NO 
 Predicted change in Energy=-5.329141D-04
 GradGradGradGradGradGradGradGradGradGradGradGradGradGradGradGradGradGrad

                          Input orientation:                          
 ---------------------------------------------------------------------
 Center     Atomic      Atomic             Coordinates (Angstroms)
 Number     Number       Type             X           Y           Z
 ---------------------------------------------------------------------
      1          6           0        1.164529    0.543528    0.071248
      2          6           0        1.765143   -0.572588   -0.283477
      3          6           0       -2.338309    0.266221   -0.816508
      4          1           0       -1.521402    0.667815   -1.419621
      5          1           0       -2.948558   -0.401560   -1.421296
      6          1           0       -2.945494    1.079823   -0.422642
      7          8           0       -1.834347   -0.538649    0.236753
      8          8           0       -1.124406    0.303565    1.121643
      9          1           0       -0.090580    0.372366    0.673501
     10          1           0        2.740630   -0.475927   -0.764598
     11          6           0        1.517786    1.977650   -0.027803
     12          1           0        2.490930    2.090238   -0.513611
     13          1           0        0.778763    2.530076   -0.607863
     14          1           0        1.572719    2.440888    0.957214
     15          6           0        1.251839   -1.967623   -0.088592
     16          1           0        0.271856   -1.967581    0.378522
     17          1           0        1.177854   -2.484830   -1.046031
     18          1           0        1.940057   -2.542258    0.532342
 ---------------------------------------------------------------------
                    Distance matrix (angstroms):
                    1          2          3          4          5
     1  C    0.000000
     2  C    1.316162   0.000000
     3  C    3.624208   4.222089   0.000000
     4  H    3.074470   3.691991   1.091952   0.000000
     5  H    4.476423   4.852099   1.088166   1.783351   0.000000
     6  H    4.174186   4.993989   1.088922   1.786548   1.786565
     7  O    3.192453   3.637048   1.418151   2.072937   2.002346
     8  O    2.529849   3.330390   2.287222   2.597751   3.208001
     9  H    1.402606   2.291823   2.698829   2.552587   3.627006
    10  H    2.054756   1.091969   5.133138   4.461179   5.727447
    11  C    1.480307   2.574931   4.291913   3.590194   5.248876
    12  H    2.119838   2.769544   5.171105   4.352349   6.051527
    13  H    2.134569   3.271804   3.858071   3.068832   4.811350
    14  H    2.133431   3.264564   4.813668   4.285641   5.846261
    15  C    2.517747   1.499194   4.290581   4.050684   4.676751
    16  H    2.682713   2.148057   3.637435   3.659837   4.007847
    17  H    3.227916   2.140809   4.470388   4.167100   4.637685
    18  H    3.214985   2.139102   5.292577   5.108466   5.683120
                    6          7          8          9         10
     6  H    0.000000
     7  O    2.070966   0.000000
     8  O    2.510727   1.412930   0.000000
     9  H    3.138877   2.015297   1.128876   0.000000
    10  H    5.905023   4.683701   4.370815   3.286866   0.000000
    11  C    4.569777   4.199828   3.332412   2.378152   2.838707
    12  H    5.530272   5.116846   4.351656   3.320318   2.590473
    13  H    4.000954   4.118107   3.401558   2.655817   3.592986
    14  H    4.916375   4.583100   3.445238   2.669426   3.582801
    15  C    5.197703   3.416484   3.502786   2.803289   2.213287
    16  H    4.503318   2.549125   2.767649   2.386153   3.102676
    17  H    5.486106   3.808741   4.215965   3.567813   2.560696
    18  H    6.156303   4.283451   4.223378   3.555060   2.567624
                   11         12         13         14         15
    11  C    0.000000
    12  H    1.093478   0.000000
    13  H    1.089862   1.770270   0.000000
    14  H    1.089892   1.769009   1.757210   0.000000
    15  C    3.954694   4.264061   4.552224   4.542206   0.000000
    16  H    4.157197   4.710210   4.632368   4.632680   1.085616
    17  H    4.589779   4.789456   5.049807   5.332129   1.090718
    18  H    4.574019   4.780952   5.327030   5.014698   1.090600
                   16         17         18
    16  H    0.000000
    17  H    1.765709   0.000000
    18  H    1.771104   1.753714   0.000000
 Stoichiometry    C5H11O2(2)
 Framework group  C1[X(C5H11O2)]
 Deg. of freedom    48
 Full point group                 C1      NOp   1
 Largest Abelian subgroup         C1      NOp   1
 Largest concise Abelian subgroup C1      NOp   1
                         Standard orientation:                         
[...]
 -0.00083,0.1636632,-0.0527226,0.0181017,0.0275608,-0.0614092,0.0050737
 ,-0.7024766,0.0371669,0.0817757,-0.4561321,-0.3396828,0.1548745,-0.628
 8249,0.0307532,-0.2685937,0.7419436,0.1313668,-0.2023589,0.6288838,-0.
 12047,-0.0592373,0.2236567,0.1023639,-0.253821,-1.0266648,-0.1557641,0
 .158352,-0.1125542,0.0973889,-0.0190063,0.4507848,0.0341402,0.0468076,
 -0.1217288,-0.0413759,0.0864559,0.0439639,0.0126693,0.0046461,0.107340
 2,0.0099004,0.0690392,-0.231259,-0.0969547,0.0653035,0.1450986,-0.0228
 653,-0.0327141,0.2008309,0.0313331,0.1178712,-0.1085147,-0.0502904,0.0
 725798,-0.1016485,-0.012706,-0.0005855,0.0828664,0.0164231,0.0465704,0
 .0151041,0.0542493,-0.0750265,0.0359903,-0.0419745,0.01819,-0.0616083,
 0.0714259,0.0314001,0.0990053,-0.0346749,0.0047787,0.0004429,-0.024797
 8,-0.0347347,-0.0214757,-0.0752328,-0.0581423,0.0151371,0.009919,0.072
 1834,-0.0883946,0.0127738,0.0147778,0.0737838,0.0141668,0.1430948,-0.0
 003965,-0.0625611,0.0437403,0.01816,0.0395323,-0.0230972,0.0342861,-0.
 000695,0.0415922,0.085268,-0.0549502,-0.0103937,0.0183951,-0.043885,-0
 .0522712,-0.0008803,-0.0950037,-0.0850065,0.0056137,0.04547,-0.0817011
 ,0.0638795,-0.0653655,0.0350415,-0.079259,0.0947525,0.0188431\Polar=10
 5.1368977,0.5353451,85.1971178,-4.1312393,4.2371275,60.2686691\PG=C01 
 [X(C5H11O2)]\NImag=1\\0.24684881,-0.13891653,0.75586365,-0.07895566,0.
 12059042,0.15397639,-0.15686906,0.19118661,0.07122443,0.51969416,0.164
 57296,-0.43217722,-0.11101658,-0.10271013,0.74097626,0.06836158,-0.122
 79326,-0.08466606,-0.19258204,0.09627340,0.23820636,-0.00559450,0.0007
 8444,0.00189455,0.00103098,0.00052125,-0.00051852,0.56739757,0.0053419
 1,0.00018874,-0.00229724,-0.00149004,-0.00026298,0.00083823,0.03587204
 ,0.58939467,-0.00920337,-0.00056637,0.00483318,0.00257459,0.00022781,-
 0.00147006,-0.03627824,0.06272386,0.48891534,0.00054812,-0.00027608,0.
 00001911,-0.00034297,0.00007435,0.00023661,-0.20863513,-0.05837000,0.1
 1385303,0.21577521,-0.00194066,0.00027669,0.00080583,0.00059447,0.0000
 0834,-0.00042543,-0.05449348,-0.07201755,0.03744153,0.06134145,0.07688
 978,0.00264669,-0.00014538,-0.00091370,-0.00067643,0.00008314,0.000370
 09,0.10988914,0.03466961,-0.12631148,-0.12114759,-0.05305453,0.1474779
 6,0.00048586,0.00002166,-0.00034951,-0.00023185,-0.00020545,0.00013833
 ,-0.13347051,-0.09935289,-0.07010271,-0.01187740,-0.01629798,-0.011755
 89,0.14214364,-0.00027688,-0.00004972,-0.00000318,0.00009346,0.0000089
 9,-0.00005570,-0.10539960,-0.17872448,-0.08967076,-0.00317973,-0.00498
 662,-0.00455070,0.11101317,0.18362922,0.00113129,0.00010575,-0.0003379
 4,-0.00042633,-0.00009536,0.00022856,-0.06659559,-0.07985611,-0.106761
 45,0.01008492,0.01219431,0.01122812,0.08390832,0.09204534,0.12309399,0
 .00065258,0.00016622,-0.00034997,-0.00018096,-0.00018677,0.00003642,-0
 .13073267,0.10781919,0.04889143,-0.01258327,0.01943171,0.00947346,0.01
 218994,-0.01501046,-0.00482750,0.13665494,-0.00140699,-0.00012679,0.00
 077736,0.00040476,0.00004717,-0.00025780,0.10997728,-0.20576543,-0.065
 23830,-0.00642265,0.00876125,0.00244407,0.01151418,-0.01361809,-0.0062
 5520,-0.12615110,0.22699900,0.00037091,-0.00013193,-0.00021634,-0.0000
 8168,0.00007898,0.00012006,0.05135264,-0.07345918,-0.07771884,0.008964
 61,-0.01447244,-0.00358305,0.00940709,-0.00997243,-0.00330979,-0.04769
 944,0.06381706,0.08315233,0.01725069,-0.00030183,-0.00655451,-0.004337
 64,-0.00135712,0.00174720,-0.07378894,0.03530075,-0.03640065,0.0136558
 7,-0.01098423,0.01077224,-0.00907271,0.00929717,-0.01810650,-0.0071593
 4,0.01385681,-0.02533588,0.17582265,0.02394012,0.00147147,-0.01104590,
 -0.00635314,-0.00182238,0.00309292,0.01601260,-0.14236613,0.05739658,0
 .00405942,-0.00863384,0.01867427,-0.00919643,0.01114886,-0.02046774,0.
 01297349,-0.01893988,0.03221062,0.03988312,0.29350928,0.02662611,0.003
 08234,-0.01252253,-0.00797879,-0.00213405,0.00392375,-0.02463795,0.091
 16844,-0.14528336,-0.01383963,0.02056927,-0.03335373,-0.00899827,0.007
 72871,-0.01804209,-0.00923672,0.00630045,-0.00233954,0.12526442,-0.045
 41667,0.28953069,-0.13076778,-0.00773258,0.06206455,0.01467612,-0.0016
 0612,-0.00738859,-0.02334219,-0.01951418,-0.02567614,0.00444995,-0.000
 00960,0.00503551,-0.00014796,0.00324004,-0.00436911,0.00268302,-0.0035
 4017,0.00338051,-0.06973672,-0.03516350,-0.04351586,0.14917649,-0.0315
 2125,0.00135160,0.01555449,0.00740909,0.00187182,-0.00368733,-0.004404
 68,0.00968738,-0.00384946,0.00259962,-0.00049814,0.00221129,0.00228235
 ,0.00254117,0.00221735,0.00115742,0.00267370,0.00231265,-0.06187489,-0
 .12606374,-0.08264190,0.03462230,0.12773267,0.02732266,0.00147798,-0.0
 0580040,0.00217431,0.00330701,-0.00203296,-0.02822982,-0.03363261,-0.0
 3371136,0.00043785,-0.00250984,0.00399694,-0.00254550,0.00413333,-0.00
 557552,0.00294063,-0.00096149,0.00399387,-0.04179794,-0.04858257,-0.10
 114249,0.01691486,0.10189424,0.18619795,0.10634581,0.00527256,-0.06098
 613,-0.02586711,0.00414188,0.01525803,0.00520885,-0.00391302,0.0100333
 0,-0.00070292,0.00199241,-0.00341200,0.00015763,0.00005653,-0.00036993
 ,-0.00126009,0.00143542,-0.00034134,-0.03519829,-0.04172097,-0.0381652
 8,0.04048549,0.04187844,0.02105443,-0.07052169,0.00593043,-0.02030285,
 -0.00446546,0.00659115,0.00013773,-0.00345024,0.00139536,-0.00047775,0
 .00129809,0.00009229,0.00063377,-0.00017619,-0.00006438,0.00001635,0.0
 0007855,-0.00011431,-0.00001173,-0.00037391,-0.02664724,-0.00984805,-0
 .00041901,0.02957856,-0.01890093,-0.02242925,-0.00604970,0.05672980,-0
 .05215602,-0.00386435,-0.00125640,0.01346003,-0.00220560,-0.00219052,-
 0.00592785,-0.00068455,-0.00160239,0.00120191,-0.00037403,0.00088488,0
 .00021564,0.00035578,-0.00064084,0.00057266,-0.00045427,-0.00009877,-0
 .01150086,0.01150820,0.01651881,-0.00091097,-0.03038368,-0.04360060,0.
 04661476,0.02581795,0.03056468,-0.01565096,0.00230859,0.01333998,-0.25
 346209,-0.01964907,0.10269521,0.00034396,-0.00009324,0.00020701,-0.000
 17739,0.00006151,-0.00005563,-0.00003134,0.00001172,-0.00004718,-0.000
 06786,0.00005366,-0.00001465,-0.00036649,-0.00064917,-0.00069395,-0.00
 048463,0.00055229,0.00119538,0.00125688,0.00139160,0.00058641,0.273560
 43,0.02338882,-0.00261832,-0.01246732,-0.01561900,-0.04979727,0.006670
 96,-0.00032456,0.00033919,-0.00045684,0.00011346,-0.00013362,0.0001336
 7,0.00008062,-0.00003051,0.00011277,0.00003679,-0.00007283,-0.00001003
 ,0.00089065,0.00179933,0.00176865,-0.00199854,-0.00177723,-0.00132853,
 0.00334684,-0.00101770,-0.00159100,0.01854110,0.05582573,0.01529191,-0
 .00243048,0.00393303,0.10276276,0.00859493,-0.08543015,0.00011895,0.00
 038889,-0.00068324,-0.00025548,-0.00005065,0.00010621,0.00000771,-0.00
 000553,0.00004008,-0.00004070,-0.00008735,0.00006109,0.00091799,0.0003
 2978,0.00057686,0.00020927,-0.00043475,0.00006729,0.00032976,-0.000662
 69,0.00199529,-0.12143688,-0.00600949,0.07596192,-0.06901770,-0.047320
 59,-0.00225247,0.00766472,0.01670668,-0.00113161,0.00166300,-0.0014986
 1,0.00242152,-0.00028923,0.00039580,-0.00081473,-0.00014097,0.00013065
 ,-0.00037606,-0.00022748,0.00037079,-0.00006582,-0.00480483,-0.0054426
 9,-0.00541767,0.01359360,0.00664408,0.00054109,-0.02220047,-0.01161233
 ,0.00901340,0.00038128,0.00003527,-0.00280972,0.53496560,-0.03283295,-
 0.21949789,0.00275980,-0.01076517,-0.02475506,0.00291960,-0.00047226,0
 .00069582,-0.00095560,0.00003060,-0.00010545,0.00017373,0.00013201,-0.
 00006243,0.00018336,0.00013970,-0.00014236,-0.00000345,0.00168375,0.00
 174724,0.00212626,-0.00129903,-0.00146304,-0.00148030,-0.00011641,-0.0
 0338105,-0.00026547,-0.00133885,0.00182842,0.00110895,-0.02873233,0.48
 985913,-0.00135921,0.01025213,-0.06509402,-0.00357567,-0.01040989,0.00
 289159,-0.00097504,0.00034321,-0.00062919,0.00029834,-0.00028421,0.000
 18480,0.00012305,0.00001902,0.00009781,0.00008812,-0.00015087,0.000028
 20,0.00180246,0.00271612,0.00241900,-0.00642691,-0.00289656,-0.0015537
 3,0.01190199,0.00501371,-0.00142595,-0.00278491,0.00056259,-0.00367161
 ,0.00125261,0.00888284,0.54181179,-0.00982997,-0.00671642,0.00432145,0
 .00084173,0.00223831,-0.00050597,0.00025993,-0.00011195,0.00017337,-0.
 00005948,0.00006953,-0.00001752,-0.00003244,-0.00001029,-0.00001854,-0
 .00000256,0.00004100,-0.00002196,-0.00036425,-0.00048445,-0.00045419,-
 0.00002834,0.00074295,0.00060333,0.00093317,-0.00099099,-0.00024275,0.
 00074679,-0.00077967,-0.00009465,-0.25249820,-0.01385863,0.09910033,0.
 27596607,-0.02839470,-0.00882199,0.01316458,0.00091374,0.00335344,-0.0
 0012731,0.00056713,-0.00053262,0.00081966,-0.00006802,0.00013313,-0.00
 024268,-0.00006687,0.00004518,-0.00013123,-0.00011084,0.00012643,-0.00
 001689,-0.00149774,-0.00174966,-0.00191082,0.00307856,0.00234734,0.000
 99965,-0.00455968,-0.00225098,0.00138858,0.00105721,-0.00060351,-0.000
 64719,-0.01914648,-0.04489213,0.00947766,0.02141243,0.05084986,0.00243
 751,0.00245108,-0.00060632,-0.00061211,-0.00075065,-0.00027561,-0.0000
 0890,0.00004228,-0.00013986,-0.00003269,-0.00000170,0.00002484,0.00000
 456,-0.00001235,0.00002001,0.00001893,-0.00000557,0.00000007,-0.000101
 61,0.00003512,0.00014676,0.00024667,-0.00035679,-0.00033993,-0.0004571
 9,0.00029045,0.00116482,0.00003645,0.00028200,0.00063264,0.09875263,0.
 00698628,-0.09276721,-0.11090115,-0.00973566,0.09626938,0.00775168,-0.
 00461341,0.00777698,0.00010704,-0.00094724,-0.00030447,-0.00005717,0.0
 0002857,-0.00001068,0.00006417,-0.00006764,-0.00006482,0.00004731,0.00
 003324,-0.00001215,-0.00003199,-0.00002162,0.00001804,0.00015667,0.000
 24607,0.00022399,-0.00047025,-0.00006000,-0.00013605,0.00094798,0.0001
 0169,-0.00033057,-0.00008635,-0.00005280,-0.00053679,-0.16350624,0.090
 68593,-0.09436542,-0.01796896,0.01458736,-0.01599921,0.17447012,0.0219
 2334,-0.02284437,0.01514459,-0.00276529,-0.00177172,0.00195185,-0.0002
 2095,-0.00018501,0.00049628,0.00007965,-0.00011427,-0.00018063,0.00007
 383,0.00006043,-0.00008314,-0.00002841,0.00002386,-0.00001007,-0.00000
 517,0.00008315,-0.00036659,-0.00040626,0.00047017,0.00021723,0.0005219
 3,-0.00009140,-0.00044823,0.00012639,0.00022115,0.00056817,0.09202905,
 -0.11521899,0.07522034,-0.00196134,0.00113192,-0.00215505,-0.09971450,
 0.13183398,0.00148822,0.00172347,0.00092080,0.00022917,-0.00137950,-0.
 00022725,-0.00000263,0.00000411,0.00010922,-0.00003093,0.00004069,-0.0
 0001064,0.00000473,-0.00001998,-0.00001292,0.00008820,0.00001957,-0.00
 003290,-0.00004476,-0.00011374,0.00003595,0.00010444,-0.00033932,-0.00
 010885,-0.00020091,0.00029472,0.00020859,0.00016756,-0.00002742,0.0006
 4349,-0.09484783,0.07383404,-0.12200349,0.00971137,-0.00862459,0.00781
 460,0.10437066,-0.08171407,0.12971740,-0.00122001,-0.00475105,-0.00783
 021,-0.00027636,0.00040611,0.00008231,0.00000596,0.00010426,-0.0001975
 3,0.00001180,-0.00001914,0.00005432,0.00000820,-0.00001478,0.00004946,
 -0.00001949,-0.00002260,0.00000717,0.00010849,0.00022915,0.00022702,-0
 .00048888,0.00004050,0.00007105,0.00090008,-0.00016869,-0.00030406,0.0
 0050229,-0.00010807,0.00062655,-0.04644364,-0.00480846,-0.01062367,0.0
 0190239,0.01216993,0.02692934,-0.00143403,-0.00904532,-0.02074222,0.04
 633736,-0.00005230,-0.01867778,-0.03000059,-0.00322844,-0.00190298,0.0
 0058234,0.00000139,0.00003019,0.00001716,0.00001196,-0.00007289,-0.000
 00447,0.00002617,-0.00000105,0.00000935,-0.00002336,-0.00000050,0.0000
 0939,-0.00007461,0.00003410,0.00003653,-0.00056352,0.00009368,0.000155
 66,0.00086935,0.00000823,-0.00012628,-0.00037193,0.00028616,-0.0004634
 7,-0.00502843,-0.08457242,-0.09670088,0.00057335,0.00053696,0.00276975
 ,0.00017262,0.00736549,0.01606952,0.00643045,0.09808552,0.00091624,-0.
 00159886,0.00596147,-0.00078091,0.00141960,0.00027079,0.00009550,-0.00
 002719,-0.00003474,-0.00001689,0.00002049,0.00000825,-0.00001521,-0.00
 000139,0.00000014,-0.00002293,0.00000607,0.00000426,-0.00021602,-0.000
 11275,-0.00014798,0.00021729,0.00012710,0.00004182,-0.00034965,-0.0002
 4210,0.00039903,-0.00005330,0.00008916,0.00000990,-0.00978707,-0.09469
 021,-0.26977112,-0.00131206,-0.00439999,-0.01159249,-0.00026074,-0.006
 49753,-0.01658844,0.01177747,0.10583114,0.29174924,0.00935447,0.011198
 88,-0.00357705,-0.10250254,-0.04952973,0.01225261,-0.00017618,-0.00004
 119,-0.00019253,0.00008347,-0.00001481,0.00006017,-0.00000577,0.000008
 00,-0.00000884,0.00005607,-0.00005863,0.00007496,-0.00022204,-0.000500
 15,-0.00049129,0.00105618,-0.00011849,0.00022548,-0.00067896,0.0017057
 0,-0.00041155,-0.00754484,-0.02739175,0.00470263,-0.00004483,0.0017881
 8,0.00629542,0.00013800,-0.00006365,-0.00033412,0.00014108,-0.00035787
 ,-0.00037097,0.00033350,0.00164296,-0.00020723,0.57419840,-0.00076611,
 -0.03414633,-0.00188672,-0.05308095,-0.19088346,0.01652825,0.00021533,
 -0.00011841,0.00007548,-0.00012254,0.00006024,-0.00003055,-0.00006027,
 0.00001186,-0.00004657,-0.00003865,0.00000409,0.00008112,0.00050465,-0
 .00154841,-0.00139723,0.00291234,0.00145798,0.00048751,-0.00471232,-0.
 00017648,0.00185381,0.00037657,-0.00060598,-0.00091120,0.00070052,0.00
 189999,-0.00101295,-0.00033431,-0.00002433,0.00020455,-0.00016619,-0.0
 0046996,0.00018405,-0.00024312,-0.00072098,-0.00002558,-0.02727185,0.4
 8900634,-0.00503481,-0.00816867,0.00210376,0.01202362,0.01488230,-0.07
 458825,-0.00003652,-0.00042034,0.00091438,0.00029164,0.00002158,-0.000
 10386,0.00000253,-0.00000399,-0.00002053,0.00000718,0.00013487,-0.0001
 4568,-0.00159991,0.00129595,0.00029560,-0.00072353,-0.00026221,-0.0007
 9039,-0.00004205,-0.00071964,-0.00148471,0.00659081,0.01232923,0.00389
 952,0.00628942,-0.00176222,0.00977818,-0.00033106,0.00010119,-0.000348
 76,-0.00047571,-0.00242368,-0.00036558,-0.00012979,0.00187812,-0.00027
 784,-0.01783101,0.01024093,0.54514974,0.00097028,0.00121978,-0.0005285
 8,-0.00941022,-0.00050888,0.00379834,-0.00011636,-0.00004444,-0.000510
 33,0.00002707,-0.00006685,0.00007221,-0.00001920,0.00001368,-0.0000067
 6,0.00006154,-0.00011482,0.00010074,-0.00162236,0.00116001,0.00056200,
 0.00003391,0.00041261,-0.00004251,-0.00012169,-0.00055881,0.00025090,0
 .00059402,-0.00154008,0.00028560,-0.00005137,0.00005784,-0.00000922,0.
 00001138,0.00002194,-0.00000874,0.00002591,0.00001596,-0.00002498,-0.0
 0000713,-0.00002767,0.00001229,-0.27887690,0.00448333,0.10301669,0.300
 14189,-0.00143509,0.00224605,0.00091310,-0.03031588,0.00043029,0.01367
 699,0.00018023,-0.00007755,0.00055050,0.00003322,-0.00001528,-0.000024
 86,-0.00003201,0.00000386,-0.00005911,-0.00005771,0.00009414,-0.000107
 42,0.00085292,0.00030865,0.00056024,-0.00034218,-0.00076266,-0.0012336
 7,0.00024252,-0.00104291,-0.00007454,-0.00214182,-0.00573763,0.0004999
 6,0.00028145,-0.00022889,-0.00011516,0.00021948,0.00017936,-0.00009218
 ,0.00000011,-0.00005557,0.00000560,-0.00001298,-0.00003230,-0.00000393
 ,0.00848916,-0.04896724,-0.00416309,-0.00492337,0.05532761,0.00004559,
 -0.00044609,-0.00040268,0.00226218,0.00049399,-0.00199126,-0.00012744,
 0.00019356,-0.00015704,-0.00004336,0.00013723,-0.00003717,-0.00010207,
 0.00001612,-0.00002366,0.00004703,-0.00005472,0.00000587,0.00087450,-0
 .00113909,-0.00049892,0.00065320,0.00041250,-0.00005168,-0.00081717,-0
 .00014514,0.00067833,0.00037790,0.00045050,0.00149707,-0.00022845,0.00
 008811,-0.00004221,-0.00002082,-0.00008810,-0.00000967,0.00004922,0.00
 005244,-0.00001841,-0.00003465,-0.00003544,0.00001203,0.10207260,-0.00
 232342,-0.09461435,-0.11289510,0.00281588,0.09742737,-0.00080088,-0.00
 054701,0.00042105,-0.00026961,-0.00488830,-0.01121284,-0.00009074,0.00
 003489,0.00020072,0.00003842,0.00007585,-0.00004147,-0.00004920,0.0000
 0130,-0.00001039,0.00001030,0.00002503,-0.00008230,0.00012055,0.000170
 97,0.00005757,-0.00022252,-0.00003240,-0.00040056,0.00003959,-0.000332
 08,0.00008381,0.00023048,0.00046892,0.00014708,0.00084537,-0.00018552,
 0.00041774,-0.00003610,0.00004145,-0.00002708,-0.00009686,-0.00030886,
 0.00001574,-0.00011711,0.00000403,-0.00000333,-0.04881194,-0.00723954,
 -0.00979565,0.00391452,0.01391265,0.02681772,0.04696577,-0.00444422,-0
 .00124343,0.00066206,-0.00034492,-0.02019347,-0.02842581,-0.00010605,0
 .00012033,-0.00019240,0.00002582,-0.00013876,0.00002446,0.00008061,0.0
 0000315,0.00002562,-0.00001183,-0.00003190,0.00004110,0.00024370,0.000
 45403,0.00054447,-0.00074425,-0.00044785,-0.00035924,0.00069362,0.0000
 1305,-0.00054948,0.00048016,0.00102208,0.00127331,0.00188910,-0.001034
 14,0.00182794,-0.00007095,0.00010477,-0.00006940,-0.00019945,-0.000703
 57,-0.00007539,-0.00007444,0.00027255,-0.00002891,-0.00652893,-0.09643
 322,-0.10694697,0.00032471,-0.00091966,0.00006083,0.00835013,0.1106194
 6,-0.00064213,0.00087808,0.00034328,0.00085006,0.00221817,0.00699497,-
 0.00004822,0.00000103,-0.00017379,-0.00000354,-0.00003528,0.00001772,0
 .00004925,-0.00000278,0.00002364,0.00001537,-0.00002192,0.00003818,0.0
 0016788,-0.00002349,0.00011513,-0.00009015,-0.00006300,0.00018093,0.00
 011543,0.00019162,-0.00017040,-0.00031044,-0.00076992,0.00030288,-0.00
 031951,0.00005531,-0.00035395,0.00001012,-0.00002182,0.00001727,0.0000
 0593,0.00016393,-0.00002896,0.00000727,-0.00005860,-0.00000115,-0.0096
 2784,-0.10546316,-0.25457651,-0.00187028,-0.00454722,-0.01077408,0.012
 15818,0.11607701,0.27620055,-0.00045744,-0.00098326,0.00032197,0.00973
 566,-0.00707274,0.00903741,0.00009413,-0.00007205,0.00021721,0.0000137
 0,-0.00006834,-0.00001765,0.00004677,-0.00000723,0.00000091,-0.0000426
 9,0.00005964,-0.00003359,-0.00044132,0.00083555,0.00046850,-0.00046548
 ,-0.00032994,-0.00032869,0.00027574,-0.00024824,-0.00021489,0.00025583
 ,0.00091199,-0.00022600,0.00011137,-0.00010840,-0.00116001,0.00002082,
 0.00005823,0.00005670,-0.00006011,0.00004383,0.00008512,-0.00010341,-0
 .00036202,0.00000655,-0.14649718,0.08484310,-0.09222187,-0.01555529,0.
 01504930,-0.01893087,-0.00167003,0.00043718,-0.00046740,0.15473894,-0.
 00310990,-0.00089152,0.00281076,0.01947967,-0.02326750,0.01668833,-0.0
 0010546,0.00007160,-0.00011723,-0.00002282,-0.00004678,-0.00000426,0.0
 0005166,0.00000384,0.00002205,0.00000890,-0.00002013,0.00000683,0.0002
 2930,0.00041599,0.00040091,-0.00051189,-0.00031392,-0.00015512,0.00062
 061,-0.00003709,0.00009717,-0.00071673,0.00107253,-0.00106120,-0.00040
 195,-0.00067674,-0.00274506,0.00002195,0.00006682,0.00011783,-0.000012
 73,0.00026472,0.00011822,-0.00011174,-0.00073197,0.00013487,0.08704418
 ,-0.11834570,0.08398665,0.00007506,-0.00075026,-0.00048915,-0.00955151
 ,0.00853658,-0.00857798,-0.09298660,0.13464956,0.00071250,-0.00041586,
 -0.00025554,-0.00084720,0.00041230,-0.00013405,0.00003592,0.00000399,-
 0.00009531,-0.00001792,-0.00002282,0.00001382,0.00000795,0.00000049,-0
 .00000759,-0.00000218,-0.00001196,0.00004098,0.00011194,-0.00035762,-0
 .00023190,0.00027498,0.00018537,0.00022909,-0.00016605,0.00009853,0.00
 005616,0.00020024,0.00026103,0.00005776,-0.00021973,0.00003898,0.00010
 112,0.00000071,-0.00000506,-0.00001055,0.00005179,0.00006416,-0.000052
 62,0.00003016,0.00003076,-0.00004317,-0.09263143,0.08344166,-0.1348247
 2,0.00779775,-0.00860110,0.00900048,-0.01874599,0.01611080,-0.01815572
 ,0.10340659,-0.09123365,0.14431176\\-0.00000121,-0.00000013,0.00000013
 ,-0.00000050,-0.00000012,-0.00000068,-0.00000036,-0.00000029,0.0000003
 4,0.00000032,-0.00000012,0.00000016,-0.00000003,-0.00000022,0.00000017
 ,-0.00000017,-0.00000019,0.00000021,-0.00000059,-0.00000059,-0.0000008
 7,0.00000116,0.00000184,-0.00000032,0.00000027,-0.00000084,0.00000128,
 0.00000005,0.00000038,0.00000011,0.,0.00000034,0.00000004,-0.00000005,
 0.00000022,-0.00000011,-0.00000025,-0.00000001,-0.00000025,-0.00000007
 ,0.00000016,-0.00000005,-0.00000014,-0.00000056,0.00000090,0.00000091,
 -0.00000019,-0.00000092,0.00000021,0.,0.00000004,0.00000043,0.00000032
 ,-0.00000018\\\@


 WE HAVE LEFT UNDONE THOSE THINGS WHICH WE OUGHT TO HAVE DONE,
 AND WE HAVE DONE THOSE THINGS WHICH WE OUGHT NOT TO HAVE DONE.
                   BOOK OF COMMON PRAYER                      
 Job cpu time:       3 days  2 hours 21 minutes  9.5 seconds.
 Elapsed time:       0 days  1 hours 55 minutes  1.4 seconds.
 File lengths (MBytes):  RWF= 108510 Int=      0 D2E=      0 Chk=     21 Scr=      1
 Normal termination of Gaussian 16 at Fri Jun  7 05:42:57 2019.
