 Entering Gaussian System, Link 0=g16
 Initial command:
 /ichec/packages/gaussian/16b01/l1.exe "/localscratch/350156/Gau-83973.inp" -scrdir="/localscratch/350156/"
 Entering Link 1 = /ichec/packages/gaussian/16b01/l1.exe PID=     84334.
  
 Copyright (c) 1988-2017, Gaussian, Inc.  All Rights Reserved.
  
 This is part of the Gaussian(R) 16 program.  It is based on
 the Gaussian(R) 09 system (copyright 2009, Gaussian, Inc.),
 the Gaussian(R) 03 system (copyright 2003, Gaussian, Inc.),
 the Gaussian(R) 98 system (copyright 1998, Gaussian, Inc.),
 the Gaussian(R) 94 system (copyright 1995, Gaussian, Inc.),
 the Gaussian 92(TM) system (copyright 1992, Gaussian, Inc.),
 the Gaussian 90(TM) system (copyright 1990, Gaussian, Inc.),
 the Gaussian 88(TM) system (copyright 1988, Gaussian, Inc.),
 the Gaussian 86(TM) system (copyright 1986, Carnegie Mellon
 University), and the Gaussian 82(TM) system (copyright 1983,
 Carnegie Mellon University). Gaussian is a federally registered
 trademark of Gaussian, Inc.
  
 This software contains proprietary and confidential information,
 including trade secrets, belonging to Gaussian, Inc.
  
 This software is provided under written license and may be
 used, copied, transmitted, or stored only in accord with that
 written license.
  
 The following legend is applicable only to US Government
 contracts under FAR:
  
                    RESTRICTED RIGHTS LEGEND
  
 Use, reproduction and disclosure by the US Government is
 subject to restrictions as set forth in subparagraphs (a)
 and (c) of the Commercial Computer Software - Restricted
 Rights clause in FAR 52.227-19.
  
 Gaussian, Inc.
 340 Quinnipiac St., Bldg. 40, Wallingford CT 06492
  
  
 ---------------------------------------------------------------
 Warning -- This program may not be used in any manner that
 competes with the business of Gaussian, Inc. or will provide
 assistance to any competitor of Gaussian, Inc.  The licensee
 of this program is prohibited from giving any competitor of
 Gaussian, Inc. access to this program.  By using this program,
 the user acknowledges that Gaussian, Inc. is engaged in the
 business of creating and licensing software in the field of
 computational chemistry and represents and warrants to the
 licensee that it is not a competitor of Gaussian, Inc. and that
 it will not use this program in any manner prohibited above.
 ---------------------------------------------------------------
  

 Cite this work as:
 Gaussian 16, Revision B.01,
 M. J. Frisch, G. W. Trucks, H. B. Schlegel, G. E. Scuseria, 
 M. A. Robb, J. R. Cheeseman, G. Scalmani, V. Barone, 
 G. A. Petersson, H. Nakatsuji, X. Li, M. Caricato, A. V. Marenich, 
 J. Bloino, B. G. Janesko, R. Gomperts, B. Mennucci, H. P. Hratchian, 
 J. V. Ortiz, A. F. Izmaylov, J. L. Sonnenberg, D. Williams-Young, 
 F. Ding, F. Lipparini, F. Egidi, J. Goings, B. Peng, A. Petrone, 
 T. Henderson, D. Ranasinghe, V. G. Zakrzewski, J. Gao, N. Rega, 
 G. Zheng, W. Liang, M. Hada, M. Ehara, K. Toyota, R. Fukuda, 
 J. Hasegawa, M. Ishida, T. Nakajima, Y. Honda, O. Kitao, H. Nakai, 
 T. Vreven, K. Throssell, J. A. Montgomery, Jr., J. E. Peralta, 
 F. Ogliaro, M. J. Bearpark, J. J. Heyd, E. N. Brothers, K. N. Kudin, 
 V. N. Staroverov, T. A. Keith, R. Kobayashi, J. Normand, 
 K. Raghavachari, A. P. Rendell, J. C. Burant, S. S. Iyengar, 
 J. Tomasi, M. Cossi, J. M. Millam, M. Klene, C. Adamo, R. Cammi, 
 J. W. Ochterski, R. L. Martin, K. Morokuma, O. Farkas, 
 J. B. Foresman, and D. J. Fox, Gaussian, Inc., Wallingford CT, 2016.
 
 ******************************************
 Gaussian 16:  ES64L-G16RevB.01 20-Dec-2017
                19-Jun-2019 
 ******************************************
 %mem=80GB
 %nproc=40
 Will use up to   40 processors via shared memory.
 ----------------------------------------------------------------------
 # opt=(calcfc,ts,noeigentest,maxcyc=500,modredundant) uB2PLYPD3/cc-pvt
 z scf=maxcyc=500 nosymm
 ----------------------------------------------------------------------
 1/5=1,6=500,10=4,11=1,18=120,38=1/1,3;
 2/9=110,12=2,15=1,17=6,18=5,40=1/2;
 3/5=16,6=1,11=2,25=1,30=1,71=2,74=-60,116=2,140=1/1,2,3;
 4//1;
 5/5=2,7=500,38=5/2;
 8/6=3,8=1,10=1,19=11,30=-1/1;
 9/15=3,16=-3/6;
 11/6=1,8=1,15=11,17=12,24=-1,27=1,28=-2,29=300,31=1,32=6,42=3/1,2,10;
 10/6=2,21=1,31=1/2;
 8/6=4,8=1,10=1,19=11,30=-1/11,4;
 10/5=1,20=4,31=1/2;
 11/12=2,14=11,16=1,17=2,28=-2,31=1,42=3,76=2/2,10,12;
 6/7=2,8=2,9=2,10=2/1;
 7/10=1,12=2,25=1,30=1,44=2/1,2,3,16;
 1/5=1,6=500,10=4,11=1,18=20/3(2);
 2/9=110,15=1/2;
 99//99;
 2/9=110,15=1/2;
 3/5=16,6=1,11=2,25=1,30=1,71=1,74=-60,116=2/1,2,3;
 4/5=5,16=3,69=1/1;
 5/5=2,7=500,38=5/2;
 8/6=4,10=1/1;
 9/15=2,16=-3/6;
 10/5=1,31=1/2;
 7/12=2,30=1/1,2,3,16;
 1/5=1,6=500,11=1,18=20/3(-8);
 2/9=110,15=1/2;
 6/7=2,8=2,9=2,10=2/1;
 99/9=10/99;
 -------------------
 Title Card Required
 -------------------
 Symbolic Z-matrix:
 Charge =  0 Multiplicity = 2
 C                    -1.17286   1.27224   0.38483 
 H                    -1.5426    2.18334   0.81897 
 C                     1.66525  -0.94318   0.55605 
 H                     0.97201  -0.77178   1.37865 
 H                     1.67264  -1.99497   0.27996 
 H                     2.66441  -0.61419   0.83419 
 O                     1.22855  -0.25025  -0.61182 
 O                     1.23014   1.11062  -0.33067 
 H                     0.1082    1.29986   0.01359 
 C                    -1.65809   0.13429   0.11205 
 C                    -2.02731  -1.09264  -0.22809 
 H                    -1.96865  -1.90786   0.47897 
 H                    -2.41757  -1.30161  -1.21357 
 
 Add virtual bond connecting atoms H9         and O8         Dist= 2.25D+00.
 Add virtual bond connecting atoms H9         and C1         Dist= 2.52D+00.
 The following ModRedundant input section has been read:
 D    *          8       1    *    R                                           
 D       2       1       8       7 S  36 10.000                                
 

 GradGradGradGradGradGradGradGradGradGradGradGradGradGradGradGradGradGrad
 Berny optimization.
 Initialization pass.
                           ----------------------------
                           !    Initial Parameters    !
                           ! (Angstroms and Degrees)  !
 --------------------------                            --------------------------
 ! Name  Definition              Value          Derivative Info.                !
 --------------------------------------------------------------------------------
 ! R1    R(1,2)                  1.0748         calculate D2E/DX2 analytically  !
 ! R2    R(1,9)                  1.3341         calculate D2E/DX2 analytically  !
 ! R3    R(1,10)                 1.2668         calculate D2E/DX2 analytically  !
 ! R4    R(3,4)                  1.0893         calculate D2E/DX2 analytically  !
 ! R5    R(3,5)                  1.0875         calculate D2E/DX2 analytically  !
 ! R6    R(3,6)                  1.0881         calculate D2E/DX2 analytically  !
 ! R7    R(3,7)                  1.4265         calculate D2E/DX2 analytically  !
 ! R8    R(7,8)                  1.3896         calculate D2E/DX2 analytically  !
 ! R9    R(8,9)                  1.1887         calculate D2E/DX2 analytically  !
 ! R10   R(10,11)                1.3257         calculate D2E/DX2 analytically  !
 ! R11   R(11,12)                1.0807         calculate D2E/DX2 analytically  !
 ! R12   R(11,13)                1.0803         calculate D2E/DX2 analytically  !
 ! A1    A(2,1,9)              115.1616         calculate D2E/DX2 analytically  !
 ! A2    A(2,1,10)             135.7788         calculate D2E/DX2 analytically  !
 ! A3    A(9,1,10)             109.0565         calculate D2E/DX2 analytically  !
 ! A4    A(4,3,5)              110.3793         calculate D2E/DX2 analytically  !
 ! A5    A(4,3,6)              110.1075         calculate D2E/DX2 analytically  !
 ! A6    A(4,3,7)              110.3035         calculate D2E/DX2 analytically  !
 ! A7    A(5,3,6)              110.5544         calculate D2E/DX2 analytically  !
 ! A8    A(5,3,7)              105.3114         calculate D2E/DX2 analytically  !
 ! A9    A(6,3,7)              110.0921         calculate D2E/DX2 analytically  !
 ! A10   A(3,7,8)              108.043          calculate D2E/DX2 analytically  !
 ! A11   A(7,8,9)              102.3232         calculate D2E/DX2 analytically  !
 ! A12   A(10,11,12)           121.0083         calculate D2E/DX2 analytically  !
 ! A13   A(10,11,13)           120.9093         calculate D2E/DX2 analytically  !
 ! A14   A(12,11,13)           118.0671         calculate D2E/DX2 analytically  !
 ! A15   L(1,9,8,4,-1)         172.3233         calculate D2E/DX2 analytically  !
 ! A16   L(1,10,11,3,-1)       174.1553         calculate D2E/DX2 analytically  !
 ! A17   L(1,9,8,4,-2)         172.8217         calculate D2E/DX2 analytically  !
 ! A18   L(1,10,11,3,-2)       183.1334         calculate D2E/DX2 analytically  !
 ! D1    D(2,1,8,7)            171.8112         Scan                            !
 ! D2    D(2,1,11,12)          -90.3179         calculate D2E/DX2 analytically  !
 ! D3    D(2,1,11,13)           92.1149         calculate D2E/DX2 analytically  !
 ! D4    D(9,1,11,12)           90.4248         calculate D2E/DX2 analytically  !
 ! D5    D(9,1,11,13)          -87.1424         calculate D2E/DX2 analytically  !
 ! D6    D(4,3,7,8)             62.3652         calculate D2E/DX2 analytically  !
 ! D7    D(5,3,7,8)           -178.5396         calculate D2E/DX2 analytically  !
 ! D8    D(6,3,7,8)            -59.3465         calculate D2E/DX2 analytically  !
 ! D9    D(3,7,8,9)            -93.8932         calculate D2E/DX2 analytically  !
 --------------------------------------------------------------------------------
 Trust Radius=3.00D-01 FncErr=1.00D-07 GrdErr=1.00D-07 EigMax=2.50D+02 EigMin=1.00D-04
 Number of optimizations in scan=  37
 Number of steps in this run=    100 maximum allowed number of steps=    100.
 Search for a saddle point of order  1.
 GradGradGradGradGradGradGradGradGradGradGradGradGradGradGradGradGradGrad

                          Input orientation:                          
 ---------------------------------------------------------------------
 Center     Atomic      Atomic             Coordinates (Angstroms)
 Number     Number       Type             X           Y           Z
 ---------------------------------------------------------------------
      1          6           0       -1.172857    1.272235    0.384834
      2          1           0       -1.542596    2.183340    0.818972
      3          6           0        1.665250   -0.943178    0.556050
      4          1           0        0.972010   -0.771778    1.378650
      5          1           0        1.672644   -1.994973    0.279961
      6          1           0        2.664414   -0.614190    0.834187
      7          8           0        1.228554   -0.250246   -0.611816
      8          8           0        1.230139    1.110616   -0.330668
      9          1           0        0.108204    1.299864    0.013586
     10          6           0       -1.658085    0.134294    0.112054
     11          6           0       -2.027308   -1.092644   -0.228086
     12          1           0       -1.968645   -1.907860    0.478974
     13          1           0       -2.417566   -1.301610   -1.213572
 ---------------------------------------------------------------------
                    Distance matrix (angstroms):
                    1          2          3          4          5
     1  C    0.000000
     2  H    1.074847   0.000000
     3  C    3.604472   4.487150   0.000000
     4  H    3.125078   3.920358   1.089326   0.000000
     5  H    4.333881   5.299679   1.087452   1.787236   0.000000
     6  H    4.299438   5.052261   1.088082   1.784798   1.788110
     7  O    3.012978   3.955852   1.426453   2.073588   2.009118
     8  O    2.512460   3.187549   2.278960   2.555740   3.195835
     9  H    1.334056   2.038214   2.783864   2.627025   3.657100
    10  C    1.266793   2.170636   3.521737   3.056572   3.956732
    11  C    2.588129   3.473233   3.777856   3.417669   3.842129
    12  H    3.279504   4.127352   3.760551   3.278346   3.647764
    13  H    3.275497   4.128157   4.464238   4.299949   4.409219
                    6          7          8          9         10
     6  H    0.000000
     7  O    2.070042   0.000000
     8  O    2.527645   1.389601   0.000000
     9  H    3.297150   2.012251   1.188724   0.000000
    10  C    4.445863   3.000757   3.080754   2.118496   0.000000
    11  C    4.834211   3.384896   3.933934   3.216040   1.325669
    12  H    4.823380   3.762923   4.472017   3.849595   2.097968
    13  H    5.521991   3.842092   4.461402   3.827936   2.096644
                   11         12         13
    11  C    0.000000
    12  H    1.080718   0.000000
    13  H    1.080348   1.853046   0.000000
 Symmetry turned off by external request.
 Stoichiometry    C4H7O2(2)
 Framework group  C1[X(C4H7O2)]
 Deg. of freedom    33
 Full point group                 C1      NOp   1
 Rotational constants (GHZ):           5.0040166           2.2702067           1.7681218
 Standard basis: CC-pVTZ (5D, 7F)
   278 basis functions,   431 primitive gaussians,   315 cartesian basis functions
    24 alpha electrons       23 beta electrons
       nuclear repulsion energy       222.2939993779 Hartrees.
 NAtoms=   13 NActive=   13 NUniq=   13 SFac= 1.00D+00 NAtFMM=   60 NAOKFM=F Big=F
 Integral buffers will be    131072 words long.
 Raffenetti 2 integral format.
 Two-electron integral symmetry is turned off.
 Nuclear repulsion after empirical dispersion term =      222.2874558996 Hartrees.
 One-electron integrals computed using PRISM.
 NBasis=   278 RedAO= T EigKep=  1.30D-04  NBF=   278
 NBsUse=   278 1.00D-06 EigRej= -1.00D+00 NBFU=   278
 ExpMin= 1.03D-01 ExpMax= 1.53D+04 ExpMxC= 5.22D+02 IAcc=3 IRadAn=         5 AccDes= 0.00D+00
 Harris functional with IExCor=  419 and IRadAn=       5 diagonalized for initial guess.
 HarFok:  IExCor=  419 AccDes= 0.00D+00 IRadAn=         5 IDoV= 1 UseB2=F ITyADJ=14
 ICtDFT=  3500011 ScaDFX=  1.000000  1.000000  1.000000  1.000000
 FoFCou: FMM=F IPFlag=           0 FMFlag=      100000 FMFlg1=           0
         NFxFlg=           0 DoJE=T BraDBF=F KetDBF=T FulRan=T
         wScrn=  0.000000 ICntrl=       500 IOpCl=  0 I1Cent=   200000004 NGrid=           0
         NMat0=    1 NMatS0=      1 NMatT0=    0 NMatD0=    1 NMtDS0=    0 NMtDT0=    0
 Symmetry not used in FoFCou.
 Initial guess <Sx>= 0.0000 <Sy>= 0.0000 <Sz>= 0.5000 <S**2>= 0.7500 S= 0.5000
 Requested convergence on RMS density matrix=1.00D-08 within 500 cycles.
 Requested convergence on MAX density matrix=1.00D-06.
 Requested convergence on             energy=1.00D-06.
 No special actions if energy rises.
 Integral accuracy reduced to 1.0D-05 until final iterations.
 Initial convergence to 1.0D-05 achieved.  Increase integral accuracy.
 SCF Done:  E(UB2PLYPD3) =  -306.339014273     A.U. after   22 cycles
            NFock= 22  Conv=0.92D-08     -V/T= 2.0043
 <Sx>= 0.0000 <Sy>= 0.0000 <Sz>= 0.5000 <S**2>= 0.8340 S= 0.5411
 <L.S>=  0.00000000000    
 Annihilation of the first spin contaminant:
 S**2 before annihilation     0.8340,   after     0.7536
 DoSCS=T DFT=T ScalE2(SS,OS)=  0.270000  0.270000
 ExpMin= 1.03D-01 ExpMax= 1.53D+04 ExpMxC= 5.22D+02 IAcc=3 IRadAn=         5 AccDes= 0.00D+00
 HarFok:  IExCor=  205 AccDes= 0.00D+00 IRadAn=         5 IDoV=-2 UseB2=F ITyADJ=14
 ICtDFT= 12500011 ScaDFX=  1.000000  1.000000  1.000000  1.000000
 Range of M.O.s used for correlation:     7   278
 NBasis=   278 NAE=    24 NBE=    23 NFC=     6 NFV=     0
 NROrb=    272 NOA=    18 NOB=    17 NVA=   254 NVB=   255

 **** Warning!!: The largest alpha MO coefficient is  0.25687834D+02


 **** Warning!!: The largest beta MO coefficient is  0.26484757D+02

 DoSCS=T DFT=T ScalE2(SS,OS)=  0.270000  0.270000
 Disk-based method using ON**2 memory for 18 occupieds at a time.
 Permanent disk used for amplitudes=    52814601 words.
 Estimated scratch disk usage=  1003328088 words.
 Actual    scratch disk usage=   969747544 words.
 JobTyp=2 Pass  1:  I=   7 to  24 NPSUse= 40 ParTrn=T ParDer=T DoDerP=T.
 (rs|ai) integrals will be sorted in core.
 Actual    scratch disk usage=   969747544 words.
 JobTyp=3 Pass  1:  I=   7 to  23 NPSUse= 40 ParTrn=T ParDer=T DoDerP=T.
 (rs|ai) integrals will be sorted in core.
 Spin components of T(2) and E(2):
     alpha-alpha T2 =       0.6722008427D-01 E2=     -0.4688001454D-01
     alpha-beta  T2 =       0.4083126066D+00 E2=     -0.2827839278D+00
     beta-beta   T2 =       0.7966094199D-01 E2=     -0.4733261746D-01
 (S**2,0)=  0.83396D+00           (S**2,1)=  0.76230D+00
 Scaling Projection term by:   0.270000
 E(PUHF)=      -0.30635117107D+03        E(PMP2)=      -0.30671792685D+03
 E2(B2PLYPD3) =    -0.3769965598D+00 E(B2PLYPD3) =    -0.30671601083271D+03
 G2DrvN: will do    14 centers at a time, making    1 passes.
 Calling FoFCou, ICntrl=  3107 FMM=F I1Cent=   0 AccDes= 0.00D+00.
 End of G2Drv F.D. properties file   721 does not exist.
 End of G2Drv F.D. properties file   722 does not exist.
 End of G2Drv F.D. properties file   788 does not exist.
          IDoAtm=1111111111111
          Differentiating once with respect to electric field.
                with respect to dipole field.
          Differentiating once with respect to nuclear coordinates.
 Keep R1 and R2 ints in memory in canonical form, NReq=1549739849.
          There are    42 degrees of freedom in the 1st order CPHF.  IDoFFX=6 NUNeed=    42.
     39 vectors produced by pass  0 Test12= 2.85D-14 2.38D-09 XBig12= 1.09D+02 8.09D+00.
 AX will form    39 AO Fock derivatives at one time.
     39 vectors produced by pass  1 Test12= 2.85D-14 2.38D-09 XBig12= 1.26D+01 6.30D-01.
     39 vectors produced by pass  2 Test12= 2.85D-14 2.38D-09 XBig12= 1.08D+00 1.78D-01.
     39 vectors produced by pass  3 Test12= 2.85D-14 2.38D-09 XBig12= 2.07D-02 1.70D-02.
     39 vectors produced by pass  4 Test12= 2.85D-14 2.38D-09 XBig12= 3.33D-04 1.91D-03.
     39 vectors produced by pass  5 Test12= 2.85D-14 2.38D-09 XBig12= 3.99D-06 2.35D-04.
     39 vectors produced by pass  6 Test12= 2.85D-14 2.38D-09 XBig12= 3.48D-08 1.81D-05.
     23 vectors produced by pass  7 Test12= 2.85D-14 2.38D-09 XBig12= 2.20D-10 1.20D-06.
      4 vectors produced by pass  8 Test12= 2.85D-14 2.38D-09 XBig12= 1.86D-12 2.03D-07.
      2 vectors produced by pass  9 Test12= 2.85D-14 2.38D-09 XBig12= 1.64D-14 1.30D-08.
 InvSVY:  IOpt=1 It=  1 EMax= 1.07D-14
 Solved reduced A of dimension   302 with    42 vectors.
 End of Minotr F.D. properties file   721 does not exist.
 End of Minotr F.D. properties file   722 does not exist.
 End of Minotr F.D. properties file   788 does not exist.
 MDV= 10737418240.
 DoSCS=T DFT=T ScalE2(SS,OS)=  0.270000  0.270000
 Form MO integral derivatives with frozen-active canonical formalism.
 Discarding MO integrals.
 Reordered first order wavefunction length =    212909022
 In DefCFB: NBatch=  1 ICI= 24 ICA=255 LFMax= 85
            Large arrays: LIAPS=  4189699080 LIARS=   944622000 words.
 In DefCFB: NBatch=  1 ICI= 24 ICA=255 LFMax= 85
            Large arrays: LIAPS=  4189699080 LIARS=   944622000 words.
 Semi-Direct transformation.
 ModeAB=           4 MOrb=            24 LenV=   10735064261
 LASXX=    243620670 LTotXX=   243620670 LenRXX=   491663946
 LTotAB=   248043276 MaxLAS=   318007536 LenRXY=           0
 NonZer=   735284616 LenScr=  1107252224 LnRSAI=   318007536
 LnScr1=   478882816 LExtra=           0 Total=   2395806522
 MaxDsk=          -1 SrtSym=           T ITran=            4
 JobTyp=1 Pass  1:  I=   1 to  24.
 (rs|ai) integrals will be sorted in core.
 ModeAB=           4 MOrb=            23 LenV=   10735064261
 LASXX=    234045631 LTotXX=   234045631 LenRXX=   432921916
 LTotAB=   198876285 MaxLAS=   304757222 LenRXY=           0
 NonZer=   666967547 LenScr=  1004375040 LnRSAI=   304757222
 LnScr1=   458929152 LExtra=           0 Total=   2200983330
 MaxDsk=          -1 SrtSym=           T ITran=            4
 JobTyp=2 Pass  1:  I=   1 to  23.
 (rs|ai) integrals will be sorted in core.
 DoSCS=T DFT=T ScalE2(SS,OS)=  0.270000  0.270000
 Spin components of T(2) and E(2):
     alpha-alpha T2 =       0.6722008427D-01 E2=     -0.4688001454D-01
     alpha-beta  T2 =       0.4083126066D+00 E2=     -0.2827839278D+00
     beta-beta   T2 =       0.7966094199D-01 E2=     -0.4733261746D-01
 E2(B2PLYPD3) =    -0.3769965598D+00 E(B2PLYPD3) =    -0.30671601083271D+03
 (S**2,0)=  0.83396D+00           (S**2,1)=  0.76230D+00
 Scaling Projection term by:   0.270000
 E(PUHF)=      -0.30635117107D+03        E(PMP2)=      -0.30671792685D+03
          IDoAtm=1111111111111
          Differentiating once with respect to electric field.
                with respect to dipole field.
          Differentiating once with respect to nuclear coordinates.
 Keep R1 and R2 ints in memory in canonical form, NReq=1549876386.
          There are     1 degrees of freedom in the 1st order CPHF.  IDoFFX=0 NUNeed=     1.
 LinEq1:  Iter=  0 NonCon=     1 RMS=1.27D-03 Max=7.08D-02 NDo=     1
 AX will form     1 AO Fock derivatives at one time.
 LinEq1:  Iter=  1 NonCon=     1 RMS=4.69D-04 Max=1.56D-02 NDo=     1
 LinEq1:  Iter=  2 NonCon=     1 RMS=2.97D-04 Max=9.13D-03 NDo=     1
 LinEq1:  Iter=  3 NonCon=     1 RMS=1.68D-04 Max=5.13D-03 NDo=     1
 LinEq1:  Iter=  4 NonCon=     1 RMS=1.10D-04 Max=5.06D-03 NDo=     1
 LinEq1:  Iter=  5 NonCon=     1 RMS=8.85D-05 Max=3.26D-03 NDo=     1
 LinEq1:  Iter=  6 NonCon=     1 RMS=3.94D-05 Max=1.45D-03 NDo=     1
 LinEq1:  Iter=  7 NonCon=     1 RMS=1.11D-05 Max=4.23D-04 NDo=     1
 LinEq1:  Iter=  8 NonCon=     1 RMS=4.66D-06 Max=1.17D-04 NDo=     1
 LinEq1:  Iter=  9 NonCon=     1 RMS=2.65D-06 Max=8.16D-05 NDo=     1
 LinEq1:  Iter= 10 NonCon=     1 RMS=1.22D-06 Max=3.06D-05 NDo=     1
 LinEq1:  Iter= 11 NonCon=     1 RMS=7.28D-07 Max=2.98D-05 NDo=     1
 LinEq1:  Iter= 12 NonCon=     1 RMS=3.95D-07 Max=1.05D-05 NDo=     1
 LinEq1:  Iter= 13 NonCon=     1 RMS=1.93D-07 Max=3.96D-06 NDo=     1
 LinEq1:  Iter= 14 NonCon=     1 RMS=8.11D-08 Max=1.49D-06 NDo=     1
 LinEq1:  Iter= 15 NonCon=     1 RMS=3.08D-08 Max=5.61D-07 NDo=     1
 LinEq1:  Iter= 16 NonCon=     1 RMS=1.16D-08 Max=2.85D-07 NDo=     1
 LinEq1:  Iter= 17 NonCon=     1 RMS=3.89D-09 Max=9.03D-08 NDo=     1
 LinEq1:  Iter= 18 NonCon=     1 RMS=1.13D-09 Max=2.37D-08 NDo=     1
 LinEq1:  Iter= 19 NonCon=     1 RMS=3.30D-10 Max=7.35D-09 NDo=     1
 LinEq1:  Iter= 20 NonCon=     1 RMS=9.83D-11 Max=2.79D-09 NDo=     1
 LinEq1:  Iter= 21 NonCon=     1 RMS=2.99D-11 Max=1.13D-09 NDo=     1
 LinEq1:  Iter= 22 NonCon=     0 RMS=8.64D-12 Max=2.66D-10 NDo=     1
 Linear equations converged to 1.000D-10 1.000D-09 after    22 iterations.
 End of Minotr F.D. properties file   721 does not exist.
 End of Minotr F.D. properties file   722 does not exist.
 End of Minotr F.D. properties file   788 does not exist.
 Symmetrizing basis deriv contribution to polar:
 IMax=3 JMax=2 DiffMx= 0.00D+00
 G2DrvN: will do    14 centers at a time, making    1 passes.
 Calling FoFCou, ICntrl=  3107 FMM=F I1Cent=   0 AccDes= 0.00D+00.
 End of G2Drv F.D. properties file   721 does not exist.
 End of G2Drv F.D. properties file   722 does not exist.
 End of G2Drv F.D. properties file   788 does not exist.
 DoSCS=T DFT=T ScalE2(SS,OS)=  0.270000  0.270000
 R2 and R3 integrals will be kept in memory, NReq=  2492879760.
 DD1Dir will call FoFMem   1 times, MxPair=      1634
 NAB=   552 NAA=   276 NBB=   253.
 Discarding MO integrals.

 **********************************************************************

            Population analysis using the SCF Density.

 **********************************************************************

 Alpha  occ. eigenvalues --  -19.79597 -19.78848 -10.66173 -10.64914 -10.64681
 Alpha  occ. eigenvalues --  -10.64033  -1.28717  -1.01858  -0.92659  -0.83406
 Alpha  occ. eigenvalues --   -0.77850  -0.63164  -0.60719  -0.56369  -0.55239
 Alpha  occ. eigenvalues --   -0.55009  -0.53265  -0.50656  -0.44700  -0.41853
 Alpha  occ. eigenvalues --   -0.36986  -0.36192  -0.33556  -0.29644
 Alpha virt. eigenvalues --    0.06494   0.06581   0.08029   0.11298   0.12106
 Alpha virt. eigenvalues --    0.13767   0.14899   0.15473   0.16892   0.19602
 Alpha virt. eigenvalues --    0.23736   0.25560   0.28053   0.30482   0.32146
 Alpha virt. eigenvalues --    0.34709   0.36808   0.39190   0.41402   0.42630
 Alpha virt. eigenvalues --    0.44180   0.46610   0.47579   0.50542   0.50642
 Alpha virt. eigenvalues --    0.51411   0.52649   0.53381   0.53793   0.54448
 Alpha virt. eigenvalues --    0.56605   0.57004   0.58752   0.58930   0.62465
 Alpha virt. eigenvalues --    0.64015   0.66562   0.67372   0.70093   0.71007
 Alpha virt. eigenvalues --    0.75762   0.77095   0.79998   0.84762   0.85796
 Alpha virt. eigenvalues --    0.89100   0.91734   0.93198   0.94003   0.95506
 Alpha virt. eigenvalues --    0.96687   0.99862   1.00522   1.04396   1.05474
 Alpha virt. eigenvalues --    1.08262   1.09544   1.10956   1.12950   1.15657
 Alpha virt. eigenvalues --    1.17149   1.18708   1.20425   1.24325   1.24793
 Alpha virt. eigenvalues --    1.27824   1.28704   1.32005   1.33472   1.37460
 Alpha virt. eigenvalues --    1.38867   1.39665   1.40157   1.43771   1.45546
 Alpha virt. eigenvalues --    1.49719   1.52914   1.54170   1.57833   1.61569
 Alpha virt. eigenvalues --    1.63096   1.63784   1.68121   1.78385   1.79156
 Alpha virt. eigenvalues --    1.88350   1.89331   1.91224   2.01978   2.03300
 Alpha virt. eigenvalues --    2.11487   2.17846   2.21811   2.22373   2.28249
 Alpha virt. eigenvalues --    2.29182   2.30763   2.34393   2.38245   2.40301
 Alpha virt. eigenvalues --    2.44881   2.45043   2.49713   2.53124   2.53569
 Alpha virt. eigenvalues --    2.55340   2.60220   2.63463   2.64893   2.67681
 Alpha virt. eigenvalues --    2.71081   2.74503   2.75430   2.80273   2.83249
 Alpha virt. eigenvalues --    2.85433   2.89616   2.90331   2.91751   2.93680
 Alpha virt. eigenvalues --    2.94133   2.95136   2.95871   2.96643   2.97084
 Alpha virt. eigenvalues --    3.01210   3.02494   3.03505   3.04869   3.07296
 Alpha virt. eigenvalues --    3.10767   3.12008   3.13232   3.14875   3.16066
 Alpha virt. eigenvalues --    3.18060   3.18711   3.20210   3.22451   3.32867
 Alpha virt. eigenvalues --    3.33177   3.33897   3.37031   3.37980   3.40101
 Alpha virt. eigenvalues --    3.42016   3.42934   3.44894   3.48440   3.51600
 Alpha virt. eigenvalues --    3.53166   3.53810   3.55781   3.58867   3.60317
 Alpha virt. eigenvalues --    3.61905   3.64864   3.67324   3.70140   3.71913
 Alpha virt. eigenvalues --    3.77042   3.78121   3.79673   3.82216   3.87785
 Alpha virt. eigenvalues --    3.89230   3.90025   3.91581   3.93482   3.95935
 Alpha virt. eigenvalues --    3.99053   4.00937   4.04496   4.08380   4.08886
 Alpha virt. eigenvalues --    4.12579   4.14156   4.14914   4.16176   4.18689
 Alpha virt. eigenvalues --    4.18825   4.19506   4.23245   4.27760   4.32536
 Alpha virt. eigenvalues --    4.35102   4.38250   4.39798   4.42683   4.49985
 Alpha virt. eigenvalues --    4.52275   4.56760   4.57589   4.69106   4.73871
 Alpha virt. eigenvalues --    4.81276   4.85217   4.88125   4.93303   4.95352
 Alpha virt. eigenvalues --    4.97505   4.99502   5.02407   5.03111   5.05975
 Alpha virt. eigenvalues --    5.06663   5.08455   5.13353   5.20328   5.23615
 Alpha virt. eigenvalues --    5.25201   5.29490   5.30983   5.34899   5.35243
 Alpha virt. eigenvalues --    5.37112   5.37808   5.41597   5.46331   5.47541
 Alpha virt. eigenvalues --    5.61658   5.67229   5.74968   5.85991   5.88591
 Alpha virt. eigenvalues --    5.91098   5.93123   5.98654   6.06644   6.12352
 Alpha virt. eigenvalues --    6.15728   6.18988   6.25515   6.28021   6.40268
 Alpha virt. eigenvalues --    6.46129   6.65621   6.73070   6.78241   6.80638
 Alpha virt. eigenvalues --    6.96416   7.06043   7.06088   7.11637   7.43619
 Alpha virt. eigenvalues --    7.43867   7.59206   7.74374   9.12019   9.85757
 Alpha virt. eigenvalues --   10.73216  13.47317  14.36097  14.96380
  Beta  occ. eigenvalues --  -19.79254 -19.77261 -10.66189 -10.65336 -10.64025
  Beta  occ. eigenvalues --  -10.62965  -1.26645  -0.98901  -0.92010  -0.80701
  Beta  occ. eigenvalues --   -0.77322  -0.61522  -0.58132  -0.55209  -0.54753
  Beta  occ. eigenvalues --   -0.54398  -0.52993  -0.48184  -0.43860  -0.37412
  Beta  occ. eigenvalues --   -0.35729  -0.32979  -0.31215
  Beta virt. eigenvalues --   -0.07392   0.06633   0.07641   0.08604   0.11603
  Beta virt. eigenvalues --    0.12640   0.14320   0.14988   0.15644   0.16946
  Beta virt. eigenvalues --    0.20394   0.23732   0.25980   0.28464   0.31064
  Beta virt. eigenvalues --    0.32507   0.35557   0.37655   0.39689   0.42290
  Beta virt. eigenvalues --    0.43781   0.44526   0.46951   0.47767   0.50666
  Beta virt. eigenvalues --    0.50885   0.52561   0.52834   0.53560   0.54228
  Beta virt. eigenvalues --    0.55045   0.56985   0.57312   0.59443   0.60048
  Beta virt. eigenvalues --    0.63429   0.64830   0.66542   0.67508   0.70459
  Beta virt. eigenvalues --    0.71871   0.75984   0.77566   0.80478   0.84368
  Beta virt. eigenvalues --    0.86414   0.89779   0.92050   0.93504   0.94338
  Beta virt. eigenvalues --    0.95776   0.96874   1.00010   1.01082   1.04590
  Beta virt. eigenvalues --    1.05795   1.08863   1.10272   1.11337   1.13247
  Beta virt. eigenvalues --    1.15803   1.17547   1.18890   1.20824   1.24625
  Beta virt. eigenvalues --    1.25086   1.28237   1.29333   1.32332   1.33905
  Beta virt. eigenvalues --    1.37567   1.38978   1.39787   1.40290   1.44039
  Beta virt. eigenvalues --    1.46095   1.50531   1.53654   1.54672   1.58376
  Beta virt. eigenvalues --    1.62283   1.63236   1.64143   1.68694   1.79390
  Beta virt. eigenvalues --    1.79854   1.89535   1.89693   1.92086   2.02882
  Beta virt. eigenvalues --    2.03982   2.11854   2.18399   2.22234   2.24579
  Beta virt. eigenvalues --    2.29277   2.30588   2.31854   2.34158   2.38103
  Beta virt. eigenvalues --    2.40490   2.45037   2.45945   2.49744   2.53941
  Beta virt. eigenvalues --    2.54449   2.55869   2.61094   2.63373   2.64703
  Beta virt. eigenvalues --    2.68344   2.71698   2.74717   2.75797   2.81239
  Beta virt. eigenvalues --    2.83444   2.86285   2.89867   2.91011   2.91787
  Beta virt. eigenvalues --    2.94001   2.95168   2.95818   2.96276   2.97047
  Beta virt. eigenvalues --    2.97968   3.01534   3.03012   3.03878   3.05168
  Beta virt. eigenvalues --    3.07783   3.11384   3.12337   3.13437   3.15425
  Beta virt. eigenvalues --    3.17053   3.18437   3.18800   3.20366   3.22506
  Beta virt. eigenvalues --    3.33328   3.34029   3.34683   3.37458   3.38709
  Beta virt. eigenvalues --    3.40440   3.42377   3.43418   3.45128   3.48634
  Beta virt. eigenvalues --    3.51742   3.53256   3.53859   3.56288   3.59138
  Beta virt. eigenvalues --    3.60542   3.62257   3.64924   3.67353   3.70342
  Beta virt. eigenvalues --    3.72454   3.77345   3.78228   3.79960   3.82475
  Beta virt. eigenvalues --    3.87825   3.89440   3.90128   3.91689   3.93702
  Beta virt. eigenvalues --    3.95884   3.99487   4.01210   4.04628   4.08319
  Beta virt. eigenvalues --    4.08848   4.12864   4.14100   4.14938   4.15917
  Beta virt. eigenvalues --    4.18818   4.18892   4.19599   4.23464   4.28033
  Beta virt. eigenvalues --    4.32889   4.35245   4.38735   4.40573   4.43266
  Beta virt. eigenvalues --    4.50523   4.52762   4.57168   4.58494   4.69965
  Beta virt. eigenvalues --    4.74601   4.81485   4.85465   4.88819   4.93635
  Beta virt. eigenvalues --    4.95811   4.97633   4.99718   5.02717   5.03497
  Beta virt. eigenvalues --    5.06210   5.07545   5.08814   5.14097   5.20883
  Beta virt. eigenvalues --    5.24359   5.25807   5.29852   5.31360   5.35105
  Beta virt. eigenvalues --    5.35633   5.37308   5.38482   5.41718   5.46796
  Beta virt. eigenvalues --    5.48292   5.62330   5.68055   5.75572   5.87038
  Beta virt. eigenvalues --    5.89337   5.91297   5.93213   5.98921   6.07298
  Beta virt. eigenvalues --    6.13489   6.17253   6.20829   6.25655   6.28549
  Beta virt. eigenvalues --    6.40695   6.47524   6.66560   6.76233   6.80166
  Beta virt. eigenvalues --    6.81977   6.98348   7.06787   7.08456   7.13731
  Beta virt. eigenvalues --    7.43965   7.45975   7.60721   7.75136   9.12225
  Beta virt. eigenvalues --    9.86862  10.74176  13.47318  14.36770  14.96925
          Condensed to atoms (all electrons):
               1          2          3          4          5          6
     1  C    5.142670   0.407826  -0.005072   0.000159   0.000333  -0.000490
     2  H    0.407826   0.484848   0.000113  -0.000533   0.000003   0.000042
     3  C   -0.005072   0.000113   4.624180   0.395943   0.394140   0.416542
     4  H    0.000159  -0.000533   0.395943   0.653761  -0.034981  -0.050607
     5  H    0.000333   0.000003   0.394140  -0.034981   0.591651  -0.026914
     6  H   -0.000490   0.000042   0.416542  -0.050607  -0.026914   0.588198
     7  O    0.003422   0.000660   0.288718  -0.047601  -0.025959  -0.035120
     8  O   -0.069155   0.000138  -0.042924  -0.001269   0.006744   0.003736
     9  H    0.206090  -0.011096   0.002390   0.004674  -0.000988   0.000344
    10  C    0.720651  -0.056846   0.000000   0.001744   0.000098   0.000473
    11  C   -0.079301  -0.000646  -0.001412  -0.002968   0.000510   0.000365
    12  H   -0.002900  -0.000096   0.000639  -0.000039   0.000012  -0.000019
    13  H   -0.001610  -0.000031  -0.000043   0.000090  -0.000000   0.000000
               7          8          9         10         11         12
     1  C    0.003422  -0.069155   0.206090   0.720651  -0.079301  -0.002900
     2  H    0.000660   0.000138  -0.011096  -0.056846  -0.000646  -0.000096
     3  C    0.288718  -0.042924   0.002390   0.000000  -0.001412   0.000639
     4  H   -0.047601  -0.001269   0.004674   0.001744  -0.002968  -0.000039
     5  H   -0.025959   0.006744  -0.000988   0.000098   0.000510   0.000012
     6  H   -0.035120   0.003736   0.000344   0.000473   0.000365  -0.000019
     7  O    7.931302   0.076104  -0.027540  -0.001691   0.007346  -0.000129
     8  O    0.076104   8.058740   0.196993  -0.013701   0.000184   0.000001
     9  H   -0.027540   0.196993   0.399298   0.004206  -0.002209   0.000127
    10  C   -0.001691  -0.013701   0.004206   4.785354   0.556026  -0.053189
    11  C    0.007346   0.000184  -0.002209   0.556026   4.986514   0.415943
    12  H   -0.000129   0.000001   0.000127  -0.053189   0.415943   0.529393
    13  H    0.000016   0.000020  -0.000122  -0.045671   0.413799  -0.032471
              13
     1  C   -0.001610
     2  H   -0.000031
     3  C   -0.000043
     4  H    0.000090
     5  H   -0.000000
     6  H    0.000000
     7  O    0.000016
     8  O    0.000020
     9  H   -0.000122
    10  C   -0.045671
    11  C    0.413799
    12  H   -0.032471
    13  H    0.520052
          Atomic-Atomic Spin Densities.
               1          2          3          4          5          6
     1  C    0.544394  -0.000039   0.000902  -0.003448   0.000061   0.000791
     2  H   -0.000039  -0.004388  -0.000090   0.000410  -0.000002  -0.000046
     3  C    0.000902  -0.000090  -0.009608   0.004037   0.000822  -0.000889
     4  H   -0.003448   0.000410   0.004037   0.001438  -0.000516  -0.000482
     5  H    0.000061  -0.000002   0.000822  -0.000516  -0.001836   0.000463
     6  H    0.000791  -0.000046  -0.000889  -0.000482   0.000463   0.002202
     7  O    0.010622  -0.000494  -0.000459  -0.001438   0.000356  -0.000504
     8  O   -0.062510   0.002853  -0.001758   0.003473  -0.000192   0.000217
     9  H    0.034582   0.002376   0.001471  -0.003274   0.000100   0.001091
    10  C   -0.009268   0.002169  -0.001391   0.001065  -0.000126  -0.000255
    11  C   -0.010824  -0.001197  -0.000842   0.001664  -0.000032  -0.000216
    12  H   -0.000127   0.000020  -0.000043   0.000051   0.000003   0.000001
    13  H   -0.000162   0.000016   0.000010  -0.000010   0.000002   0.000000
               7          8          9         10         11         12
     1  C    0.010622  -0.062510   0.034582  -0.009268  -0.010824  -0.000127
     2  H   -0.000494   0.002853   0.002376   0.002169  -0.001197   0.000020
     3  C   -0.000459  -0.001758   0.001471  -0.001391  -0.000842  -0.000043
     4  H   -0.001438   0.003473  -0.003274   0.001065   0.001664   0.000051
     5  H    0.000356  -0.000192   0.000100  -0.000126  -0.000032   0.000003
     6  H   -0.000504   0.000217   0.001091  -0.000255  -0.000216   0.000001
     7  O    0.111644  -0.052933   0.008943  -0.001808  -0.005849   0.000007
     8  O   -0.052933   0.552780  -0.032752   0.006471   0.001830  -0.000001
     9  H    0.008943  -0.032752  -0.102133   0.003290  -0.000429  -0.000037
    10  C   -0.001808   0.006471   0.003290  -0.357559  -0.008678   0.000245
    11  C   -0.005849   0.001830  -0.000429  -0.008678   0.529630   0.005556
    12  H    0.000007  -0.000001  -0.000037   0.000245   0.005556  -0.035776
    13  H    0.000005  -0.000006  -0.000026  -0.000201   0.005163   0.004512
              13
     1  C   -0.000162
     2  H    0.000016
     3  C    0.000010
     4  H   -0.000010
     5  H    0.000002
     6  H    0.000000
     7  O    0.000005
     8  O   -0.000006
     9  H   -0.000026
    10  C   -0.000201
    11  C    0.005163
    12  H    0.004512
    13  H   -0.035387
 Mulliken charges and spin densities:
               1          2
     1  C   -0.322623   0.504974
     2  H    0.175619   0.001590
     3  C   -0.073215  -0.007837
     4  H    0.081625   0.002969
     5  H    0.095352  -0.000897
     6  H    0.103451   0.002373
     7  O   -0.169528   0.068093
     8  O   -0.215610   0.417471
     9  H    0.227834  -0.086798
    10  C    0.102546  -0.366046
    11  C   -0.294151   0.515778
    12  H    0.142727  -0.025588
    13  H    0.145971  -0.026082
 Sum of Mulliken charges =  -0.00000   1.00000
 Mulliken charges and spin densities with hydrogens summed into heavy atoms:
               1          2
     1  C   -0.147004   0.506564
     3  C    0.207213  -0.003391
     7  O   -0.169528   0.068093
     8  O    0.012224   0.330673
    10  C    0.102546  -0.366046
    11  C   -0.005452   0.464107
 APT charges:
               1
     1  C    0.274514
     2  H    0.066836
     3  C    0.417232
     4  H   -0.030445
     5  H   -0.002906
     6  H   -0.031780
     7  O   -0.244384
     8  O    0.027242
     9  H   -0.388353
    10  C   -0.218041
    11  C    0.012537
    12  H    0.056743
    13  H    0.060806
 Sum of APT charges =  -0.00000
 APT charges with hydrogens summed into heavy atoms:
               1
     1  C    0.341350
     3  C    0.352100
     7  O   -0.244384
     8  O   -0.361111
    10  C   -0.218041
    11  C    0.130086
 Electronic spatial extent (au):  <R**2>=            702.1767
 Charge=             -0.0000 electrons
 Dipole moment (field-independent basis, Debye):
    X=             -1.2637    Y=             -1.5886    Z=              1.5990  Tot=              2.5841
 Quadrupole moment (field-independent basis, Debye-Ang):
   XX=            -35.7691   YY=            -32.2365   ZZ=            -37.5076
   XY=             -1.9955   XZ=              2.7503   YZ=              1.0910
 Traceless Quadrupole moment (field-independent basis, Debye-Ang):
   XX=             -0.5980   YY=              2.9346   ZZ=             -2.3366
   XY=             -1.9955   XZ=              2.7503   YZ=              1.0910
 Octapole moment (field-independent basis, Debye-Ang**2):
  XXX=             18.5618  YYY=              2.0757  ZZZ=             -4.3507  XYY=             -3.1139
  XXY=             -7.0197  XXZ=             -0.2568  XZZ=              1.8162  YZZ=             -0.9229
  YYZ=              3.2677  XYZ=             -3.4876
 Hexadecapole moment (field-independent basis, Debye-Ang**3):
 XXXX=           -584.9825 YYYY=           -238.0615 ZZZZ=            -90.7794 XXXY=              2.4272
 XXXZ=             10.7178 YYYX=             -6.3134 YYYZ=              6.9881 ZZZX=              1.9117
 ZZZY=              0.3803 XXYY=           -128.8608 XXZZ=           -108.3564 YYZZ=            -57.1406
 XXYZ=              5.7462 YYXZ=             -5.6497 ZZXY=              3.5419
 N-N= 2.222874558996D+02 E-N=-1.162280396971D+03  KE= 3.050395836516D+02
  Exact polarizability: 105.330   9.119  76.505  -0.111   5.316  43.622
 Approx polarizability:  87.194  16.380  96.145  -1.931   8.651  52.509
                          Isotropic Fermi Contact Couplings
        Atom                 a.u.       MegaHertz       Gauss      10(-4) cm-1
     1  C(13)              0.11030     123.99970      44.24618      41.36185
     2  H(1)               0.00341      15.23475       5.43614       5.08176
     3  C(13)             -0.00531      -5.96848      -2.12970      -1.99087
     4  H(1)               0.00285      12.71971       4.53871       4.24284
     5  H(1)              -0.00013      -0.56576      -0.20188      -0.18872
     6  H(1)               0.00136       6.09774       2.17582       2.03399
     7  O(17)              0.02397     -14.53104      -5.18504      -4.84703
     8  O(17)              0.01207      -7.31894      -2.61158      -2.44133
     9  H(1)              -0.02208     -98.70024     -35.21870     -32.92286
    10  C(13)             -0.00448      -5.03293      -1.79587      -1.67880
    11  C(13)              0.00979      11.01063       3.92887       3.67275
    12  H(1)              -0.00517     -23.10630      -8.24490      -7.70743
    13  H(1)              -0.00520     -23.22405      -8.28692      -7.74671
 --------------------------------------------------------
       Center         ----  Spin Dipole Couplings  ----
                      3XX-RR        3YY-RR        3ZZ-RR
 --------------------------------------------------------
     1   Atom        0.369868     -0.201168     -0.168699
     2   Atom       -0.001868      0.018012     -0.016144
     3   Atom       -0.003176      0.002740      0.000436
     4   Atom       -0.002886     -0.000090      0.002977
     5   Atom       -0.001126      0.004564     -0.003439
     6   Atom        0.000898     -0.000322     -0.000576
     7   Atom        0.603510     -0.361558     -0.241952
     8   Atom        1.438930     -0.827470     -0.611460
     9   Atom        0.147273     -0.079591     -0.067681
    10   Atom       -0.089236      0.076294      0.012942
    11   Atom        0.346098     -0.193396     -0.152702
    12   Atom       -0.002883      0.005259     -0.002376
    13   Atom        0.004660     -0.024664      0.020004
 --------------------------------------------------------
                        XY            XZ            YZ
 --------------------------------------------------------
     1   Atom        0.027606     -0.135777     -0.007658
     2   Atom       -0.005442     -0.007814      0.017227
     3   Atom       -0.004701      0.002918     -0.005858
     4   Atom       -0.000293      0.001233     -0.005999
     5   Atom       -0.002806      0.001120     -0.003630
     6   Atom       -0.004303      0.005078     -0.003670
     7   Atom       -0.011417     -0.313700     -0.017026
     8   Atom        0.150434     -0.685371     -0.045822
     9   Atom       -0.030926     -0.073033      0.010369
    10   Atom        0.057111      0.049358      0.001347
    11   Atom       -0.132757     -0.198806      0.045596
    12   Atom       -0.006193     -0.007190     -0.025685
    13   Atom       -0.000354      0.010434      0.012188
 --------------------------------------------------------


 ---------------------------------------------------------------------------------
              Anisotropic Spin Dipole Couplings in Principal Axis System
 ---------------------------------------------------------------------------------

       Atom             a.u.   MegaHertz   Gauss  10(-4) cm-1        Axes

              Baa    -0.2031   -27.250    -9.723    -9.089  0.0645  0.8892  0.4530
     1 C(13)  Bbb    -0.2005   -26.899    -9.598    -8.972  0.2270 -0.4551  0.8610
              Bcc     0.4035    54.148    19.321    18.062  0.9718  0.0473 -0.2312
 
              Baa    -0.0245   -13.098    -4.674    -4.369  0.2326 -0.3392  0.9115
     2 H(1)   Bbb    -0.0029    -1.538    -0.549    -0.513  0.9347  0.3368 -0.1132
              Bcc     0.0274    14.636     5.222     4.882 -0.2686  0.8784  0.3954
 
              Baa    -0.0058    -0.779    -0.278    -0.260  0.8352  0.5379  0.1144
     3 C(13)  Bbb    -0.0041    -0.546    -0.195    -0.182 -0.3894  0.4314  0.8138
              Bcc     0.0099     1.324     0.473     0.442 -0.3884  0.7242 -0.5698
 
              Baa    -0.0049    -2.611    -0.932    -0.871 -0.2662  0.7460  0.6104
     4 H(1)   Bbb    -0.0029    -1.530    -0.546    -0.510  0.9579  0.2757  0.0808
              Bcc     0.0078     4.141     1.477     1.381  0.1080 -0.6062  0.7880
 
              Baa    -0.0048    -2.583    -0.922    -0.861 -0.0119  0.3570  0.9340
     5 H(1)   Bbb    -0.0022    -1.194    -0.426    -0.398  0.9383  0.3268 -0.1129
              Bcc     0.0071     3.776     1.348     1.260 -0.3455  0.8751 -0.3388
 
              Baa    -0.0050    -2.652    -0.946    -0.885 -0.6651 -0.0265  0.7463
     6 H(1)   Bbb    -0.0038    -2.042    -0.729    -0.681  0.3786  0.8495  0.3676
              Bcc     0.0088     4.695     1.675     1.566  0.6437 -0.5270  0.5549
 
              Baa    -0.3749    27.128     9.680     9.049  0.1795  0.8290  0.5297
     7 O(17)  Bbb    -0.3323    24.046     8.580     8.021  0.2573 -0.5592  0.7881
              Bcc     0.7072   -51.174   -18.260   -17.070  0.9495 -0.0051 -0.3137
 
              Baa    -0.8374    60.596    21.622    20.212 -0.0578  0.9980  0.0269
     8 O(17)  Bbb    -0.8195    59.295    21.158    19.779  0.2909 -0.0090  0.9567
              Bcc     1.6569  -119.891   -42.780   -39.991  0.9550  0.0632 -0.2898
 
              Baa    -0.0902   -48.152   -17.182   -16.062  0.2769 -0.1237  0.9529
     9 H(1)   Bbb    -0.0837   -44.649   -15.932   -14.893  0.1577  0.9841  0.0819
              Bcc     0.1739    92.802    33.114    30.955  0.9479 -0.1276 -0.2920
 
              Baa    -0.1232   -16.533    -5.899    -5.515  0.9091 -0.2580 -0.3270
    10 C(13)  Bbb     0.0257     3.444     1.229     1.149  0.2457 -0.3017  0.9212
              Bcc     0.0975    13.088     4.670     4.366  0.3364  0.9178  0.2109
 
              Baa    -0.2245   -30.121   -10.748   -10.047  0.3000  0.9218  0.2454
    11 C(13)  Bbb    -0.2220   -29.787   -10.629    -9.936  0.2445 -0.3230  0.9143
              Bcc     0.4464    59.907    21.376    19.983  0.9221 -0.2143 -0.3223
 
              Baa    -0.0281   -14.991    -5.349    -5.000  0.3522  0.6112  0.7088
    12 H(1)   Bbb     0.0007     0.367     0.131     0.123  0.9359 -0.2302 -0.2666
              Bcc     0.0274    14.624     5.218     4.878  0.0002  0.7573 -0.6531
 
              Baa    -0.0281   -14.966    -5.340    -4.992  0.0946  0.9599 -0.2640
    13 H(1)   Bbb     0.0005     0.275     0.098     0.092  0.9101 -0.1909 -0.3679
              Bcc     0.0275    14.691     5.242     4.900  0.4035  0.2054  0.8916
 

 ---------------------------------------------------------------------------------

 Calling FoFJK, ICntrl=  10100127 FMM=F ISym2X=0 I1Cent= 0 IOpClX= 1 NMat=1 NMatS=1 NMatT=0.
 -------------------------------------------------------------------
 Center     Atomic                   Forces (Hartrees/Bohr)
 Number     Number              X              Y              Z
 -------------------------------------------------------------------
      1        6          -0.000001842   -0.000001788    0.000000977
      2        1          -0.000000261    0.000000159   -0.000000476
      3        6           0.000000113    0.000002032    0.000000286
      4        1           0.000002559   -0.000000375    0.000000188
      5        1          -0.000000471   -0.000000001    0.000000221
      6        1           0.000000571   -0.000000062   -0.000000190
      7        8           0.000003451    0.000030217    0.000007016
      8        8          -0.000002830   -0.000031891   -0.000005980
      9        1           0.000003001    0.000000370    0.000002175
     10        6          -0.000002776    0.000000128   -0.000001296
     11        6          -0.000001772    0.000000944   -0.000001163
     12        1           0.000000327   -0.000000230   -0.000000932
     13        1          -0.000000069    0.000000500   -0.000000826
 -------------------------------------------------------------------
 Cartesian Forces:  Max     0.000031891 RMS     0.000007312
 FormGI is forming the generalized inverse of G from B-inverse, IUseBI=4.

 GradGradGradGradGradGradGradGradGradGradGradGradGradGradGradGradGradGrad
 Berny optimization.
 Internal  Forces:  Max     0.000032000 RMS     0.000007551
 Search for a saddle point.
 Step number   1 out of a maximum of  100 on scan point     1 out of    37
 All quantities printed in internal units (Hartrees-Bohrs-Radians)
 Swapping is turned off.
 Second derivative matrix not updated -- analytic derivatives used.
 ITU=  0
     Eigenvalues ---   -0.08993   0.00605   0.01041   0.01974   0.02470
     Eigenvalues ---    0.03073   0.04439   0.05428   0.05937   0.07672
     Eigenvalues ---    0.08374   0.08466   0.08530   0.09949   0.10091
     Eigenvalues ---    0.11911   0.12988   0.16659   0.18127   0.18318
     Eigenvalues ---    0.20758   0.27297   0.31980   0.33874   0.34621
     Eigenvalues ---    0.35523   0.36093   0.36426   0.37672   0.41754
     Eigenvalues ---    0.55002   0.770291000.000001000.000001000.00000
     Eigenvalues --- 1000.000001000.000001000.000001000.00000
 Eigenvectors required to have negative eigenvalues:
                          R9        R2        A2        R8        A3
   1                    0.68030  -0.63425  -0.21907  -0.16958   0.11344
                          A1        R3        R10       A11       A15
   1                    0.10572   0.10136  -0.08212   0.07080  -0.05204
 RFO step:  Lambda0=2.644937325D-10 Lambda=-1.48114969D-08.
 Linear search not attempted -- option 19 set.
 Iteration  1 RMS(Cart)=  0.00053022 RMS(Int)=  0.00000003
 Iteration  2 RMS(Cart)=  0.00000007 RMS(Int)=  0.00000000
 Iteration  1 RMS(Cart)=  0.00000000 RMS(Int)=  0.00000000
 Variable       Old X    -DE/DX   Delta X   Delta X   Delta X     New X
                                 (Linear)    (Quad)   (Total)
    R1        2.03117   0.00000   0.00000   0.00000   0.00000   2.03117
    R2        2.52100   0.00001   0.00000   0.00005   0.00005   2.52105
    R3        2.39389   0.00000   0.00000   0.00000   0.00000   2.39389
    R4        2.05853  -0.00000   0.00000  -0.00000  -0.00000   2.05852
    R5        2.05499   0.00000   0.00000  -0.00000  -0.00000   2.05499
    R6        2.05618   0.00000   0.00000   0.00000   0.00000   2.05618
    R7        2.69561  -0.00000   0.00000  -0.00000  -0.00000   2.69560
    R8        2.62597  -0.00003   0.00000  -0.00010  -0.00010   2.62587
    R9        2.24636   0.00000   0.00000  -0.00005  -0.00005   2.24631
   R10        2.50515  -0.00000   0.00000  -0.00000  -0.00000   2.50515
   R11        2.04226  -0.00000   0.00000  -0.00000  -0.00000   2.04226
   R12        2.04156   0.00000   0.00000   0.00000   0.00000   2.04156
    A1        2.00995  -0.00001   0.00000  -0.00008  -0.00008   2.00987
    A2        2.36979  -0.00000   0.00000  -0.00002  -0.00002   2.36977
    A3        1.90340   0.00001   0.00000   0.00009   0.00009   1.90349
    A4        1.92648  -0.00000   0.00000  -0.00000  -0.00000   1.92648
    A5        1.92174  -0.00000   0.00000  -0.00001  -0.00001   1.92173
    A6        1.92516   0.00000   0.00000   0.00000   0.00000   1.92516
    A7        1.92954  -0.00000   0.00000  -0.00000  -0.00000   1.92954
    A8        1.83803   0.00000   0.00000   0.00001   0.00001   1.83804
    A9        1.92147  -0.00000   0.00000  -0.00000  -0.00000   1.92147
   A10        1.88571  -0.00000   0.00000   0.00001   0.00001   1.88571
   A11        1.78588   0.00001   0.00000   0.00006   0.00006   1.78594
   A12        2.11199   0.00000   0.00000   0.00000   0.00000   2.11200
   A13        2.11026  -0.00000   0.00000  -0.00001  -0.00001   2.11026
   A14        2.06066   0.00000   0.00000   0.00000   0.00000   2.06066
   A15        3.00761   0.00002   0.00000   0.00025   0.00025   3.00786
   A16        3.03958   0.00000   0.00000   0.00005   0.00005   3.03963
   A17        3.01631   0.00000   0.00000  -0.00003  -0.00003   3.01628
   A18        3.19628  -0.00000   0.00000  -0.00003  -0.00003   3.19625
    D1        2.99867  -0.00001   0.00000   0.00000   0.00000   2.99867
    D2       -1.57635  -0.00000   0.00000  -0.00016  -0.00016  -1.57651
    D3        1.60771  -0.00000   0.00000  -0.00018  -0.00018   1.60752
    D4        1.57821   0.00000   0.00000   0.00005   0.00005   1.57826
    D5       -1.52092   0.00000   0.00000   0.00002   0.00002  -1.52090
    D6        1.08848  -0.00000   0.00000  -0.00022  -0.00022   1.08826
    D7       -3.11610  -0.00000   0.00000  -0.00021  -0.00021  -3.11631
    D8       -1.03579  -0.00000   0.00000  -0.00021  -0.00021  -1.03600
    D9       -1.63875  -0.00001   0.00000  -0.00009  -0.00009  -1.63884
         Item               Value     Threshold  Converged?
 Maximum Force            0.000032     0.000450     YES
 RMS     Force            0.000007     0.000300     YES
 Maximum Displacement     0.001506     0.001800     YES
 RMS     Displacement     0.000530     0.001200     YES
 Predicted change in Energy=-7.273502D-09
 Optimization completed.
    -- Stationary point found.
                           ----------------------------
                           !   Optimized Parameters   !
                           ! (Angstroms and Degrees)  !
 --------------------------                            --------------------------
 ! Name  Definition              Value          Derivative Info.                !
 --------------------------------------------------------------------------------
 ! R1    R(1,2)                  1.0748         -DE/DX =    0.0                 !
 ! R2    R(1,9)                  1.3341         -DE/DX =    0.0                 !
 ! R3    R(1,10)                 1.2668         -DE/DX =    0.0                 !
 ! R4    R(3,4)                  1.0893         -DE/DX =    0.0                 !
 ! R5    R(3,5)                  1.0875         -DE/DX =    0.0                 !
 ! R6    R(3,6)                  1.0881         -DE/DX =    0.0                 !
 ! R7    R(3,7)                  1.4265         -DE/DX =    0.0                 !
 ! R8    R(7,8)                  1.3896         -DE/DX =    0.0                 !
 ! R9    R(8,9)                  1.1887         -DE/DX =    0.0                 !
 ! R10   R(10,11)                1.3257         -DE/DX =    0.0                 !
 ! R11   R(11,12)                1.0807         -DE/DX =    0.0                 !
 ! R12   R(11,13)                1.0803         -DE/DX =    0.0                 !
 ! A1    A(2,1,9)              115.1616         -DE/DX =    0.0                 !
 ! A2    A(2,1,10)             135.7788         -DE/DX =    0.0                 !
 ! A3    A(9,1,10)             109.0565         -DE/DX =    0.0                 !
 ! A4    A(4,3,5)              110.3793         -DE/DX =    0.0                 !
 ! A5    A(4,3,6)              110.1075         -DE/DX =    0.0                 !
 ! A6    A(4,3,7)              110.3035         -DE/DX =    0.0                 !
 ! A7    A(5,3,6)              110.5544         -DE/DX =    0.0                 !
 ! A8    A(5,3,7)              105.3114         -DE/DX =    0.0                 !
 ! A9    A(6,3,7)              110.0921         -DE/DX =    0.0                 !
 ! A10   A(3,7,8)              108.043          -DE/DX =    0.0                 !
 ! A11   A(7,8,9)              102.3232         -DE/DX =    0.0                 !
 ! A12   A(10,11,12)           121.0083         -DE/DX =    0.0                 !
 ! A13   A(10,11,13)           120.9093         -DE/DX =    0.0                 !
 ! A14   A(12,11,13)           118.0671         -DE/DX =    0.0                 !
 ! A15   L(1,9,8,4,-1)         172.3233         -DE/DX =    0.0                 !
 ! A16   L(1,10,11,3,-1)       174.1553         -DE/DX =    0.0                 !
 ! A17   L(1,9,8,4,-2)         172.8217         -DE/DX =    0.0                 !
 ! A18   L(1,10,11,3,-2)       183.1334         -DE/DX =    0.0                 !
 ! D1    D(2,1,8,7)            171.8112         -DE/DX =    0.0                 !
 ! D2    D(2,1,11,12)          -90.3179         -DE/DX =    0.0                 !
 ! D3    D(2,1,11,13)           92.1149         -DE/DX =    0.0                 !
 ! D4    D(9,1,11,12)           90.4248         -DE/DX =    0.0                 !
 ! D5    D(9,1,11,13)          -87.1424         -DE/DX =    0.0                 !
 ! D6    D(4,3,7,8)             62.3652         -DE/DX =    0.0                 !
 ! D7    D(5,3,7,8)           -178.5396         -DE/DX =    0.0                 !
 ! D8    D(6,3,7,8)            -59.3465         -DE/DX =    0.0                 !
 ! D9    D(3,7,8,9)            -93.8932         -DE/DX =    0.0                 !
 --------------------------------------------------------------------------------
 Iteration  1 RMS(Cart)=  0.13473946 RMS(Int)=  0.00504123
 Iteration  2 RMS(Cart)=  0.00994654 RMS(Int)=  0.00002668
 Iteration  3 RMS(Cart)=  0.00006307 RMS(Int)=  0.00000447
 Iteration  4 RMS(Cart)=  0.00000000 RMS(Int)=  0.00000447
 Iteration  1 RMS(Cart)=  0.00000000 RMS(Int)=  0.00000000
 GradGradGradGradGradGradGradGradGradGradGradGradGradGradGradGradGradGrad

                          Input orientation:                          
 ---------------------------------------------------------------------
 Center     Atomic      Atomic             Coordinates (Angstroms)
 Number     Number       Type             X           Y           Z
 ---------------------------------------------------------------------
      1          6           0       -1.182701    1.309969    0.350058
      2          1           0       -1.599868    2.239105    0.693533
      3          6           0        1.601972   -0.974379    0.498361
      4          1           0        0.857668   -0.864760    1.286157
      5          1           0        1.611124   -1.995874    0.125515
      6          1           0        2.585243   -0.694984    0.871246
      7          8           0        1.256197   -0.166378   -0.625177
      8          8           0        1.260342    1.162031   -0.217553
      9          1           0        0.120877    1.343298    0.068380
     10          6           0       -1.623936    0.143157    0.129539
     11          6           0       -1.946684   -1.110260   -0.157116
     12          1           0       -1.925454   -1.878369    0.602825
     13          1           0       -2.260623   -1.388686   -1.152642
 ---------------------------------------------------------------------
                    Distance matrix (angstroms):
                    1          2          3          4          5
     1  C    0.000000
     2  H    1.074848   0.000000
     3  C    3.604808   4.540523   0.000000
     4  H    3.125513   4.003082   1.089324   0.000000
     5  H    4.334106   5.344919   1.087452   1.787234   0.000000
     6  H    4.299870   5.114256   1.088084   1.784795   1.788110
     7  O    3.013122   3.960107   1.426452   2.073586   2.009121
     8  O    2.512474   3.189195   2.278924   2.555616   3.195796
     9  H    1.334080   2.038198   2.783909   2.627044   3.657071
    10  C    1.266793   2.170637   3.433861   2.917536   3.878283
    11  C    2.588127   3.473058   3.611243   3.163494   3.677253
    12  H    3.283454   4.131323   3.642917   3.039755   3.570576
    13  H    3.271507   4.123812   4.221031   3.993241   4.122231
                    6          7          8          9         10
     6  H    0.000000
     7  O    2.070041   0.000000
     8  O    2.527717   1.389549   0.000000
     9  H    3.297315   2.012236   1.188695   0.000000
    10  C    4.355433   2.993422   3.078577   2.118596   0.000000
    11  C    4.665656   3.371712   3.930900   3.216458   1.325667
    12  H    4.671064   3.815993   4.479548   3.853860   2.097971
    13  H    5.297147   3.760356   4.447218   3.824418   2.096641
                   11         12         13
    11  C    0.000000
    12  H    1.080718   0.000000
    13  H    1.080348   1.853050   0.000000
 Symmetry turned off by external request.
 Stoichiometry    C4H7O2(2)
 Framework group  C1[X(C4H7O2)]
 Deg. of freedom    33
 Full point group                 C1      NOp   1
 Rotational constants (GHZ):           4.9263481           2.3662968           1.7822056
 Standard basis: CC-pVTZ (5D, 7F)
   278 basis functions,   431 primitive gaussians,   315 cartesian basis functions
    24 alpha electrons       23 beta electrons
       nuclear repulsion energy       223.0460108571 Hartrees.
 NAtoms=   13 NActive=   13 NUniq=   13 SFac= 1.00D+00 NAtFMM=   60 NAOKFM=F Big=F
 Integral buffers will be    131072 words long.
 Raffenetti 2 integral format.
 Two-electron integral symmetry is turned off.
 Nuclear repulsion after empirical dispersion term =      223.0393567303 Hartrees.
 One-electron integrals computed using PRISM.
 NBasis=   278 RedAO= T EigKep=  1.29D-04  NBF=   278
 NBsUse=   278 1.00D-06 EigRej= -1.00D+00 NBFU=   278
 Initial guess from the checkpoint file:  "/localscratch/350156/Gau-84334.chk"
 B after Tr=     0.024654    0.037629    0.027270
         Rot=    0.999962   -0.008393    0.000661   -0.002376 Ang=  -1.00 deg.
 Initial guess <Sx>= 0.0000 <Sy>= 0.0000 <Sz>= 0.5000 <S**2>= 0.8341 S= 0.5412
 ExpMin= 1.03D-01 ExpMax= 1.53D+04 ExpMxC= 5.22D+02 IAcc=3 IRadAn=         5 AccDes= 0.00D+00
 Harris functional with IExCor=  419 and IRadAn=       5 diagonalized for initial guess.
 HarFok:  IExCor=  419 AccDes= 0.00D+00 IRadAn=         5 IDoV= 1 UseB2=F ITyADJ=14
 ICtDFT=  3500011 ScaDFX=  1.000000  1.000000  1.000000  1.000000
 FoFCou: FMM=F IPFlag=           0 FMFlag=      100000 FMFlg1=           0
         NFxFlg=           0 DoJE=T BraDBF=F KetDBF=T FulRan=T
         wScrn=  0.000000 ICntrl=       500 IOpCl=  0 I1Cent=   200000004 NGrid=           0
         NMat0=    1 NMatS0=      1 NMatT0=    0 NMatD0=    1 NMtDS0=    0 NMtDT0=    0
 Symmetry not used in FoFCou.
 Requested convergence on RMS density matrix=1.00D-08 within 500 cycles.
 Requested convergence on MAX density matrix=1.00D-06.
 Requested convergence on             energy=1.00D-06.
 No special actions if energy rises.
 Integral accuracy reduced to 1.0D-05 until final iterations.
 Initial convergence to 1.0D-05 achieved.  Increase integral accuracy.
 SCF Done:  E(UB2PLYPD3) =  -306.338587806     A.U. after   16 cycles
            NFock= 16  Conv=0.87D-08     -V/T= 2.0042
 <Sx>= 0.0000 <Sy>= 0.0000 <Sz>= 0.5000 <S**2>= 0.8338 S= 0.5411
 <L.S>=  0.00000000000    
 Annihilation of the first spin contaminant:
 S**2 before annihilation     0.8338,   after     0.7536
 DoSCS=T DFT=T ScalE2(SS,OS)=  0.270000  0.270000
 ExpMin= 1.03D-01 ExpMax= 1.53D+04 ExpMxC= 5.22D+02 IAcc=3 IRadAn=         5 AccDes= 0.00D+00
 HarFok:  IExCor=  205 AccDes= 0.00D+00 IRadAn=         5 IDoV=-2 UseB2=F ITyADJ=14
 ICtDFT= 12500011 ScaDFX=  1.000000  1.000000  1.000000  1.000000
 Range of M.O.s used for correlation:     7   278
 NBasis=   278 NAE=    24 NBE=    23 NFC=     6 NFV=     0
 NROrb=    272 NOA=    18 NOB=    17 NVA=   254 NVB=   255

 **** Warning!!: The largest alpha MO coefficient is  0.26192447D+02


 **** Warning!!: The largest beta MO coefficient is  0.26791814D+02

 DoSCS=T DFT=T ScalE2(SS,OS)=  0.270000  0.270000
 Disk-based method using ON**2 memory for 18 occupieds at a time.
 Estimated scratch disk usage=  1038641830 words.
 Actual    scratch disk usage=   951656614 words.
 JobTyp=2 Pass  1:  I=   7 to  24 NPSUse= 40 ParTrn=T ParDer=T DoDerP=T.
 (rs|ai) integrals will be sorted in core.
 Actual    scratch disk usage=   951656614 words.
 JobTyp=3 Pass  1:  I=   7 to  23 NPSUse= 40 ParTrn=T ParDer=T DoDerP=T.
 (rs|ai) integrals will be sorted in core.
 Spin components of T(2) and E(2):
     alpha-alpha T2 =       0.6729090123D-01 E2=     -0.4691438171D-01
     alpha-beta  T2 =       0.4084139515D+00 E2=     -0.2828467840D+00
     beta-beta   T2 =       0.7963260633D-01 E2=     -0.4733904856D-01
 (S**2,0)=  0.83380D+00           (S**2,1)=  0.76231D+00
 Scaling Projection term by:   0.270000
 E(PUHF)=      -0.30635073842D+03        E(PMP2)=      -0.30671760387D+03
 E2(B2PLYPD3) =    -0.3771002143D+00 E(B2PLYPD3) =    -0.30671568802051D+03
          IDoAtm=1111111111111
          Differentiating once with respect to electric field.
                with respect to dipole field.
          Differentiating once with respect to nuclear coordinates.
 Keep R1 and R2 ints in memory in canonical form, NReq=1549876386.
          There are     1 degrees of freedom in the 1st order CPHF.  IDoFFX=0 NUNeed=     1.
 LinEq1:  Iter=  0 NonCon=     1 RMS=1.27D-03 Max=7.05D-02 NDo=     1
 AX will form     1 AO Fock derivatives at one time.
 LinEq1:  Iter=  1 NonCon=     1 RMS=4.68D-04 Max=1.51D-02 NDo=     1
 LinEq1:  Iter=  2 NonCon=     1 RMS=2.97D-04 Max=8.95D-03 NDo=     1
 LinEq1:  Iter=  3 NonCon=     1 RMS=1.68D-04 Max=5.35D-03 NDo=     1
 LinEq1:  Iter=  4 NonCon=     1 RMS=1.11D-04 Max=5.12D-03 NDo=     1
 LinEq1:  Iter=  5 NonCon=     1 RMS=8.82D-05 Max=3.22D-03 NDo=     1
 LinEq1:  Iter=  6 NonCon=     1 RMS=3.93D-05 Max=1.46D-03 NDo=     1
 LinEq1:  Iter=  7 NonCon=     1 RMS=1.13D-05 Max=4.91D-04 NDo=     1
 LinEq1:  Iter=  8 NonCon=     1 RMS=4.90D-06 Max=1.24D-04 NDo=     1
 LinEq1:  Iter=  9 NonCon=     1 RMS=2.78D-06 Max=9.10D-05 NDo=     1
 LinEq1:  Iter= 10 NonCon=     1 RMS=1.33D-06 Max=3.14D-05 NDo=     1
 LinEq1:  Iter= 11 NonCon=     1 RMS=8.55D-07 Max=4.06D-05 NDo=     1
 LinEq1:  Iter= 12 NonCon=     1 RMS=4.42D-07 Max=1.34D-05 NDo=     1
 LinEq1:  Iter= 13 NonCon=     1 RMS=2.02D-07 Max=3.86D-06 NDo=     1
 LinEq1:  Iter= 14 NonCon=     1 RMS=8.53D-08 Max=1.65D-06 NDo=     1
 LinEq1:  Iter= 15 NonCon=     1 RMS=3.33D-08 Max=8.70D-07 NDo=     1
 LinEq1:  Iter= 16 NonCon=     1 RMS=1.25D-08 Max=3.54D-07 NDo=     1
 LinEq1:  Iter= 17 NonCon=     1 RMS=4.17D-09 Max=1.16D-07 NDo=     1
 LinEq1:  Iter= 18 NonCon=     1 RMS=1.20D-09 Max=2.96D-08 NDo=     1
 LinEq1:  Iter= 19 NonCon=     1 RMS=3.54D-10 Max=1.10D-08 NDo=     1
 LinEq1:  Iter= 20 NonCon=     1 RMS=1.10D-10 Max=3.82D-09 NDo=     1
 LinEq1:  Iter= 21 NonCon=     1 RMS=3.50D-11 Max=1.35D-09 NDo=     1
 LinEq1:  Iter= 22 NonCon=     0 RMS=1.05D-11 Max=3.03D-10 NDo=     1
 Linear equations converged to 1.000D-10 1.000D-09 after    22 iterations.
 End of Minotr F.D. properties file   721 does not exist.
 End of Minotr F.D. properties file   722 does not exist.
 End of Minotr F.D. properties file   788 does not exist.
 Calling FoFJK, ICntrl=  10002127 FMM=F ISym2X=0 I1Cent= 0 IOpClX= 1 NMat=1 NMatS=1 NMatT=0.
 -------------------------------------------------------------------
 Center     Atomic                   Forces (Hartrees/Bohr)
 Number     Number              X              Y              Z
 -------------------------------------------------------------------
      1        6           0.000524312   -0.000307133    0.000864885
      2        1           0.000087302   -0.000033316    0.000198284
      3        6           0.000488293   -0.000105393    0.000954050
      4        1           0.000637718   -0.000169741   -0.000139881
      5        1          -0.000076365    0.000019544    0.000035930
      6        1           0.000123664   -0.000004516   -0.000128474
      7        8          -0.000572691    0.000141828    0.000339294
      8        8           0.000098912   -0.000050912   -0.000497698
      9        1          -0.000390190    0.000250966   -0.000380787
     10        6          -0.000788964    0.000074797   -0.001325822
     11        6           0.000016304    0.000179510    0.000087840
     12        1          -0.000133542   -0.000088444    0.000007866
     13        1          -0.000014754    0.000092809   -0.000015485
 -------------------------------------------------------------------
 Cartesian Forces:  Max     0.001325822 RMS     0.000403949

 GradGradGradGradGradGradGradGradGradGradGradGradGradGradGradGradGradGrad
 Berny optimization.
 FormGI is forming the generalized inverse of G from B-inverse, IUseBI=4.
 Internal  Forces:  Max     0.003913948 RMS     0.001170058
 Search for a saddle point.
 Step number   1 out of a maximum of  100 on scan point     2 out of    37
 All quantities printed in internal units (Hartrees-Bohrs-Radians)
 Swapping is turned off.
 Second derivative matrix not updated -- first step.
 ITU=  0
     Eigenvalues ---   -0.08993   0.00605   0.01041   0.01974   0.02470
     Eigenvalues ---    0.03073   0.04439   0.05428   0.05937   0.07672
     Eigenvalues ---    0.08374   0.08466   0.08530   0.09949   0.10091
     Eigenvalues ---    0.11911   0.12988   0.16659   0.18127   0.18318
     Eigenvalues ---    0.20758   0.27297   0.31980   0.33874   0.34621
     Eigenvalues ---    0.35523   0.36093   0.36426   0.37672   0.41754
     Eigenvalues ---    0.55002   0.770291000.000001000.000001000.00000
     Eigenvalues --- 1000.000001000.000001000.000001000.00000
 Eigenvectors required to have negative eigenvalues:
                          R9        R2        A2        R8        A3
   1                    0.68030  -0.63425  -0.21909  -0.16958   0.11342
                          A1        R3        R10       A11       A15
   1                    0.10570   0.10136  -0.08212   0.07080  -0.05204
 RFO step:  Lambda0=8.995707476D-07 Lambda=-5.08456328D-04.
 Linear search not attempted -- option 19 set.
 Iteration  1 RMS(Cart)=  0.10069786 RMS(Int)=  0.00224087
 Iteration  2 RMS(Cart)=  0.00296580 RMS(Int)=  0.00021205
 Iteration  3 RMS(Cart)=  0.00000446 RMS(Int)=  0.00021202
 Iteration  4 RMS(Cart)=  0.00000000 RMS(Int)=  0.00021202
 Iteration  1 RMS(Cart)=  0.00000148 RMS(Int)=  0.00000000
 Iteration  2 RMS(Cart)=  0.00000000 RMS(Int)=  0.00000000
 Variable       Old X    -DE/DX   Delta X   Delta X   Delta X     New X
                                 (Linear)    (Quad)   (Total)
    R1        2.03117   0.00000   0.00000   0.00031   0.00031   2.03148
    R2        2.52105   0.00026   0.00000  -0.00150  -0.00150   2.51954
    R3        2.39389   0.00030   0.00000   0.00012   0.00012   2.39402
    R4        2.05852  -0.00060   0.00000  -0.00100  -0.00100   2.05752
    R5        2.05499  -0.00003   0.00000  -0.00001  -0.00001   2.05498
    R6        2.05618   0.00007   0.00000   0.00021   0.00021   2.05639
    R7        2.69560   0.00099   0.00000   0.00112   0.00112   2.69672
    R8        2.62587  -0.00013   0.00000   0.00075   0.00075   2.62662
    R9        2.24631   0.00055   0.00000  -0.00176  -0.00176   2.24454
   R10        2.50515  -0.00017   0.00000  -0.00042  -0.00042   2.50472
   R11        2.04226   0.00007   0.00000  -0.00005  -0.00005   2.04221
   R12        2.04156  -0.00001   0.00000   0.00012   0.00012   2.04168
    A1        2.00989  -0.00070   0.00000  -0.00717  -0.00794   2.00195
    A2        2.36979  -0.00063   0.00000  -0.00296  -0.00372   2.36607
    A3        1.90350   0.00132   0.00000   0.00987   0.00911   1.91261
    A4        1.92648  -0.00013   0.00000  -0.00037  -0.00037   1.92611
    A5        1.92173  -0.00008   0.00000   0.00014   0.00014   1.92187
    A6        1.92516   0.00058   0.00000   0.00150   0.00150   1.92666
    A7        1.92954  -0.00004   0.00000  -0.00066  -0.00066   1.92888
    A8        1.83804  -0.00007   0.00000  -0.00036  -0.00036   1.83768
    A9        1.92147  -0.00026   0.00000  -0.00026  -0.00026   1.92121
   A10        1.88571  -0.00035   0.00000  -0.00189  -0.00189   1.88383
   A11        1.78594   0.00143   0.00000   0.00068   0.00068   1.78662
   A12        2.11200   0.00020   0.00000   0.00159   0.00159   2.11360
   A13        2.11026  -0.00019   0.00000  -0.00190  -0.00190   2.10836
   A14        2.06067  -0.00001   0.00000   0.00027   0.00027   2.06094
   A15        3.00786   0.00305   0.00000   0.02899   0.02899   3.03685
   A16        3.03963  -0.00012   0.00000   0.00187   0.00188   3.04151
   A17        3.01628  -0.00055   0.00000  -0.01196  -0.01196   3.00432
   A18        3.19625  -0.00168   0.00000  -0.01251  -0.01248   3.18378
    D1       -3.10998  -0.00391   0.00000   0.00000  -0.00000  -3.10998
    D2       -1.57651  -0.00127   0.00000  -0.04202  -0.04200  -1.61851
    D3        1.60752  -0.00140   0.00000  -0.04731  -0.04729   1.56024
    D4        1.57826   0.00147   0.00000   0.03318   0.03315   1.61141
    D5       -1.52090   0.00135   0.00000   0.02789   0.02787  -1.49303
    D6        1.08826  -0.00018   0.00000  -0.01828  -0.01828   1.06998
    D7       -3.11631  -0.00008   0.00000  -0.01815  -0.01815  -3.13446
    D8       -1.03600  -0.00029   0.00000  -0.01927  -0.01927  -1.05527
    D9       -1.63884  -0.00329   0.00000  -0.04616  -0.04616  -1.68499
         Item               Value     Threshold  Converged?
 Maximum Force            0.003289     0.000450     NO 
 RMS     Force            0.001001     0.000300     NO 
 Maximum Displacement     0.281628     0.001800     NO 
 RMS     Displacement     0.100365     0.001200     NO 
 Predicted change in Energy=-2.563955D-04
 GradGradGradGradGradGradGradGradGradGradGradGradGradGradGradGradGradGrad

                          Input orientation:                          
 ---------------------------------------------------------------------
 Center     Atomic      Atomic             Coordinates (Angstroms)
 Number     Number       Type             X           Y           Z
 ---------------------------------------------------------------------
      1          6           0       -1.198944    1.289857    0.367511
      2          1           0       -1.603359    2.233128    0.687412
      3          6           0        1.688147   -0.966664    0.524375
      4          1           0        1.006698   -0.839816    1.364024
      5          1           0        1.684054   -2.000331    0.186653
      6          1           0        2.693426   -0.662408    0.808994
      7          8           0        1.243959   -0.202855   -0.596226
      8          8           0        1.237346    1.136747   -0.225594
      9          1           0        0.103271    1.309944    0.082064
     10          6           0       -1.671953    0.142645    0.112363
     11          6           0       -2.033800   -1.094942   -0.194624
     12          1           0       -2.056243   -1.872347    0.555729
     13          1           0       -2.338444   -1.349086   -1.199555
 ---------------------------------------------------------------------
                    Distance matrix (angstroms):
                    1          2          3          4          5
     1  C    0.000000
     2  H    1.075011   0.000000
     3  C    3.667668   4.593393   0.000000
     4  H    3.223880   4.088177   1.088794   0.000000
     5  H    4.378324   5.383309   1.087446   1.786563   0.000000
     6  H    4.376847   5.182786   1.088194   1.784539   1.787785
     7  O    3.020721   3.960929   1.427044   2.074752   2.009354
     8  O    2.512116   3.178873   2.278161   2.546937   3.195427
     9  H    1.333285   2.032560   2.808988   2.661028   3.669841
    10  C    1.266858   2.169217   3.562386   3.115615   3.982543
    11  C    2.588483   3.469772   3.792928   3.426238   3.845457
    12  H    3.281756   4.132478   3.852493   3.331827   3.760641
    13  H    3.273862   4.115004   4.396773   4.245147   4.304205
                    6          7          8          9         10
     6  H    0.000000
     7  O    2.070456   0.000000
     8  O    2.535252   1.389945   0.000000
     9  H    3.335791   2.012414   1.187761   0.000000
    10  C    4.493321   3.020598   3.092971   2.124835   0.000000
    11  C    4.851907   3.420645   3.960025   3.229103   1.325442
    12  H    4.907897   3.873699   4.529111   3.874898   2.098678
    13  H    5.461274   3.809392   4.462538   3.830791   2.095377
                   11         12         13
    11  C    0.000000
    12  H    1.080690   0.000000
    13  H    1.080409   1.853230   0.000000
 Symmetry turned off by external request.
 Stoichiometry    C4H7O2(2)
 Framework group  C1[X(C4H7O2)]
 Deg. of freedom    33
 Full point group                 C1      NOp   1
 Rotational constants (GHZ):           5.0054344           2.2533307           1.7321715
 Standard basis: CC-pVTZ (5D, 7F)
   278 basis functions,   431 primitive gaussians,   315 cartesian basis functions
    24 alpha electrons       23 beta electrons
       nuclear repulsion energy       221.7046813695 Hartrees.
 NAtoms=   13 NActive=   13 NUniq=   13 SFac= 1.00D+00 NAtFMM=   60 NAOKFM=F Big=F
 Integral buffers will be    131072 words long.
 Raffenetti 2 integral format.
 Two-electron integral symmetry is turned off.
 Nuclear repulsion after empirical dispersion term =      221.6982015176 Hartrees.
 One-electron integrals computed using PRISM.
 NBasis=   278 RedAO= T EigKep=  1.29D-04  NBF=   278
 NBsUse=   278 1.00D-06 EigRej= -1.00D+00 NBFU=   278
 Initial guess from the checkpoint file:  "/localscratch/350156/Gau-84334.chk"
 B after Tr=    -0.022980   -0.016899    0.003591
         Rot=    0.999998    0.000739    0.001926    0.000806 Ang=   0.25 deg.
 Initial guess <Sx>= 0.0000 <Sy>= 0.0000 <Sz>= 0.5000 <S**2>= 0.8337 S= 0.5410
 ExpMin= 1.03D-01 ExpMax= 1.53D+04 ExpMxC= 5.22D+02 IAcc=3 IRadAn=         5 AccDes= 0.00D+00
 Harris functional with IExCor=  419 and IRadAn=       5 diagonalized for initial guess.
 HarFok:  IExCor=  419 AccDes= 0.00D+00 IRadAn=         5 IDoV= 1 UseB2=F ITyADJ=14
 ICtDFT=  3500011 ScaDFX=  1.000000  1.000000  1.000000  1.000000
 FoFCou: FMM=F IPFlag=           0 FMFlag=      100000 FMFlg1=           0
         NFxFlg=           0 DoJE=T BraDBF=F KetDBF=T FulRan=T
         wScrn=  0.000000 ICntrl=       500 IOpCl=  0 I1Cent=   200000004 NGrid=           0
         NMat0=    1 NMatS0=      1 NMatT0=    0 NMatD0=    1 NMtDS0=    0 NMtDT0=    0
 Symmetry not used in FoFCou.
 Requested convergence on RMS density matrix=1.00D-08 within 500 cycles.
 Requested convergence on MAX density matrix=1.00D-06.
 Requested convergence on             energy=1.00D-06.
 No special actions if energy rises.
 Integral accuracy reduced to 1.0D-05 until final iterations.
 Initial convergence to 1.0D-05 achieved.  Increase integral accuracy.
 SCF Done:  E(UB2PLYPD3) =  -306.339057044     A.U. after   15 cycles
            NFock= 15  Conv=0.92D-08     -V/T= 2.0043
 <Sx>= 0.0000 <Sy>= 0.0000 <Sz>= 0.5000 <S**2>= 0.8340 S= 0.5411
 <L.S>=  0.00000000000    
 Annihilation of the first spin contaminant:
 S**2 before annihilation     0.8340,   after     0.7536
 DoSCS=T DFT=T ScalE2(SS,OS)=  0.270000  0.270000
 ExpMin= 1.03D-01 ExpMax= 1.53D+04 ExpMxC= 5.22D+02 IAcc=3 IRadAn=         5 AccDes= 0.00D+00
 HarFok:  IExCor=  205 AccDes= 0.00D+00 IRadAn=         5 IDoV=-2 UseB2=F ITyADJ=14
 ICtDFT= 12500011 ScaDFX=  1.000000  1.000000  1.000000  1.000000
 Range of M.O.s used for correlation:     7   278
 NBasis=   278 NAE=    24 NBE=    23 NFC=     6 NFV=     0
 NROrb=    272 NOA=    18 NOB=    17 NVA=   254 NVB=   255

 **** Warning!!: The largest alpha MO coefficient is  0.19686664D+02


 **** Warning!!: The largest beta MO coefficient is  0.19434090D+02

 DoSCS=T DFT=T ScalE2(SS,OS)=  0.270000  0.270000
 Disk-based method using ON**2 memory for 18 occupieds at a time.
[...]
  Beta virt. eigenvalues --    4.18818   4.18889   4.19600   4.23463   4.28038
  Beta virt. eigenvalues --    4.32888   4.35246   4.38735   4.40572   4.43266
  Beta virt. eigenvalues --    4.50521   4.52761   4.57167   4.58495   4.69968
  Beta virt. eigenvalues --    4.74601   4.81484   4.85465   4.88819   4.93635
  Beta virt. eigenvalues --    4.95810   4.97634   4.99716   5.02716   5.03497
  Beta virt. eigenvalues --    5.06212   5.07546   5.08814   5.14097   5.20883
  Beta virt. eigenvalues --    5.24358   5.25809   5.29850   5.31359   5.35104
  Beta virt. eigenvalues --    5.35635   5.37310   5.38480   5.41719   5.46798
  Beta virt. eigenvalues --    5.48294   5.62328   5.68056   5.75573   5.87042
  Beta virt. eigenvalues --    5.89337   5.91297   5.93214   5.98919   6.07298
  Beta virt. eigenvalues --    6.13492   6.17257   6.20827   6.25654   6.28550
  Beta virt. eigenvalues --    6.40703   6.47527   6.66569   6.76235   6.80167
  Beta virt. eigenvalues --    6.81978   6.98349   7.06791   7.08460   7.13728
  Beta virt. eigenvalues --    7.43970   7.45978   7.60729   7.75130   9.12224
  Beta virt. eigenvalues --    9.86861  10.74216  13.47319  14.36765  14.96922
          Condensed to atoms (all electrons):
               1          2          3          4          5          6
     1  C    5.142742   0.407828  -0.005068   0.000162   0.000332  -0.000490
     2  H    0.407828   0.484842   0.000113  -0.000533   0.000003   0.000042
     3  C   -0.005068   0.000113   4.624213   0.395939   0.394137   0.416546
     4  H    0.000162  -0.000533   0.395939   0.653717  -0.034969  -0.050602
     5  H    0.000332   0.000003   0.394137  -0.034969   0.591646  -0.026918
     6  H   -0.000490   0.000042   0.416546  -0.050602  -0.026918   0.588186
     7  O    0.003419   0.000660   0.288712  -0.047593  -0.025960  -0.035118
     8  O   -0.069157   0.000139  -0.042931  -0.001268   0.006745   0.003735
     9  H    0.206093  -0.011098   0.002387   0.004679  -0.000988   0.000342
    10  C    0.720635  -0.056843   0.000005   0.001743   0.000098   0.000473
    11  C   -0.079315  -0.000646  -0.001411  -0.002964   0.000510   0.000365
    12  H   -0.002897  -0.000096   0.000639  -0.000039   0.000012  -0.000019
    13  H   -0.001613  -0.000031  -0.000043   0.000090  -0.000000   0.000001
               7          8          9         10         11         12
     1  C    0.003419  -0.069157   0.206093   0.720635  -0.079315  -0.002897
     2  H    0.000660   0.000139  -0.011098  -0.056843  -0.000646  -0.000096
     3  C    0.288712  -0.042931   0.002387   0.000005  -0.001411   0.000639
     4  H   -0.047593  -0.001268   0.004679   0.001743  -0.002964  -0.000039
     5  H   -0.025960   0.006745  -0.000988   0.000098   0.000510   0.000012
     6  H   -0.035118   0.003735   0.000342   0.000473   0.000365  -0.000019
     7  O    7.931304   0.076089  -0.027547  -0.001698   0.007354  -0.000130
     8  O    0.076089   8.058764   0.196998  -0.013708   0.000182   0.000001
     9  H   -0.027547   0.196998   0.399305   0.004204  -0.002210   0.000126
    10  C   -0.001698  -0.013708   0.004204   4.785355   0.556017  -0.053184
    11  C    0.007354   0.000182  -0.002210   0.556017   4.986527   0.415939
    12  H   -0.000130   0.000001   0.000126  -0.053184   0.415939   0.529386
    13  H    0.000016   0.000020  -0.000122  -0.045671   0.413798  -0.032471
              13
     1  C   -0.001613
     2  H   -0.000031
     3  C   -0.000043
     4  H    0.000090
     5  H   -0.000000
     6  H    0.000001
     7  O    0.000016
     8  O    0.000020
     9  H   -0.000122
    10  C   -0.045671
    11  C    0.413798
    12  H   -0.032471
    13  H    0.520062
          Atomic-Atomic Spin Densities.
               1          2          3          4          5          6
     1  C    0.544365  -0.000037   0.000902  -0.003449   0.000061   0.000791
     2  H   -0.000037  -0.004388  -0.000090   0.000410  -0.000002  -0.000046
     3  C    0.000902  -0.000090  -0.009615   0.004041   0.000822  -0.000890
     4  H   -0.003449   0.000410   0.004041   0.001436  -0.000516  -0.000483
     5  H    0.000061  -0.000002   0.000822  -0.000516  -0.001838   0.000463
     6  H    0.000791  -0.000046  -0.000890  -0.000483   0.000463   0.002209
     7  O    0.010625  -0.000494  -0.000461  -0.001437   0.000356  -0.000506
     8  O   -0.062507   0.002852  -0.001757   0.003473  -0.000192   0.000218
     9  H    0.034575   0.002378   0.001473  -0.003275   0.000100   0.001091
    10  C   -0.009271   0.002168  -0.001392   0.001064  -0.000126  -0.000255
    11  C   -0.010823  -0.001197  -0.000840   0.001661  -0.000032  -0.000216
    12  H   -0.000127   0.000020  -0.000042   0.000051   0.000003   0.000001
    13  H   -0.000161   0.000016   0.000010  -0.000010   0.000002   0.000000
               7          8          9         10         11         12
     1  C    0.010625  -0.062507   0.034575  -0.009271  -0.010823  -0.000127
     2  H   -0.000494   0.002852   0.002378   0.002168  -0.001197   0.000020
     3  C   -0.000461  -0.001757   0.001473  -0.001392  -0.000840  -0.000042
     4  H   -0.001437   0.003473  -0.003275   0.001064   0.001661   0.000051
     5  H    0.000356  -0.000192   0.000100  -0.000126  -0.000032   0.000003
     6  H   -0.000506   0.000218   0.001091  -0.000255  -0.000216   0.000001
     7  O    0.111702  -0.052949   0.008944  -0.001811  -0.005854   0.000007
     8  O   -0.052949   0.552765  -0.032746   0.006473   0.001831  -0.000001
     9  H    0.008944  -0.032746  -0.102140   0.003292  -0.000429  -0.000037
    10  C   -0.001811   0.006473   0.003292  -0.357553  -0.008675   0.000245
    11  C   -0.005854   0.001831  -0.000429  -0.008675   0.529638   0.005557
    12  H    0.000007  -0.000001  -0.000037   0.000245   0.005557  -0.035777
    13  H    0.000006  -0.000006  -0.000026  -0.000200   0.005162   0.004512
              13
     1  C   -0.000161
     2  H    0.000016
     3  C    0.000010
     4  H   -0.000010
     5  H    0.000002
     6  H    0.000000
     7  O    0.000006
     8  O   -0.000006
     9  H   -0.000026
    10  C   -0.000200
    11  C    0.005162
    12  H    0.004512
    13  H   -0.035387
 Mulliken charges and spin densities:
               1          2
     1  C   -0.322673   0.504944
     2  H    0.175621   0.001590
     3  C   -0.073237  -0.007838
     4  H    0.081639   0.002968
     5  H    0.095352  -0.000898
     6  H    0.103459   0.002378
     7  O   -0.169507   0.068130
     8  O   -0.215608   0.417454
     9  H    0.227831  -0.086801
    10  C    0.102575  -0.366040
    11  C   -0.294147   0.515785
    12  H    0.142732  -0.025590
    13  H    0.145964  -0.026082
 Sum of Mulliken charges =  -0.00000   1.00000
 Mulliken charges and spin densities with hydrogens summed into heavy atoms:
               1          2
     1  C   -0.147052   0.506535
     3  C    0.207212  -0.003391
     7  O   -0.169507   0.068130
     8  O    0.012223   0.330653
    10  C    0.102575  -0.366040
    11  C   -0.005451   0.464114
 Electronic spatial extent (au):  <R**2>=            759.5888
 Charge=             -0.0000 electrons
 Dipole moment (field-independent basis, Debye):
    X=             -1.0366    Y=              2.2298    Z=             -0.7923  Tot=              2.5835
 Quadrupole moment (field-independent basis, Debye-Ang):
   XX=            -34.9950   YY=            -37.0222   ZZ=            -36.1371
   XY=              3.1398   XZ=             -1.4885   YZ=              4.3115
 Traceless Quadrupole moment (field-independent basis, Debye-Ang):
   XX=              1.0565   YY=             -0.9708   ZZ=             -0.0857
   XY=              3.1398   XZ=             -1.4885   YZ=              4.3115
 Octapole moment (field-independent basis, Debye-Ang**2):
  XXX=             19.9146  YYY=             57.2813  ZZZ=            -27.2958  XYY=             -1.4096
  XXY=             23.8779  XXZ=             -2.4982  XZZ=             -0.9971  YZZ=             15.6082
  YYZ=            -14.0248  XYZ=             -1.3316
 Hexadecapole moment (field-independent basis, Debye-Ang**3):
 XXXX=           -566.7280 YYYY=           -275.5193 ZZZZ=           -149.1022 XXXY=              5.1964
 XXXZ=            -43.9953 YYYX=              9.5553 YYYZ=            -10.0277 ZZZX=            -33.1970
 ZZZY=            -14.2401 XXYY=           -144.6885 XXZZ=           -110.3787 YYZZ=            -61.9793
 XXYZ=             -2.0499 YYXZ=             -4.9539 ZZXY=              9.7408
 N-N= 2.222898511128D+02 E-N=-1.162285268810D+03  KE= 3.050396494530D+02
                          Isotropic Fermi Contact Couplings
        Atom                 a.u.       MegaHertz       Gauss      10(-4) cm-1
     1  C(13)              0.11029     123.98400      44.24057      41.35661
     2  H(1)               0.00341      15.23613       5.43663       5.08222
     3  C(13)             -0.00531      -5.96992      -2.13022      -1.99135
     4  H(1)               0.00285      12.72378       4.54016       4.24419
     5  H(1)              -0.00013      -0.56968      -0.20328      -0.19003
     6  H(1)               0.00137       6.11025       2.18029       2.03816
     7  O(17)              0.02398     -14.53735      -5.18729      -4.84914
     8  O(17)              0.01207      -7.31670      -2.61078      -2.44059
     9  H(1)              -0.02208     -98.69687     -35.21750     -32.92173
    10  C(13)             -0.00448      -5.03393      -1.79623      -1.67914
    11  C(13)              0.00980      11.01146       3.92916       3.67303
    12  H(1)              -0.00517     -23.10765      -8.24539      -7.70788
    13  H(1)              -0.00520     -23.22472      -8.28716      -7.74693
 --------------------------------------------------------
       Center         ----  Spin Dipole Couplings  ----
                      3XX-RR        3YY-RR        3ZZ-RR
 --------------------------------------------------------
     1   Atom        0.315368     -0.175646     -0.139722
     2   Atom       -0.004770     -0.004734      0.009503
     3   Atom       -0.002463      0.006536     -0.004073
     4   Atom       -0.002422      0.005601     -0.003179
     5   Atom       -0.001005      0.005418     -0.004413
     6   Atom        0.002191      0.002049     -0.004240
     7   Atom        0.483761     -0.300916     -0.182845
     8   Atom        1.180642     -0.680996     -0.499646
     9   Atom        0.117559     -0.083981     -0.033578
    10   Atom       -0.068333      0.062589      0.005744
    11   Atom        0.265374     -0.222967     -0.042407
    12   Atom       -0.005621      0.024968     -0.019347
    13   Atom        0.008337     -0.024983      0.016646
 --------------------------------------------------------
                        XY            XZ            YZ
 --------------------------------------------------------
     1   Atom       -0.114693      0.179795     -0.041172
     2   Atom       -0.002655      0.009026      0.022920
     3   Atom        0.006305     -0.000155     -0.001175
     4   Atom        0.001968     -0.001116     -0.004176
     5   Atom        0.003097      0.001012      0.001935
     6   Atom        0.006473     -0.001566     -0.000740
     7   Atom       -0.178019      0.393099     -0.102820
     8   Atom       -0.551018      0.805461     -0.229756
     9   Atom       -0.020142      0.106021     -0.006950
    10   Atom       -0.022255     -0.084043      0.028370
    11   Atom       -0.010187      0.297253     -0.007655
    12   Atom        0.005019      0.011259     -0.010199
    13   Atom        0.005525     -0.011358     -0.011302
 --------------------------------------------------------


 ---------------------------------------------------------------------------------
              Anisotropic Spin Dipole Couplings in Principal Axis System
 ---------------------------------------------------------------------------------

       Atom             a.u.   MegaHertz   Gauss  10(-4) cm-1        Axes

              Baa    -0.2030   -27.246    -9.722    -9.088 -0.1578  0.5608  0.8128
     1 C(13)  Bbb    -0.2004   -26.895    -9.597    -8.971  0.3477  0.8019 -0.4858
              Bcc     0.4035    54.142    19.319    18.060  0.9242 -0.2059  0.3215
 
              Baa    -0.0245   -13.097    -4.673    -4.369  0.3641  0.7250 -0.5846
     2 H(1)   Bbb    -0.0029    -1.538    -0.549    -0.513  0.9137 -0.3996  0.0736
              Bcc     0.0274    14.634     5.222     4.882  0.1803  0.5609  0.8080
 
              Baa    -0.0058    -0.779    -0.278    -0.260  0.8563 -0.4598 -0.2351
     3 C(13)  Bbb    -0.0041    -0.546    -0.195    -0.182  0.2453 -0.0385  0.9687
              Bcc     0.0099     1.325     0.473     0.442  0.4545  0.8872 -0.0798
 
              Baa    -0.0049    -2.611    -0.932    -0.871  0.1470  0.3418  0.9282
     4 H(1)   Bbb    -0.0029    -1.532    -0.546    -0.511  0.9655 -0.2536 -0.0595
              Bcc     0.0078     4.142     1.478     1.382  0.2151  0.9049 -0.3673
 
              Baa    -0.0048    -2.583    -0.922    -0.862 -0.1445 -0.1411  0.9794
     5 H(1)   Bbb    -0.0022    -1.194    -0.426    -0.398  0.9170 -0.3909  0.0789
              Bcc     0.0071     3.777     1.348     1.260  0.3718  0.9095  0.1859
 
              Baa    -0.0050    -2.653    -0.947    -0.885  0.5396 -0.4207  0.7293
     6 H(1)   Bbb    -0.0038    -2.042    -0.729    -0.681 -0.4536  0.5845  0.6728
              Bcc     0.0088     4.695     1.675     1.566  0.7093  0.6939 -0.1245
 
              Baa    -0.3750    27.136     9.683     9.052 -0.2820  0.4773  0.8323
     7 O(17)  Bbb    -0.3324    24.053     8.583     8.023  0.3637  0.8559 -0.3676
              Bcc     0.7074   -51.189   -18.265   -17.075  0.8878 -0.1991  0.4150
 
              Baa    -0.8374    60.593    21.621    20.212  0.0272  0.8555  0.5171
     8 O(17)  Bbb    -0.8194    59.292    21.157    19.778 -0.4377 -0.4549  0.7756
              Bcc     1.6568  -119.885   -42.778   -39.989  0.8987 -0.2474  0.3620
 
              Baa    -0.0902   -48.148   -17.180   -16.060 -0.4202 -0.5547  0.7182
     9 H(1)   Bbb    -0.0837   -44.643   -15.930   -14.891 -0.1942  0.8281  0.5259
              Bcc     0.1739    92.791    33.110    30.952  0.8864 -0.0815  0.4557
 
              Baa    -0.1232   -16.531    -5.899    -5.514  0.8394  0.0176  0.5433
    10 C(13)  Bbb     0.0257     3.444     1.229     1.149  0.3795  0.6966 -0.6089
              Bcc     0.0975    13.087     4.670     4.365 -0.3891  0.7173  0.5780
 
              Baa    -0.2245   -30.122   -10.748   -10.048 -0.3588  0.7020  0.6153
    11 C(13)  Bbb    -0.2220   -29.788   -10.629    -9.936  0.3764  0.7120 -0.5928
              Bcc     0.4464    59.909    21.377    19.984  0.8542 -0.0189  0.5197
 
              Baa    -0.0281   -14.992    -5.349    -5.001 -0.4749  0.2092  0.8548
    12 H(1)   Bbb     0.0007     0.367     0.131     0.123  0.8761  0.0212  0.4816
              Bcc     0.0274    14.624     5.218     4.878  0.0827  0.9776 -0.1933
 
              Baa    -0.0281   -14.967    -5.340    -4.992 -0.0769  0.9711  0.2260
    13 H(1)   Bbb     0.0005     0.275     0.098     0.092  0.8357 -0.0609  0.5458
              Bcc     0.0275    14.691     5.242     4.901 -0.5438 -0.2308  0.8068
 

 ---------------------------------------------------------------------------------

 1\1\GINC-N190\Scan\UB2PLYPD3-FC\CC-pVTZ\C4H7O2(2)\ROOT\19-Jun-2019\0\\
 # opt=(calcfc,ts,noeigentest,maxcyc=500,modredundant) uB2PLYPD3/cc-pvt
 z scf=maxcyc=500 nosymm\\Title Card Required\\0,2\C,-1.0897725406,-1.3
 724530455,-0.8657021451\H,-1.3629521222,-1.9377569405,-1.7381111659\C,
 1.6816899214,0.490824302,0.4906015027\H,1.1316344448,0.7768790664,-0.4
 050806002\H,1.6179311889,1.2753892667,1.2408961252\H,2.7204792558,0.28
 39519254,0.2415079585\O,1.0845003032,-0.6559838225,1.0930683953\O,1.16
 55974929,-1.7083335441,0.1892903352\H,0.1172229699,-1.6458981748,-0.36
 75740636\C,-1.6412542573,-0.4847900875,-0.1496802385\C,-2.0910645299,0
 .4416111231,0.6851003978\H,-1.9433410063,1.4928047892,0.4823222227\H,-
 2.6365131206,0.1676251421,1.5764872761\\Version=ES64L-G16RevB.01\HF=-3
 06.3390143,-306.338919,-306.3386615,-306.3382937,-306.3379853,-306.337
 8789,-306.3377633,-306.337689,-306.337709,-306.3378074,-306.3379517,-3
 06.3381095,-306.3382513,-306.33836,-306.3384289,-306.3384503,-306.3384
 187,-306.3383314,-306.3381914,-306.3380176,-306.3378291,-306.3376573,-
 306.337517,-306.337418,-306.3373653,-306.3373575,-306.3373961,-306.337
 4816,-306.3376178,-306.3378023,-306.3380244,-306.3382508,-306.3384396,
 -306.3386158,-306.3388094,-306.338965,-306.3390166\MP2=-306.7160108,-3
 06.7158721,-306.7154643,-306.7148205,-306.7140265,-306.7133015,-306.71
 28565,-306.7126575,-306.712638,-306.7127367,-306.7128925,-306.7130491,
 -306.713174,-306.7132554,-306.7132922,-306.7132824,-306.7132194,-306.7
 130958,-306.7129155,-306.7127,-306.7124825,-306.7122947,-306.7121547,-
 306.7120702,-306.7120411,-306.7120639,-306.7121404,-306.7122758,-306.7
 124826,-306.7127761,-306.7131704,-306.7136722,-306.7142769,-306.714922
 5,-306.7154913,-306.7158766,-306.7160124\PUHF=-306.3511711,-306.351084
 5,-306.3508225,-306.3504364,-306.3501041,-306.3499925,-306.3498807,-30
 6.3497994,-306.3498064,-306.3498927,-306.3500317,-306.3501993,-306.350
 3599,-306.3504964,-306.3505971,-306.3506511,-306.3506473,-306.3505791,
 -306.3504447,-306.3502646,-306.3500539,-306.3498601,-306.3496938,-306.
 34957,-306.3494973,-306.3494749,-306.3495078,-306.3495908,-306.3497285
 ,-306.3499131,-306.3501307,-306.3503463,-306.3505271,-306.3507117,-306
 .350926,-306.3511039,-306.3511732\PMP2-0=-306.7179268,-306.71779,-306.
 7173826,-306.7167378,-306.715943,-306.7152212,-306.7147798,-306.714580
 8,-306.7145595,-306.7146557,-306.7148095,-306.7149666,-306.7150936,-30
 6.7151789,-306.7152203,-306.7152156,-306.7151571,-306.7150368,-306.714
 858,-306.7146418,-306.7144214,-306.7142305,-306.7140866,-306.7139984,-
 306.7139663,-306.713987,-306.7140629,-306.714198,-306.7144048,-306.714
 6973,-306.7150892,-306.7155869,-306.7161875,-306.716832,-306.7174022,-
 306.71779,-306.7179283\S2=0.833964,0.834015,0.833915,0.83366,0.833339,
 0.833286,0.833408,0.83339,0.833276,0.833134,0.833035,0.833082,0.833209
 ,0.833426,0.833686,0.833963,0.834206,0.834388,0.834466,0.834443,0.8342
 79,0.83412,0.833914,0.833714,0.833559,0.833452,0.833433,0.833425,0.833
 438,0.833415,0.833331,0.833196,0.833136,0.833285,0.833548,0.833796,0.8
 33964\S2-1=0.762302,0.762329,0.762361,0.762399,0.76248,0.762655,0.7628
 05,0.762858,0.762848,0.762798,0.762735,0.762695,0.762676,0.762684,0.76
 271,0.76275,0.762795,0.762837,0.762875,0.762892,0.762892,0.762886,0.76
 2866,0.762845,0.762831,0.762824,0.762833,0.762834,0.762821,0.762774,0.
 762684,0.762556,0.762423,0.762335,0.762293,0.762287,0.762302\S2A=0.753
 563,0.753581,0.753608,0.753641,0.753682,0.753738,0.753783,0.753802,0.7
 538,0.753785,0.753766,0.753753,0.753744,0.753742,0.753744,0.753749,0.7
 53755,0.75376,0.753763,0.753764,0.75376,0.753757,0.753752,0.753748,0.7
 53746,0.753748,0.753753,0.753756,0.753755,0.753743,0.753716,0.753675,0
 .753628,0.753591,0.753568,0.753559,0.753563\RMSD=9.247e-09,7.091e-09,9
 .990e-09,9.093e-09,6.902e-09,9.547e-09,5.358e-09,8.773e-09,5.805e-09,6
 .569e-09,6.979e-09,5.993e-09,3.854e-09,4.765e-09,4.136e-09,5.834e-09,4
 .643e-09,6.241e-09,6.256e-09,3.968e-09,5.028e-09,6.670e-09,9.980e-09,6
 .049e-09,7.749e-09,5.449e-09,5.640e-09,7.404e-09,8.479e-09,3.423e-09,5
 .011e-09,7.181e-09,8.964e-09,5.832e-09,6.054e-09,7.238e-09,8.005e-09\P
 G=C01 [X(C4H7O2)]\\@


 GOOD SENSE ABOUT TRIVIALITIES IS BETTER THAN NONSENSE
 ABOUT THINGS THAT MATTER

                                       -- MAX BEERBOHM
 Job cpu time:       8 days 20 hours  5 minutes 48.6 seconds.
 Elapsed time:       0 days  7 hours 34 minutes 52.6 seconds.
 File lengths (MBytes):  RWF=  41755 Int=      0 D2E=      0 Chk=     14 Scr=      1
 Normal termination of Gaussian 16 at Wed Jun 19 13:36:39 2019.
