 Entering Gaussian System, Link 0=g16
 Initial command:
 /ichec/packages/gaussian/16b01/l1.exe "/localscratch/341085/Gau-81601.inp" -scrdir="/localscratch/341085/"
 Entering Link 1 = /ichec/packages/gaussian/16b01/l1.exe PID=     82313.
  
 Copyright (c) 1988-2017, Gaussian, Inc.  All Rights Reserved.
  
 This is part of the Gaussian(R) 16 program.  It is based on
 the Gaussian(R) 09 system (copyright 2009, Gaussian, Inc.),
 the Gaussian(R) 03 system (copyright 2003, Gaussian, Inc.),
 the Gaussian(R) 98 system (copyright 1998, Gaussian, Inc.),
 the Gaussian(R) 94 system (copyright 1995, Gaussian, Inc.),
 the Gaussian 92(TM) system (copyright 1992, Gaussian, Inc.),
 the Gaussian 90(TM) system (copyright 1990, Gaussian, Inc.),
 the Gaussian 88(TM) system (copyright 1988, Gaussian, Inc.),
 the Gaussian 86(TM) system (copyright 1986, Carnegie Mellon
 University), and the Gaussian 82(TM) system (copyright 1983,
 Carnegie Mellon University). Gaussian is a federally registered
 trademark of Gaussian, Inc.
  
 This software contains proprietary and confidential information,
 including trade secrets, belonging to Gaussian, Inc.
  
 This software is provided under written license and may be
 used, copied, transmitted, or stored only in accord with that
 written license.
  
 The following legend is applicable only to US Government
 contracts under FAR:
  
                    RESTRICTED RIGHTS LEGEND
  
 Use, reproduction and disclosure by the US Government is
 subject to restrictions as set forth in subparagraphs (a)
 and (c) of the Commercial Computer Software - Restricted
 Rights clause in FAR 52.227-19.
  
 Gaussian, Inc.
 340 Quinnipiac St., Bldg. 40, Wallingford CT 06492
  
  
 ---------------------------------------------------------------
 Warning -- This program may not be used in any manner that
 competes with the business of Gaussian, Inc. or will provide
 assistance to any competitor of Gaussian, Inc.  The licensee
 of this program is prohibited from giving any competitor of
 Gaussian, Inc. access to this program.  By using this program,
 the user acknowledges that Gaussian, Inc. is engaged in the
 business of creating and licensing software in the field of
 computational chemistry and represents and warrants to the
 licensee that it is not a competitor of Gaussian, Inc. and that
 it will not use this program in any manner prohibited above.
 ---------------------------------------------------------------
  

 Cite this work as:
 Gaussian 16, Revision B.01,
 M. J. Frisch, G. W. Trucks, H. B. Schlegel, G. E. Scuseria, 
 M. A. Robb, J. R. Cheeseman, G. Scalmani, V. Barone, 
 G. A. Petersson, H. Nakatsuji, X. Li, M. Caricato, A. V. Marenich, 
 J. Bloino, B. G. Janesko, R. Gomperts, B. Mennucci, H. P. Hratchian, 
 J. V. Ortiz, A. F. Izmaylov, J. L. Sonnenberg, D. Williams-Young, 
 F. Ding, F. Lipparini, F. Egidi, J. Goings, B. Peng, A. Petrone, 
 T. Henderson, D. Ranasinghe, V. G. Zakrzewski, J. Gao, N. Rega, 
 G. Zheng, W. Liang, M. Hada, M. Ehara, K. Toyota, R. Fukuda, 
 J. Hasegawa, M. Ishida, T. Nakajima, Y. Honda, O. Kitao, H. Nakai, 
 T. Vreven, K. Throssell, J. A. Montgomery, Jr., J. E. Peralta, 
 F. Ogliaro, M. J. Bearpark, J. J. Heyd, E. N. Brothers, K. N. Kudin, 
 V. N. Staroverov, T. A. Keith, R. Kobayashi, J. Normand, 
 K. Raghavachari, A. P. Rendell, J. C. Burant, S. S. Iyengar, 
 J. Tomasi, M. Cossi, J. M. Millam, M. Klene, C. Adamo, R. Cammi, 
 J. W. Ochterski, R. L. Martin, K. Morokuma, O. Farkas, 
 J. B. Foresman, and D. J. Fox, Gaussian, Inc., Wallingford CT, 2016.
 
 ******************************************
 Gaussian 16:  ES64L-G16RevB.01 20-Dec-2017
                 7-Jun-2019 
 ******************************************
 %mem=80GB
 %nproc=40
 Will use up to   40 processors via shared memory.
 ----------------------------------------------------------------------
 # opt=(calcfc,ts,noeigentest,maxcyc=500) freq=noraman uB2PLYPD3/cc-pvt
 z
 ----------------------------------------------------------------------
 1/5=1,6=500,10=4,11=1,18=20,38=1/1,3;
 2/9=110,12=2,17=6,18=5,40=1/2;
 3/5=16,6=1,11=2,25=1,30=1,71=2,74=-60,116=2,140=1/1,2,3;
 4//1;
 5/5=2,38=5/2;
 8/6=3,8=1,10=1,19=11,30=-1/1;
 9/15=3,16=-3/6;
 11/6=1,8=1,15=11,17=12,24=-1,27=1,28=-2,29=300,32=6,42=3/1,2,10;
 10/6=2,21=1/2;
 8/6=4,8=1,10=1,19=11,30=-1/11,4;
 10/5=1,20=4/2;
 11/12=2,14=11,16=1,17=2,28=-2,42=3,76=2/2,10,12;
 6/7=2,8=2,9=2,10=2/1;
 7/10=1,12=2,25=1,44=2/1,2,3,16;
 1/5=1,6=500,10=4,11=1,18=20/3(2);
 2/9=110/2;
 99//99;
 2/9=110/2;
 3/5=16,6=1,11=2,25=1,30=1,71=1,74=-60,116=2/1,2,3;
 4/5=5,16=3,69=1/1;
 5/5=2,38=5/2;
 8/6=4,10=1/1;
 9/15=2,16=-3/6;
 10/5=1/2;
 7/12=2/1,2,3,16;
 1/5=1,6=500,11=1,18=20/3(-8);
 2/9=110/2;
 6/7=2,8=2,9=2,10=2/1;
 99/9=10/99;
 -------------------
 Title Card Required
 -------------------
 Symbolic Z-matrix:
 Charge =  0 Multiplicity = 2
 C                    -1.13706   1.28941   0.38248 
 H                    -1.51496   2.20008   0.81407 
 C                     1.55985  -0.9695    0.56291 
 H                     0.83993  -0.76089   1.35622 
 H                     1.52147  -2.02      0.2828 
 H                     2.56309  -0.69496   0.88692 
 O                     1.2137   -0.24633  -0.60692 
 O                     1.26177   1.08598  -0.32307 
 H                     0.14816   1.31743   0.02399 
 C                    -1.61729   0.15171   0.101 
 C                    -1.98334  -1.07086  -0.24035 
 H                    -1.92981  -1.88482   0.47034 
 H                    -2.36464  -1.27856  -1.23059 
 
 Add virtual bond connecting atoms H9         and O8         Dist= 2.25D+00.
 Add virtual bond connecting atoms H9         and C1         Dist= 2.52D+00.

 GradGradGradGradGradGradGradGradGradGradGradGradGradGradGradGradGradGrad
 Berny optimization.
 Initialization pass.
                           ----------------------------
                           !    Initial Parameters    !
                           ! (Angstroms and Degrees)  !
 --------------------------                            --------------------------
 ! Name  Definition              Value          Derivative Info.                !
 --------------------------------------------------------------------------------
 ! R1    R(1,2)                  1.0763         calculate D2E/DX2 analytically  !
 ! R2    R(1,9)                  1.3346         calculate D2E/DX2 analytically  !
 ! R3    R(1,10)                 1.2666         calculate D2E/DX2 analytically  !
 ! R4    R(3,4)                  1.0914         calculate D2E/DX2 analytically  !
 ! R5    R(3,5)                  1.0879         calculate D2E/DX2 analytically  !
 ! R6    R(3,6)                  1.0894         calculate D2E/DX2 analytically  !
 ! R7    R(3,7)                  1.4182         calculate D2E/DX2 analytically  !
 ! R8    R(7,8)                  1.3631         calculate D2E/DX2 analytically  !
 ! R9    R(8,9)                  1.1892         calculate D2E/DX2 analytically  !
 ! R10   R(10,11)                1.3211         calculate D2E/DX2 analytically  !
 ! R11   R(11,12)                1.0819         calculate D2E/DX2 analytically  !
 ! R12   R(11,13)                1.0813         calculate D2E/DX2 analytically  !
 ! A1    A(2,1,9)              115.3465         calculate D2E/DX2 analytically  !
 ! A2    A(2,1,10)             135.7258         calculate D2E/DX2 analytically  !
 ! A3    A(9,1,10)             108.9229         calculate D2E/DX2 analytically  !
 ! A4    A(4,3,5)              110.393          calculate D2E/DX2 analytically  !
 ! A5    A(4,3,6)              110.0656         calculate D2E/DX2 analytically  !
 ! A6    A(4,3,7)              109.9446         calculate D2E/DX2 analytically  !
 ! A7    A(5,3,6)              110.635          calculate D2E/DX2 analytically  !
 ! A8    A(5,3,7)              105.7475         calculate D2E/DX2 analytically  !
 ! A9    A(6,3,7)              109.9741         calculate D2E/DX2 analytically  !
 ! A10   A(3,7,8)              108.544          calculate D2E/DX2 analytically  !
 ! A11   A(7,8,9)              102.5913         calculate D2E/DX2 analytically  !
 ! A12   A(10,11,12)           120.8519         calculate D2E/DX2 analytically  !
 ! A13   A(10,11,13)           120.8048         calculate D2E/DX2 analytically  !
 ! A14   A(12,11,13)           118.3297         calculate D2E/DX2 analytically  !
 ! A15   L(1,9,8,4,-1)         170.9267         calculate D2E/DX2 analytically  !
 ! A16   L(1,10,11,3,-1)       174.297          calculate D2E/DX2 analytically  !
 ! A17   L(1,9,8,4,-2)         171.1814         calculate D2E/DX2 analytically  !
 ! A18   L(1,10,11,3,-2)       182.9085         calculate D2E/DX2 analytically  !
 ! D1    D(2,1,8,7)            172.6797         calculate D2E/DX2 analytically  !
 ! D2    D(10,1,8,7)            -7.0215         calculate D2E/DX2 analytically  !
 ! D3    D(2,1,11,12)          -90.3652         calculate D2E/DX2 analytically  !
 ! D4    D(2,1,11,13)           92.0075         calculate D2E/DX2 analytically  !
 ! D5    D(9,1,11,12)           90.432          calculate D2E/DX2 analytically  !
 ! D6    D(9,1,11,13)          -87.1953         calculate D2E/DX2 analytically  !
 ! D7    D(4,3,7,8)             61.634          calculate D2E/DX2 analytically  !
 ! D8    D(5,3,7,8)           -179.1916         calculate D2E/DX2 analytically  !
 ! D9    D(6,3,7,8)            -59.7142         calculate D2E/DX2 analytically  !
 ! D10   D(3,7,8,9)            -91.0993         calculate D2E/DX2 analytically  !
 --------------------------------------------------------------------------------
 Trust Radius=3.00D-01 FncErr=1.00D-07 GrdErr=1.00D-07 EigMax=2.50D+02 EigMin=1.00D-04
 Number of steps in this run=    100 maximum allowed number of steps=    100.
 Search for a saddle point of order  1.
 GradGradGradGradGradGradGradGradGradGradGradGradGradGradGradGradGradGrad

                          Input orientation:                          
 ---------------------------------------------------------------------
 Center     Atomic      Atomic             Coordinates (Angstroms)
 Number     Number       Type             X           Y           Z
 ---------------------------------------------------------------------
      1          6           0       -1.137055    1.289412    0.382479
      2          1           0       -1.514964    2.200075    0.814068
      3          6           0        1.559851   -0.969500    0.562906
      4          1           0        0.839928   -0.760891    1.356219
      5          1           0        1.521470   -2.020001    0.282795
      6          1           0        2.563090   -0.694961    0.886919
      7          8           0        1.213700   -0.246330   -0.606924
      8          8           0        1.261768    1.085975   -0.323071
      9          1           0        0.148160    1.317429    0.023985
     10          6           0       -1.617288    0.151713    0.100998
     11          6           0       -1.983336   -1.070865   -0.240346
     12          1           0       -1.929811   -1.884816    0.470342
     13          1           0       -2.364643   -1.278555   -1.230591
 ---------------------------------------------------------------------
                    Distance matrix (angstroms):
                    1          2          3          4          5
     1  C    0.000000
     2  H    1.076286   0.000000
     3  C    3.522576   4.423096   0.000000
     4  H    3.010045   3.821880   1.091399   0.000000
     5  H    4.246164   5.226014   1.087882   1.789440   0.000000
     6  H    4.228861   5.001706   1.089424   1.787142   1.790438
     7  O    2.977158   3.930614   1.418202   2.063591   2.008042
     8  O    2.508693   3.200710   2.258049   2.531576   3.175154
     9  H    1.334571   2.041881   2.741049   2.563748   3.618204
    10  C    1.266576   2.171342   3.400690   2.906258   3.821151
    11  C    2.583604   3.468459   3.634510   3.258209   3.668542
    12  H    3.272905   4.120265   3.608894   3.117602   3.459016
    13  H    3.271608   4.123524   4.325945   4.150763   4.235794
                    6          7          8          9         10
     6  H    0.000000
     7  O    2.062448   0.000000
     8  O    2.515800   1.363055   0.000000
     9  H    3.259794   1.994684   1.189177   0.000000
    10  C    4.337060   2.945180   3.056410   2.116986   0.000000
    11  C    4.699151   3.321939   3.897371   3.212023   1.321062
    12  H    4.666417   3.704970   4.431848   3.843380   2.093212
    13  H    5.395089   3.776107   4.423285   3.824562   2.092208
                   11         12         13
    11  C    0.000000
    12  H    1.081877   0.000000
    13  H    1.081256   1.857365   0.000000
 Stoichiometry    C4H7O2(2)
 Framework group  C1[X(C4H7O2)]
 Deg. of freedom    33
 Full point group                 C1      NOp   1
 Largest Abelian subgroup         C1      NOp   1
 Largest concise Abelian subgroup C1      NOp   1
                         Standard orientation:                         
 ---------------------------------------------------------------------
 Center     Atomic      Atomic             Coordinates (Angstroms)
 Number     Number       Type             X           Y           Z
 ---------------------------------------------------------------------
      1          6           0       -1.137055    1.289412    0.382479
      2          1           0       -1.514964    2.200075    0.814068
      3          6           0        1.559851   -0.969500    0.562906
      4          1           0        0.839928   -0.760891    1.356219
      5          1           0        1.521469   -2.020001    0.282795
      6          1           0        2.563090   -0.694962    0.886919
      7          8           0        1.213700   -0.246330   -0.606924
      8          8           0        1.261768    1.085975   -0.323071
      9          1           0        0.148160    1.317429    0.023985
     10          6           0       -1.617288    0.151713    0.100998
     11          6           0       -1.983336   -1.070865   -0.240346
     12          1           0       -1.929812   -1.884816    0.470342
     13          1           0       -2.364643   -1.278555   -1.230591
 ---------------------------------------------------------------------
 Rotational constants (GHZ):           5.0096752           2.3754773           1.8320092
 Standard basis: CC-pVTZ (5D, 7F)
 There are   315 symmetry adapted cartesian basis functions of A   symmetry.
 There are   278 symmetry adapted basis functions of A   symmetry.
   278 basis functions,   431 primitive gaussians,   315 cartesian basis functions
    24 alpha electrons       23 beta electrons
       nuclear repulsion energy       224.6156948131 Hartrees.
 NAtoms=   13 NActive=   13 NUniq=   13 SFac= 1.00D+00 NAtFMM=   60 NAOKFM=F Big=F
 Integral buffers will be    131072 words long.
 Raffenetti 2 integral format.
 Two-electron integral symmetry is turned on.
 Nuclear repulsion after empirical dispersion term =      224.6089817824 Hartrees.
 One-electron integrals computed using PRISM.
 NBasis=   278 RedAO= T EigKep=  1.27D-04  NBF=   278
 NBsUse=   278 1.00D-06 EigRej= -1.00D+00 NBFU=   278
 ExpMin= 1.03D-01 ExpMax= 1.53D+04 ExpMxC= 5.22D+02 IAcc=3 IRadAn=         5 AccDes= 0.00D+00
 Harris functional with IExCor=  419 and IRadAn=       5 diagonalized for initial guess.
 HarFok:  IExCor=  419 AccDes= 0.00D+00 IRadAn=         5 IDoV= 1 UseB2=F ITyADJ=14
 ICtDFT=  3500011 ScaDFX=  1.000000  1.000000  1.000000  1.000000
 FoFCou: FMM=F IPFlag=           0 FMFlag=      100000 FMFlg1=           0
         NFxFlg=           0 DoJE=T BraDBF=F KetDBF=T FulRan=T
         wScrn=  0.000000 ICntrl=       500 IOpCl=  0 I1Cent=   200000004 NGrid=           0
         NMat0=    1 NMatS0=      1 NMatT0=    0 NMatD0=    1 NMtDS0=    0 NMtDT0=    0
 Petite list used in FoFCou.
 Initial guess <Sx>= 0.0000 <Sy>= 0.0000 <Sz>= 0.5000 <S**2>= 0.7500 S= 0.5000
 Requested convergence on RMS density matrix=1.00D-08 within 128 cycles.
 Requested convergence on MAX density matrix=1.00D-06.
 Requested convergence on             energy=1.00D-06.
 No special actions if energy rises.
 Integral accuracy reduced to 1.0D-05 until final iterations.
 Initial convergence to 1.0D-05 achieved.  Increase integral accuracy.
 SCF Done:  E(UB2PLYPD3) =  -306.338984400     A.U. after   22 cycles
            NFock= 22  Conv=0.70D-08     -V/T= 2.0040
 <Sx>= 0.0000 <Sy>= 0.0000 <Sz>= 0.5000 <S**2>= 0.8299 S= 0.5392
 <L.S>=  0.00000000000    
 Annihilation of the first spin contaminant:
 S**2 before annihilation     0.8299,   after     0.7533
 DoSCS=T DFT=T ScalE2(SS,OS)=  0.270000  0.270000
 ExpMin= 1.03D-01 ExpMax= 1.53D+04 ExpMxC= 5.22D+02 IAcc=3 IRadAn=         5 AccDes= 0.00D+00
 HarFok:  IExCor=  205 AccDes= 0.00D+00 IRadAn=         5 IDoV=-2 UseB2=F ITyADJ=14
 ICtDFT= 12500011 ScaDFX=  1.000000  1.000000  1.000000  1.000000
 Range of M.O.s used for correlation:     7   278
 NBasis=   278 NAE=    24 NBE=    23 NFC=     6 NFV=     0
 NROrb=    272 NOA=    18 NOB=    17 NVA=   254 NVB=   255

 **** Warning!!: The largest alpha MO coefficient is  0.26481117D+02


 **** Warning!!: The largest beta MO coefficient is  0.26875479D+02

 DoSCS=T DFT=T ScalE2(SS,OS)=  0.270000  0.270000
 Disk-based method using ON**2 memory for 18 occupieds at a time.
 Permanent disk used for amplitudes=    52814601 words.
 Estimated scratch disk usage=  1005382432 words.
 Actual    scratch disk usage=   971864864 words.
 JobTyp=2 Pass  1:  I=   7 to  24 NPSUse= 40 ParTrn=T ParDer=T DoDerP=T.
 (rs|ai) integrals will be sorted in core.
 Actual    scratch disk usage=   971864864 words.
 JobTyp=3 Pass  1:  I=   7 to  23 NPSUse= 40 ParTrn=T ParDer=T DoDerP=T.
 (rs|ai) integrals will be sorted in core.
 Spin components of T(2) and E(2):
     alpha-alpha T2 =       0.6672717750D-01 E2=     -0.4682359980D-01
     alpha-beta  T2 =       0.4048929992D+00 E2=     -0.2821908940D+00
     beta-beta   T2 =       0.7946798194D-01 E2=     -0.4744157722D-01
 (S**2,0)=  0.82988D+00           (S**2,1)=  0.76081D+00
 Scaling Projection term by:   0.270000
 E(PUHF)=      -0.30635077807D+03        E(PMP2)=      -0.30671728075D+03
 E2(B2PLYPD3) =    -0.3764560711D+00 E(B2PLYPD3) =    -0.30671544047069D+03
 G2DrvN: will do    14 centers at a time, making    1 passes.
 Calling FoFCou, ICntrl=  3107 FMM=F I1Cent=   0 AccDes= 0.00D+00.
 End of G2Drv F.D. properties file   721 does not exist.
 End of G2Drv F.D. properties file   722 does not exist.
 End of G2Drv F.D. properties file   788 does not exist.
          IDoAtm=1111111111111
          Differentiating once with respect to electric field.
                with respect to dipole field.
          Differentiating once with respect to nuclear coordinates.
 Keep R1 and R2 ints in memory in canonical form, NReq=1549740523.
          There are    42 degrees of freedom in the 1st order CPHF.  IDoFFX=6 NUNeed=    42.
     39 vectors produced by pass  0 Test12= 2.85D-14 2.38D-09 XBig12= 1.09D+02 8.09D+00.
 AX will form    39 AO Fock derivatives at one time.
     39 vectors produced by pass  1 Test12= 2.85D-14 2.38D-09 XBig12= 1.24D+01 6.12D-01.
     39 vectors produced by pass  2 Test12= 2.85D-14 2.38D-09 XBig12= 1.03D+00 2.03D-01.
     39 vectors produced by pass  3 Test12= 2.85D-14 2.38D-09 XBig12= 1.96D-02 1.80D-02.
     39 vectors produced by pass  4 Test12= 2.85D-14 2.38D-09 XBig12= 3.17D-04 1.87D-03.
     39 vectors produced by pass  5 Test12= 2.85D-14 2.38D-09 XBig12= 3.76D-06 2.34D-04.
     39 vectors produced by pass  6 Test12= 2.85D-14 2.38D-09 XBig12= 3.12D-08 1.76D-05.
     23 vectors produced by pass  7 Test12= 2.85D-14 2.38D-09 XBig12= 1.95D-10 1.24D-06.
      4 vectors produced by pass  8 Test12= 2.85D-14 2.38D-09 XBig12= 1.71D-12 1.94D-07.
      3 vectors produced by pass  9 Test12= 2.85D-14 2.38D-09 XBig12= 1.45D-14 1.09D-08.
 InvSVY:  IOpt=1 It=  1 EMax= 2.74D-15
 Solved reduced A of dimension   303 with    42 vectors.
 End of Minotr F.D. properties file   721 does not exist.
 End of Minotr F.D. properties file   722 does not exist.
 End of Minotr F.D. properties file   788 does not exist.
 MDV= 10737418240.
 DoSCS=T DFT=T ScalE2(SS,OS)=  0.270000  0.270000
 Form MO integral derivatives with frozen-active canonical formalism.
 Discarding MO integrals.
 Reordered first order wavefunction length =    212909022
 In DefCFB: NBatch=  1 ICI= 24 ICA=255 LFMax= 85
            Large arrays: LIAPS=  4189699080 LIARS=   944622000 words.
 In DefCFB: NBatch=  1 ICI= 24 ICA=255 LFMax= 85
            Large arrays: LIAPS=  4189699080 LIARS=   944622000 words.
 Semi-Direct transformation.
 ModeAB=           4 MOrb=            24 LenV=   10735062105
 LASXX=    243620670 LTotXX=   243620670 LenRXX=   491663946
 LTotAB=   248043276 MaxLAS=   320356080 LenRXY=           0
 NonZer=   735284616 LenScr=  1107252224 LnRSAI=   320356080
 LnScr1=   482418688 LExtra=           0 Total=   2401690938
 MaxDsk=          -1 SrtSym=           T ITran=            4
 JobTyp=1 Pass  1:  I=   1 to  24.
 (rs|ai) integrals will be sorted in core.
 ModeAB=           4 MOrb=            23 LenV=   10735062105
 LASXX=    234045631 LTotXX=   234045631 LenRXX=   432921916
 LTotAB=   198876285 MaxLAS=   307007910 LenRXY=           0
 NonZer=   666967547 LenScr=  1004375040 LnRSAI=   307007910
 LnScr1=   462318592 LExtra=           0 Total=   2206623458
 MaxDsk=          -1 SrtSym=           T ITran=            4
 JobTyp=2 Pass  1:  I=   1 to  23.
 (rs|ai) integrals will be sorted in core.
 SymMOI:  orbitals are not symmetric.
 DoSCS=T DFT=T ScalE2(SS,OS)=  0.270000  0.270000
 Spin components of T(2) and E(2):
     alpha-alpha T2 =       0.6672717750D-01 E2=     -0.4682359980D-01
     alpha-beta  T2 =       0.4048929992D+00 E2=     -0.2821908940D+00
     beta-beta   T2 =       0.7946798194D-01 E2=     -0.4744157722D-01
 E2(B2PLYPD3) =    -0.3764560711D+00 E(B2PLYPD3) =    -0.30671544047069D+03
 (S**2,0)=  0.82988D+00           (S**2,1)=  0.76081D+00
 Scaling Projection term by:   0.270000
 E(PUHF)=      -0.30635077807D+03        E(PMP2)=      -0.30671728075D+03
          IDoAtm=1111111111111
          Differentiating once with respect to electric field.
                with respect to dipole field.
          Differentiating once with respect to nuclear coordinates.
 Keep R1 and R2 ints in memory in canonical form, NReq=1549877081.
          There are     1 degrees of freedom in the 1st order CPHF.  IDoFFX=0 NUNeed=     1.
 LinEq1:  Iter=  0 NonCon=     1 RMS=1.24D-03 Max=6.82D-02 NDo=     1
 AX will form     1 AO Fock derivatives at one time.
 LinEq1:  Iter=  1 NonCon=     1 RMS=4.62D-04 Max=1.57D-02 NDo=     1
 LinEq1:  Iter=  2 NonCon=     1 RMS=2.96D-04 Max=9.30D-03 NDo=     1
 LinEq1:  Iter=  3 NonCon=     1 RMS=1.63D-04 Max=5.51D-03 NDo=     1
 LinEq1:  Iter=  4 NonCon=     1 RMS=1.06D-04 Max=4.82D-03 NDo=     1
 LinEq1:  Iter=  5 NonCon=     1 RMS=8.25D-05 Max=3.07D-03 NDo=     1
 LinEq1:  Iter=  6 NonCon=     1 RMS=3.80D-05 Max=1.43D-03 NDo=     1
 LinEq1:  Iter=  7 NonCon=     1 RMS=1.09D-05 Max=4.79D-04 NDo=     1
 LinEq1:  Iter=  8 NonCon=     1 RMS=4.73D-06 Max=1.52D-04 NDo=     1
 LinEq1:  Iter=  9 NonCon=     1 RMS=2.63D-06 Max=8.61D-05 NDo=     1
 LinEq1:  Iter= 10 NonCon=     1 RMS=1.19D-06 Max=3.55D-05 NDo=     1
 LinEq1:  Iter= 11 NonCon=     1 RMS=6.78D-07 Max=3.19D-05 NDo=     1
 LinEq1:  Iter= 12 NonCon=     1 RMS=3.68D-07 Max=1.10D-05 NDo=     1
 LinEq1:  Iter= 13 NonCon=     1 RMS=1.90D-07 Max=5.10D-06 NDo=     1
 LinEq1:  Iter= 14 NonCon=     1 RMS=8.54D-08 Max=2.01D-06 NDo=     1
 LinEq1:  Iter= 15 NonCon=     1 RMS=3.62D-08 Max=9.21D-07 NDo=     1
 LinEq1:  Iter= 16 NonCon=     1 RMS=1.34D-08 Max=3.61D-07 NDo=     1
 LinEq1:  Iter= 17 NonCon=     1 RMS=4.34D-09 Max=7.73D-08 NDo=     1
 LinEq1:  Iter= 18 NonCon=     1 RMS=1.16D-09 Max=2.41D-08 NDo=     1
 LinEq1:  Iter= 19 NonCon=     1 RMS=3.23D-10 Max=1.04D-08 NDo=     1
 LinEq1:  Iter= 20 NonCon=     1 RMS=9.84D-11 Max=4.39D-09 NDo=     1
 LinEq1:  Iter= 21 NonCon=     1 RMS=3.00D-11 Max=1.44D-09 NDo=     1
 LinEq1:  Iter= 22 NonCon=     0 RMS=9.94D-12 Max=4.18D-10 NDo=     1
 Linear equations converged to 1.000D-10 1.000D-09 after    22 iterations.
 End of Minotr F.D. properties file   721 does not exist.
 End of Minotr F.D. properties file   722 does not exist.
 End of Minotr F.D. properties file   788 does not exist.
 Symmetrizing basis deriv contribution to polar:
 IMax=3 JMax=2 DiffMx= 0.00D+00
 G2DrvN: will do    14 centers at a time, making    1 passes.
 Calling FoFCou, ICntrl=  3107 FMM=F I1Cent=   0 AccDes= 0.00D+00.
 End of G2Drv F.D. properties file   721 does not exist.
 End of G2Drv F.D. properties file   722 does not exist.
 End of G2Drv F.D. properties file   788 does not exist.
 DoSCS=T DFT=T ScalE2(SS,OS)=  0.270000  0.270000
 R2 and R3 integrals will be kept in memory, NReq=  2492879760.
 DD1Dir will call FoFMem   1 times, MxPair=      1634
 NAB=   552 NAA=   276 NBB=   253.
 Discarding MO integrals.

 **********************************************************************

            Population analysis using the SCF Density.

 **********************************************************************

 Orbital symmetries:
 Alpha Orbitals:
       Occupied  (A) (A) (A) (A) (A) (A) (A) (A) (A) (A) (A) (A)
                 (A) (A) (A) (A) (A) (A) (A) (A) (A) (A) (A) (A)
       Virtual   (A) (A) (A) (A) (A) (A) (A) (A) (A) (A) (A) (A)
                 (A) (A) (A) (A) (A) (A) (A) (A) (A) (A) (A) (A)
                 (A) (A) (A) (A) (A) (A) (A) (A) (A) (A) (A) (A)
                 (A) (A) (A) (A) (A) (A) (A) (A) (A) (A) (A) (A)
                 (A) (A) (A) (A) (A) (A) (A) (A) (A) (A) (A) (A)
                 (A) (A) (A) (A) (A) (A) (A) (A) (A) (A) (A) (A)
                 (A) (A) (A) (A) (A) (A) (A) (A) (A) (A) (A) (A)
                 (A) (A) (A) (A) (A) (A) (A) (A) (A) (A) (A) (A)
                 (A) (A) (A) (A) (A) (A) (A) (A) (A) (A) (A) (A)
                 (A) (A) (A) (A) (A) (A) (A) (A) (A) (A) (A) (A)
                 (A) (A) (A) (A) (A) (A) (A) (A) (A) (A) (A) (A)
                 (A) (A) (A) (A) (A) (A) (A) (A) (A) (A) (A) (A)
                 (A) (A) (A) (A) (A) (A) (A) (A) (A) (A) (A) (A)
                 (A) (A) (A) (A) (A) (A) (A) (A) (A) (A) (A) (A)
                 (A) (A) (A) (A) (A) (A) (A) (A) (A) (A) (A) (A)
                 (A) (A) (A) (A) (A) (A) (A) (A) (A) (A) (A) (A)
                 (A) (A) (A) (A) (A) (A) (A) (A) (A) (A) (A) (A)
                 (A) (A) (A) (A) (A) (A) (A) (A) (A) (A) (A) (A)
                 (A) (A) (A) (A) (A) (A) (A) (A) (A) (A) (A) (A)
                 (A) (A) (A) (A) (A) (A) (A) (A) (A) (A) (A) (A)
                 (A) (A) (A) (A) (A) (A) (A) (A) (A) (A) (A) (A)
                 (A) (A)
 Beta  Orbitals:
       Occupied  (A) (A) (A) (A) (A) (A) (A) (A) (A) (A) (A) (A)
                 (A) (A) (A) (A) (A) (A) (A) (A) (A) (A) (A)
       Virtual   (A) (A) (A) (A) (A) (A) (A) (A) (A) (A) (A) (A)
                 (A) (A) (A) (A) (A) (A) (A) (A) (A) (A) (A) (A)
                 (A) (A) (A) (A) (A) (A) (A) (A) (A) (A) (A) (A)
                 (A) (A) (A) (A) (A) (A) (A) (A) (A) (A) (A) (A)
                 (A) (A) (A) (A) (A) (A) (A) (A) (A) (A) (A) (A)
                 (A) (A) (A) (A) (A) (A) (A) (A) (A) (A) (A) (A)
                 (A) (A) (A) (A) (A) (A) (A) (A) (A) (A) (A) (A)
                 (A) (A) (A) (A) (A) (A) (A) (A) (A) (A) (A) (A)
                 (A) (A) (A) (A) (A) (A) (A) (A) (A) (A) (A) (A)
                 (A) (A) (A) (A) (A) (A) (A) (A) (A) (A) (A) (A)
                 (A) (A) (A) (A) (A) (A) (A) (A) (A) (A) (A) (A)
                 (A) (A) (A) (A) (A) (A) (A) (A) (A) (A) (A) (A)
                 (A) (A) (A) (A) (A) (A) (A) (A) (A) (A) (A) (A)
                 (A) (A) (A) (A) (A) (A) (A) (A) (A) (A) (A) (A)
                 (A) (A) (A) (A) (A) (A) (A) (A) (A) (A) (A) (A)
                 (A) (A) (A) (A) (A) (A) (A) (A) (A) (A) (A) (A)
                 (A) (A) (A) (A) (A) (A) (A) (A) (A) (A) (A) (A)
                 (A) (A) (A) (A) (A) (A) (A) (A) (A) (A) (A) (A)
                 (A) (A) (A) (A) (A) (A) (A) (A) (A) (A) (A) (A)
                 (A) (A) (A) (A) (A) (A) (A) (A) (A) (A) (A) (A)
                 (A) (A) (A) (A) (A) (A) (A) (A) (A) (A) (A) (A)
                 (A) (A) (A)
 The electronic state is 2-A.
 Alpha  occ. eigenvalues --  -19.79971 -19.79022 -10.66251 -10.64673 -10.64476
 Alpha  occ. eigenvalues --  -10.63825  -1.30568  -1.01953  -0.92624  -0.83287
 Alpha  occ. eigenvalues --   -0.78018  -0.63504  -0.60941  -0.57046  -0.55923
 Alpha  occ. eigenvalues --   -0.55049  -0.53209  -0.50635  -0.45073  -0.42059
 Alpha  occ. eigenvalues --   -0.36857  -0.36293  -0.33409  -0.29438
 Alpha virt. eigenvalues --    0.06592   0.06663   0.08101   0.11470   0.12275
 Alpha virt. eigenvalues --    0.14368   0.14842   0.15628   0.17005   0.20048
 Alpha virt. eigenvalues --    0.23897   0.25776   0.28490   0.30761   0.32172
 Alpha virt. eigenvalues --    0.34849   0.36956   0.39547   0.41674   0.42881
 Alpha virt. eigenvalues --    0.44500   0.46614   0.47676   0.50118   0.50354
 Alpha virt. eigenvalues --    0.51512   0.52841   0.53390   0.53790   0.54599
 Alpha virt. eigenvalues --    0.56609   0.57289   0.58842   0.59151   0.62456
 Alpha virt. eigenvalues --    0.64592   0.66494   0.67385   0.70390   0.71046
 Alpha virt. eigenvalues --    0.75814   0.78424   0.80671   0.84392   0.86079
 Alpha virt. eigenvalues --    0.89177   0.91832   0.92625   0.94150   0.95818
 Alpha virt. eigenvalues --    0.96608   1.00347   1.01424   1.04501   1.05954
 Alpha virt. eigenvalues --    1.08461   1.10202   1.11362   1.12901   1.16552
 Alpha virt. eigenvalues --    1.17228   1.18833   1.20783   1.24544   1.26254
 Alpha virt. eigenvalues --    1.28078   1.29298   1.32270   1.33795   1.37695
 Alpha virt. eigenvalues --    1.38768   1.39810   1.40463   1.43914   1.45914
 Alpha virt. eigenvalues --    1.50127   1.53249   1.55052   1.57958   1.61978
 Alpha virt. eigenvalues --    1.63044   1.63836   1.68268   1.78191   1.79752
 Alpha virt. eigenvalues --    1.88321   1.89763   1.91481   2.02786   2.05713
 Alpha virt. eigenvalues --    2.11514   2.18395   2.21722   2.23542   2.29114
 Alpha virt. eigenvalues --    2.30126   2.31456   2.35038   2.38540   2.40773
 Alpha virt. eigenvalues --    2.45179   2.45700   2.50437   2.53261   2.54079
 Alpha virt. eigenvalues --    2.55949   2.60705   2.63679   2.64894   2.67730
 Alpha virt. eigenvalues --    2.71322   2.75323   2.75687   2.80987   2.82784
 Alpha virt. eigenvalues --    2.85677   2.90291   2.90568   2.91836   2.93950
 Alpha virt. eigenvalues --    2.94686   2.95822   2.95975   2.97188   2.97942
 Alpha virt. eigenvalues --    3.02104   3.02627   3.04486   3.05554   3.08317
 Alpha virt. eigenvalues --    3.11071   3.12279   3.13003   3.15804   3.16669
 Alpha virt. eigenvalues --    3.18911   3.19522   3.20721   3.22972   3.33168
 Alpha virt. eigenvalues --    3.33364   3.34837   3.37154   3.38078   3.40349
 Alpha virt. eigenvalues --    3.42583   3.43368   3.45578   3.48378   3.51807
 Alpha virt. eigenvalues --    3.53453   3.53966   3.55886   3.58740   3.60819
 Alpha virt. eigenvalues --    3.62060   3.65246   3.67819   3.70321   3.72468
 Alpha virt. eigenvalues --    3.77509   3.78619   3.79931   3.82785   3.87794
 Alpha virt. eigenvalues --    3.89647   3.90975   3.91811   3.93983   3.96372
 Alpha virt. eigenvalues --    3.99936   4.00919   4.05244   4.08903   4.09300
 Alpha virt. eigenvalues --    4.12966   4.14512   4.15777   4.16089   4.18890
 Alpha virt. eigenvalues --    4.19201   4.19998   4.23740   4.29167   4.33018
 Alpha virt. eigenvalues --    4.35198   4.39267   4.39734   4.42863   4.50028
 Alpha virt. eigenvalues --    4.52643   4.57587   4.58209   4.69715   4.74483
 Alpha virt. eigenvalues --    4.80740   4.86176   4.88366   4.93068   4.95965
 Alpha virt. eigenvalues --    4.97458   4.99376   5.01470   5.03222   5.06411
 Alpha virt. eigenvalues --    5.06788   5.08414   5.13606   5.20353   5.23617
 Alpha virt. eigenvalues --    5.25084   5.29902   5.31187   5.34864   5.35956
 Alpha virt. eigenvalues --    5.37142   5.38007   5.41964   5.47794   5.48189
 Alpha virt. eigenvalues --    5.62428   5.69098   5.75255   5.86937   5.89523
 Alpha virt. eigenvalues --    5.91224   5.93685   5.99544   6.07772   6.14083
 Alpha virt. eigenvalues --    6.17642   6.20252   6.25595   6.30353   6.44681
 Alpha virt. eigenvalues --    6.48956   6.69032   6.73257   6.79390   6.81633
 Alpha virt. eigenvalues --    6.97403   7.05763   7.08328   7.11425   7.44426
 Alpha virt. eigenvalues --    7.46113   7.64042   7.73388   9.13835   9.91158
 Alpha virt. eigenvalues --   10.99244  13.50958  14.42871  14.96443
  Beta  occ. eigenvalues --  -19.79561 -19.77419 -10.66270 -10.65118 -10.63806
  Beta  occ. eigenvalues --  -10.62782  -1.28410  -0.98970  -0.92003  -0.80682
  Beta  occ. eigenvalues --   -0.77393  -0.61439  -0.58732  -0.55596  -0.55507
  Beta  occ. eigenvalues --   -0.54486  -0.52933  -0.48124  -0.44231  -0.37598
  Beta  occ. eigenvalues --   -0.35609  -0.32843  -0.31091
  Beta virt. eigenvalues --   -0.07204   0.06707   0.07679   0.08667   0.11771
  Beta virt. eigenvalues --    0.12765   0.14769   0.14960   0.15900   0.17057
  Beta virt. eigenvalues --    0.20925   0.23902   0.26190   0.28918   0.31204
  Beta virt. eigenvalues --    0.32644   0.35809   0.37749   0.40073   0.42433
  Beta virt. eigenvalues --    0.44015   0.44860   0.47064   0.47834   0.50131
  Beta virt. eigenvalues --    0.50752   0.52554   0.53001   0.53652   0.54189
  Beta virt. eigenvalues --    0.55142   0.57063   0.57512   0.59667   0.60080
  Beta virt. eigenvalues --    0.63353   0.65303   0.66402   0.67628   0.71234
  Beta virt. eigenvalues --    0.71521   0.76026   0.78889   0.81219   0.84067
  Beta virt. eigenvalues --    0.86639   0.89839   0.92213   0.93007   0.94406
  Beta virt. eigenvalues --    0.96022   0.96825   1.00505   1.01963   1.04685
  Beta virt. eigenvalues --    1.06301   1.09118   1.10903   1.11754   1.13177
  Beta virt. eigenvalues --    1.16685   1.17708   1.18937   1.21088   1.24823
  Beta virt. eigenvalues --    1.26562   1.28574   1.29841   1.32618   1.34195
  Beta virt. eigenvalues --    1.37808   1.38906   1.39934   1.40597   1.44188
  Beta virt. eigenvalues --    1.46448   1.50917   1.53989   1.55579   1.58502
  Beta virt. eigenvalues --    1.62568   1.63298   1.64197   1.68826   1.79533
  Beta virt. eigenvalues --    1.80180   1.89459   1.90477   1.91933   2.03783
  Beta virt. eigenvalues --    2.06391   2.11920   2.19080   2.22999   2.24923
  Beta virt. eigenvalues --    2.30367   2.30982   2.32755   2.34805   2.38309
  Beta virt. eigenvalues --    2.41038   2.45743   2.46204   2.50456   2.54106
  Beta virt. eigenvalues --    2.55040   2.56322   2.61543   2.63498   2.64819
  Beta virt. eigenvalues --    2.68416   2.71857   2.75567   2.76079   2.81808
  Beta virt. eigenvalues --    2.82931   2.86495   2.90771   2.90987   2.91988
  Beta virt. eigenvalues --    2.94357   2.95669   2.96237   2.96518   2.97645
  Beta virt. eigenvalues --    2.98724   3.02380   3.03246   3.04834   3.06045
  Beta virt. eigenvalues --    3.08609   3.11738   3.12568   3.13271   3.16344
  Beta virt. eigenvalues --    3.17659   3.18946   3.19821   3.20886   3.23033
  Beta virt. eigenvalues --    3.33425   3.34319   3.35677   3.37652   3.38726
  Beta virt. eigenvalues --    3.40768   3.43126   3.43573   3.45709   3.48563
  Beta virt. eigenvalues --    3.51945   3.53546   3.54012   3.56396   3.58969
  Beta virt. eigenvalues --    3.61100   3.62410   3.65288   3.67891   3.70475
  Beta virt. eigenvalues --    3.73065   3.77850   3.78683   3.80196   3.83036
  Beta virt. eigenvalues --    3.87820   3.89882   3.91133   3.91917   3.94215
  Beta virt. eigenvalues --    3.96281   4.00373   4.01189   4.05386   4.08963
  Beta virt. eigenvalues --    4.09224   4.13236   4.14470   4.15402   4.16173
  Beta virt. eigenvalues --    4.19098   4.19343   4.19953   4.23930   4.29414
  Beta virt. eigenvalues --    4.33349   4.35354   4.39991   4.40387   4.43467
  Beta virt. eigenvalues --    4.50536   4.53123   4.57888   4.59262   4.70659
  Beta virt. eigenvalues --    4.75096   4.80979   4.86468   4.89040   4.93409
  Beta virt. eigenvalues --    4.96409   4.97587   4.99631   5.01809   5.03615
  Beta virt. eigenvalues --    5.06744   5.07525   5.08742   5.14451   5.20877
  Beta virt. eigenvalues --    5.24391   5.25650   5.30319   5.31572   5.35112
  Beta virt. eigenvalues --    5.36311   5.37506   5.38435   5.42100   5.48476
  Beta virt. eigenvalues --    5.48738   5.63064   5.69997   5.75914   5.87970
  Beta virt. eigenvalues --    5.90175   5.91460   5.93786   5.99888   6.08595
  Beta virt. eigenvalues --    6.15091   6.19600   6.21797   6.25724   6.30862
  Beta virt. eigenvalues --    6.45139   6.50461   6.69911   6.76646   6.81455
  Beta virt. eigenvalues --    6.83154   6.99386   7.06915   7.10592   7.13280
  Beta virt. eigenvalues --    7.46214   7.46737   7.65440   7.74356   9.14032
  Beta virt. eigenvalues --    9.92329  11.00214  13.50956  14.43528  14.96970
          Condensed to atoms (all electrons):
               1          2          3          4          5          6
     1  C    5.142876   0.407878  -0.006192  -0.000006   0.000350  -0.000502
     2  H    0.407878   0.488118   0.000142  -0.000653   0.000004   0.000048
     3  C   -0.006192   0.000142   4.633924   0.397338   0.394370   0.416750
     4  H   -0.000006  -0.000653   0.397338   0.653601  -0.035900  -0.048995
     5  H    0.000350   0.000004   0.394370  -0.035900   0.590495  -0.025834
     6  H   -0.000502   0.000048   0.416750  -0.048995  -0.025834   0.583489
     7  O    0.002740   0.000689   0.288610  -0.049158  -0.025825  -0.035718
     8  O   -0.071654   0.000249  -0.044755  -0.001853   0.006871   0.004637
     9  H    0.212115  -0.011575   0.002357   0.005448  -0.001041   0.000271
    10  C    0.721447  -0.057291  -0.000583   0.001708   0.000055   0.000588
    11  C   -0.081002  -0.000801  -0.002146  -0.004227   0.000709   0.000473
    12  H   -0.003148  -0.000108   0.000905  -0.000065  -0.000043  -0.000020
    13  H   -0.001525  -0.000027  -0.000059   0.000140   0.000015  -0.000002
               7          8          9         10         11         12
     1  C    0.002740  -0.071654   0.212115   0.721447  -0.081002  -0.003148
     2  H    0.000689   0.000249  -0.011575  -0.057291  -0.000801  -0.000108
     3  C    0.288610  -0.044755   0.002357  -0.000583  -0.002146   0.000905
     4  H   -0.049158  -0.001853   0.005448   0.001708  -0.004227  -0.000065
     5  H   -0.025825   0.006871  -0.001041   0.000055   0.000709  -0.000043
     6  H   -0.035718   0.004637   0.000271   0.000588   0.000473  -0.000020
     7  O    7.926950   0.070264  -0.028976  -0.001295   0.007450  -0.000152
     8  O    0.070264   8.062841   0.194720  -0.014066   0.000352   0.000001
     9  H   -0.028976   0.194720   0.403133   0.003652  -0.002465   0.000150
    10  C   -0.001295  -0.014066   0.003652   4.786828   0.559290  -0.054874
    11  C    0.007450   0.000352  -0.002465   0.559290   4.990566   0.416793
    12  H   -0.000152   0.000001   0.000150  -0.054874   0.416793   0.531852
    13  H   -0.000010   0.000028  -0.000129  -0.046134   0.413821  -0.032495
              13
     1  C   -0.001525
     2  H   -0.000027
     3  C   -0.000059
     4  H    0.000140
     5  H    0.000015
     6  H   -0.000002
     7  O   -0.000010
     8  O    0.000028
     9  H   -0.000129
    10  C   -0.046134
    11  C    0.413821
    12  H   -0.032495
    13  H    0.521076
          Atomic-Atomic Spin Densities.
               1          2          3          4          5          6
     1  C    0.533033  -0.000226   0.001035  -0.004147   0.000060   0.000904
     2  H   -0.000226  -0.005204  -0.000106   0.000515  -0.000002  -0.000052
     3  C    0.001035  -0.000106  -0.011126   0.004228   0.000855  -0.000800
     4  H   -0.004147   0.000515   0.004228   0.002048  -0.000406  -0.000663
     5  H    0.000060  -0.000002   0.000855  -0.000406  -0.001765   0.000344
     6  H    0.000904  -0.000052  -0.000800  -0.000663   0.000344   0.003115
     7  O    0.011973  -0.000550  -0.000684  -0.001689   0.000349  -0.000810
     8  O   -0.062527   0.002751  -0.001680   0.004058  -0.000203   0.000209
     9  H    0.031919   0.002596   0.001705  -0.003812   0.000110   0.001185
    10  C   -0.008073   0.002283  -0.001524   0.001476  -0.000165  -0.000312
    11  C   -0.010872  -0.001169  -0.000992   0.002089  -0.000050  -0.000276
    12  H   -0.000132   0.000020  -0.000064   0.000045   0.000009   0.000002
    13  H   -0.000157   0.000019   0.000014  -0.000011   0.000004   0.000000
               7          8          9         10         11         12
     1  C    0.011973  -0.062527   0.031919  -0.008073  -0.010872  -0.000132
     2  H   -0.000550   0.002751   0.002596   0.002283  -0.001169   0.000020
     3  C   -0.000684  -0.001680   0.001705  -0.001524  -0.000992  -0.000064
     4  H   -0.001689   0.004058  -0.003812   0.001476   0.002089   0.000045
     5  H    0.000349  -0.000203   0.000110  -0.000165  -0.000050   0.000009
     6  H   -0.000810   0.000209   0.001185  -0.000312  -0.000276   0.000002
     7  O    0.135869  -0.060528   0.009437  -0.002169  -0.006751   0.000019
     8  O   -0.060528   0.560104  -0.030110   0.006615   0.001914  -0.000004
     9  H    0.009437  -0.030110  -0.104231   0.003283  -0.000436  -0.000040
    10  C   -0.002169   0.006615   0.003283  -0.346929  -0.009859   0.000288
    11  C   -0.006751   0.001914  -0.000436  -0.009859   0.514678   0.005514
    12  H    0.000019  -0.000004  -0.000040   0.000288   0.005514  -0.035064
    13  H    0.000000  -0.000005  -0.000030  -0.000263   0.005085   0.004394
              13
     1  C   -0.000157
     2  H    0.000019
     3  C    0.000014
     4  H   -0.000011
     5  H    0.000004
     6  H    0.000000
     7  O    0.000000
     8  O   -0.000005
     9  H   -0.000030
    10  C   -0.000263
    11  C    0.005085
    12  H    0.004394
    13  H   -0.034449
 Mulliken charges and spin densities:
               1          2
     1  C   -0.323376   0.492790
     2  H    0.173326   0.000876
     3  C   -0.080659  -0.009139
     4  H    0.082622   0.003731
     5  H    0.095774  -0.000859
     6  H    0.104814   0.002846
     7  O   -0.155570   0.084467
     8  O   -0.207637   0.420596
     9  H    0.222340  -0.088422
    10  C    0.100673  -0.355349
    11  C   -0.298814   0.498875
    12  H    0.141204  -0.025012
    13  H    0.145302  -0.025399
 Sum of Mulliken charges =  -0.00000   1.00000
 Mulliken charges and spin densities with hydrogens summed into heavy atoms:
               1          2
     1  C   -0.150050   0.493666
     3  C    0.202551  -0.003421
     7  O   -0.155570   0.084467
     8  O    0.014703   0.332175
    10  C    0.100673  -0.355349
    11  C   -0.012308   0.448463
 APT charges:
               1
     1  C    0.241631
     2  H    0.065884
     3  C    0.406916
     4  H   -0.026598
     5  H   -0.000122
     6  H   -0.031198
     7  O   -0.226107
     8  O    0.024949
     9  H   -0.372564
    10  C   -0.192596
    11  C   -0.005292
    12  H    0.055182
    13  H    0.059913
 Sum of APT charges =  -0.00000
 APT charges with hydrogens summed into heavy atoms:
               1
     1  C    0.307515
     3  C    0.348999
     7  O   -0.226107
     8  O   -0.347615
    10  C   -0.192596
    11  C    0.109804
 Electronic spatial extent (au):  <R**2>=            682.0969
 Charge=             -0.0000 electrons
 Dipole moment (field-independent basis, Debye):
    X=             -1.1982    Y=             -1.5769    Z=              1.5487  Tot=              2.5141
 Quadrupole moment (field-independent basis, Debye-Ang):
   XX=            -36.3465   YY=            -32.2403   ZZ=            -37.4615
   XY=             -1.9525   XZ=              2.6508   YZ=              1.0279
 Traceless Quadrupole moment (field-independent basis, Debye-Ang):
   XX=             -0.9970   YY=              3.1091   ZZ=             -2.1121
   XY=             -1.9525   XZ=              2.6508   YZ=              1.0279
 Octapole moment (field-independent basis, Debye-Ang**2):
  XXX=             18.2035  YYY=              2.2180  ZZZ=             -4.4849  XYY=             -2.6496
  XXY=             -6.5223  XXZ=             -0.3388  XZZ=              1.9267  YZZ=             -0.9606
  YYZ=              3.2354  XYZ=             -3.4099
 Hexadecapole moment (field-independent basis, Debye-Ang**3):
 XXXX=           -559.2774 YYYY=           -238.7912 ZZZZ=            -90.9400 XXXY=              1.9608
 XXXZ=              9.6864 YYYX=             -5.9578 YYYZ=              6.9765 ZZZX=              1.7316
 ZZZY=              0.3338 XXYY=           -125.6205 XXZZ=           -103.4706 YYZZ=            -57.4054
 XXYZ=              5.3188 YYXZ=             -5.5507 ZZXY=              3.5648
 N-N= 2.246089817824D+02 E-N=-1.166911516913D+03  KE= 3.051097123205D+02
  Exact polarizability: 102.866   7.994  76.162   0.301   5.472  43.517
 Approx polarizability:  87.096  15.680  95.559  -1.850   8.971  52.617
                          Isotropic Fermi Contact Couplings
        Atom                 a.u.       MegaHertz       Gauss      10(-4) cm-1
     1  C(13)              0.10842     121.88895      43.49301      40.65778
     2  H(1)               0.00311      13.88538       4.95465       4.63167
     3  C(13)             -0.00596      -6.69967      -2.39061      -2.23477
     4  H(1)               0.00323      14.45450       5.15773       4.82150
     5  H(1)              -0.00012      -0.52908      -0.18879      -0.17648
     6  H(1)               0.00163       7.28255       2.59859       2.42920
     7  O(17)              0.02614     -15.84429      -5.65364      -5.28509
     8  O(17)              0.01242      -7.52750      -2.68600      -2.51090
     9  H(1)              -0.02238    -100.05103     -35.70070     -33.37343
    10  C(13)             -0.00382      -4.29498      -1.53255      -1.43265
    11  C(13)              0.00918      10.31721       3.68144       3.44145
    12  H(1)              -0.00495     -22.12829      -7.89592      -7.38120
    13  H(1)              -0.00496     -22.19226      -7.91875      -7.40254
 --------------------------------------------------------
       Center         ----  Spin Dipole Couplings  ----
                      3XX-RR        3YY-RR        3ZZ-RR
 --------------------------------------------------------
     1   Atom        0.363512     -0.195368     -0.168144
     2   Atom       -0.001456      0.017320     -0.015864
     3   Atom       -0.004145      0.003188      0.000957
     4   Atom       -0.003091     -0.000156      0.003248
     5   Atom       -0.001487      0.005190     -0.003703
     6   Atom        0.000158     -0.000064     -0.000094
     7   Atom        0.692868     -0.395756     -0.297112
     8   Atom        1.505994     -0.851999     -0.653995
     9   Atom        0.143851     -0.076659     -0.067192
    10   Atom       -0.086502      0.073375      0.013126
    11   Atom        0.335393     -0.185969     -0.149423
    12   Atom       -0.002450      0.004890     -0.002440
    13   Atom        0.004463     -0.023721      0.019259
 --------------------------------------------------------
                        XY            XZ            YZ
 --------------------------------------------------------
     1   Atom        0.028520     -0.124405     -0.007216
     2   Atom       -0.005685     -0.007534      0.016761
     3   Atom       -0.004304      0.002590     -0.006705
     4   Atom        0.000231      0.000672     -0.006249
     5   Atom       -0.002458      0.001004     -0.004017
     6   Atom       -0.004313      0.005272     -0.004245
     7   Atom       -0.039402     -0.308913     -0.010162
     8   Atom        0.064259     -0.646596     -0.018767
     9   Atom       -0.035738     -0.072753      0.012441
    10   Atom        0.053965      0.046039      0.002326
    11   Atom       -0.127055     -0.187409      0.042683
    12   Atom       -0.005737     -0.006780     -0.024679
    13   Atom       -0.000356      0.009976      0.011573
 --------------------------------------------------------


 ---------------------------------------------------------------------------------
              Anisotropic Spin Dipole Couplings in Principal Axis System
 ---------------------------------------------------------------------------------

       Atom             a.u.   MegaHertz   Gauss  10(-4) cm-1        Axes

              Baa    -0.1973   -26.478    -9.448    -8.832  0.0644  0.8695  0.4896
     1 C(13)  Bbb    -0.1953   -26.212    -9.353    -8.743  0.2131 -0.4913  0.8445
              Bcc     0.3927    52.690    18.801    17.576  0.9749  0.0499 -0.2169
 
              Baa    -0.0239   -12.769    -4.556    -4.259  0.2201 -0.3410  0.9139
     2 H(1)   Bbb    -0.0028    -1.481    -0.529    -0.494  0.9338  0.3445 -0.0963
              Bcc     0.0267    14.250     5.085     4.753 -0.2820  0.8747  0.3943
 
              Baa    -0.0062    -0.834    -0.297    -0.278  0.8445  0.5079  0.1699
     3 C(13)  Bbb    -0.0043    -0.582    -0.208    -0.194 -0.4291  0.4517  0.7822
              Bcc     0.0105     1.415     0.505     0.472 -0.3205  0.7335 -0.5994
 
              Baa    -0.0051    -2.725    -0.972    -0.909 -0.2834  0.7568  0.5890
     4 H(1)   Bbb    -0.0029    -1.564    -0.558    -0.522  0.9583  0.2462  0.1448
              Bcc     0.0080     4.288     1.530     1.430  0.0354 -0.6055  0.7951
 
              Baa    -0.0052    -2.801    -0.999    -0.934 -0.0171  0.3556  0.9345
     5 H(1)   Bbb    -0.0023    -1.210    -0.432    -0.404  0.9590  0.2701 -0.0852
              Bcc     0.0075     4.011     1.431     1.338 -0.2827  0.8948 -0.3456
 
              Baa    -0.0052    -2.797    -0.998    -0.933 -0.6926  0.0143  0.7212
     6 H(1)   Bbb    -0.0040    -2.134    -0.761    -0.712  0.4016  0.8382  0.3690
              Bcc     0.0092     4.931     1.759     1.645  0.5992 -0.5452  0.5863
 
              Baa    -0.4126    29.852    10.652     9.958  0.1897  0.7941  0.5774
     7 O(17)  Bbb    -0.3698    26.761     9.549     8.927  0.2010 -0.6071  0.7688
              Bcc     0.7824   -56.614   -20.201   -18.884  0.9611 -0.0298 -0.2747
 
              Baa    -0.8538    61.781    22.045    20.608 -0.0132  0.9986  0.0511
     8 O(17)  Bbb    -0.8327    60.255    21.500    20.099  0.2674 -0.0458  0.9625
              Bcc     1.6865  -122.036   -43.545   -40.707  0.9635  0.0264 -0.2664
 
              Baa    -0.0900   -48.043   -17.143   -16.025  0.2711 -0.1587  0.9494
     9 H(1)   Bbb    -0.0822   -43.860   -15.650   -14.630  0.1894  0.9758  0.1091
              Bcc     0.1722    91.903    32.793    30.656  0.9438 -0.1502 -0.2946
 
              Baa    -0.1175   -15.771    -5.627    -5.260  0.9135 -0.2544 -0.3174
    10 C(13)  Bbb     0.0242     3.241     1.157     1.081  0.2364 -0.3028  0.9232
              Bcc     0.0934    12.529     4.471     4.179  0.3310  0.9185  0.2165
 
              Baa    -0.2154   -28.906   -10.314    -9.642  0.2919  0.9288  0.2284
    11 C(13)  Bbb    -0.2132   -28.610   -10.209    -9.543  0.2444 -0.3033  0.9210
              Bcc     0.4286    57.517    20.523    19.185  0.9247 -0.2131 -0.3155
 
              Baa    -0.0269   -14.377    -5.130    -4.796  0.3409  0.6136  0.7123
    12 H(1)   Bbb     0.0008     0.411     0.147     0.137  0.9401 -0.2250 -0.2561
              Bcc     0.0262    13.966     4.983     4.659  0.0031  0.7569 -0.6535
 
              Baa    -0.0269   -14.354    -5.122    -4.788  0.0940  0.9607 -0.2612
    13 H(1)   Bbb     0.0005     0.271     0.097     0.090  0.9105 -0.1890 -0.3677
              Bcc     0.0264    14.083     5.025     4.698  0.4027  0.2032  0.8925
 

 ---------------------------------------------------------------------------------

 Calling FoFJK, ICntrl=  10100127 FMM=F ISym2X=0 I1Cent= 0 IOpClX= 1 NMat=1 NMatS=1 NMatT=0.
 ***** Axes restored to original set *****
 -------------------------------------------------------------------
 Center     Atomic                   Forces (Hartrees/Bohr)
 Number     Number              X              Y              Z
 -------------------------------------------------------------------
      1        6           0.002802774    0.003356901    0.000018508
      2        1          -0.000146526   -0.001094231   -0.000242272
      3        6           0.001590225   -0.002669167    0.005752557
      4        1           0.001344715   -0.000681915   -0.000492408
      5        1           0.000029353    0.000522006   -0.000008478
      6        1          -0.000574540   -0.000375083    0.000017526
      7        8          -0.001573238   -0.011851719   -0.007993908
      8        8           0.003121402    0.013710405    0.002099171
      9        1          -0.004661458    0.000634234    0.001267529
     10        6          -0.000678387    0.002584448    0.000919753
     11        6          -0.001136109   -0.003922218   -0.001190319
     12        1          -0.000255090    0.000168303   -0.000834093
     13        1           0.000136880   -0.000381964    0.000686433
 -------------------------------------------------------------------
 Cartesian Forces:  Max     0.013710405 RMS     0.003674630
 FormGI is forming the generalized inverse of G from B-inverse, IUseBI=4.

 GradGradGradGradGradGradGradGradGradGradGradGradGradGradGradGradGradGrad
 Berny optimization.
 Internal  Forces:  Max     0.015298622 RMS     0.003038682
 Search for a saddle point.
 Step number   1 out of a maximum of  100
 All quantities printed in internal units (Hartrees-Bohrs-Radians)
 Swapping is turned off.
 Second derivative matrix not updated -- analytic derivatives used.
 ITU=  0
     Eigenvalues ---   -0.08861   0.00541   0.00724   0.01050   0.01663
     Eigenvalues ---    0.02389   0.03112   0.05015   0.05601   0.06463
     Eigenvalues ---    0.07564   0.08422   0.08496   0.09660   0.10069
     Eigenvalues ---    0.10273   0.11752   0.13299   0.16890   0.18427
     Eigenvalues ---    0.19313   0.23888   0.29823   0.33079   0.33623
     Eigenvalues ---    0.34698   0.35857   0.35988   0.36211   0.37348
     Eigenvalues ---    0.45555   0.56888   0.77369
 Eigenvectors required to have negative eigenvalues:
                          R9        R2        A2        R8        A3
   1                   -0.68464   0.63466   0.21972   0.15656  -0.11735
                          A1        R3        R10       A11       D10
   1                   -0.10238  -0.10002   0.07767  -0.05807  -0.04951
 RFO step:  Lambda0=2.156218655D-05 Lambda=-1.08092345D-03.
 Linear search not attempted -- option 19 set.
 Iteration  1 RMS(Cart)=  0.05535105 RMS(Int)=  0.00042907
 Iteration  2 RMS(Cart)=  0.00085816 RMS(Int)=  0.00002180
 Iteration  3 RMS(Cart)=  0.00000058 RMS(Int)=  0.00002180
 Variable       Old X    -DE/DX   Delta X   Delta X   Delta X     New X
                                 (Linear)    (Quad)   (Total)
    R1        2.03389  -0.00097   0.00000  -0.00281  -0.00281   2.03107
    R2        2.52197  -0.00088   0.00000   0.00135   0.00136   2.52333
    R3        2.39348   0.00222   0.00000   0.00019   0.00019   2.39367
    R4        2.06245  -0.00141   0.00000  -0.00388  -0.00388   2.05857
    R5        2.05580  -0.00050   0.00000  -0.00085  -0.00085   2.05495
    R6        2.05871  -0.00062   0.00000  -0.00252  -0.00252   2.05619
    R7        2.68001   0.00653   0.00000   0.01537   0.01537   2.69538
    R8        2.57580   0.01530   0.00000   0.04618   0.04618   2.62198
    R9        2.24722   0.00415   0.00000  -0.00255  -0.00255   2.24467
   R10        2.49644   0.00452   0.00000   0.00880   0.00880   2.50524
   R11        2.04445  -0.00069   0.00000  -0.00217  -0.00217   2.04228
   R12        2.04328  -0.00060   0.00000  -0.00174  -0.00174   2.04154
    A1        2.01318  -0.00011   0.00000  -0.00207  -0.00207   2.01110
    A2        2.36886  -0.00126   0.00000   0.00203   0.00203   2.37089
    A3        1.90106   0.00137   0.00000   0.00008   0.00008   1.90114
    A4        1.92672  -0.00026   0.00000  -0.00020  -0.00019   1.92653
    A5        1.92101  -0.00047   0.00000   0.00065   0.00063   1.92164
    A6        1.91889   0.00123   0.00000   0.00598   0.00597   1.92487
    A7        1.93095  -0.00022   0.00000  -0.00127  -0.00127   1.92967
    A8        1.84564  -0.00051   0.00000  -0.00724  -0.00724   1.83840
    A9        1.91941   0.00026   0.00000   0.00192   0.00191   1.92132
   A10        1.89445   0.00111   0.00000  -0.00823  -0.00823   1.88622
   A11        1.79056   0.00398   0.00000  -0.00464  -0.00464   1.78592
   A12        2.10926   0.00041   0.00000   0.00274   0.00274   2.11200
   A13        2.10844   0.00033   0.00000   0.00181   0.00181   2.11025
   A14        2.06524  -0.00074   0.00000  -0.00457  -0.00458   2.06067
   A15        2.98323   0.00311   0.00000   0.01948   0.01946   3.00269
   A16        3.04206   0.00008   0.00000  -0.00302  -0.00300   3.03906
   A17        2.98768   0.00118   0.00000   0.02506   0.02508   3.01276
   A18        3.19236   0.00037   0.00000   0.00424   0.00428   3.19663
    D1        3.01383  -0.00043   0.00000  -0.00867  -0.00860   3.00523
    D2       -0.12255  -0.00103   0.00000  -0.00529  -0.00537  -0.12792
    D3       -1.57717  -0.00009   0.00000   0.00100   0.00103  -1.57614
    D4        1.60583  -0.00011   0.00000   0.00222   0.00225   1.60809
    D5        1.57834   0.00011   0.00000  -0.00017  -0.00020   1.57813
    D6       -1.52185   0.00009   0.00000   0.00105   0.00102  -1.52082
    D7        1.07572   0.00009   0.00000   0.01056   0.01057   1.08629
    D8       -3.12748   0.00013   0.00000   0.00931   0.00931  -3.11818
    D9       -1.04221  -0.00028   0.00000   0.00465   0.00464  -1.03757
   D10       -1.58998  -0.00296   0.00000  -0.04168  -0.04168  -1.63166
         Item               Value     Threshold  Converged?
 Maximum Force            0.015299     0.000450     NO 
 RMS     Force            0.003039     0.000300     NO 
 Maximum Displacement     0.149507     0.001800     NO 
 RMS     Displacement     0.055832     0.001200     NO 
 Predicted change in Energy=-5.326906D-04
 GradGradGradGradGradGradGradGradGradGradGradGradGradGradGradGradGradGrad

                          Input orientation:                          
 ---------------------------------------------------------------------
 Center     Atomic      Atomic             Coordinates (Angstroms)
 Number     Number       Type             X           Y           Z
 ---------------------------------------------------------------------
      1          6           0       -1.159164    1.294282    0.373343
      2          1           0       -1.522216    2.210590    0.802017
      3          6           0        1.615245   -0.977925    0.577761
      4          1           0        0.909976   -0.791419    1.386764
      5          1           0        1.600586   -2.028441    0.297196
      6          1           0        2.616758   -0.676441    0.877796
      7          8           0        1.221051   -0.268720   -0.595298
      8          8           0        1.250003    1.088378   -0.307918
      9          1           0        0.128710    1.301940    0.020757
     10          6           0       -1.655244    0.163060    0.092784
     11          6           0       -2.034796   -1.058971   -0.253779
     12          1           0       -1.997863   -1.875084    0.453730
     13          1           0       -2.412177   -1.262562   -1.245374
 ---------------------------------------------------------------------
                    Distance matrix (angstroms):
                    1          2          3          4          5
     1  C    0.000000
     2  H    1.074797   0.000000
     3  C    3.591943   4.478904   0.000000
     4  H    3.107814   3.907626   1.089346   0.000000
     5  H    4.320012   5.289245   1.087435   1.787267   0.000000
     6  H    4.289034   5.046960   1.088091   1.784761   1.788185
     7  O    3.007767   3.952845   1.426334   2.073295   2.009281
     8  O    2.512090   3.190065   2.277594   2.553664   3.194312
     9  H    1.335288   2.039993   2.778098   2.618874   3.651613
    10  C    1.266677   2.170964   3.497592   3.027502   3.929998
    11  C    2.588013   3.473826   3.744440   3.381515   3.802558
    12  H    3.279445   4.127987   3.724894   3.240434   3.605115
    13  H    3.275323   4.128756   4.430008   4.264602   4.366734
                    6          7          8          9         10
     6  H    0.000000
     7  O    2.069841   0.000000
     8  O    2.527553   1.387495   0.000000
     9  H    3.292247   2.009902   1.187827   0.000000
    10  C    4.423913   2.988807   3.075261   2.117718   0.000000
    11  C    4.802473   3.367740   3.924785   3.214037   1.325717
    12  H    4.786576   3.747302   4.462157   3.847501   2.098023
    13  H    5.490135   3.822391   4.451663   3.825686   2.096668
                   11         12         13
    11  C    0.000000
    12  H    1.080728   0.000000
    13  H    1.080337   1.853050   0.000000
 Stoichiometry    C4H7O2(2)
 Framework group  C1[X(C4H7O2)]
 Deg. of freedom    33
 Full point group                 C1      NOp   1
 Largest Abelian subgroup         C1      NOp   1
 Largest concise Abelian subgroup C1      NOp   1
                         Standard orientation:                         
 ---------------------------------------------------------------------
 Center     Atomic      Atomic             Coordinates (Angstroms)
 Number     Number       Type             X           Y           Z
 ---------------------------------------------------------------------
      1          6           0       -1.169756    1.276067    0.383130
      2          1           0       -1.543094    2.186775    0.814893
      3          6           0        1.644982   -0.948567    0.557229
      4          1           0        0.946429   -0.772745    1.374411
      5          1           0        1.644740   -1.999619    0.278298
      6          1           0        2.644780   -0.629716    0.844771
      7          8           0        1.224769   -0.247973   -0.611966
      8          8           0        1.234190    1.109870   -0.326809
      9          1           0        0.113473    1.304953    0.015052
     10          6           0       -1.649948    0.136177    0.110112
     11          6           0       -2.012893   -1.092641   -0.230185
     12          1           0       -1.953648   -1.906901    0.477942
     13          1           0       -2.398662   -1.304143   -1.216885
 ---------------------------------------------------------------------
 Rotational constants (GHZ):           4.9919016           2.2941558           1.7807630
 Standard basis: CC-pVTZ (5D, 7F)
 There are   315 symmetry adapted cartesian basis functions of A   symmetry.
 There are   278 symmetry adapted basis functions of A   symmetry.
   278 basis functions,   431 primitive gaussians,   315 cartesian basis functions
    24 alpha electrons       23 beta electrons
       nuclear repulsion energy       222.6573958389 Hartrees.
 NAtoms=   13 NActive=   13 NUniq=   13 SFac= 1.00D+00 NAtFMM=   60 NAOKFM=F Big=F
 Integral buffers will be    131072 words long.
 Raffenetti 2 integral format.
 Two-electron integral symmetry is turned on.
 Nuclear repulsion after empirical dispersion term =      222.6508184023 Hartrees.
 One-electron integrals computed using PRISM.
 NBasis=   278 RedAO= T EigKep=  1.30D-04  NBF=   278
 NBsUse=   278 1.00D-06 EigRej= -1.00D+00 NBFU=   278
 Initial guess from the checkpoint file:  "/localscratch/341085/Gau-82313.chk"
 B after Tr=     0.000000    0.000000   -0.000000
         Rot=    0.999960    0.001011   -0.004170   -0.007816 Ang=   1.02 deg.
 Initial guess <Sx>= 0.0000 <Sy>= 0.0000 <Sz>= 0.5000 <S**2>= 0.8300 S= 0.5392
 ExpMin= 1.03D-01 ExpMax= 1.53D+04 ExpMxC= 5.22D+02 IAcc=3 IRadAn=         5 AccDes= 0.00D+00
 Harris functional with IExCor=  419 and IRadAn=       5 diagonalized for initial guess.
 HarFok:  IExCor=  419 AccDes= 0.00D+00 IRadAn=         5 IDoV= 1 UseB2=F ITyADJ=14
 ICtDFT=  3500011 ScaDFX=  1.000000  1.000000  1.000000  1.000000
 FoFCou: FMM=F IPFlag=           0 FMFlag=      100000 FMFlg1=           0
         NFxFlg=           0 DoJE=T BraDBF=F KetDBF=T FulRan=T
         wScrn=  0.000000 ICntrl=       500 IOpCl=  0 I1Cent=   200000004 NGrid=           0
         NMat0=    1 NMatS0=      1 NMatT0=    0 NMatD0=    1 NMtDS0=    0 NMtDT0=    0
 Petite list used in FoFCou.
 Requested convergence on RMS density matrix=1.00D-08 within 128 cycles.
 Requested convergence on MAX density matrix=1.00D-06.
 Requested convergence on             energy=1.00D-06.
 No special actions if energy rises.
 Integral accuracy reduced to 1.0D-05 until final iterations.
 Initial convergence to 1.0D-05 achieved.  Increase integral accuracy.
 SCF Done:  E(UB2PLYPD3) =  -306.339002184     A.U. after   17 cycles
            NFock= 17  Conv=0.80D-08     -V/T= 2.0042
 <Sx>= 0.0000 <Sy>= 0.0000 <Sz>= 0.5000 <S**2>= 0.8340 S= 0.5411
 <L.S>=  0.00000000000    
 Annihilation of the first spin contaminant:
 S**2 before annihilation     0.8340,   after     0.7536
 DoSCS=T DFT=T ScalE2(SS,OS)=  0.270000  0.270000
 ExpMin= 1.03D-01 ExpMax= 1.53D+04 ExpMxC= 5.22D+02 IAcc=3 IRadAn=         5 AccDes= 0.00D+00
 HarFok:  IExCor=  205 AccDes= 0.00D+00 IRadAn=         5 IDoV=-2 UseB2=F ITyADJ=14
 ICtDFT= 12500011 ScaDFX=  1.000000  1.000000  1.000000  1.000000
 Range of M.O.s used for correlation:     7   278
 NBasis=   278 NAE=    24 NBE=    23 NFC=     6 NFV=     0
 NROrb=    272 NOA=    18 NOB=    17 NVA=   254 NVB=   255

 **** Warning!!: The largest alpha MO coefficient is  0.25938342D+02


 **** Warning!!: The largest beta MO coefficient is  0.26597027D+02

 DoSCS=T DFT=T ScalE2(SS,OS)=  0.270000  0.270000
 Disk-based method using ON**2 memory for 18 occupieds at a time.
 Estimated scratch disk usage=  1033851590 words.
 Actual    scratch disk usage=   947579078 words.
 JobTyp=2 Pass  1:  I=   7 to  24 NPSUse= 40 ParTrn=T ParDer=T DoDerP=T.
 (rs|ai) integrals will be sorted in core.
 Actual    scratch disk usage=   947579078 words.
 JobTyp=3 Pass  1:  I=   7 to  23 NPSUse= 40 ParTrn=T ParDer=T DoDerP=T.
 (rs|ai) integrals will be sorted in core.
 Spin components of T(2) and E(2):
     alpha-alpha T2 =       0.6722089268D-01 E2=     -0.4688984089D-01
     alpha-beta  T2 =       0.4080920550D+00 E2=     -0.2827613443D+00
     beta-beta   T2 =       0.7966852439D-01 E2=     -0.4735019997D-01
 (S**2,0)=  0.83396D+00           (S**2,1)=  0.76228D+00
 Scaling Projection term by:   0.270000
 E(PUHF)=      -0.30635115439D+03        E(PMP2)=      -0.30671791841D+03
 E2(B2PLYPD3) =    -0.3770013852D+00 E(B2PLYPD3) =    -0.30671600356910D+03
          IDoAtm=1111111111111
          Differentiating once with respect to electric field.
                with respect to dipole field.
          Differentiating once with respect to nuclear coordinates.
 Keep R1 and R2 ints in memory in canonical form, NReq=1549877081.
          There are     1 degrees of freedom in the 1st order CPHF.  IDoFFX=0 NUNeed=     1.
 LinEq1:  Iter=  0 NonCon=     1 RMS=1.27D-03 Max=7.04D-02 NDo=     1
 AX will form     1 AO Fock derivatives at one time.
 LinEq1:  Iter=  1 NonCon=     1 RMS=4.69D-04 Max=1.57D-02 NDo=     1
 LinEq1:  Iter=  2 NonCon=     1 RMS=2.97D-04 Max=9.11D-03 NDo=     1
 LinEq1:  Iter=  3 NonCon=     1 RMS=1.67D-04 Max=5.07D-03 NDo=     1
 LinEq1:  Iter=  4 NonCon=     1 RMS=1.10D-04 Max=5.03D-03 NDo=     1
 LinEq1:  Iter=  5 NonCon=     1 RMS=8.80D-05 Max=3.22D-03 NDo=     1
 LinEq1:  Iter=  6 NonCon=     1 RMS=3.94D-05 Max=1.46D-03 NDo=     1
 LinEq1:  Iter=  7 NonCon=     1 RMS=1.11D-05 Max=4.23D-04 NDo=     1
 LinEq1:  Iter=  8 NonCon=     1 RMS=4.70D-06 Max=1.20D-04 NDo=     1
 LinEq1:  Iter=  9 NonCon=     1 RMS=2.67D-06 Max=8.19D-05 NDo=     1
 LinEq1:  Iter= 10 NonCon=     1 RMS=1.24D-06 Max=3.14D-05 NDo=     1
 LinEq1:  Iter= 11 NonCon=     1 RMS=7.51D-07 Max=3.09D-05 NDo=     1
 LinEq1:  Iter= 12 NonCon=     1 RMS=4.06D-07 Max=1.09D-05 NDo=     1
 LinEq1:  Iter= 13 NonCon=     1 RMS=1.94D-07 Max=3.92D-06 NDo=     1
 LinEq1:  Iter= 14 NonCon=     1 RMS=8.11D-08 Max=1.46D-06 NDo=     1
 LinEq1:  Iter= 15 NonCon=     1 RMS=3.10D-08 Max=6.40D-07 NDo=     1
 LinEq1:  Iter= 16 NonCon=     1 RMS=1.17D-08 Max=2.90D-07 NDo=     1
 LinEq1:  Iter= 17 NonCon=     1 RMS=3.96D-09 Max=9.06D-08 NDo=     1
 LinEq1:  Iter= 18 NonCon=     1 RMS=1.14D-09 Max=2.36D-08 NDo=     1
 LinEq1:  Iter= 19 NonCon=     1 RMS=3.28D-10 Max=7.61D-09 NDo=     1
 LinEq1:  Iter= 20 NonCon=     1 RMS=9.68D-11 Max=2.51D-09 NDo=     1
 LinEq1:  Iter= 21 NonCon=     1 RMS=2.93D-11 Max=1.06D-09 NDo=     1
 LinEq1:  Iter= 22 NonCon=     0 RMS=8.47D-12 Max=2.52D-10 NDo=     1
 Linear equations converged to 1.000D-10 1.000D-09 after    22 iterations.
 End of Minotr F.D. properties file   721 does not exist.
 End of Minotr F.D. properties file   722 does not exist.
 End of Minotr F.D. properties file   788 does not exist.
 Calling FoFJK, ICntrl=  10002127 FMM=F ISym2X=0 I1Cent= 0 IOpClX= 1 NMat=1 NMatS=1 NMatT=0.
 ***** Axes restored to original set *****
 -------------------------------------------------------------------
 Center     Atomic                   Forces (Hartrees/Bohr)
 Number     Number              X              Y              Z
 -------------------------------------------------------------------
      1        6          -0.000013097    0.000015878   -0.000022417
      2        1          -0.000001018   -0.000006837    0.000013183
      3        6           0.000143770   -0.000122564    0.000174357
      4        1           0.000059722   -0.000020053   -0.000017925
      5        1           0.000005092    0.000007320   -0.000003912
      6        1           0.000012946    0.000007734   -0.000010570
      7        8          -0.000105576   -0.001086735   -0.000311568
      8        8           0.000112733    0.001175565    0.000210807
      9        1          -0.000070119   -0.000027860    0.000013074
     10        6          -0.000092256    0.000128763   -0.000006578
     11        6          -0.000049795   -0.000062872   -0.000032882
     12        1          -0.000002587   -0.000005553   -0.000003806
     13        1           0.000000184   -0.000002787   -0.000001764
 -------------------------------------------------------------------
 Cartesian Forces:  Max     0.001175565 RMS     0.000269798

 GradGradGradGradGradGradGradGradGradGradGradGradGradGradGradGradGradGrad
 Berny optimization.
 FormGI is forming the generalized inverse of G from B-inverse, IUseBI=4.
 Internal  Forces:  Max     0.001227391 RMS     0.000254714
 Search for a saddle point.
 Step number   2 out of a maximum of  100
 All quantities printed in internal units (Hartrees-Bohrs-Radians)
 Swapping is turned off.
 Update second derivatives using D2CorX and points    1    2
 ITU=  0  0
     Eigenvalues ---   -0.08871   0.00550   0.00735   0.01069   0.01692
     Eigenvalues ---    0.02417   0.03113   0.05025   0.05613   0.06410
     Eigenvalues ---    0.07562   0.08418   0.08488   0.09395   0.10068
     Eigenvalues ---    0.10184   0.11749   0.13289   0.16891   0.18425
     Eigenvalues ---    0.19298   0.23898   0.29185   0.33044   0.33599
     Eigenvalues ---    0.34651   0.35857   0.35944   0.36211   0.37348
     Eigenvalues ---    0.44487   0.56879   0.77366
 Eigenvectors required to have negative eigenvalues:
                          R9        R2        A2        R8        A3
   1                   -0.68381   0.63485   0.21857   0.16057  -0.11509
                          A1        R3        R10       A11       A15
   1                   -0.10348  -0.09995   0.07770  -0.05650   0.05265
 RFO step:  Lambda0=1.836940820D-07 Lambda=-1.21502881D-05.
 Linear search not attempted -- option 19 set.
 Iteration  1 RMS(Cart)=  0.01207286 RMS(Int)=  0.00001666
 Iteration  2 RMS(Cart)=  0.00002676 RMS(Int)=  0.00000095
 Iteration  3 RMS(Cart)=  0.00000000 RMS(Int)=  0.00000095
 Variable       Old X    -DE/DX   Delta X   Delta X   Delta X     New X
                                 (Linear)    (Quad)   (Total)
    R1        2.03107  -0.00000   0.00000   0.00008   0.00008   2.03115
    R2        2.52333   0.00014   0.00000  -0.00209  -0.00209   2.52124
    R3        2.39367   0.00001   0.00000   0.00018   0.00018   2.39385
    R4        2.05857  -0.00006   0.00000  -0.00003  -0.00003   2.05854
    R5        2.05495  -0.00001   0.00000   0.00003   0.00003   2.05498
    R6        2.05619   0.00001   0.00000  -0.00002  -0.00002   2.05617
    R7        2.69538   0.00024   0.00000   0.00030   0.00030   2.69568
    R8        2.62198   0.00123   0.00000   0.00368   0.00368   2.62566
    R9        2.24467   0.00021   0.00000   0.00162   0.00162   2.24629
   R10        2.50524   0.00009   0.00000  -0.00002  -0.00002   2.50523
   R11        2.04228   0.00000   0.00000  -0.00001  -0.00001   2.04227
   R12        2.04154   0.00000   0.00000   0.00002   0.00002   2.04156
    A1        2.01110  -0.00012   0.00000  -0.00082  -0.00082   2.01029
    A2        2.37089  -0.00013   0.00000  -0.00088  -0.00088   2.37001
    A3        1.90114   0.00025   0.00000   0.00169   0.00169   1.90283
    A4        1.92653  -0.00000   0.00000  -0.00002  -0.00002   1.92651
    A5        1.92164  -0.00001   0.00000   0.00011   0.00011   1.92175
    A6        1.92487   0.00006   0.00000   0.00023   0.00023   1.92510
    A7        1.92967  -0.00000   0.00000  -0.00009  -0.00009   1.92958
    A8        1.83840  -0.00001   0.00000  -0.00035  -0.00035   1.83806
    A9        1.92132  -0.00003   0.00000   0.00011   0.00011   1.92143
   A10        1.88622   0.00009   0.00000  -0.00049  -0.00049   1.88573
   A11        1.78592   0.00046   0.00000  -0.00027  -0.00027   1.78565
   A12        2.11200   0.00001   0.00000  -0.00001  -0.00001   2.11199
   A13        2.11025  -0.00000   0.00000   0.00001   0.00001   2.11026
   A14        2.06067  -0.00001   0.00000  -0.00000  -0.00000   2.06066
   A15        3.00269   0.00054   0.00000   0.00365   0.00365   3.00634
   A16        3.03906   0.00006   0.00000   0.00029   0.00029   3.03935
   A17        3.01276   0.00017   0.00000   0.00301   0.00301   3.01577
   A18        3.19663  -0.00000   0.00000  -0.00025  -0.00025   3.19638
    D1        3.00523  -0.00009   0.00000  -0.00436  -0.00436   3.00088
    D2       -0.12792  -0.00021   0.00000  -0.00458  -0.00458  -0.13250
    D3       -1.57614  -0.00002   0.00000   0.00002   0.00003  -1.57612
    D4        1.60809  -0.00002   0.00000  -0.00007  -0.00007   1.60802
    D5        1.57813   0.00002   0.00000   0.00014   0.00014   1.57827
    D6       -1.52082   0.00002   0.00000   0.00004   0.00004  -1.52078
    D7        1.08629  -0.00001   0.00000   0.00203   0.00203   1.08831
    D8       -3.11818   0.00001   0.00000   0.00192   0.00192  -3.11626
    D9       -1.03757  -0.00001   0.00000   0.00167   0.00167  -1.03590
   D10       -1.63166  -0.00051   0.00000  -0.00586  -0.00587  -1.63753
         Item               Value     Threshold  Converged?
 Maximum Force            0.001227     0.000450     NO 
 RMS     Force            0.000255     0.000300     YES
 Maximum Displacement     0.031375     0.001800     NO 
 RMS     Displacement     0.012077     0.001200     NO 
 Predicted change in Energy=-5.983301D-06
 GradGradGradGradGradGradGradGradGradGradGradGradGradGradGradGradGradGrad

                          Input orientation:                          
 ---------------------------------------------------------------------
 Center     Atomic      Atomic             Coordinates (Angstroms)
 Number     Number       Type             X           Y           Z
 ---------------------------------------------------------------------
      1          6           0       -1.161554    1.292581    0.371950
      2          1           0       -1.521755    2.209648    0.801505
      3          6           0        1.626784   -0.977811    0.580814
      4          1           0        0.923520   -0.794327    1.392229
      5          1           0        1.617189   -2.028795    0.301732
      6          1           0        2.627689   -0.670158    0.876546
      7          8           0        1.223996   -0.272884   -0.592095
      8          8           0        1.248632    1.086738   -0.306849
      9          1           0        0.125481    1.297417    0.020443
     10          6           0       -1.662307    0.163600    0.090243
     11          6           0       -2.047304   -1.056447   -0.257273
     12          1           0       -2.013937   -1.873277    0.449576
     13          1           0       -2.425563   -1.257601   -1.249041
 ---------------------------------------------------------------------
                    Distance matrix (angstroms):
                    1          2          3          4          5
     1  C    0.000000
     2  H    1.074837   0.000000
     3  C    3.601823   4.485744   0.000000
     4  H    3.121488   3.918188   1.089330   0.000000
     5  H    4.331037   5.297843   1.087450   1.787252   0.000000
     6  H    4.297129   5.051415   1.088080   1.784807   1.788132
     7  O    3.011796   3.955280   1.426490   2.073579   2.009166
     8  O    2.512396   3.188169   2.278883   2.555576   3.195740
     9  H    1.334181   2.038531   2.782910   2.625654   3.656228
    10  C    1.266772   2.170706   3.515906   3.049474   3.950495
    11  C    2.588128   3.473412   3.769283   3.408132   3.832291
    12  H    3.279518   4.127514   3.751524   3.268238   3.637460
    13  H    3.275478   4.128368   4.455128   4.290371   4.398122
                    6          7          8          9         10
     6  H    0.000000
     7  O    2.070045   0.000000
     8  O    2.527629   1.389441   0.000000
     9  H    3.296257   2.011911   1.188685   0.000000
    10  C    4.440437   2.997808   3.079518   2.118159   0.000000
    11  C    4.826005   3.380456   3.931780   3.215400   1.325709
    12  H    4.813989   3.759062   4.469701   3.848969   2.098006
    13  H    5.513489   3.836733   4.459075   3.827209   2.096676
                   11         12         13
    11  C    0.000000
    12  H    1.080722   0.000000
    13  H    1.080345   1.853050   0.000000
 Stoichiometry    C4H7O2(2)
 Framework group  C1[X(C4H7O2)]
 Deg. of freedom    33
 Full point group                 C1      NOp   1
 Largest Abelian subgroup         C1      NOp   1
 Largest concise Abelian subgroup C1      NOp   1
                         Standard orientation:                         
 ---------------------------------------------------------------------
 Center     Atomic      Atomic             Coordinates (Angstroms)
 Number     Number       Type             X           Y           Z
 ---------------------------------------------------------------------
      1          6           0       -1.172407    1.273239    0.384131
      2          1           0       -1.543315    2.184265    0.817412
      3          6           0        1.660320   -0.944689    0.556137
      4          1           0        0.965584   -0.772771    1.377372
      5          1           0        1.666197   -1.996185    0.278887
      6          1           0        2.659516   -0.617990    0.836841
      7          8           0        1.227592   -0.249521   -0.611922
      8          8           0        1.231112    1.110850   -0.329214
      9          1           0        0.109097    1.301280    0.013994
     10          6           0       -1.656142    0.134650    0.111500
     11          6           0       -2.023415   -1.092964   -0.228468
     12          1           0       -1.964671   -1.907726    0.479114
     13          1           0       -2.412183   -1.302929   -1.214328
[...]
 Maximum Displacement     0.001421     0.001800     YES
 RMS     Displacement     0.000595     0.001200     YES
 Predicted change in Energy=-7.623092D-09
 Optimization completed.
    -- Stationary point found.
                           ----------------------------
                           !   Optimized Parameters   !
                           ! (Angstroms and Degrees)  !
 --------------------------                            --------------------------
 ! Name  Definition              Value          Derivative Info.                !
 --------------------------------------------------------------------------------
 ! R1    R(1,2)                  1.0748         -DE/DX =    0.0                 !
 ! R2    R(1,9)                  1.3341         -DE/DX =    0.0                 !
 ! R3    R(1,10)                 1.2668         -DE/DX =    0.0                 !
 ! R4    R(3,4)                  1.0893         -DE/DX =    0.0                 !
 ! R5    R(3,5)                  1.0875         -DE/DX =    0.0                 !
 ! R6    R(3,6)                  1.0881         -DE/DX =    0.0                 !
 ! R7    R(3,7)                  1.4265         -DE/DX =    0.0                 !
 ! R8    R(7,8)                  1.3896         -DE/DX =    0.0                 !
 ! R9    R(8,9)                  1.1887         -DE/DX =    0.0                 !
 ! R10   R(10,11)                1.3257         -DE/DX =    0.0                 !
 ! R11   R(11,12)                1.0807         -DE/DX =    0.0                 !
 ! R12   R(11,13)                1.0803         -DE/DX =    0.0                 !
 ! A1    A(2,1,9)              115.1617         -DE/DX =    0.0                 !
 ! A2    A(2,1,10)             135.7788         -DE/DX =    0.0                 !
 ! A3    A(9,1,10)             109.0565         -DE/DX =    0.0                 !
 ! A4    A(4,3,5)              110.3793         -DE/DX =    0.0                 !
 ! A5    A(4,3,6)              110.1075         -DE/DX =    0.0                 !
 ! A6    A(4,3,7)              110.3035         -DE/DX =    0.0                 !
 ! A7    A(5,3,6)              110.5544         -DE/DX =    0.0                 !
 ! A8    A(5,3,7)              105.3114         -DE/DX =    0.0                 !
 ! A9    A(6,3,7)              110.092          -DE/DX =    0.0                 !
 ! A10   A(3,7,8)              108.043          -DE/DX =    0.0                 !
 ! A11   A(7,8,9)              102.3232         -DE/DX =    0.0                 !
 ! A12   A(10,11,12)           121.0083         -DE/DX =    0.0                 !
 ! A13   A(10,11,13)           120.9093         -DE/DX =    0.0                 !
 ! A14   A(12,11,13)           118.0671         -DE/DX =    0.0                 !
 ! A15   L(1,9,8,4,-1)         172.3233         -DE/DX =    0.0                 !
 ! A16   L(1,10,11,3,-1)       174.1552         -DE/DX =    0.0                 !
 ! A17   L(1,9,8,4,-2)         172.8218         -DE/DX =    0.0                 !
 ! A18   L(1,10,11,3,-2)       183.1334         -DE/DX =    0.0                 !
 ! D1    D(2,1,8,7)            171.8113         -DE/DX =    0.0                 !
 ! D2    D(10,1,8,7)            -7.7321         -DE/DX =    0.0                 !
 ! D3    D(2,1,11,12)          -90.318          -DE/DX =    0.0                 !
 ! D4    D(2,1,11,13)           92.1148         -DE/DX =    0.0                 !
 ! D5    D(9,1,11,12)           90.4247         -DE/DX =    0.0                 !
 ! D6    D(9,1,11,13)          -87.1424         -DE/DX =    0.0                 !
 ! D7    D(4,3,7,8)             62.3652         -DE/DX =    0.0                 !
 ! D8    D(5,3,7,8)           -178.5396         -DE/DX =    0.0                 !
 ! D9    D(6,3,7,8)            -59.3466         -DE/DX =    0.0                 !
 ! D10   D(3,7,8,9)            -93.8932         -DE/DX =    0.0                 !
 --------------------------------------------------------------------------------
 GradGradGradGradGradGradGradGradGradGradGradGradGradGradGradGradGradGrad


 ----------------------------------------------------------------------

 Electric dipole moment (input orientation):
 (Debye = 10**-18 statcoulomb cm , SI units = C m)
                  (au)            (Debye)         (10**-30 SI)
   Tot        0.964491D+00      0.245149D+01      0.817730D+01
   x         -0.413213D+00     -0.105028D+01     -0.350336D+01
   y         -0.645988D+00     -0.164194D+01     -0.547692D+01
   z          0.584977D+00      0.148686D+01      0.495964D+01

 Dipole polarizability, Alpha (input orientation).
 (esu units = cm**3 , SI units = C**2 m**2 J**-1)
 Alpha(0;0):
               (au)            (10**-24 esu)      (10**-40 SI)
   iso        0.751523D+02      0.111364D+02      0.123909D+02
   aniso      0.565189D+02      0.837523D+01      0.931870D+01
   xx         0.105651D+03      0.156558D+02      0.174194D+02
   yx         0.848401D+01      0.125720D+01      0.139882D+01
   yy         0.761521D+02      0.112846D+02      0.125558D+02
   zx         0.953992D+00      0.141367D+00      0.157292D+00
   zy         0.550210D+01      0.815327D+00      0.907173D+00
   zz         0.436543D+02      0.646890D+01      0.719762D+01

 ----------------------------------------------------------------------

 Dipole orientation:
     6         -2.08019896          2.62210098         -0.26778988
     1         -2.64247186          4.53711015         -0.64491287
     6          3.53045380         -1.14500750          0.58398984
     1          2.95057162          0.36954381          1.85182512
     1          3.64639316         -2.92598060          1.60264826
     1          5.33921258         -0.68907460         -0.28110114
     8          1.66457978         -1.53526359         -1.32192346
     8          1.47376883          0.66871976         -2.73675366
     1         -0.21216818          1.74817659         -1.71767183
     6         -2.76901258          0.89775248          1.24313169
     6         -3.28729841         -1.07277841          2.70058494
     1         -2.38535804         -1.30307261          4.51835865
     1         -4.65712983         -2.47235275          2.12376128

 Electric dipole moment (dipole orientation):
 (Debye = 10**-18 statcoulomb cm , SI units = C m)
                  (au)            (Debye)         (10**-30 SI)
   Tot        0.964491D+00      0.245149D+01      0.817730D+01
   x          0.000000D+00      0.000000D+00      0.000000D+00
   y          0.000000D+00      0.000000D+00      0.000000D+00
   z          0.964491D+00      0.245149D+01      0.817730D+01

 Dipole polarizability, Alpha (dipole orientation).
 (esu units = cm**3 , SI units = C**2 m**2 J**-1)
 Alpha(0;0):
               (au)            (10**-24 esu)      (10**-40 SI)
   iso        0.751523D+02      0.111364D+02      0.123909D+02
   aniso      0.565189D+02      0.837523D+01      0.931870D+01
   xx         0.905276D+02      0.134148D+02      0.149260D+02
   yx        -0.677128D+01     -0.100340D+01     -0.111643D+01
   yy         0.654145D+02      0.969343D+01      0.107854D+02
   zx        -0.258597D+02     -0.383202D+01     -0.426370D+01
   zy        -0.129890D+02     -0.192477D+01     -0.214160D+01
   zz         0.695149D+02      0.103010D+02      0.114615D+02

 ----------------------------------------------------------------------
 1\1\GINC-N58\Freq\UB2PLYPD3-FC\CC-pVTZ\C4H7O2(2)\ROOT\07-Jun-2019\0\\#
 N Geom=AllCheck Guess=TCheck SCRF=Check GenChk UB2PLYPD3(FC)/CC-pVTZ F
 req\\Title Card Required\\0,2\C,-1.1621517564,1.2916334449,0.371788430
 7\H,-1.5212045906,2.2088509048,0.8020070036\C,1.6306113156,-0.97739733
 13,0.5820112511\H,0.9282219438,-0.7942737636,1.3942585546\H,1.62234648
 27,-2.0286825556,0.3040118012\H,2.6314409584,-0.667848445,0.8760222058
 \O,1.2250260544,-0.2743775751,-0.5910329017\O,1.2480321545,1.085740196
 3,-0.3072338609\H,0.1247361109,1.2956212467,0.0202086917\C,-1.66457279
 58,0.1635383262,0.0894035772\C,-2.0516736661,-1.0556213981,-0.25873502
 55\H,-2.0192646184,-1.8729780213,0.4475439748\H,-2.430677593,-1.255520
 0289,-1.2504747027\\Version=ES64L-G16RevB.01\State=2-A\HF=-306.3390143
 \MP2=-306.7160108\PUHF=-306.3511712\PMP2-0=-306.7179269\S2=0.833966\S2
 -1=0.762303\S2A=0.753563\RMSD=1.756e-09\RMSF=7.291e-06\ZeroPoint=0.094
 2586\Thermal=0.1022373\Dipole=-0.4132128,-0.6459881,0.5849766\DipoleDe
 riv=1.3195488,-0.2928759,-0.2237757,0.7588838,-0.2829412,-0.0577431,-0
 .11098,0.0593211,-0.2130635,-0.1196798,0.1382635,0.0691761,-0.0856976,
 0.1476531,-0.0171428,0.0391939,-0.058505,0.172535,0.499101,-0.0576478,
 0.0346792,-0.3627321,0.3600261,-0.0680461,0.4317464,-0.1276627,0.39256
 87,-0.0576142,0.0124038,0.1066015,0.0729323,0.0117418,-0.0403432,-0.05
 99383,0.0391148,-0.0454627,0.0497383,-0.0125559,-0.0235782,0.0734165,-
 0.0866691,-0.010442,-0.0441729,-0.0355257,0.028211,-0.1527302,0.008170
 7,-0.0677333,-0.0555124,0.0300816,-0.0133876,-0.1008197,0.0489728,0.02
 73073,-0.0936031,0.0442833,-0.0063709,1.4822481,-0.2935511,-0.0531499,
 0.0908913,0.0275276,-0.3459967,0.3866953,-0.1217253,-0.0844947,-1.5395
 395,-0.1213828,0.1990977,-0.5956602,0.0900934,-0.1835876,-1.3536967,0.
 0880137,0.0936244,0.3043819,0.0751721,-0.0414198,0.4573468,-0.0544046,
 0.1134636,-0.7270176,0.2483043,0.1128236,-1.1576087,0.1624712,0.213784
 7,-0.2826567,0.0577211,-0.0895821,-0.0006753,-0.012635,0.0688925,0.557
 4728,-0.0622589,-0.1382163,0.24494,-0.0833849,0.1005505,0.1314847,-0.0
 084798,-0.0406219,-0.0269502,0.012854,0.0188201,-0.0290413,0.0515069,0
 .0258904,0.1184485,-0.0335196,-0.0392225,-0.0212948,0.0468033,0.008188
 4,-0.0408492,-0.0147749,0.0171662\Polar=105.6505108,8.484009,76.152142
 8,0.9539924,5.5020966,43.654309\PG=C01 [X(C4H7O2)]\NImag=1\\0.17340622
 ,0.07665547,0.88468265,0.00011997,0.28049314,0.16738445,-0.04504167,0.
 11546473,0.04843693,0.06075100,0.09120314,-0.27191811,-0.11576989,-0.0
 9517046,0.28336315,0.03948472,-0.12247570,-0.07674695,-0.04710972,0.12
 375343,0.07173291,-0.00384260,-0.00167648,-0.00111014,0.00075403,0.000
 32510,-0.00015305,0.57589096,0.00918250,0.00512541,-0.00045093,-0.0021
 8580,-0.00067558,0.00017086,0.02756281,0.57062021,-0.01029304,-0.00557
 201,0.00069734,0.00221264,0.00045548,0.00058121,-0.03028477,0.08745774
 ,0.49539419,0.00064201,0.00044512,-0.00003551,0.00005278,-0.00013501,0
 .00037215,-0.17067334,0.03301984,0.12959703,0.17577171,-0.00101812,-0.
 00064549,-0.00021718,0.00030139,0.00012342,-0.00015942,0.03334532,-0.0
 6106836,-0.04233868,-0.03628549,0.05873597,0.00376624,0.00186638,0.000
 14114,-0.00069621,-0.00018379,0.00001146,0.12494634,-0.03618372,-0.180
 34607,-0.13617524,0.03428955,0.21084521,0.00041411,0.00029149,-0.00017
 957,-0.00007751,-0.00004884,0.00001949,-0.05161710,-0.00684998,-0.0019
 2247,0.00137636,0.02054002,0.00481799,0.04755556,-0.00108958,-0.000620
 62,0.00001910,0.00017735,0.00007921,0.00000459,-0.00311147,-0.29640200
 ,-0.06904917,-0.00093693,-0.00260801,-0.00146344,0.00148299,0.32817360
 ,0.00050010,0.00019223,0.00013641,-0.00008611,-0.00001035,-0.00004314,
 -0.00089827,-0.08101486,-0.07375153,-0.00230689,-0.02205387,-0.0035178
 1,0.00341775,0.07181829,0.07509809,0.00128313,0.00068402,-0.00015805,-
 0.00028345,-0.00013934,0.00007245,-0.27735845,-0.07502275,-0.05616024,
 -0.01791759,-0.00791750,-0.00483884,0.00263475,0.00050450,0.00172325,0
 .29723465,-0.00022040,-0.00020247,-0.00009337,0.00019522,0.00008116,-0
 .00007848,-0.08004158,-0.07709113,-0.02504768,0.00691150,0.00310372,0.
 00049988,-0.02833599,-0.00605764,-0.00675251,0.08003381,0.07567569,0.0
 0209606,0.00119802,-0.00021316,-0.00047116,-0.00014034,0.00000973,-0.0
 5203681,-0.01951205,-0.06155444,0.02168392,0.00697141,0.00782737,-0.00
 720813,-0.00275818,-0.00117710,0.06978671,0.01758948,0.07565188,-0.010
 56501,-0.00392136,0.00347510,0.00047560,-0.00022443,-0.00065257,-0.076
 65425,0.00911954,-0.04744783,0.01163629,-0.00844012,0.01268166,-0.0005
 5970,-0.00003480,-0.00013573,-0.00592779,0.02048441,-0.03445300,0.1080
 2302,-0.05352519,-0.02533433,0.00449133,0.00903772,0.00304269,-0.00067
 832,0.01772798,-0.07247943,0.04675604,-0.00064411,-0.00379898,0.008600
 97,0.01134618,-0.02231686,0.03063359,0.00428204,-0.00118067,0.00286174
 ,-0.04274591,0.34927271,-0.00552807,-0.00343263,0.00023655,0.00120747,
 0.00046597,-0.00014343,-0.04295300,0.01640235,-0.19315284,-0.01200955,
 0.02210821,-0.03747092,0.00276443,-0.00380149,0.00680214,-0.01191993,0
 .01325096,-0.02197490,0.06990882,-0.01569846,0.30898484,-0.13665556,-0
 .03426527,0.02403474,0.00993886,0.00399602,-0.00101086,-0.00049958,0.0
 2044831,0.00106859,0.00081188,-0.00302119,0.00118797,0.00065240,0.0019
 1557,-0.00213994,0.00257642,0.00034017,0.00357180,-0.04489766,-0.03501
 936,-0.01308199,0.11047962,0.08188964,0.03752675,-0.00953906,-0.011999
 40,-0.00368258,0.00201596,0.00297962,-0.06612635,0.00751059,-0.0016677
 2,0.00557072,-0.00708910,0.00194894,-0.00052502,0.00715634,-0.00228511
 ,0.00603187,-0.00604384,-0.00529431,-0.21509877,-0.02077920,0.04859551
 ,0.27773094,0.05624525,0.01716657,-0.00408675,-0.00612097,-0.00143244,
 -0.00059660,0.00529582,0.02854449,0.01502596,-0.00073051,0.00138140,0.
 00150841,-0.00213914,0.00519868,-0.00305220,0.00109991,0.00099817,0.00
 069473,-0.00808797,-0.05209578,-0.05716111,0.00264801,0.00601427,0.047
 77249,0.11960886,0.06747529,-0.01251445,-0.02248633,-0.00686942,0.0039
 8204,0.00336825,-0.01394905,0.01181044,-0.00026929,0.00185954,-0.00451
 714,-0.00027510,0.00057660,0.00034984,-0.00199306,0.00093936,-0.002893
 49,0.01128284,0.07689492,0.01042564,0.04233402,-0.09061754,-0.03802767
 ,-0.09728236,-0.03359366,-0.04062328,0.00332325,0.01486979,0.00251897,
 -0.00445171,0.00097342,0.00115061,-0.00460864,-0.00013765,0.00008456,0
 .00144427,-0.00015212,-0.00033898,0.00045248,0.00021720,-0.00020257,0.
 00067769,0.02302523,-0.03337022,-0.01045497,-0.03354998,-0.01026602,0.
 00973468,0.03110572,0.07185391,-0.04267128,-0.02077930,-0.01839982,0.0
 1148099,0.00105121,0.00127876,-0.00254219,0.00512996,-0.00282796,0.000
 26108,-0.00025356,0.00116401,0.00038741,-0.00002521,-0.00041210,0.0006
 0865,-0.00038637,0.00078352,0.00277539,-0.02905521,-0.00588208,-0.0232
 6014,0.02575204,0.00230125,0.04031887,0.00127304,0.01521940,-0.0934524
 1,-0.19290351,-0.05515473,-0.00636985,0.00740758,0.00414314,0.00099095
 ,-0.00217817,0.00223548,-0.00169104,0.00093614,-0.00142036,-0.00008554
 ,0.00067760,-0.00048273,-0.00048407,-0.00027097,-0.00027129,0.01047473
 ,0.01630757,0.00116680,0.02057686,-0.03068095,-0.01370503,-0.06957888,
 -0.00044134,0.01689829,0.21351084,-0.10630798,-0.52824549,-0.15319029,
 -0.03723308,-0.01569861,0.00461395,0.00316041,-0.00470679,0.00567627,-
 0.00159820,0.00113739,-0.00247262,-0.00022146,0.00108062,-0.00071485,-
 0.00087064,-0.00048954,-0.00089837,0.01652786,0.03165509,0.00240333,0.
 04871358,-0.05207501,-0.02621745,-0.11585017,0.02114077,0.03323837,0.3
 1505956,0.97128320,-0.02385010,-0.13108785,-0.07631251,-0.01216746,-0.
 00714512,-0.00080943,0.00028384,-0.00087889,0.00057471,-0.00081269,0.0
 0036237,-0.00042736,-0.00001277,0.00020655,-0.00014200,-0.00030792,-0.
 00010811,-0.00009343,0.00396117,0.00727956,0.00031643,0.01255442,-0.01
 125843,-0.00545166,-0.02358451,0.00699420,0.01045450,0.08791126,0.2356
 1294,0.17128727,-0.01241730,-0.02752644,-0.00470922,0.00317001,0.00034
 534,0.00100860,-0.00044189,0.00116108,-0.00109841,0.00025359,-0.000114
 57,0.00045232,0.00019233,-0.00030882,0.00001219,0.00016864,-0.00014765
 ,0.00029561,-0.00351313,-0.00453944,-0.00002137,-0.00567079,0.00784709
 ,0.00376288,0.01554193,-0.00277583,-0.00455321,-0.07556999,-0.10857611
 ,-0.04203347,0.17493546,-0.06320663,-0.05989140,-0.00934413,0.00697343
 ,0.00272855,-0.00297808,-0.00124156,0.00170508,-0.00157600,0.00109134,
 -0.00044862,0.00082651,0.00008104,-0.00051518,0.00025371,0.00046546,0.
 00030350,0.00015407,-0.00813864,-0.01082954,-0.00052372,-0.01784879,0.
 02093001,0.01061481,0.04729354,-0.01183759,-0.01565417,-0.09835897,-0.
 39206774,-0.08718030,0.15258668,0.71841842,-0.01797064,-0.01815262,0.0
 0739874,0.00335140,-0.00138768,0.00504966,-0.00052133,0.00016794,-0.00
 070625,0.00011489,-0.00007758,0.00023852,-0.00004866,-0.00007795,0.000
 08024,0.00008817,0.00019987,0.00004538,-0.00186316,-0.00291218,-0.0005
 2973,-0.00533591,0.00593767,0.00294665,0.01404511,-0.00418877,-0.00359
 450,-0.03840000,-0.08460915,-0.10786060,0.16099174,0.00355553,0.570782
 85,0.00329422,-0.00121686,0.00032863,-0.00135274,0.00094052,-0.0036481
 4,0.00038578,-0.00015460,-0.00000105,-0.00015028,-0.00007513,-0.000232
 54,-0.00017865,0.00009682,0.00008126,0.00004742,0.00012998,-0.00008415
 ,-0.00022816,0.00040103,-0.00002828,0.00026585,-0.00048597,0.00078820,
 0.00079492,-0.00069545,0.00188746,0.00262188,-0.00873717,0.00610558,-0
 .03088664,0.00244105,-0.01415766,0.01952799,0.00041505,0.00120146,-0.0
 0075781,-0.00026451,-0.00000473,0.00018631,-0.00013623,-0.00004579,0.0
 0028599,-0.00003751,-0.00013242,-0.00009725,-0.00004640,0.00003807,0.0
 0000472,0.00003588,0.00000806,-0.00007874,-0.00006079,0.00027987,0.000
 00753,-0.00008943,-0.00001544,-0.00022667,0.00015520,0.00026631,-0.000
 55359,-0.00256071,-0.02522848,0.01612245,0.00355038,-0.21055899,0.1456
 3703,0.00049788,0.22710603,-0.00255228,-0.00181271,-0.00132751,0.00036
 594,-0.00012334,0.00069658,-0.00013202,0.00009273,0.00030773,0.0000679
 6,-0.00007301,-0.00001768,0.00008918,-0.00004981,-0.00002477,0.0000101
 4,-0.00007735,-0.00004241,0.00000249,0.00007995,-0.00005294,-0.0003835
 1,0.00014620,-0.00020866,0.00037526,0.00010811,-0.00079912,0.00092132,
 -0.00766297,0.01097035,-0.01389482,0.14528011,-0.17727349,0.01629707,-
 0.15603479,0.17964617,0.00332600,0.00049379,-0.00253370,0.00046927,-0.
 00163019,0.00349174,-0.00030276,-0.00015374,0.00028363,0.00015692,-0.0
 0011030,0.00002779,-0.00003191,0.00005018,-0.00003472,0.00001941,-0.00
 001785,-0.00001605,0.00045322,0.00047656,0.00006903,0.00008768,-0.0002
 2981,-0.00102879,-0.00104580,0.00115465,-0.00159133,-0.00094348,-0.004
 06659,-0.00804734,-0.06576223,-0.02213793,-0.10029395,0.00585842,-0.00
 145882,-0.00116673,0.05771527,-0.00038425,-0.00105509,0.00103584,-0.00
 016640,0.00004247,0.00007660,0.00013266,-0.00000587,0.00005007,-0.0000
 2516,-0.00005390,-0.00003764,-0.00003586,0.00001282,0.00003508,0.00001
 244,0.00002002,-0.00002090,-0.00029669,0.00015845,0.00005210,-0.000215
 15,-0.00000110,0.00031926,0.00098600,-0.00037646,0.00026279,-0.0129938
 5,-0.00778541,-0.02891937,-0.02150170,-0.05793650,-0.04409209,0.006857
 90,0.00708605,0.02012690,0.02763006,0.05989452,0.00065306,0.00239647,0
 .00109206,-0.00040374,0.00046686,-0.00102076,0.00010557,0.00007437,-0.
 00024204,-0.00002662,0.00006036,0.00004372,0.00001448,-0.00002196,0.00
 000376,-0.00000428,0.00000549,0.00004282,-0.00016437,-0.00026321,0.000
 02799,0.00014681,0.00017656,0.00030748,0.00023005,-0.00030362,0.000714
 14,-0.00384214,-0.00577916,-0.00250627,-0.10021285,-0.04342835,-0.2965
 7747,-0.00733638,-0.00449517,-0.01187424,0.11084040,0.05111136,0.30998
 880\\0.00000261,0.00000296,-0.00000065,0.00000026,-0.00000027,0.000000
 43,-0.00000043,-0.00000207,-0.00000042,-0.00000261,0.00000040,-0.00000
 014,0.00000047,-0.00000005,-0.00000022,-0.00000031,0.00000018,0.000000
 19,-0.00000379,-0.00002998,-0.00000704,0.00000332,0.00003168,0.0000060
 3,-0.00000324,-0.00000033,-0.00000219,0.00000228,-0.00000137,0.0000010
 7,0.00000170,-0.00000091,0.00000126,-0.00000033,0.00000030,0.00000094,
 0.00000007,-0.00000052,0.00000074\\\@


 ALMOST ALL THE CHEMICAL PROCESSES WHICH OCCUR IN NATURE,
 WHETHER IN ANIMAL OR VEGETABLE ORGANISMS,
 OR IN THE NON-LIVING SURFACE OF THE EARTH ... 
 TAKE PLACE BETWEEN SUBSTANCES IN SOLUTION

                                    -- W. OSTWALD, 1890
 Job cpu time:       1 days  0 hours 43 minutes 31.0 seconds.
 Elapsed time:       0 days  0 hours 38 minutes 18.8 seconds.
 File lengths (MBytes):  RWF=  41764 Int=      0 D2E=      0 Chk=     13 Scr=      1
 Normal termination of Gaussian 16 at Fri Jun  7 07:09:25 2019.
