 Entering Gaussian System, Link 0=g16
 Initial command:
 /ichec/packages/gaussian/16b01/l1.exe "/localscratch/347858/Gau-54705.inp" -scrdir="/localscratch/347858/"
 Entering Link 1 = /ichec/packages/gaussian/16b01/l1.exe PID=     54842.
  
 Copyright (c) 1988-2017, Gaussian, Inc.  All Rights Reserved.
  
 This is part of the Gaussian(R) 16 program.  It is based on
 the Gaussian(R) 09 system (copyright 2009, Gaussian, Inc.),
 the Gaussian(R) 03 system (copyright 2003, Gaussian, Inc.),
 the Gaussian(R) 98 system (copyright 1998, Gaussian, Inc.),
 the Gaussian(R) 94 system (copyright 1995, Gaussian, Inc.),
 the Gaussian 92(TM) system (copyright 1992, Gaussian, Inc.),
 the Gaussian 90(TM) system (copyright 1990, Gaussian, Inc.),
 the Gaussian 88(TM) system (copyright 1988, Gaussian, Inc.),
 the Gaussian 86(TM) system (copyright 1986, Carnegie Mellon
 University), and the Gaussian 82(TM) system (copyright 1983,
 Carnegie Mellon University). Gaussian is a federally registered
 trademark of Gaussian, Inc.
  
 This software contains proprietary and confidential information,
 including trade secrets, belonging to Gaussian, Inc.
  
 This software is provided under written license and may be
 used, copied, transmitted, or stored only in accord with that
 written license.
  
 The following legend is applicable only to US Government
 contracts under FAR:
  
                    RESTRICTED RIGHTS LEGEND
  
 Use, reproduction and disclosure by the US Government is
 subject to restrictions as set forth in subparagraphs (a)
 and (c) of the Commercial Computer Software - Restricted
 Rights clause in FAR 52.227-19.
  
 Gaussian, Inc.
 340 Quinnipiac St., Bldg. 40, Wallingford CT 06492
  
  
 ---------------------------------------------------------------
 Warning -- This program may not be used in any manner that
 competes with the business of Gaussian, Inc. or will provide
 assistance to any competitor of Gaussian, Inc.  The licensee
 of this program is prohibited from giving any competitor of
 Gaussian, Inc. access to this program.  By using this program,
 the user acknowledges that Gaussian, Inc. is engaged in the
 business of creating and licensing software in the field of
 computational chemistry and represents and warrants to the
 licensee that it is not a competitor of Gaussian, Inc. and that
 it will not use this program in any manner prohibited above.
 ---------------------------------------------------------------
  

 Cite this work as:
 Gaussian 16, Revision B.01,
 M. J. Frisch, G. W. Trucks, H. B. Schlegel, G. E. Scuseria, 
 M. A. Robb, J. R. Cheeseman, G. Scalmani, V. Barone, 
 G. A. Petersson, H. Nakatsuji, X. Li, M. Caricato, A. V. Marenich, 
 J. Bloino, B. G. Janesko, R. Gomperts, B. Mennucci, H. P. Hratchian, 
 J. V. Ortiz, A. F. Izmaylov, J. L. Sonnenberg, D. Williams-Young, 
 F. Ding, F. Lipparini, F. Egidi, J. Goings, B. Peng, A. Petrone, 
 T. Henderson, D. Ranasinghe, V. G. Zakrzewski, J. Gao, N. Rega, 
 G. Zheng, W. Liang, M. Hada, M. Ehara, K. Toyota, R. Fukuda, 
 J. Hasegawa, M. Ishida, T. Nakajima, Y. Honda, O. Kitao, H. Nakai, 
 T. Vreven, K. Throssell, J. A. Montgomery, Jr., J. E. Peralta, 
 F. Ogliaro, M. J. Bearpark, J. J. Heyd, E. N. Brothers, K. N. Kudin, 
 V. N. Staroverov, T. A. Keith, R. Kobayashi, J. Normand, 
 K. Raghavachari, A. P. Rendell, J. C. Burant, S. S. Iyengar, 
 J. Tomasi, M. Cossi, J. M. Millam, M. Klene, C. Adamo, R. Cammi, 
 J. W. Ochterski, R. L. Martin, K. Morokuma, O. Farkas, 
 J. B. Foresman, and D. J. Fox, Gaussian, Inc., Wallingford CT, 2016.
 
 ******************************************
 Gaussian 16:  ES64L-G16RevB.01 20-Dec-2017
                13-Jun-2019 
 ******************************************
 %mem=80GB
 %nproc=40
 Will use up to   40 processors via shared memory.
 ----------------------------------------------------------------------
 # opt=(calcfc,ts,noeigentest,maxcyc=500,modredundant) uB2PLYPD3/cc-pvt
 z scf=maxcyc=500 nosymm
 ----------------------------------------------------------------------
 1/5=1,6=500,10=4,11=1,18=120,38=1/1,3;
 2/9=110,12=2,15=1,17=6,18=5,40=1/2;
 3/5=16,6=1,11=2,25=1,30=1,71=2,74=-60,116=2,140=1/1,2,3;
 4//1;
 5/5=2,7=500,38=5/2;
 8/6=3,8=1,10=1,19=11,30=-1/1;
 9/15=3,16=-3/6;
 11/6=1,8=1,15=11,17=12,24=-1,27=1,28=-2,29=300,31=1,32=6,42=3/1,2,10;
 10/6=2,21=1,31=1/2;
 8/6=4,8=1,10=1,19=11,30=-1/11,4;
 10/5=1,20=4,31=1/2;
 11/12=2,14=11,16=1,17=2,28=-2,31=1,42=3,76=2/2,10,12;
 6/7=2,8=2,9=2,10=2/1;
 7/10=1,12=2,25=1,30=1,44=2/1,2,3,16;
 1/5=1,6=500,10=4,11=1,18=20/3(2);
 2/9=110,15=1/2;
 99//99;
 2/9=110,15=1/2;
 3/5=16,6=1,11=2,25=1,30=1,71=1,74=-60,116=2/1,2,3;
 4/5=5,16=3,69=1/1;
 5/5=2,7=500,38=5/2;
 8/6=4,10=1/1;
 9/15=2,16=-3/6;
 10/5=1,31=1/2;
 7/12=2,30=1/1,2,3,16;
 1/5=1,6=500,11=1,18=20/3(-8);
 2/9=110,15=1/2;
 6/7=2,8=2,9=2,10=2/1;
 99/9=10/99;
 -------------------
 Title Card Required
 -------------------
 Symbolic Z-matrix:
 Charge =  0 Multiplicity = 2
 C                    -1.76982   0.40609   0.38178 
 C                    -1.96847  -0.72685  -0.2418 
 H                    -2.90937  -1.26477  -0.16127 
 H                    -2.37948   1.0118    1.03502 
 H                    -1.19788  -1.16418  -0.86615 
 C                     1.70526  -0.7118    0.46709 
 H                     0.953    -0.99266   1.20539 
 H                     2.15019  -1.60351   0.03001 
 H                     2.47364  -0.09744   0.9327 
 O                     1.10807  -0.02277  -0.62308 
 O                     0.587     1.19364  -0.12014 
 H                    -0.4525    0.93918   0.1276 
 
 Add virtual bond connecting atoms H12        and C1         Dist= 2.73D+00.
 The following ModRedundant input section has been read:
 D    *          1      11    *    R                                           
 D       4       1      11      10 S  36 10.000                                
 

 GradGradGradGradGradGradGradGradGradGradGradGradGradGradGradGradGradGrad
 Berny optimization.
 Initialization pass.
                           ----------------------------
                           !    Initial Parameters    !
                           ! (Angstroms and Degrees)  !
 --------------------------                            --------------------------
 ! Name  Definition              Value          Derivative Info.                !
 --------------------------------------------------------------------------------
 ! R1    R(1,2)                  1.3084         calculate D2E/DX2 analytically  !
 ! R2    R(1,4)                  1.0795         calculate D2E/DX2 analytically  !
 ! R3    R(1,12)                 1.4437         calculate D2E/DX2 analytically  !
 ! R4    R(2,3)                  1.0868         calculate D2E/DX2 analytically  !
 ! R5    R(2,5)                  1.0839         calculate D2E/DX2 analytically  !
 ! R6    R(6,7)                  1.0908         calculate D2E/DX2 analytically  !
 ! R7    R(6,8)                  1.0882         calculate D2E/DX2 analytically  !
 ! R8    R(6,9)                  1.0884         calculate D2E/DX2 analytically  !
 ! R9    R(6,10)                 1.4212         calculate D2E/DX2 analytically  !
 ! R10   R(10,11)                1.4157         calculate D2E/DX2 analytically  !
 ! R11   R(11,12)                1.0985         calculate D2E/DX2 analytically  !
 ! A1    A(2,1,4)              133.5149         calculate D2E/DX2 analytically  !
 ! A2    A(2,1,12)             111.9855         calculate D2E/DX2 analytically  !
 ! A3    A(4,1,12)             114.4996         calculate D2E/DX2 analytically  !
 ! A4    A(1,2,3)              121.6488         calculate D2E/DX2 analytically  !
 ! A5    A(1,2,5)              121.062          calculate D2E/DX2 analytically  !
 ! A6    A(3,2,5)              117.2884         calculate D2E/DX2 analytically  !
 ! A7    A(7,6,8)              110.0503         calculate D2E/DX2 analytically  !
 ! A8    A(7,6,9)              110.0386         calculate D2E/DX2 analytically  !
 ! A9    A(7,6,10)             110.746          calculate D2E/DX2 analytically  !
 ! A10   A(8,6,9)              110.2255         calculate D2E/DX2 analytically  !
 ! A11   A(8,6,10)             105.1285         calculate D2E/DX2 analytically  !
 ! A12   A(9,6,10)             110.5562         calculate D2E/DX2 analytically  !
 ! A13   A(6,10,11)            107.3814         calculate D2E/DX2 analytically  !
 ! A14   A(10,11,12)           103.2603         calculate D2E/DX2 analytically  !
 ! A15   L(1,12,11,7,-1)       174.202          calculate D2E/DX2 analytically  !
 ! A16   L(1,12,11,7,-2)       173.511          calculate D2E/DX2 analytically  !
 ! D1    D(4,1,2,3)              0.0806         calculate D2E/DX2 analytically  !
 ! D2    D(4,1,2,5)            179.7516         calculate D2E/DX2 analytically  !
 ! D3    D(12,1,2,3)          -179.8928         calculate D2E/DX2 analytically  !
 ! D4    D(12,1,2,5)            -0.2218         calculate D2E/DX2 analytically  !
 ! D5    D(4,1,11,10)          163.376          Scan                            !
 ! D6    D(7,6,10,11)           64.8798         calculate D2E/DX2 analytically  !
 ! D7    D(8,6,10,11)         -176.292          calculate D2E/DX2 analytically  !
 ! D8    D(9,6,10,11)          -57.3539         calculate D2E/DX2 analytically  !
 ! D9    D(6,10,11,12)         -92.7028         calculate D2E/DX2 analytically  !
 --------------------------------------------------------------------------------
 Trust Radius=3.00D-01 FncErr=1.00D-07 GrdErr=1.00D-07 EigMax=2.50D+02 EigMin=1.00D-04
 Number of optimizations in scan=  37
 Number of steps in this run=    100 maximum allowed number of steps=    100.
 Search for a saddle point of order  1.
 GradGradGradGradGradGradGradGradGradGradGradGradGradGradGradGradGradGrad

                          Input orientation:                          
 ---------------------------------------------------------------------
 Center     Atomic      Atomic             Coordinates (Angstroms)
 Number     Number       Type             X           Y           Z
 ---------------------------------------------------------------------
      1          6           0       -1.769822    0.406086    0.381783
      2          6           0       -1.968465   -0.726850   -0.241802
      3          1           0       -2.909370   -1.264770   -0.161272
      4          1           0       -2.379475    1.011803    1.035020
      5          1           0       -1.197877   -1.164180   -0.866154
      6          6           0        1.705258   -0.711800    0.467093
      7          1           0        0.952999   -0.992660    1.205393
      8          1           0        2.150188   -1.603506    0.030010
      9          1           0        2.473638   -0.097438    0.932698
     10          8           0        1.108066   -0.022773   -0.623075
     11          8           0        0.587004    1.193644   -0.120143
     12          1           0       -0.452498    0.939175    0.127604
 ---------------------------------------------------------------------
                    Distance matrix (angstroms):
                    1          2          3          4          5
     1  C    0.000000
     2  C    1.308381   0.000000
     3  H    2.094096   1.086805   0.000000
     4  H    1.079485   2.195932   2.625774   0.000000
     5  H    2.085714   1.083918   1.853695   3.121784   0.000000
     6  C    3.651456   3.741524   4.689926   4.469719   3.226513
     7  H    3.169949   3.271082   4.106058   3.892593   2.991153
     8  H    4.419127   4.219681   5.074491   5.326137   3.493659
     9  H    4.308596   4.637660   5.615711   4.979316   4.225379
    10  O    3.078295   3.179015   4.230320   3.997821   2.584428
    11  O    2.535115   3.198987   4.274356   3.188646   3.049863
    12  H    1.443653   2.282599   3.313162   2.131178   2.442795
                    6          7          8          9         10
     6  C    0.000000
     7  H    1.090808   0.000000
     8  H    1.088184   1.785475   0.000000
     9  H    1.088410   1.785533   1.785415   0.000000
    10  O    1.421219   2.075577   2.002812   2.071423   0.000000
    11  O    2.286057   2.582813   3.207825   2.516894   1.415668
    12  H    2.738043   2.620885   3.639880   3.207026   1.980965
                   11         12
    11  O    0.000000
    12  H    1.098498   0.000000
 Symmetry turned off by external request.
 Stoichiometry    C3H7O2(2)
 Framework group  C1[X(C3H7O2)]
 Deg. of freedom    30
 Full point group                 C1      NOp   1
 Rotational constants (GHZ):           8.2663940           2.6966005           2.3250746
 Standard basis: CC-pVTZ (5D, 7F)
   248 basis functions,   379 primitive gaussians,   280 cartesian basis functions
    21 alpha electrons       20 beta electrons
       nuclear repulsion energy       174.0227443201 Hartrees.
 NAtoms=   12 NActive=   12 NUniq=   12 SFac= 1.00D+00 NAtFMM=   60 NAOKFM=F Big=F
 Integral buffers will be    131072 words long.
 Raffenetti 2 integral format.
 Two-electron integral symmetry is turned off.
 Nuclear repulsion after empirical dispersion term =      174.0175576125 Hartrees.
 One-electron integrals computed using PRISM.
 NBasis=   248 RedAO= T EigKep=  6.37D-04  NBF=   248
 NBsUse=   248 1.00D-06 EigRej= -1.00D+00 NBFU=   248
 ExpMin= 1.03D-01 ExpMax= 1.53D+04 ExpMxC= 5.22D+02 IAcc=3 IRadAn=         5 AccDes= 0.00D+00
 Harris functional with IExCor=  419 and IRadAn=       5 diagonalized for initial guess.
 HarFok:  IExCor=  419 AccDes= 0.00D+00 IRadAn=         5 IDoV= 1 UseB2=F ITyADJ=14
 ICtDFT=  3500011 ScaDFX=  1.000000  1.000000  1.000000  1.000000
 FoFCou: FMM=F IPFlag=           0 FMFlag=      100000 FMFlg1=           0
         NFxFlg=           0 DoJE=T BraDBF=F KetDBF=T FulRan=T
         wScrn=  0.000000 ICntrl=       500 IOpCl=  0 I1Cent=   200000004 NGrid=           0
         NMat0=    1 NMatS0=      1 NMatT0=    0 NMatD0=    1 NMtDS0=    0 NMtDT0=    0
 Symmetry not used in FoFCou.
 Initial guess <Sx>= 0.0000 <Sy>= 0.0000 <Sz>= 0.5000 <S**2>= 0.7500 S= 0.5000
 Keep R1 and R2 ints in memory in canonical form, NReq=997885436.
 Requested convergence on RMS density matrix=1.00D-08 within 500 cycles.
 Requested convergence on MAX density matrix=1.00D-06.
 Requested convergence on             energy=1.00D-06.
 No special actions if energy rises.
 Integral accuracy reduced to 1.0D-05 until final iterations.
 Initial convergence to 1.0D-05 achieved.  Increase integral accuracy.
 SCF Done:  E(UB2PLYPD3) =  -268.326337696     A.U. after   23 cycles
            NFock= 23  Conv=0.58D-08     -V/T= 2.0043
 <Sx>= 0.0000 <Sy>= 0.0000 <Sz>= 0.5000 <S**2>= 0.7803 S= 0.5150
 <L.S>=  0.00000000000    
 Annihilation of the first spin contaminant:
 S**2 before annihilation     0.7803,   after     0.7506
 DoSCS=T DFT=T ScalE2(SS,OS)=  0.270000  0.270000
 ExpMin= 1.03D-01 ExpMax= 1.53D+04 ExpMxC= 5.22D+02 IAcc=3 IRadAn=         5 AccDes= 0.00D+00
 HarFok:  IExCor=  205 AccDes= 0.00D+00 IRadAn=         5 IDoV=-2 UseB2=F ITyADJ=14
 ICtDFT= 12500011 ScaDFX=  1.000000  1.000000  1.000000  1.000000
 Range of M.O.s used for correlation:     6   248
 NBasis=   248 NAE=    21 NBE=    20 NFC=     5 NFV=     0
 NROrb=    243 NOA=    16 NOB=    15 NVA=   227 NVB=   228

 **** Warning!!: The largest alpha MO coefficient is  0.12020965D+02


 **** Warning!!: The largest beta MO coefficient is  0.12020874D+02

 DoSCS=T DFT=T ScalE2(SS,OS)=  0.270000  0.270000
 Disk-based method using ON**2 memory for 16 occupieds at a time.
 Permanent disk used for amplitudes=    32041050 words.
 Estimated scratch disk usage=   626291160 words.
 Actual    scratch disk usage=   605396440 words.
 JobTyp=2 Pass  1:  I=   6 to  21 NPSUse= 40 ParTrn=T ParDer=T DoDerP=T.
 (rs|ai) integrals will be sorted in core.
 Actual    scratch disk usage=   605396440 words.
 JobTyp=3 Pass  1:  I=   6 to  20 NPSUse= 40 ParTrn=T ParDer=T DoDerP=T.
 (rs|ai) integrals will be sorted in core.
 Spin components of T(2) and E(2):
     alpha-alpha T2 =       0.5464927342D-01 E2=     -0.4010282104D-01
     alpha-beta  T2 =       0.3394701034D+00 E2=     -0.2465359627D+00
     beta-beta   T2 =       0.5914958776D-01 E2=     -0.3886199757D-01
 (S**2,0)=  0.78032D+00           (S**2,1)=  0.75126D+00
 Scaling Projection term by:   0.270000
 E(PUHF)=      -0.26833265883D+03        E(PMP2)=      -0.26865273719D+03
 E2(B2PLYPD3) =    -0.3255007814D+00 E(B2PLYPD3) =    -0.26865183847754D+03
 G2DrvN: will do    13 centers at a time, making    1 passes.
 Calling FoFCou, ICntrl=  3107 FMM=F I1Cent=   0 AccDes= 0.00D+00.
 End of G2Drv F.D. properties file   721 does not exist.
 End of G2Drv F.D. properties file   722 does not exist.
 End of G2Drv F.D. properties file   788 does not exist.
          IDoAtm=111111111111
          Differentiating once with respect to electric field.
                with respect to dipole field.
          Differentiating once with respect to nuclear coordinates.
 Keep R1 and R2 ints in memory in canonical form, NReq=997757697.
          There are    39 degrees of freedom in the 1st order CPHF.  IDoFFX=6 NUNeed=    39.
     36 vectors produced by pass  0 Test12= 2.39D-14 2.56D-09 XBig12= 5.80D+01 4.04D+00.
 AX will form    36 AO Fock derivatives at one time.
     36 vectors produced by pass  1 Test12= 2.39D-14 2.56D-09 XBig12= 5.94D+00 2.91D-01.
     36 vectors produced by pass  2 Test12= 2.39D-14 2.56D-09 XBig12= 2.68D-01 9.24D-02.
     36 vectors produced by pass  3 Test12= 2.39D-14 2.56D-09 XBig12= 4.66D-03 9.79D-03.
     36 vectors produced by pass  4 Test12= 2.39D-14 2.56D-09 XBig12= 6.67D-05 1.06D-03.
     36 vectors produced by pass  5 Test12= 2.39D-14 2.56D-09 XBig12= 9.50D-07 1.14D-04.
     36 vectors produced by pass  6 Test12= 2.39D-14 2.56D-09 XBig12= 9.26D-09 8.93D-06.
     16 vectors produced by pass  7 Test12= 2.39D-14 2.56D-09 XBig12= 4.92D-11 5.87D-07.
      3 vectors produced by pass  8 Test12= 2.39D-14 2.56D-09 XBig12= 3.06D-13 5.80D-08.
      2 vectors produced by pass  9 Test12= 2.39D-14 2.56D-09 XBig12= 1.80D-15 4.18D-09.
 InvSVY:  IOpt=1 It=  1 EMax= 3.55D-15
 Solved reduced A of dimension   273 with    39 vectors.
 End of Minotr F.D. properties file   721 does not exist.
 End of Minotr F.D. properties file   722 does not exist.
 End of Minotr F.D. properties file   788 does not exist.
 MDV= 10737418240.
 DoSCS=T DFT=T ScalE2(SS,OS)=  0.270000  0.270000
 Form MO integral derivatives with frozen-active canonical formalism.
 Discarding MO integrals.
 Reordered first order wavefunction length =    129311421
 In DefCFB: NBatch=  1 ICI= 21 ICA=228 LFMax= 76
            Large arrays: LIAPS=  2590667520 LIARS=   656913600 words.
 In DefCFB: NBatch=  1 ICI= 21 ICA=228 LFMax= 76
            Large arrays: LIAPS=  2590667520 LIARS=   656913600 words.
 Semi-Direct transformation.
 ModeAB=           4 MOrb=            21 LenV=   10735501565
 LASXX=    151412541 LTotXX=   151412541 LenRXX=   305730789
 LTotAB=   154318248 MaxLAS=   197242584 LenRXY=           0
 NonZer=   457143330 LenScr=   688404480 LnRSAI=   197242584
 LnScr1=   297024512 LExtra=           0 Total=   1488402365
 MaxDsk=          -1 SrtSym=           T ITran=            4
 JobTyp=1 Pass  1:  I=   1 to  21.
 (rs|ai) integrals will be sorted in core.
 ModeAB=           4 MOrb=            20 LenV=   10735501565
 LASXX=    144598645 LTotXX=   144598645 LenRXX=   268036705
 LTotAB=   123438060 MaxLAS=   187850080 LenRXY=           0
 NonZer=   412635350 LenScr=   621380608 LnRSAI=   187850080
 LnScr1=   282881024 LExtra=           0 Total=   1360148417
 MaxDsk=          -1 SrtSym=           T ITran=            4
 JobTyp=2 Pass  1:  I=   1 to  20.
 (rs|ai) integrals will be sorted in core.
 DoSCS=T DFT=T ScalE2(SS,OS)=  0.270000  0.270000
 Spin components of T(2) and E(2):
     alpha-alpha T2 =       0.5464927342D-01 E2=     -0.4010282104D-01
     alpha-beta  T2 =       0.3394701034D+00 E2=     -0.2465359627D+00
     beta-beta   T2 =       0.5914958776D-01 E2=     -0.3886199757D-01
 E2(B2PLYPD3) =    -0.3255007814D+00 E(B2PLYPD3) =    -0.26865183847754D+03
 (S**2,0)=  0.78032D+00           (S**2,1)=  0.75126D+00
 Scaling Projection term by:   0.270000
 E(PUHF)=      -0.26833265883D+03        E(PMP2)=      -0.26865273719D+03
          IDoAtm=111111111111
          Differentiating once with respect to electric field.
                with respect to dipole field.
          Differentiating once with respect to nuclear coordinates.
 Keep R1 and R2 ints in memory in canonical form, NReq=997894532.
          There are     1 degrees of freedom in the 1st order CPHF.  IDoFFX=0 NUNeed=     1.
 LinEq1:  Iter=  0 NonCon=     1 RMS=1.18D-03 Max=6.61D-02 NDo=     1
 AX will form     1 AO Fock derivatives at one time.
 LinEq1:  Iter=  1 NonCon=     1 RMS=4.05D-04 Max=1.51D-02 NDo=     1
 LinEq1:  Iter=  2 NonCon=     1 RMS=2.57D-04 Max=1.13D-02 NDo=     1
 LinEq1:  Iter=  3 NonCon=     1 RMS=1.39D-04 Max=6.83D-03 NDo=     1
 LinEq1:  Iter=  4 NonCon=     1 RMS=9.47D-05 Max=4.00D-03 NDo=     1
 LinEq1:  Iter=  5 NonCon=     1 RMS=3.96D-05 Max=8.33D-04 NDo=     1
 LinEq1:  Iter=  6 NonCon=     1 RMS=2.94D-05 Max=8.22D-04 NDo=     1
 LinEq1:  Iter=  7 NonCon=     1 RMS=1.18D-05 Max=3.26D-04 NDo=     1
 LinEq1:  Iter=  8 NonCon=     1 RMS=7.88D-06 Max=2.08D-04 NDo=     1
 LinEq1:  Iter=  9 NonCon=     1 RMS=3.08D-06 Max=8.24D-05 NDo=     1
 LinEq1:  Iter= 10 NonCon=     1 RMS=8.57D-07 Max=1.32D-05 NDo=     1
 LinEq1:  Iter= 11 NonCon=     1 RMS=2.98D-07 Max=4.73D-06 NDo=     1
 LinEq1:  Iter= 12 NonCon=     1 RMS=1.45D-07 Max=2.19D-06 NDo=     1
 LinEq1:  Iter= 13 NonCon=     1 RMS=6.00D-08 Max=1.13D-06 NDo=     1
 LinEq1:  Iter= 14 NonCon=     1 RMS=1.84D-08 Max=3.40D-07 NDo=     1
 LinEq1:  Iter= 15 NonCon=     1 RMS=4.49D-09 Max=9.06D-08 NDo=     1
 LinEq1:  Iter= 16 NonCon=     1 RMS=1.46D-09 Max=3.36D-08 NDo=     1
 LinEq1:  Iter= 17 NonCon=     1 RMS=4.80D-10 Max=1.70D-08 NDo=     1
 LinEq1:  Iter= 18 NonCon=     1 RMS=1.39D-10 Max=5.24D-09 NDo=     1
 LinEq1:  Iter= 19 NonCon=     1 RMS=4.32D-11 Max=1.37D-09 NDo=     1
 LinEq1:  Iter= 20 NonCon=     0 RMS=1.30D-11 Max=2.46D-10 NDo=     1
 Linear equations converged to 1.000D-10 1.000D-09 after    20 iterations.
 End of Minotr F.D. properties file   721 does not exist.
 End of Minotr F.D. properties file   722 does not exist.
 End of Minotr F.D. properties file   788 does not exist.
 Symmetrizing basis deriv contribution to polar:
 IMax=3 JMax=2 DiffMx= 0.00D+00
 G2DrvN: will do    13 centers at a time, making    1 passes.
 Calling FoFCou, ICntrl=  3107 FMM=F I1Cent=   0 AccDes= 0.00D+00.
 End of G2Drv F.D. properties file   721 does not exist.
 End of G2Drv F.D. properties file   722 does not exist.
 End of G2Drv F.D. properties file   788 does not exist.
 DoSCS=T DFT=T ScalE2(SS,OS)=  0.270000  0.270000
 R2 and R3 integrals will be kept in memory, NReq=  1558768820.
 DD1Dir will call FoFMem   1 times, MxPair=      1240
 NAB=   420 NAA=   210 NBB=   190.
 Discarding MO integrals.

 **********************************************************************

            Population analysis using the SCF Density.

 **********************************************************************

 Alpha  occ. eigenvalues --  -19.78762 -19.78447 -10.66018 -10.65705 -10.63302
 Alpha  occ. eigenvalues --   -1.27423  -1.02719  -0.90556  -0.77834  -0.68904
 Alpha  occ. eigenvalues --   -0.62149  -0.56073  -0.54741  -0.54355  -0.51365
 Alpha  occ. eigenvalues --   -0.49046  -0.44052  -0.37776  -0.37271  -0.34738
 Alpha  occ. eigenvalues --   -0.31211
 Alpha virt. eigenvalues --    0.04591   0.08948   0.10167   0.11132   0.13366
 Alpha virt. eigenvalues --    0.14783   0.16329   0.16867   0.19668   0.25595
 Alpha virt. eigenvalues --    0.28194   0.29851   0.31691   0.34798   0.35354
 Alpha virt. eigenvalues --    0.37410   0.41750   0.43858   0.45618   0.46546
 Alpha virt. eigenvalues --    0.47530   0.50937   0.51072   0.51891   0.53137
 Alpha virt. eigenvalues --    0.53809   0.54823   0.57453   0.59255   0.61655
 Alpha virt. eigenvalues --    0.66963   0.67869   0.69713   0.70503   0.72544
 Alpha virt. eigenvalues --    0.74188   0.76022   0.79007   0.80476   0.87727
 Alpha virt. eigenvalues --    0.89104   0.94082   0.96391   0.98251   0.99234
 Alpha virt. eigenvalues --    1.02926   1.03902   1.05073   1.08447   1.09917
 Alpha virt. eigenvalues --    1.11362   1.12520   1.13872   1.17338   1.20118
 Alpha virt. eigenvalues --    1.20989   1.23954   1.26085   1.30437   1.32353
 Alpha virt. eigenvalues --    1.35634   1.37688   1.38827   1.39665   1.42421
 Alpha virt. eigenvalues --    1.45286   1.48672   1.49622   1.51054   1.58635
 Alpha virt. eigenvalues --    1.63027   1.64949   1.74334   1.76843   1.79167
 Alpha virt. eigenvalues --    1.90923   1.93637   1.98847   2.03036   2.11856
 Alpha virt. eigenvalues --    2.16432   2.17204   2.20440   2.24865   2.28159
 Alpha virt. eigenvalues --    2.33270   2.35784   2.37600   2.40519   2.42559
 Alpha virt. eigenvalues --    2.49752   2.52309   2.53592   2.56667   2.63608
 Alpha virt. eigenvalues --    2.68712   2.71868   2.78710   2.83374   2.85895
 Alpha virt. eigenvalues --    2.87734   2.90539   2.91157   2.92183   2.93043
 Alpha virt. eigenvalues --    2.96124   2.97473   2.99188   2.99681   3.01329
 Alpha virt. eigenvalues --    3.04680   3.06950   3.11802   3.13081   3.14144
 Alpha virt. eigenvalues --    3.17056   3.18652   3.19943   3.21333   3.23698
 Alpha virt. eigenvalues --    3.25855   3.28655   3.31771   3.34689   3.35262
 Alpha virt. eigenvalues --    3.40608   3.42555   3.43045   3.44505   3.50713
 Alpha virt. eigenvalues --    3.53432   3.56285   3.58702   3.59284   3.61749
 Alpha virt. eigenvalues --    3.64743   3.66594   3.67641   3.71995   3.75211
 Alpha virt. eigenvalues --    3.77651   3.81955   3.87115   3.87576   3.89499
 Alpha virt. eigenvalues --    3.92530   3.96035   3.96513   3.97930   4.00128
 Alpha virt. eigenvalues --    4.01235   4.02907   4.07476   4.10350   4.12558
 Alpha virt. eigenvalues --    4.14357   4.16235   4.18761   4.19394   4.24685
 Alpha virt. eigenvalues --    4.26190   4.33302   4.34683   4.38228   4.40766
 Alpha virt. eigenvalues --    4.44326   4.49273   4.53021   4.59956   4.65428
 Alpha virt. eigenvalues --    4.68356   4.71669   4.78816   4.81556   4.84513
 Alpha virt. eigenvalues --    4.90383   4.91335   4.95109   5.00118   5.00780
 Alpha virt. eigenvalues --    5.03316   5.03867   5.05905   5.06420   5.17776
 Alpha virt. eigenvalues --    5.25542   5.28019   5.30886   5.32278   5.33678
 Alpha virt. eigenvalues --    5.35317   5.37413   5.39719   5.40461   5.40869
 Alpha virt. eigenvalues --    5.46793   5.68075   5.72398   5.80761   5.91821
 Alpha virt. eigenvalues --    5.94613   5.98316   6.05759   6.08557   6.14289
 Alpha virt. eigenvalues --    6.25081   6.31062   6.36789   6.39217   6.58087
 Alpha virt. eigenvalues --    6.65254   6.76219   6.79569   6.84764   6.97085
 Alpha virt. eigenvalues --    7.05234   7.06150   7.20993   7.39653   7.41912
 Alpha virt. eigenvalues --    7.60259   7.80363   9.96634  10.54298  10.91087
 Alpha virt. eigenvalues --   13.44227  14.29186
  Beta  occ. eigenvalues --  -19.78646 -19.77149 -10.66024 -10.64090 -10.63552
  Beta  occ. eigenvalues --   -1.25862  -1.00373  -0.88442  -0.77507  -0.66021
  Beta  occ. eigenvalues --   -0.58920  -0.55144  -0.54242  -0.53195  -0.49756
  Beta  occ. eigenvalues --   -0.46161  -0.43429  -0.36279  -0.34337  -0.33871
  Beta virt. eigenvalues --   -0.05676   0.05513   0.09027   0.10514   0.11478
  Beta virt. eigenvalues --    0.13932   0.14892   0.16417   0.17071   0.20238
  Beta virt. eigenvalues --    0.26162   0.28583   0.30675   0.31782   0.35360
  Beta virt. eigenvalues --    0.35982   0.38197   0.42317   0.44226   0.46315
  Beta virt. eigenvalues --    0.47373   0.48551   0.51050   0.51681   0.52323
  Beta virt. eigenvalues --    0.53376   0.54137   0.55842   0.59434   0.60591
  Beta virt. eigenvalues --    0.61792   0.67945   0.68336   0.70250   0.71032
  Beta virt. eigenvalues --    0.73079   0.74797   0.76586   0.79456   0.80905
  Beta virt. eigenvalues --    0.88039   0.89596   0.94571   0.96551   0.98997
  Beta virt. eigenvalues --    0.99677   1.03094   1.04330   1.05225   1.08692
  Beta virt. eigenvalues --    1.10344   1.11809   1.12990   1.14079   1.17641
  Beta virt. eigenvalues --    1.20390   1.22068   1.24501   1.26390   1.30807
  Beta virt. eigenvalues --    1.33036   1.36051   1.37860   1.39102   1.39780
  Beta virt. eigenvalues --    1.43082   1.45910   1.49292   1.50592   1.51613
  Beta virt. eigenvalues --    1.58880   1.63142   1.65163   1.76030   1.77556
  Beta virt. eigenvalues --    1.79400   1.92234   1.95594   1.99307   2.03760
  Beta virt. eigenvalues --    2.12154   2.17369   2.18427   2.20729   2.25927
  Beta virt. eigenvalues --    2.28893   2.33748   2.36236   2.37859   2.41415
  Beta virt. eigenvalues --    2.43271   2.49878   2.52749   2.54954   2.57496
  Beta virt. eigenvalues --    2.63789   2.69374   2.72582   2.79832   2.83628
  Beta virt. eigenvalues --    2.86886   2.88617   2.90933   2.91533   2.92555
  Beta virt. eigenvalues --    2.93700   2.96813   2.97972   3.00262   3.00631
  Beta virt. eigenvalues --    3.02074   3.04744   3.07801   3.11895   3.13300
  Beta virt. eigenvalues --    3.14513   3.17421   3.19691   3.20334   3.21826
  Beta virt. eigenvalues --    3.24511   3.27579   3.29510   3.33227   3.36232
  Beta virt. eigenvalues --    3.37072   3.40539   3.42829   3.43757   3.45031
  Beta virt. eigenvalues --    3.50769   3.53519   3.56423   3.58803   3.59553
  Beta virt. eigenvalues --    3.62416   3.64892   3.67016   3.68523   3.72649
  Beta virt. eigenvalues --    3.75715   3.77793   3.82783   3.87217   3.87769
  Beta virt. eigenvalues --    3.89332   3.92899   3.96431   3.96974   3.98506
  Beta virt. eigenvalues --    4.00564   4.01447   4.03706   4.07663   4.10829
  Beta virt. eigenvalues --    4.12648   4.14614   4.16439   4.19053   4.19530
  Beta virt. eigenvalues --    4.25035   4.26576   4.34014   4.35378   4.38872
  Beta virt. eigenvalues --    4.41157   4.44979   4.49532   4.54010   4.61044
  Beta virt. eigenvalues --    4.65949   4.68766   4.72421   4.79475   4.81677
  Beta virt. eigenvalues --    4.85077   4.91004   4.92079   4.95280   5.00360
  Beta virt. eigenvalues --    5.01272   5.03504   5.04066   5.06176   5.07024
  Beta virt. eigenvalues --    5.18666   5.26666   5.28588   5.31216   5.32519
  Beta virt. eigenvalues --    5.34252   5.35593   5.37728   5.40373   5.40848
  Beta virt. eigenvalues --    5.41445   5.47041   5.68666   5.74302   5.81220
  Beta virt. eigenvalues --    5.92049   5.95193   5.98595   6.06650   6.08936
  Beta virt. eigenvalues --    6.15253   6.25608   6.31802   6.37636   6.40893
  Beta virt. eigenvalues --    6.59032   6.66534   6.78408   6.80617   6.85797
  Beta virt. eigenvalues --    6.98460   7.05714   7.07366   7.22647   7.41393
  Beta virt. eigenvalues --    7.42250   7.62062   7.80849   9.97119  10.55240
  Beta virt. eigenvalues --   10.91959  13.44227  14.29571
          Condensed to atoms (all electrons):
               1          2          3          4          5          6
     1  C    5.194352   0.626218  -0.047622   0.395587  -0.050010  -0.004145
     2  C    0.626218   4.883559   0.402565  -0.043343   0.403354  -0.001170
     3  H   -0.047622   0.402565   0.541486  -0.005724  -0.032580  -0.000064
     4  H    0.395587  -0.043343  -0.005724   0.492029   0.004553   0.000072
     5  H   -0.050010   0.403354  -0.032580   0.004553   0.503214  -0.001905
     6  C   -0.004145  -0.001170  -0.000064   0.000072  -0.001905   4.611035
     7  H    0.003880   0.000078  -0.000079  -0.000240  -0.002077   0.395929
     8  H    0.000329  -0.000103  -0.000007  -0.000007  -0.000254   0.394224
     9  H   -0.000453   0.000266   0.000008   0.000001   0.000576   0.413875
    10  O   -0.001801  -0.000900   0.000290   0.000198   0.014794   0.296435
    11  O   -0.069122  -0.001006  -0.000232   0.001063  -0.001159  -0.042923
    12  H    0.165383  -0.005654   0.001604  -0.007012  -0.002674   0.003512
               7          8          9         10         11         12
     1  C    0.003880   0.000329  -0.000453  -0.001801  -0.069122   0.165383
     2  C    0.000078  -0.000103   0.000266  -0.000900  -0.001006  -0.005654
     3  H   -0.000079  -0.000007   0.000008   0.000290  -0.000232   0.001604
     4  H   -0.000240  -0.000007   0.000001   0.000198   0.001063  -0.007012
     5  H   -0.002077  -0.000254   0.000576   0.014794  -0.001159  -0.002674
     6  C    0.395929   0.394224   0.413875   0.296435  -0.042923   0.003512
     7  H    0.666896  -0.035567  -0.055586  -0.049950  -0.002673   0.004774
     8  H   -0.035567   0.594378  -0.026795  -0.027122   0.006917  -0.000852
     9  H   -0.055586  -0.026795   0.601441  -0.035967   0.004002  -0.000024
    10  O   -0.049950  -0.027122  -0.035967   7.955760   0.072274  -0.029812
    11  O   -0.002673   0.006917   0.004002   0.072274   8.008174   0.252089
    12  H    0.004774  -0.000852  -0.000024  -0.029812   0.252089   0.391206
          Atomic-Atomic Spin Densities.
               1          2          3          4          5          6
     1  C    0.862010  -0.024591  -0.017466   0.002530  -0.006399   0.000454
     2  C   -0.024591  -0.171004   0.010443   0.000168   0.010868  -0.000126
     3  H   -0.017466   0.010443   0.082760  -0.004923  -0.010187   0.000051
     4  H    0.002530   0.000168  -0.004923   0.023048   0.001138  -0.000028
     5  H   -0.006399   0.010868  -0.010187   0.001138   0.033662  -0.000326
     6  C    0.000454  -0.000126   0.000051  -0.000028  -0.000326  -0.003981
     7  H   -0.003686   0.000279  -0.000232   0.000311   0.001057   0.004004
     8  H    0.000138  -0.000037   0.000010  -0.000004  -0.000103   0.000328
     9  H    0.000976  -0.000109   0.000016  -0.000047  -0.000162  -0.002110
    10  O    0.011883  -0.001530   0.000348  -0.000401  -0.003966   0.000031
    11  O   -0.082229   0.005061  -0.000677   0.003474   0.002698  -0.001576
    12  H    0.042752  -0.000042   0.000549  -0.000307  -0.000002   0.000882
               7          8          9         10         11         12
     1  C   -0.003686   0.000138   0.000976   0.011883  -0.082229   0.042752
     2  C    0.000279  -0.000037  -0.000109  -0.001530   0.005061  -0.000042
     3  H   -0.000232   0.000010   0.000016   0.000348  -0.000677   0.000549
     4  H    0.000311  -0.000004  -0.000047  -0.000401   0.003474  -0.000307
     5  H    0.001057  -0.000103  -0.000162  -0.003966   0.002698  -0.000002
     6  C    0.004004   0.000328  -0.002110   0.000031  -0.001576   0.000882
     7  H   -0.000216  -0.000710  -0.000492  -0.000532   0.002805  -0.002725
     8  H   -0.000710  -0.001207   0.000924   0.000156  -0.000182   0.000088
     9  H   -0.000492   0.000924   0.002120  -0.000298  -0.000313   0.001080
    10  O   -0.000532   0.000156  -0.000298   0.039216  -0.032377   0.007715
    11  O    0.002805  -0.000182  -0.000313  -0.032377   0.457549  -0.026910
    12  H   -0.002725   0.000088   0.001080   0.007715  -0.026910  -0.098792
 Mulliken charges and spin densities:
               1          2
     1  C   -0.212596   0.786372
     2  C   -0.263864  -0.170618
     3  H    0.140356   0.060693
     4  H    0.162824   0.024960
     5  H    0.164168   0.028279
     6  C   -0.064875  -0.002395
     7  H    0.074616  -0.000137
     8  H    0.094858  -0.000598
     9  H    0.098655   0.001585
    10  O   -0.194200   0.020245
    11  O   -0.227403   0.327324
    12  H    0.227461  -0.075710
 Sum of Mulliken charges =  -0.00000   1.00000
 Mulliken charges and spin densities with hydrogens summed into heavy atoms:
               1          2
     1  C   -0.049772   0.811332
     2  C    0.040659  -0.081646
     6  C    0.203255  -0.001545
    10  O   -0.194200   0.020245
    11  O    0.000057   0.251614
 APT charges:
               1
     1  C    0.262070
     2  C   -0.227695
     3  H    0.068750
     4  H    0.031135
     5  H    0.093620
     6  C    0.424713
     7  H   -0.036489
     8  H   -0.004924
     9  H   -0.028800
    10  O   -0.369910
    11  O    0.052086
    12  H   -0.264556
 Sum of APT charges =  -0.00000
 APT charges with hydrogens summed into heavy atoms:
               1
     1  C    0.293205
     2  C   -0.065325
     6  C    0.354500
    10  O   -0.369910
    11  O   -0.212470
 Electronic spatial extent (au):  <R**2>=            554.1964
 Charge=             -0.0000 electrons
 Dipole moment (field-independent basis, Debye):
    X=             -1.2992    Y=             -1.7771    Z=              1.5402  Tot=              2.6867
 Quadrupole moment (field-independent basis, Debye-Ang):
   XX=            -26.2985   YY=            -31.1046   ZZ=            -32.5771
   XY=             -2.2440   XZ=              0.4933   YZ=              1.8242
 Traceless Quadrupole moment (field-independent basis, Debye-Ang):
   XX=              3.6949   YY=             -1.1112   ZZ=             -2.5837
   XY=             -2.2440   XZ=              0.4933   YZ=              1.8242
 Octapole moment (field-independent basis, Debye-Ang**2):
  XXX=              4.4066  YYY=              0.2502  ZZZ=             -1.6894  XYY=             -0.0139
  XXY=             -3.3768  XXZ=              5.4779  XZZ=              2.3993  YZZ=              1.4516
  YYZ=             -0.6921  XYZ=             -3.2296
 Hexadecapole moment (field-independent basis, Debye-Ang**3):
 XXXX=           -469.1470 YYYY=           -151.3372 ZZZZ=            -77.1460 XXXY=              5.9552
 XXXZ=             -9.2402 YYYX=             -3.4489 YYYZ=              4.2320 ZZZX=             -3.2110
 ZZZY=              1.3791 XXYY=            -98.2828 XXZZ=            -98.2803 YYZZ=            -37.0401
 XXYZ=              8.0508 YYXZ=             -2.8488 ZZXY=             -1.9727
 N-N= 1.740175576125D+02 E-N=-9.774389109731D+02  KE= 2.671822690082D+02
  Exact polarizability:  77.756   2.410  51.788  -2.490   5.687  38.843
 Approx polarizability:  62.714   1.810  62.633  -3.880   8.870  46.755
                          Isotropic Fermi Contact Couplings
        Atom                 a.u.       MegaHertz       Gauss      10(-4) cm-1
     1  C(13)              0.18942     212.94984      75.98580      71.03242
     2  C(13)              0.00231       2.59560       0.92618       0.86580
     3  H(1)               0.02878     128.64112      45.90235      42.91006
     4  H(1)               0.01364      60.95769      21.75122      20.33330
     5  H(1)               0.01615      72.19081      25.75948      24.08026
     6  C(13)             -0.00277      -3.11587      -1.11182      -1.03934
     7  H(1)               0.00203       9.08440       3.24154       3.03023
     8  H(1)              -0.00004      -0.19871      -0.07090      -0.06628
     9  H(1)               0.00043       1.90951       0.68136       0.63694
    10  O(17)              0.01361      -8.25028      -2.94391      -2.75200
    11  O(17)              0.02083     -12.62761      -4.50585      -4.21212
    12  H(1)              -0.02642    -118.08419     -42.13538     -39.38865
 --------------------------------------------------------
       Center         ----  Spin Dipole Couplings  ----
                      3XX-RR        3YY-RR        3ZZ-RR
 --------------------------------------------------------
     1   Atom        0.551421     -0.206173     -0.345249
     2   Atom        0.001338      0.031269     -0.032608
     3   Atom        0.003523      0.002453     -0.005976
     4   Atom       -0.000084      0.008150     -0.008066
     5   Atom       -0.006678      0.007807     -0.001129
     6   Atom        0.001931      0.000453     -0.002384
     7   Atom        0.000421      0.001436     -0.001857
     8   Atom        0.001086      0.002082     -0.003168
     9   Atom        0.003795     -0.002039     -0.001755
    10   Atom        0.294551     -0.165933     -0.128618
    11   Atom        1.021854     -0.350462     -0.671392
    12   Atom        0.200434     -0.094599     -0.105834
 --------------------------------------------------------
                        XY            XZ            YZ
 --------------------------------------------------------
     1   Atom        0.407198     -0.154385     -0.087159
     2   Atom        0.036105     -0.005902      0.040587
     3   Atom        0.007835      0.000153      0.002931
     4   Atom       -0.012416     -0.027840      0.038621
     5   Atom       -0.002825     -0.003224      0.013049
     6   Atom       -0.006521      0.000870     -0.003469
     7   Atom       -0.004293      0.002508     -0.005427
     8   Atom       -0.004027      0.000500     -0.000885
     9   Atom       -0.003858      0.003959     -0.002054
    10   Atom        0.122923     -0.130446     -0.063103
    11   Atom        0.837535     -0.370678     -0.170633
    12   Atom        0.088571     -0.073305     -0.020009
 --------------------------------------------------------


 ---------------------------------------------------------------------------------
              Anisotropic Spin Dipole Couplings in Principal Axis System
 ---------------------------------------------------------------------------------

       Atom             a.u.   MegaHertz   Gauss  10(-4) cm-1        Axes

              Baa    -0.3972   -53.303   -19.020   -17.780 -0.2323  0.7676  0.5974
     1 C(13)  Bbb    -0.3598   -48.278   -17.227   -16.104  0.3582 -0.5035  0.7862
              Bcc     0.7570   101.581    36.247    33.884  0.9043  0.3966 -0.1580
 
              Baa    -0.0606    -8.127    -2.900    -2.711  0.3626 -0.4923  0.7913
     2 C(13)  Bbb    -0.0052    -0.693    -0.247    -0.231  0.8210 -0.2330 -0.5212
              Bcc     0.0657     8.820     3.147     2.942  0.4410  0.8387  0.3197
 
              Baa    -0.0077    -4.102    -1.464    -1.368  0.3306 -0.4888  0.8073
     3 H(1)   Bbb    -0.0034    -1.824    -0.651    -0.608  0.6170 -0.5354 -0.5768
              Bcc     0.0111     5.926     2.114     1.977  0.7142  0.6888  0.1246
 
              Baa    -0.0447   -23.862    -8.514    -7.959  0.3565 -0.4951  0.7924
     4 H(1)   Bbb    -0.0090    -4.827    -1.723    -1.610  0.8112  0.5847  0.0004
              Bcc     0.0538    28.689    10.237     9.570 -0.4635  0.6426  0.6101
 
              Baa    -0.0107    -5.727    -2.044    -1.910  0.2746 -0.5251  0.8055
     5 H(1)   Bbb    -0.0071    -3.793    -1.353    -1.265  0.9468  0.2940 -0.1311
              Bcc     0.0178     9.520     3.397     3.176 -0.1680  0.7986  0.5779
 
              Baa    -0.0065    -0.874    -0.312    -0.292  0.4993  0.7125  0.4930
     6 C(13)  Bbb    -0.0021    -0.276    -0.099    -0.092 -0.5206 -0.2081  0.8280
              Bcc     0.0086     1.151     0.411     0.384  0.6926 -0.6701  0.2670
 
              Baa    -0.0060    -3.175    -1.133    -1.059  0.1270  0.6341  0.7627
     7 H(1)   Bbb    -0.0025    -1.357    -0.484    -0.453  0.8428  0.3365 -0.4201
              Bcc     0.0085     4.532     1.617     1.512 -0.5230  0.6962 -0.4917
 
              Baa    -0.0033    -1.777    -0.634    -0.593  0.1073  0.2377  0.9654
     8 H(1)   Bbb    -0.0024    -1.293    -0.461    -0.431  0.7471  0.6214 -0.2361
              Bcc     0.0058     3.069     1.095     1.024 -0.6560  0.7465 -0.1108
 
              Baa    -0.0040    -2.128    -0.759    -0.710  0.2542  0.8933  0.3706
     9 H(1)   Bbb    -0.0038    -2.031    -0.725    -0.678 -0.5284 -0.1927  0.8268
              Bcc     0.0078     4.160     1.484     1.388  0.8100 -0.4061  0.4230
 
              Baa    -0.2146    15.529     5.541     5.180 -0.0747  0.8546  0.5138
    10 O(17)  Bbb    -0.1515    10.963     3.912     3.657  0.3633 -0.4565  0.8121
              Bcc     0.3661   -26.492    -9.453    -8.837  0.9287  0.2473 -0.2764
 
              Baa    -0.7520    54.415    19.416    18.151  0.4068 -0.5334  0.7417
    11 O(17)  Bbb    -0.7433    53.781    19.191    17.940 -0.2129  0.7341  0.6447
              Bcc     1.4953  -108.196   -38.607   -36.090  0.8883  0.4202 -0.1851
 
              Baa    -0.1225   -65.349   -23.318   -21.798  0.2282 -0.0267  0.9732
    12 H(1)   Bbb    -0.1191   -63.557   -22.679   -21.200 -0.2481  0.9650  0.0846
              Bcc     0.2416   128.906    45.997    42.998  0.9415  0.2607 -0.2137
 

 ---------------------------------------------------------------------------------

 Calling FoFJK, ICntrl=  10100127 FMM=F ISym2X=0 I1Cent= 0 IOpClX= 1 NMat=1 NMatS=1 NMatT=0.
 -------------------------------------------------------------------
 Center     Atomic                   Forces (Hartrees/Bohr)
 Number     Number              X              Y              Z
 -------------------------------------------------------------------
      1        6          -0.000001891   -0.000005520   -0.000003065
      2        6          -0.000002684    0.000003479    0.000000119
      3        1          -0.000000944    0.000000923   -0.000000879
      4        1           0.000001015   -0.000000182    0.000001732
      5        1          -0.000001107    0.000000399   -0.000000332
      6        6          -0.000000976    0.000000205   -0.000001502
      7        1           0.000002001   -0.000000095   -0.000000353
      8        1          -0.000000040    0.000000258   -0.000000127
      9        1           0.000000350   -0.000000134    0.000000044
     10        8          -0.000001019    0.000017924    0.000011902
     11        8          -0.000000296   -0.000021543   -0.000011295
     12        1           0.000005589    0.000004285    0.000003755
 -------------------------------------------------------------------
 Cartesian Forces:  Max     0.000021543 RMS     0.000005768
 FormGI is forming the generalized inverse of G from B-inverse, IUseBI=4.

 GradGradGradGradGradGradGradGradGradGradGradGradGradGradGradGradGradGrad
 Berny optimization.
 Internal  Forces:  Max     0.000020650 RMS     0.000006667
 Search for a saddle point.
 Step number   1 out of a maximum of  100 on scan point     1 out of    37
 All quantities printed in internal units (Hartrees-Bohrs-Radians)
 Swapping is turned off.
 Second derivative matrix not updated -- analytic derivatives used.
 ITU=  0
     Eigenvalues ---   -0.05220   0.00688   0.01309   0.01621   0.02341
     Eigenvalues ---    0.03649   0.04308   0.04636   0.04937   0.07875
     Eigenvalues ---    0.08479   0.08561   0.09853   0.11303   0.13177
     Eigenvalues ---    0.16594   0.18352   0.19395   0.21734   0.27777
     Eigenvalues ---    0.32310   0.33642   0.34463   0.34638   0.35554
     Eigenvalues ---    0.35631   0.36532   0.40776   0.668841000.00000
     Eigenvalues --- 1000.000001000.000001000.000001000.000001000.00000
     Eigenvalues --- 1000.00000
 Eigenvectors required to have negative eigenvalues:
                          R3        R11       A1        R10       A2
   1                    0.80626  -0.52891   0.14813   0.14036  -0.10097
                          A14       D9        A3        A15       A13
   1                   -0.07344  -0.06437  -0.04717   0.03800  -0.03468
 RFO step:  Lambda0=3.172469232D-12 Lambda=-1.36975703D-08.
 Linear search not attempted -- option 19 set.
 Iteration  1 RMS(Cart)=  0.00050086 RMS(Int)=  0.00000005
 Iteration  2 RMS(Cart)=  0.00000009 RMS(Int)=  0.00000000
 Iteration  1 RMS(Cart)=  0.00000000 RMS(Int)=  0.00000000
 Variable       Old X    -DE/DX   Delta X   Delta X   Delta X     New X
                                 (Linear)    (Quad)   (Total)
    R1        2.47248  -0.00000   0.00000  -0.00000  -0.00000   2.47248
    R2        2.03993   0.00000   0.00000   0.00000   0.00000   2.03993
    R3        2.72811   0.00001   0.00000   0.00000   0.00000   2.72811
    R4        2.05376   0.00000   0.00000   0.00000   0.00000   2.05376
    R5        2.04831  -0.00000   0.00000  -0.00000  -0.00000   2.04831
    R6        2.06133  -0.00000   0.00000  -0.00000  -0.00000   2.06133
    R7        2.05637  -0.00000   0.00000  -0.00000  -0.00000   2.05637
    R8        2.05680   0.00000   0.00000   0.00000   0.00000   2.05680
    R9        2.68571  -0.00000   0.00000  -0.00001  -0.00001   2.68571
   R10        2.67523  -0.00002   0.00000  -0.00008  -0.00008   2.67514
   R11        2.07586  -0.00000   0.00000  -0.00001  -0.00001   2.07585
    A1        2.33028  -0.00000   0.00000  -0.00002  -0.00002   2.33026
    A2        1.95452   0.00001   0.00000   0.00011   0.00011   1.95462
    A3        1.99839  -0.00001   0.00000  -0.00009  -0.00009   1.99830
    A4        2.12317  -0.00000   0.00000  -0.00001  -0.00001   2.12316
    A5        2.11293   0.00000   0.00000   0.00002   0.00002   2.11295
    A6        2.04707  -0.00000   0.00000  -0.00001  -0.00001   2.04706
    A7        1.92074  -0.00000   0.00000  -0.00000  -0.00000   1.92074
    A8        1.92054  -0.00000   0.00000  -0.00001  -0.00001   1.92053
    A9        1.93288   0.00000   0.00000   0.00001   0.00001   1.93289
   A10        1.92380  -0.00000   0.00000  -0.00000  -0.00000   1.92380
   A11        1.83484  -0.00000   0.00000   0.00001   0.00001   1.83484
   A12        1.92957  -0.00000   0.00000  -0.00000  -0.00000   1.92957
   A13        1.87416   0.00000   0.00000   0.00002   0.00002   1.87418
   A14        1.80223   0.00002   0.00000   0.00007   0.00007   1.80230
   A15        3.04040   0.00002   0.00000   0.00037   0.00037   3.04077
   A16        3.02834   0.00000   0.00000  -0.00011  -0.00011   3.02823
    D1        0.00141  -0.00000   0.00000  -0.00014  -0.00014   0.00127
    D2        3.13726  -0.00000   0.00000  -0.00013  -0.00013   3.13713
    D3       -3.13972   0.00001   0.00000   0.00015   0.00015  -3.13957
    D4       -0.00387   0.00000   0.00000   0.00016   0.00016  -0.00371
    D5        2.85145  -0.00001   0.00000   0.00000   0.00000   2.85145
    D6        1.13237  -0.00000   0.00000  -0.00003  -0.00003   1.13233
    D7       -3.07688   0.00000   0.00000  -0.00003  -0.00003  -3.07691
    D8       -1.00101  -0.00000   0.00000  -0.00003  -0.00003  -1.00104
    D9       -1.61797  -0.00001   0.00000  -0.00002  -0.00002  -1.61798
         Item               Value     Threshold  Converged?
 Maximum Force            0.000021     0.000450     YES
 RMS     Force            0.000006     0.000300     YES
 Maximum Displacement     0.001249     0.001800     YES
 RMS     Displacement     0.000501     0.001200     YES
 Predicted change in Energy=-6.847199D-09
 Optimization completed.
    -- Stationary point found.
                           ----------------------------
                           !   Optimized Parameters   !
                           ! (Angstroms and Degrees)  !
 --------------------------                            --------------------------
 ! Name  Definition              Value          Derivative Info.                !
 --------------------------------------------------------------------------------
 ! R1    R(1,2)                  1.3084         -DE/DX =    0.0                 !
 ! R2    R(1,4)                  1.0795         -DE/DX =    0.0                 !
 ! R3    R(1,12)                 1.4437         -DE/DX =    0.0                 !
 ! R4    R(2,3)                  1.0868         -DE/DX =    0.0                 !
 ! R5    R(2,5)                  1.0839         -DE/DX =    0.0                 !
 ! R6    R(6,7)                  1.0908         -DE/DX =    0.0                 !
 ! R7    R(6,8)                  1.0882         -DE/DX =    0.0                 !
 ! R8    R(6,9)                  1.0884         -DE/DX =    0.0                 !
 ! R9    R(6,10)                 1.4212         -DE/DX =    0.0                 !
 ! R10   R(10,11)                1.4157         -DE/DX =    0.0                 !
 ! R11   R(11,12)                1.0985         -DE/DX =    0.0                 !
 ! A1    A(2,1,4)              133.5149         -DE/DX =    0.0                 !
 ! A2    A(2,1,12)             111.9855         -DE/DX =    0.0                 !
 ! A3    A(4,1,12)             114.4996         -DE/DX =    0.0                 !
 ! A4    A(1,2,3)              121.6488         -DE/DX =    0.0                 !
 ! A5    A(1,2,5)              121.062          -DE/DX =    0.0                 !
 ! A6    A(3,2,5)              117.2884         -DE/DX =    0.0                 !
 ! A7    A(7,6,8)              110.0503         -DE/DX =    0.0                 !
 ! A8    A(7,6,9)              110.0386         -DE/DX =    0.0                 !
 ! A9    A(7,6,10)             110.746          -DE/DX =    0.0                 !
 ! A10   A(8,6,9)              110.2255         -DE/DX =    0.0                 !
 ! A11   A(8,6,10)             105.1285         -DE/DX =    0.0                 !
 ! A12   A(9,6,10)             110.5562         -DE/DX =    0.0                 !
 ! A13   A(6,10,11)            107.3814         -DE/DX =    0.0                 !
 ! A14   A(10,11,12)           103.2603         -DE/DX =    0.0                 !
 ! A15   L(1,12,11,7,-1)       174.202          -DE/DX =    0.0                 !
 ! A16   L(1,12,11,7,-2)       173.511          -DE/DX =    0.0                 !
 ! D1    D(4,1,2,3)              0.0806         -DE/DX =    0.0                 !
 ! D2    D(4,1,2,5)            179.7516         -DE/DX =    0.0                 !
 ! D3    D(12,1,2,3)          -179.8928         -DE/DX =    0.0                 !
 ! D4    D(12,1,2,5)            -0.2218         -DE/DX =    0.0                 !
 ! D5    D(4,1,11,10)          163.376          -DE/DX =    0.0                 !
 ! D6    D(7,6,10,11)           64.8798         -DE/DX =    0.0                 !
 ! D7    D(8,6,10,11)         -176.292          -DE/DX =    0.0                 !
 ! D8    D(9,6,10,11)          -57.3539         -DE/DX =    0.0                 !
 ! D9    D(6,10,11,12)         -92.7028         -DE/DX =    0.0                 !
 --------------------------------------------------------------------------------
 Iteration  1 RMS(Cart)=  0.10894724 RMS(Int)=  0.00426714
 Iteration  2 RMS(Cart)=  0.00654502 RMS(Int)=  0.00001007
 Iteration  3 RMS(Cart)=  0.00002192 RMS(Int)=  0.00000000
 Iteration  4 RMS(Cart)=  0.00000000 RMS(Int)=  0.00000000
 Iteration  1 RMS(Cart)=  0.00000000 RMS(Int)=  0.00000000
 GradGradGradGradGradGradGradGradGradGradGradGradGradGradGradGradGradGrad

                          Input orientation:                          
 ---------------------------------------------------------------------
 Center     Atomic      Atomic             Coordinates (Angstroms)
 Number     Number       Type             X           Y           Z
 ---------------------------------------------------------------------
      1          6           0       -1.782169    0.437147    0.354639
      2          6           0       -1.917666   -0.747034   -0.185003
      3          1           0       -2.856683   -1.292000   -0.135950
      4          1           0       -2.449495    1.085021    0.902568
      5          1           0       -1.094048   -1.222017   -0.705503
      6          6           0        1.677685   -0.729168    0.426726
      7          1           0        0.907819   -1.051586    1.129017
      8          1           0        2.120835   -1.593552   -0.063784
      9          1           0        2.443766   -0.159079    0.948988
     10          8           0        1.110116    0.042558   -0.623111
     11          8           0        0.593275    1.227117   -0.045456
     12          1           0       -0.453791    0.969324    0.164022
 ---------------------------------------------------------------------
                    Distance matrix (angstroms):
                    1          2          3          4          5
     1  C    0.000000
     2  C    1.308379   0.000000
     3  H    2.094088   1.086805   0.000000
     4  H    1.079487   2.195923   2.625747   0.000000
     5  H    2.085722   1.083917   1.853691   3.121787   0.000000
     6  C    3.651859   3.647065   4.603681   4.533357   3.034361
     7  H    3.170493   3.130937   3.978620   3.985966   2.720659
     8  H    4.419530   4.128047   4.987165   5.384840   3.299290
     9  H    4.308975   4.544636   5.527690   5.049153   4.047630
    10  O    3.078474   3.159566   4.213533   4.010642   2.542494
    11  O    2.535126   3.197119   4.272745   3.190202   3.046471
    12  H    1.443653   2.282681   3.313224   2.131120   2.442944
                    6          7          8          9         10
     6  C    0.000000
     7  H    1.090807   0.000000
     8  H    1.088182   1.785472   0.000000
     9  H    1.088412   1.785529   1.785415   0.000000
    10  O    1.421215   2.075579   2.002812   2.071419   0.000000
    11  O    2.286034   2.582792   3.207795   2.516898   1.415623
    12  H    2.738079   2.620930   3.639907   3.207071   1.980978
                   11         12
    11  O    0.000000
    12  H    1.098492   0.000000
 Symmetry turned off by external request.
 Stoichiometry    C3H7O2(2)
 Framework group  C1[X(C3H7O2)]
 Deg. of freedom    30
 Full point group                 C1      NOp   1
 Rotational constants (GHZ):           8.1575870           2.7716521           2.3317627
 Standard basis: CC-pVTZ (5D, 7F)
   248 basis functions,   379 primitive gaussians,   280 cartesian basis functions
    21 alpha electrons       20 beta electrons
       nuclear repulsion energy       174.4097358175 Hartrees.
 NAtoms=   12 NActive=   12 NUniq=   12 SFac= 1.00D+00 NAtFMM=   60 NAOKFM=F Big=F
 Integral buffers will be    131072 words long.
 Raffenetti 2 integral format.
 Two-electron integral symmetry is turned off.
 Nuclear repulsion after empirical dispersion term =      174.4044916419 Hartrees.
 One-electron integrals computed using PRISM.
 NBasis=   248 RedAO= T EigKep=  6.37D-04  NBF=   248
 NBsUse=   248 1.00D-06 EigRej= -1.00D+00 NBFU=   248
 Initial guess from the checkpoint file:  "/localscratch/347858/Gau-54842.chk"
 B after Tr=     0.005192    0.030382    0.021617
         Rot=    0.999943   -0.010456   -0.000916   -0.001854 Ang=  -1.22 deg.
 Initial guess <Sx>= 0.0000 <Sy>= 0.0000 <Sz>= 0.5000 <S**2>= 0.7805 S= 0.5152
 ExpMin= 1.03D-01 ExpMax= 1.53D+04 ExpMxC= 5.22D+02 IAcc=3 IRadAn=         5 AccDes= 0.00D+00
 Harris functional with IExCor=  419 and IRadAn=       5 diagonalized for initial guess.
 HarFok:  IExCor=  419 AccDes= 0.00D+00 IRadAn=         5 IDoV= 1 UseB2=F ITyADJ=14
 ICtDFT=  3500011 ScaDFX=  1.000000  1.000000  1.000000  1.000000
 FoFCou: FMM=F IPFlag=           0 FMFlag=      100000 FMFlg1=           0
         NFxFlg=           0 DoJE=T BraDBF=F KetDBF=T FulRan=T
         wScrn=  0.000000 ICntrl=       500 IOpCl=  0 I1Cent=   200000004 NGrid=           0
         NMat0=    1 NMatS0=      1 NMatT0=    0 NMatD0=    1 NMtDS0=    0 NMtDT0=    0
 Symmetry not used in FoFCou.
 Keep R1 and R2 ints in memory in canonical form, NReq=997885436.
 Requested convergence on RMS density matrix=1.00D-08 within 500 cycles.
 Requested convergence on MAX density matrix=1.00D-06.
 Requested convergence on             energy=1.00D-06.
 No special actions if energy rises.
 Integral accuracy reduced to 1.0D-05 until final iterations.
 Initial convergence to 1.0D-05 achieved.  Increase integral accuracy.
 SCF Done:  E(UB2PLYPD3) =  -268.326019877     A.U. after   17 cycles
            NFock= 17  Conv=0.68D-08     -V/T= 2.0043
 <Sx>= 0.0000 <Sy>= 0.0000 <Sz>= 0.5000 <S**2>= 0.7803 S= 0.5150
 <L.S>=  0.00000000000    
 Annihilation of the first spin contaminant:
 S**2 before annihilation     0.7803,   after     0.7506
 DoSCS=T DFT=T ScalE2(SS,OS)=  0.270000  0.270000
 ExpMin= 1.03D-01 ExpMax= 1.53D+04 ExpMxC= 5.22D+02 IAcc=3 IRadAn=         5 AccDes= 0.00D+00
 HarFok:  IExCor=  205 AccDes= 0.00D+00 IRadAn=         5 IDoV=-2 UseB2=F ITyADJ=14
 ICtDFT= 12500011 ScaDFX=  1.000000  1.000000  1.000000  1.000000
 Range of M.O.s used for correlation:     6   248
 NBasis=   248 NAE=    21 NBE=    20 NFC=     5 NFV=     0
 NROrb=    243 NOA=    16 NOB=    15 NVA=   227 NVB=   228

 **** Warning!!: The largest alpha MO coefficient is  0.12017841D+02


 **** Warning!!: The largest beta MO coefficient is  0.12017896D+02

 DoSCS=T DFT=T ScalE2(SS,OS)=  0.270000  0.270000
 Fully direct method using O(ONN) memory.
 JobTyp=2 Pass  1:  I=   6 to  21 NPSUse= 40 ParTrn=T ParDer=T DoDerP=T.
 JobTyp=3 Pass  1:  I=   6 to  20 NPSUse= 40 ParTrn=T ParDer=T DoDerP=T.
 Spin components of T(2) and E(2):
     alpha-alpha T2 =       0.5468723412D-01 E2=     -0.4012386162D-01
     alpha-beta  T2 =       0.3395967112D+00 E2=     -0.2465990806D+00
     beta-beta   T2 =       0.5922932331D-01 E2=     -0.3889502624D-01
 (S**2,0)=  0.78032D+00           (S**2,1)=  0.75125D+00
 Scaling Projection term by:   0.270000
 E(PUHF)=      -0.26833234511D+03        E(PMP2)=      -0.26865253673D+03
 E2(B2PLYPD3) =    -0.3256179685D+00 E(B2PLYPD3) =    -0.26865163784575D+03
          IDoAtm=111111111111
          Differentiating once with respect to electric field.
                with respect to dipole field.
          Differentiating once with respect to nuclear coordinates.
 Keep R1 and R2 ints in memory in canonical form, NReq=997894532.
          There are     1 degrees of freedom in the 1st order CPHF.  IDoFFX=0 NUNeed=     1.
 LinEq1:  Iter=  0 NonCon=     1 RMS=1.18D-03 Max=6.18D-02 NDo=     1
 AX will form     1 AO Fock derivatives at one time.
 LinEq1:  Iter=  1 NonCon=     1 RMS=4.06D-04 Max=1.51D-02 NDo=     1
 LinEq1:  Iter=  2 NonCon=     1 RMS=2.58D-04 Max=1.07D-02 NDo=     1
 LinEq1:  Iter=  3 NonCon=     1 RMS=1.39D-04 Max=6.77D-03 NDo=     1
 LinEq1:  Iter=  4 NonCon=     1 RMS=9.50D-05 Max=3.80D-03 NDo=     1
 LinEq1:  Iter=  5 NonCon=     1 RMS=4.03D-05 Max=8.32D-04 NDo=     1
 LinEq1:  Iter=  6 NonCon=     1 RMS=2.98D-05 Max=7.70D-04 NDo=     1
 LinEq1:  Iter=  7 NonCon=     1 RMS=1.19D-05 Max=3.09D-04 NDo=     1
 LinEq1:  Iter=  8 NonCon=     1 RMS=7.95D-06 Max=2.11D-04 NDo=     1
 LinEq1:  Iter=  9 NonCon=     1 RMS=3.11D-06 Max=8.07D-05 NDo=     1
 LinEq1:  Iter= 10 NonCon=     1 RMS=8.62D-07 Max=1.30D-05 NDo=     1
 LinEq1:  Iter= 11 NonCon=     1 RMS=3.03D-07 Max=4.77D-06 NDo=     1
 LinEq1:  Iter= 12 NonCon=     1 RMS=1.49D-07 Max=2.19D-06 NDo=     1
 LinEq1:  Iter= 13 NonCon=     1 RMS=6.00D-08 Max=1.13D-06 NDo=     1
 LinEq1:  Iter= 14 NonCon=     1 RMS=1.80D-08 Max=3.37D-07 NDo=     1
 LinEq1:  Iter= 15 NonCon=     1 RMS=4.39D-09 Max=8.58D-08 NDo=     1
 LinEq1:  Iter= 16 NonCon=     1 RMS=1.45D-09 Max=4.09D-08 NDo=     1
 LinEq1:  Iter= 17 NonCon=     1 RMS=5.04D-10 Max=1.67D-08 NDo=     1
 LinEq1:  Iter= 18 NonCon=     1 RMS=1.46D-10 Max=4.58D-09 NDo=     1
 LinEq1:  Iter= 19 NonCon=     0 RMS=4.34D-11 Max=9.31D-10 NDo=     1
 Linear equations converged to 1.000D-10 1.000D-09 after    19 iterations.
 End of Minotr F.D. properties file   721 does not exist.
 End of Minotr F.D. properties file   722 does not exist.
 End of Minotr F.D. properties file   788 does not exist.
 Calling FoFJK, ICntrl=  10002127 FMM=F ISym2X=0 I1Cent= 0 IOpClX= 1 NMat=1 NMatS=1 NMatT=0.
 -------------------------------------------------------------------
 Center     Atomic                   Forces (Hartrees/Bohr)
 Number     Number              X              Y              Z
 -------------------------------------------------------------------
      1        6           0.000267175   -0.000359778    0.000270275
      2        6          -0.000191864    0.000005938    0.000230936
      3        1          -0.000023741    0.000053930   -0.000193230
      4        1           0.000066649   -0.000033794    0.000085104
      5        1          -0.000311090    0.000186708   -0.000413694
      6        6           0.000365126    0.000074409    0.000342544
      7        1           0.000211634    0.000060528    0.000134649
      8        1           0.000053518   -0.000002644   -0.000035379
      9        1          -0.000004124   -0.000063949    0.000006455
     10        8          -0.000257192   -0.000174186    0.000142171
     11        8           0.000121518   -0.000041185   -0.000022365
     12        1          -0.000297607    0.000294022   -0.000547467
 -------------------------------------------------------------------
 Cartesian Forces:  Max     0.000547467 RMS     0.000214729

 GradGradGradGradGradGradGradGradGradGradGradGradGradGradGradGradGradGrad
 Berny optimization.
 FormGI is forming the generalized inverse of G from B-inverse, IUseBI=4.
 Internal  Forces:  Max     0.002376775 RMS     0.000649736
 Search for a saddle point.
 Step number   1 out of a maximum of  100 on scan point     2 out of    37
 All quantities printed in internal units (Hartrees-Bohrs-Radians)
 Swapping is turned off.
 Second derivative matrix not updated -- first step.
 ITU=  0
     Eigenvalues ---   -0.05220   0.00688   0.01309   0.01621   0.02341
     Eigenvalues ---    0.03649   0.04308   0.04636   0.04937   0.07875
     Eigenvalues ---    0.08479   0.08561   0.09853   0.11303   0.13177
     Eigenvalues ---    0.16594   0.18352   0.19395   0.21734   0.27777
     Eigenvalues ---    0.32310   0.33642   0.34463   0.34638   0.35554
     Eigenvalues ---    0.35631   0.36532   0.40776   0.668841000.00000
     Eigenvalues --- 1000.000001000.000001000.000001000.000001000.00000
     Eigenvalues --- 1000.00000
 Eigenvectors required to have negative eigenvalues:
                          R3        R11       A1        R10       A2
   1                    0.80626  -0.52891   0.14813   0.14036  -0.10097
                          A14       D9        A3        A15       A13
   1                   -0.07344  -0.06437  -0.04717   0.03800  -0.03468
 RFO step:  Lambda0=2.161673313D-09 Lambda=-1.87478127D-04.
 Linear search not attempted -- option 19 set.
 Iteration  1 RMS(Cart)=  0.06202955 RMS(Int)=  0.00087809
 Iteration  2 RMS(Cart)=  0.00108460 RMS(Int)=  0.00007553
 Iteration  3 RMS(Cart)=  0.00000044 RMS(Int)=  0.00007553
 Iteration  1 RMS(Cart)=  0.00000000 RMS(Int)=  0.00000000
 Variable       Old X    -DE/DX   Delta X   Delta X   Delta X     New X
                                 (Linear)    (Quad)   (Total)
    R1        2.47248  -0.00001   0.00000  -0.00012  -0.00012   2.47235
    R2        2.03993  -0.00002   0.00000   0.00010   0.00010   2.04003
    R3        2.72811   0.00023   0.00000  -0.00390  -0.00390   2.72421
    R4        2.05376  -0.00002   0.00000  -0.00004  -0.00004   2.05372
    R5        2.04831  -0.00012   0.00000  -0.00047  -0.00047   2.04783
    R6        2.06133  -0.00009   0.00000  -0.00026  -0.00026   2.06107
    R7        2.05637   0.00004   0.00000   0.00008   0.00008   2.05645
    R8        2.05680  -0.00003   0.00000   0.00001   0.00001   2.05681
    R9        2.68571   0.00054   0.00000   0.00082   0.00082   2.68653
   R10        2.67514  -0.00000   0.00000   0.00065   0.00065   2.67580
   R11        2.07585   0.00032   0.00000   0.00091   0.00091   2.07676
    A1        2.33026  -0.00033   0.00000  -0.00149  -0.00175   2.32850
    A2        1.95462   0.00074   0.00000   0.00824   0.00798   1.96260
    A3        1.99830  -0.00041   0.00000  -0.00678  -0.00704   1.99127
    A4        2.12316  -0.00001   0.00000  -0.00057  -0.00058   2.12258
    A5        2.11295   0.00012   0.00000   0.00155   0.00155   2.11450
    A6        2.04706  -0.00011   0.00000  -0.00101  -0.00101   2.04605
    A7        1.92074   0.00001   0.00000   0.00076   0.00076   1.92149
    A8        1.92053  -0.00017   0.00000  -0.00106  -0.00106   1.91947
    A9        1.93289   0.00030   0.00000   0.00131   0.00131   1.93420
   A10        1.92380  -0.00007   0.00000  -0.00076  -0.00076   1.92304
   A11        1.83484  -0.00006   0.00000  -0.00038  -0.00038   1.83446
   A12        1.92957  -0.00001   0.00000   0.00018   0.00018   1.92975
   A13        1.87418  -0.00027   0.00000  -0.00236  -0.00236   1.87182
   A14        1.80230   0.00094   0.00000  -0.00076  -0.00076   1.80154
   A15        3.04077   0.00120   0.00000   0.00974   0.00974   3.05051
   A16        3.02823   0.00023   0.00000   0.00609   0.00609   3.03431
    D1        0.00127  -0.00058   0.00000  -0.02383  -0.02383  -0.02256
    D2        3.13713  -0.00121   0.00000  -0.03000  -0.02999   3.10713
    D3       -3.13957   0.00092   0.00000   0.02238   0.02237  -3.11720
    D4       -0.00371   0.00029   0.00000   0.01621   0.01620   0.01249
    D5        3.02598  -0.00238   0.00000   0.00000  -0.00000   3.02598
    D6        1.13233  -0.00012   0.00000  -0.00956  -0.00956   1.12277
    D7       -3.07691   0.00002   0.00000  -0.00821  -0.00820  -3.08511
    D8       -1.00104  -0.00010   0.00000  -0.00923  -0.00923  -1.01028
    D9       -1.61798  -0.00170   0.00000  -0.05101  -0.05101  -1.66900
         Item               Value     Threshold  Converged?
 Maximum Force            0.001697     0.000450     NO 
 RMS     Force            0.000522     0.000300     NO 
 Maximum Displacement     0.154671     0.001800     NO 
 RMS     Displacement     0.062049     0.001200     NO 
 Predicted change in Energy=-9.424287D-05
 GradGradGradGradGradGradGradGradGradGradGradGradGradGradGradGradGradGrad

                          Input orientation:                          
 ---------------------------------------------------------------------
 Center     Atomic      Atomic             Coordinates (Angstroms)
 Number     Number       Type             X           Y           Z
 ---------------------------------------------------------------------
      1          6           0       -1.797312    0.425129    0.361811
      2          6           0       -1.966856   -0.740380   -0.207862
      3          1           0       -2.922894   -1.256225   -0.176328
      4          1           0       -2.453324    1.087051    0.906709
      5          1           0       -1.158550   -1.226423   -0.741467
      6          6           0        1.724339   -0.722063    0.439800
      7          1           0        0.989668   -1.036548    1.182038
      8          1           0        2.160353   -1.592354   -0.046740
      9          1           0        2.502807   -0.128420    0.915436
     10          8           0        1.103149    0.014432   -0.605564
     11          8           0        0.583455    1.200260   -0.032239
     12          1           0       -0.465189    0.942273    0.171561
 ---------------------------------------------------------------------
                    Distance matrix (angstroms):
                    1          2          3          4          5
     1  C    0.000000
     2  C    1.308314   0.000000
     3  H    2.093676   1.086784   0.000000
     4  H    1.079540   2.195091   2.623816   0.000000
     5  H    2.086353   1.083666   1.852885   3.121713   0.000000
     6  C    3.704613   3.747629   4.718232   4.576436   3.156076
     7  H    3.252158   3.280331   4.147476   4.054586   2.889768
     8  H    4.460972   4.217307   5.095996   5.419805   3.410523
     9  H    4.370806   4.649106   5.648197   5.103007   4.166110
    10  O    3.084990   3.186353   4.243565   4.010733   2.583307
    11  O    2.534592   3.209519   4.283639   3.180639   3.070240
    12  H    1.441591   2.286982   3.315831   2.124637   2.453082
                    6          7          8          9         10
     6  C    0.000000
     7  H    1.090670   0.000000
     8  H    1.088226   1.785866   0.000000
     9  H    1.088418   1.784759   1.784981   0.000000
    10  O    1.421649   2.076766   2.002929   2.071929   0.000000
    11  O    2.284680   2.577361   3.207103   2.519403   1.415970
    12  H    2.763331   2.655824   3.655880   3.241718   1.981034
                   11         12
    11  O    0.000000
    12  H    1.098975   0.000000
 Symmetry turned off by external request.
 Stoichiometry    C3H7O2(2)
 Framework group  C1[X(C3H7O2)]
 Deg. of freedom    30
 Full point group                 C1      NOp   1
 Rotational constants (GHZ):           8.3357854           2.6879115           2.2893323
 Standard basis: CC-pVTZ (5D, 7F)
   248 basis functions,   379 primitive gaussians,   280 cartesian basis functions
    21 alpha electrons       20 beta electrons
       nuclear repulsion energy       173.8015913694 Hartrees.
 NAtoms=   12 NActive=   12 NUniq=   12 SFac= 1.00D+00 NAtFMM=   60 NAOKFM=F Big=F
 Integral buffers will be    131072 words long.
 Raffenetti 2 integral format.
 Two-electron integral symmetry is turned off.
 Nuclear repulsion after empirical dispersion term =      173.7964273450 Hartrees.
 One-electron integrals computed using PRISM.
 NBasis=   248 RedAO= T EigKep=  6.43D-04  NBF=   248
 NBsUse=   248 1.00D-06 EigRej= -1.00D+00 NBFU=   248
 Initial guess from the checkpoint file:  "/localscratch/347858/Gau-54842.chk"
 B after Tr=    -0.009460   -0.017306    0.009270
         Rot=    0.999999   -0.000633    0.001401    0.000492 Ang=  -0.18 deg.
 Initial guess <Sx>= 0.0000 <Sy>= 0.0000 <Sz>= 0.5000 <S**2>= 0.7803 S= 0.5151
 ExpMin= 1.03D-01 ExpMax= 1.53D+04 ExpMxC= 5.22D+02 IAcc=3 IRadAn=         5 AccDes= 0.00D+00
 Harris functional with IExCor=  419 and IRadAn=       5 diagonalized for initial guess.
 HarFok:  IExCor=  419 AccDes= 0.00D+00 IRadAn=         5 IDoV= 1 UseB2=F ITyADJ=14
 ICtDFT=  3500011 ScaDFX=  1.000000  1.000000  1.000000  1.000000
 FoFCou: FMM=F IPFlag=           0 FMFlag=      100000 FMFlg1=           0
         NFxFlg=           0 DoJE=T BraDBF=F KetDBF=T FulRan=T
         wScrn=  0.000000 ICntrl=       500 IOpCl=  0 I1Cent=   200000004 NGrid=           0
         NMat0=    1 NMatS0=      1 NMatT0=    0 NMatD0=    1 NMtDS0=    0 NMtDT0=    0
 Symmetry not used in FoFCou.
 Keep R1 and R2 ints in memory in canonical form, NReq=997885436.
 Requested convergence on RMS density matrix=1.00D-08 within 500 cycles.
 Requested convergence on MAX density matrix=1.00D-06.
 Requested convergence on             energy=1.00D-06.
 No special actions if energy rises.
 Integral accuracy reduced to 1.0D-05 until final iterations.
 Initial convergence to 1.0D-05 achieved.  Increase integral accuracy.
 SCF Done:  E(UB2PLYPD3) =  -268.326242773     A.U. after   13 cycles
            NFock= 13  Conv=0.94D-08     -V/T= 2.0043
 <Sx>= 0.0000 <Sy>= 0.0000 <Sz>= 0.5000 <S**2>= 0.7803 S= 0.5150
 <L.S>=  0.00000000000    
 Annihilation of the first spin contaminant:
 S**2 before annihilation     0.7803,   after     0.7506
 DoSCS=T DFT=T ScalE2(SS,OS)=  0.270000  0.270000
 ExpMin= 1.03D-01 ExpMax= 1.53D+04 ExpMxC= 5.22D+02 IAcc=3 IRadAn=         5 AccDes= 0.00D+00
 HarFok:  IExCor=  205 AccDes= 0.00D+00 IRadAn=         5 IDoV=-2 UseB2=F ITyADJ=14
 ICtDFT= 12500011 ScaDFX=  1.000000  1.000000  1.000000  1.000000
 Range of M.O.s used for correlation:     6   248
 NBasis=   248 NAE=    21 NBE=    20 NFC=     5 NFV=     0
 NROrb=    243 NOA=    16 NOB=    15 NVA=   227 NVB=   228

 **** Warning!!: The largest alpha MO coefficient is  0.12016126D+02


 **** Warning!!: The largest beta MO coefficient is  0.12016067D+02

 DoSCS=T DFT=T ScalE2(SS,OS)=  0.270000  0.270000
 Fully direct method using O(ONN) memory.
 JobTyp=2 Pass  1:  I=   6 to  21 NPSUse= 40 ParTrn=T ParDer=T DoDerP=T.
 JobTyp=3 Pass  1:  I=   6 to  20 NPSUse= 40 ParTrn=T ParDer=T DoDerP=T.
 Spin components of T(2) and E(2):
     alpha-alpha T2 =       0.5462640906D-01 E2=     -0.4009281605D-01
     alpha-beta  T2 =       0.3394715672D+00 E2=     -0.2465279736D+00
     beta-beta   T2 =       0.5911658423D-01 E2=     -0.3884719850D-01
 (S**2,0)=  0.78032D+00           (S**2,1)=  0.75123D+00
 Scaling Projection term by:   0.270000
 E(PUHF)=      -0.26833257659D+03        E(PMP2)=      -0.26865261047D+03
 E2(B2PLYPD3) =    -0.3254679882D+00 E(B2PLYPD3) =    -0.26865171076079D+03
          IDoAtm=111111111111
          Differentiating once with respect to electric field.
                with respect to dipole field.
          Differentiating once with respect to nuclear coordinates.
 Keep R1 and R2 ints in memory in canonical form, NReq=997894532.
          There are     1 degrees of freedom in the 1st order CPHF.  IDoFFX=0 NUNeed=     1.
 LinEq1:  Iter=  0 NonCon=     1 RMS=1.18D-03 Max=5.95D-02 NDo=     1
 AX will form     1 AO Fock derivatives at one time.
 LinEq1:  Iter=  1 NonCon=     1 RMS=4.04D-04 Max=1.50D-02 NDo=     1
 LinEq1:  Iter=  2 NonCon=     1 RMS=2.56D-04 Max=1.03D-02 NDo=     1
 LinEq1:  Iter=  3 NonCon=     1 RMS=1.38D-04 Max=6.72D-03 NDo=     1
 LinEq1:  Iter=  4 NonCon=     1 RMS=9.43D-05 Max=3.58D-03 NDo=     1
 LinEq1:  Iter=  5 NonCon=     1 RMS=3.95D-05 Max=8.37D-04 NDo=     1
 LinEq1:  Iter=  6 NonCon=     1 RMS=2.94D-05 Max=7.48D-04 NDo=     1
 LinEq1:  Iter=  7 NonCon=     1 RMS=1.19D-05 Max=2.86D-04 NDo=     1
 LinEq1:  Iter=  8 NonCon=     1 RMS=8.05D-06 Max=2.16D-04 NDo=     1
 LinEq1:  Iter=  9 NonCon=     1 RMS=3.19D-06 Max=7.93D-05 NDo=     1
 LinEq1:  Iter= 10 NonCon=     1 RMS=8.74D-07 Max=1.52D-05 NDo=     1
 LinEq1:  Iter= 11 NonCon=     1 RMS=2.97D-07 Max=4.73D-06 NDo=     1
 LinEq1:  Iter= 12 NonCon=     1 RMS=1.43D-07 Max=2.07D-06 NDo=     1
 LinEq1:  Iter= 13 NonCon=     1 RMS=5.97D-08 Max=1.10D-06 NDo=     1
 LinEq1:  Iter= 14 NonCon=     1 RMS=1.86D-08 Max=3.09D-07 NDo=     1
 LinEq1:  Iter= 15 NonCon=     1 RMS=4.93D-09 Max=1.15D-07 NDo=     1
 LinEq1:  Iter= 16 NonCon=     1 RMS=1.80D-09 Max=5.18D-08 NDo=     1
 LinEq1:  Iter= 17 NonCon=     1 RMS=6.21D-10 Max=1.98D-08 NDo=     1
 LinEq1:  Iter= 18 NonCon=     1 RMS=1.67D-10 Max=3.62D-09 NDo=     1
 LinEq1:  Iter= 19 NonCon=     0 RMS=4.72D-11 Max=8.09D-10 NDo=     1
 Linear equations converged to 1.000D-10 1.000D-09 after    19 iterations.
 End of Minotr F.D. properties file   721 does not exist.
 End of Minotr F.D. properties file   722 does not exist.
 End of Minotr F.D. properties file   788 does not exist.
 Calling FoFJK, ICntrl=  10002127 FMM=F ISym2X=0 I1Cent= 0 IOpClX= 1 NMat=1 NMatS=1 NMatT=0.
 -------------------------------------------------------------------
 Center     Atomic                   Forces (Hartrees/Bohr)
 Number     Number              X              Y              Z
 -------------------------------------------------------------------
      1        6          -0.000267128    0.000426732   -0.000797780
      2        6          -0.000024869    0.000018282    0.000013280
      3        1          -0.000006756   -0.000005970    0.000011281
      4        1           0.000222045   -0.000359872    0.000726416
      5        1           0.000137720   -0.000016720    0.000018485
      6        6          -0.000027407   -0.000042662   -0.000010728
      7        1          -0.000058497   -0.000001336   -0.000031852
      8        1          -0.000001133    0.000004015    0.000000960
      9        1           0.000001923    0.000009352   -0.000010451
     10        8           0.000136387   -0.000188902    0.000512439
     11        8          -0.000101011    0.000142043   -0.000398145
     12        1          -0.000011274    0.000015038   -0.000033905
 -------------------------------------------------------------------
 Cartesian Forces:  Max     0.000797780 RMS     0.000243353

 GradGradGradGradGradGradGradGradGradGradGradGradGradGradGradGradGradGrad
 Berny optimization.
 FormGI is forming the generalized inverse of G from B-inverse, IUseBI=4.
 Internal  Forces:  Max     0.001259326 RMS     0.000243788
 Search for a saddle point.
 Step number   2 out of a maximum of  100 on scan point     2 out of    37
 All quantities printed in internal units (Hartrees-Bohrs-Radians)
 Swapping is turned off.
 Update second derivatives using D2CorX and points    1    2
 ITU=  0  0
     Eigenvalues ---   -0.05220   0.00678   0.01279   0.01619   0.02258
     Eigenvalues ---    0.03744   0.04304   0.04661   0.05368   0.08048
     Eigenvalues ---    0.08479   0.08570   0.09874   0.11302   0.13177
     Eigenvalues ---    0.16594   0.18362   0.19566   0.21744   0.27891
     Eigenvalues ---    0.32310   0.33642   0.34465   0.34639   0.35565
     Eigenvalues ---    0.35631   0.36533   0.40786   0.668851000.00000
[...]
  Beta virt. eigenvalues --    1.33036   1.36053   1.37859   1.39102   1.39778
  Beta virt. eigenvalues --    1.43083   1.45910   1.49290   1.50591   1.51610
  Beta virt. eigenvalues --    1.58873   1.63140   1.65162   1.76032   1.77556
  Beta virt. eigenvalues --    1.79399   1.92235   1.95596   1.99310   2.03760
  Beta virt. eigenvalues --    2.12154   2.17368   2.18425   2.20729   2.25927
  Beta virt. eigenvalues --    2.28892   2.33748   2.36235   2.37858   2.41416
  Beta virt. eigenvalues --    2.43272   2.49878   2.52741   2.54951   2.57497
  Beta virt. eigenvalues --    2.63789   2.69373   2.72581   2.79827   2.83630
  Beta virt. eigenvalues --    2.86886   2.88616   2.90932   2.91535   2.92555
  Beta virt. eigenvalues --    2.93700   2.96809   2.97972   3.00261   3.00629
  Beta virt. eigenvalues --    3.02071   3.04743   3.07800   3.11895   3.13299
  Beta virt. eigenvalues --    3.14512   3.17420   3.19690   3.20334   3.21826
  Beta virt. eigenvalues --    3.24510   3.27582   3.29510   3.33225   3.36234
  Beta virt. eigenvalues --    3.37073   3.40537   3.42826   3.43756   3.45029
  Beta virt. eigenvalues --    3.50769   3.53519   3.56424   3.58806   3.59552
  Beta virt. eigenvalues --    3.62413   3.64890   3.67017   3.68522   3.72650
  Beta virt. eigenvalues --    3.75716   3.77788   3.82787   3.87213   3.87771
  Beta virt. eigenvalues --    3.89329   3.92898   3.96431   3.96972   3.98507
  Beta virt. eigenvalues --    4.00560   4.01445   4.03702   4.07661   4.10828
  Beta virt. eigenvalues --    4.12647   4.14611   4.16438   4.19051   4.19529
  Beta virt. eigenvalues --    4.25036   4.26573   4.34015   4.35377   4.38870
  Beta virt. eigenvalues --    4.41153   4.44979   4.49532   4.54010   4.61045
  Beta virt. eigenvalues --    4.65950   4.68767   4.72421   4.79474   4.81677
  Beta virt. eigenvalues --    4.85078   4.91003   4.92080   4.95279   5.00359
  Beta virt. eigenvalues --    5.01272   5.03504   5.04064   5.06176   5.07026
  Beta virt. eigenvalues --    5.18667   5.26667   5.28589   5.31217   5.32515
  Beta virt. eigenvalues --    5.34250   5.35593   5.37727   5.40373   5.40847
  Beta virt. eigenvalues --    5.41444   5.47042   5.68667   5.74307   5.81220
  Beta virt. eigenvalues --    5.92049   5.95195   5.98593   6.06652   6.08938
  Beta virt. eigenvalues --    6.15254   6.25609   6.31808   6.37635   6.40897
  Beta virt. eigenvalues --    6.59041   6.66537   6.78410   6.80619   6.85801
  Beta virt. eigenvalues --    6.98457   7.05716   7.07368   7.22648   7.41399
  Beta virt. eigenvalues --    7.42255   7.62065   7.80845   9.97117  10.55241
  Beta virt. eigenvalues --   10.91974  13.44216  14.29574
          Condensed to atoms (all electrons):
               1          2          3          4          5          6
     1  C    5.194359   0.626216  -0.047623   0.395585  -0.050007  -0.004140
     2  C    0.626216   4.883533   0.402566  -0.043343   0.403356  -0.001168
     3  H   -0.047623   0.402566   0.541489  -0.005725  -0.032582  -0.000064
     4  H    0.395585  -0.043343  -0.005725   0.492032   0.004554   0.000072
     5  H   -0.050007   0.403356  -0.032582   0.004554   0.503229  -0.001902
     6  C   -0.004140  -0.001168  -0.000064   0.000072  -0.001902   4.610997
     7  H    0.003879   0.000078  -0.000079  -0.000240  -0.002074   0.395931
     8  H    0.000328  -0.000102  -0.000007  -0.000007  -0.000253   0.394222
     9  H   -0.000453   0.000266   0.000008   0.000001   0.000576   0.413867
    10  O   -0.001797  -0.000895   0.000290   0.000198   0.014786   0.296454
    11  O   -0.069126  -0.001006  -0.000232   0.001063  -0.001159  -0.042933
    12  H    0.165377  -0.005650   0.001604  -0.007013  -0.002673   0.003512
               7          8          9         10         11         12
     1  C    0.003879   0.000328  -0.000453  -0.001797  -0.069126   0.165377
     2  C    0.000078  -0.000102   0.000266  -0.000895  -0.001006  -0.005650
     3  H   -0.000079  -0.000007   0.000008   0.000290  -0.000232   0.001604
     4  H   -0.000240  -0.000007   0.000001   0.000198   0.001063  -0.007013
     5  H   -0.002074  -0.000253   0.000576   0.014786  -0.001159  -0.002673
     6  C    0.395931   0.394222   0.413867   0.296454  -0.042933   0.003512
     7  H    0.666902  -0.035564  -0.055595  -0.049945  -0.002670   0.004774
     8  H   -0.035564   0.594384  -0.026799  -0.027122   0.006917  -0.000852
     9  H   -0.055595  -0.026799   0.601487  -0.035974   0.004003  -0.000023
    10  O   -0.049945  -0.027122  -0.035974   7.955749   0.072260  -0.029813
    11  O   -0.002670   0.006917   0.004003   0.072260   8.008188   0.252096
    12  H    0.004774  -0.000852  -0.000023  -0.029813   0.252096   0.391204
          Atomic-Atomic Spin Densities.
               1          2          3          4          5          6
     1  C    0.862013  -0.024589  -0.017467   0.002529  -0.006399   0.000455
     2  C   -0.024589  -0.171000   0.010444   0.000168   0.010866  -0.000126
     3  H   -0.017467   0.010444   0.082757  -0.004923  -0.010186   0.000051
     4  H    0.002529   0.000168  -0.004923   0.023049   0.001138  -0.000028
     5  H   -0.006399   0.010866  -0.010186   0.001138   0.033662  -0.000326
     6  C    0.000455  -0.000126   0.000051  -0.000028  -0.000326  -0.003981
     7  H   -0.003685   0.000279  -0.000231   0.000311   0.001056   0.004004
     8  H    0.000138  -0.000036   0.000010  -0.000004  -0.000103   0.000328
     9  H    0.000976  -0.000108   0.000016  -0.000047  -0.000162  -0.002110
    10  O    0.011883  -0.001529   0.000347  -0.000401  -0.003963   0.000031
    11  O   -0.082230   0.005060  -0.000677   0.003474   0.002698  -0.001575
    12  H    0.042748  -0.000042   0.000549  -0.000306  -0.000002   0.000882
               7          8          9         10         11         12
     1  C   -0.003685   0.000138   0.000976   0.011883  -0.082230   0.042748
     2  C    0.000279  -0.000036  -0.000108  -0.001529   0.005060  -0.000042
     3  H   -0.000231   0.000010   0.000016   0.000347  -0.000677   0.000549
     4  H    0.000311  -0.000004  -0.000047  -0.000401   0.003474  -0.000306
     5  H    0.001056  -0.000103  -0.000162  -0.003963   0.002698  -0.000002
     6  C    0.004004   0.000328  -0.002110   0.000031  -0.001575   0.000882
     7  H   -0.000216  -0.000710  -0.000492  -0.000532   0.002805  -0.002725
     8  H   -0.000710  -0.001207   0.000924   0.000156  -0.000182   0.000088
     9  H   -0.000492   0.000924   0.002121  -0.000298  -0.000313   0.001080
    10  O   -0.000532   0.000156  -0.000298   0.039227  -0.032381   0.007715
    11  O    0.002805  -0.000182  -0.000313  -0.032381   0.457545  -0.026908
    12  H   -0.002725   0.000088   0.001080   0.007715  -0.026908  -0.098791
 Mulliken charges and spin densities:
               1          2
     1  C   -0.212599   0.786371
     2  C   -0.263848  -0.170614
     3  H    0.140356   0.060691
     4  H    0.162823   0.024960
     5  H    0.164151   0.028279
     6  C   -0.064845  -0.002395
     7  H    0.074604  -0.000137
     8  H    0.094854  -0.000598
     9  H    0.098637   0.001586
    10  O   -0.194190   0.020254
    11  O   -0.227401   0.327315
    12  H    0.227459  -0.075712
 Sum of Mulliken charges =  -0.00000   1.00000
 Mulliken charges and spin densities with hydrogens summed into heavy atoms:
               1          2
     1  C   -0.049776   0.811331
     2  C    0.040658  -0.081644
     6  C    0.203249  -0.001544
    10  O   -0.194190   0.020254
    11  O    0.000058   0.251603
 Electronic spatial extent (au):  <R**2>=            608.1441
 Charge=             -0.0000 electrons
 Dipole moment (field-independent basis, Debye):
    X=             -1.1118    Y=              0.4485    Z=             -2.4040  Tot=              2.6863
 Quadrupole moment (field-independent basis, Debye-Ang):
   XX=            -26.4817   YY=            -29.6764   ZZ=            -36.4224
   XY=              2.4098   XZ=             -1.3111   YZ=              1.0839
 Traceless Quadrupole moment (field-independent basis, Debye-Ang):
   XX=              4.3785   YY=              1.1838   ZZ=             -5.5622
   XY=              2.4098   XZ=             -1.3111   YZ=              1.0839
 Octapole moment (field-independent basis, Debye-Ang**2):
  XXX=              7.9508  YYY=             29.3451  ZZZ=            -46.9648  XYY=             -2.9384
  XXY=             10.2464  XXZ=            -19.3393  XZZ=              2.3548  YZZ=             13.1410
  YYZ=            -15.4214  XYZ=              0.5026
 Hexadecapole moment (field-independent basis, Debye-Ang**3):
 XXXX=           -462.8702 YYYY=           -142.5237 ZZZZ=           -149.1072 XXXY=            -30.4001
 XXXZ=             -3.5685 YYYX=            -13.8380 YYYZ=             31.1751 ZZZX=            -20.2379
 ZZZY=             32.4298 XXYY=            -96.6999 XXZZ=           -114.1324 YYZZ=            -53.6192
 XXYZ=             10.7842 YYXZ=             -7.2842 ZZXY=            -10.8006
 N-N= 1.740133342936D+02 E-N=-9.774305208336D+02  KE= 2.671823247052D+02
                          Isotropic Fermi Contact Couplings
        Atom                 a.u.       MegaHertz       Gauss      10(-4) cm-1
     1  C(13)              0.18943     212.95056      75.98606      71.03266
     2  C(13)              0.00231       2.59185       0.92484       0.86455
     3  H(1)               0.02878     128.63551      45.90035      42.90819
     4  H(1)               0.01364      60.95418      21.74997      20.33213
     5  H(1)               0.01615      72.18826      25.75857      24.07941
     6  C(13)             -0.00277      -3.11572      -1.11177      -1.03929
     7  H(1)               0.00203       9.08614       3.24216       3.03081
     8  H(1)              -0.00004      -0.19797      -0.07064      -0.06604
     9  H(1)               0.00043       1.91039       0.68167       0.63724
    10  O(17)              0.01361      -8.25042      -2.94396      -2.75204
    11  O(17)              0.02084     -12.63035      -4.50682      -4.21303
    12  H(1)              -0.02642    -118.08817     -42.13679     -39.38997
 --------------------------------------------------------
       Center         ----  Spin Dipole Couplings  ----
                      3XX-RR        3YY-RR        3ZZ-RR
 --------------------------------------------------------
     1   Atom        0.513226     -0.381493     -0.131734
     2   Atom        0.002990      0.040931     -0.043921
     3   Atom        0.004169      0.000794     -0.004962
     4   Atom       -0.010154      0.045041     -0.034886
     5   Atom       -0.007614      0.017772     -0.010158
     6   Atom        0.001356     -0.002137      0.000782
     7   Atom        0.000652     -0.003859      0.003207
     8   Atom        0.000701      0.000544     -0.001245
     9   Atom        0.004502     -0.003413     -0.001090
    10   Atom        0.249339     -0.211385     -0.037954
    11   Atom        0.929898     -0.709070     -0.220828
    12   Atom        0.175292     -0.119541     -0.055750
 --------------------------------------------------------
                        XY            XZ            YZ
 --------------------------------------------------------
     1   Atom       -0.118322      0.446245     -0.062034
     2   Atom       -0.031100      0.032453     -0.013427
     3   Atom       -0.005965      0.005684     -0.002804
     4   Atom        0.018176      0.018375      0.012007
     5   Atom        0.000586      0.001298      0.001237
     6   Atom        0.005857     -0.003947     -0.002597
     7   Atom        0.003252     -0.004306     -0.003884
     8   Atom        0.003488     -0.002066     -0.002725
     9   Atom        0.002188     -0.004782     -0.001180
    10   Atom        0.037678      0.213370      0.021198
    11   Atom       -0.239951      0.945101     -0.133906
    12   Atom        0.010770      0.139972      0.003520
 --------------------------------------------------------


 ---------------------------------------------------------------------------------
              Anisotropic Spin Dipole Couplings in Principal Axis System
 ---------------------------------------------------------------------------------

       Atom             a.u.   MegaHertz   Gauss  10(-4) cm-1        Axes

              Baa    -0.3972   -53.303   -19.020   -17.780  0.0870  0.9925  0.0857
     1 C(13)  Bbb    -0.3598   -48.278   -17.227   -16.104 -0.4588 -0.0365  0.8878
              Bcc     0.7570   101.581    36.247    33.884  0.8843 -0.1165  0.4522
 
              Baa    -0.0606    -8.127    -2.900    -2.711 -0.4644 -0.0252  0.8853
     2 C(13)  Bbb    -0.0052    -0.693    -0.247    -0.231  0.7077  0.5905  0.3880
              Bcc     0.0657     8.820     3.147     2.942 -0.5325  0.8067 -0.2564
 
              Baa    -0.0077    -4.102    -1.464    -1.368 -0.4360 -0.0092  0.8999
     3 H(1)   Bbb    -0.0034    -1.824    -0.651    -0.608  0.4813  0.8425  0.2418
              Bcc     0.0111     5.926     2.114     1.977  0.7604 -0.5386  0.3629
 
              Baa    -0.0447   -23.862    -8.514    -7.959 -0.4585 -0.0260  0.8883
     4 H(1)   Bbb    -0.0090    -4.827    -1.722    -1.610  0.8294 -0.3714  0.4173
              Bcc     0.0538    28.689    10.237     9.570  0.3190  0.9281  0.1918
 
              Baa    -0.0107    -5.727    -2.043    -1.910 -0.3789 -0.0324  0.9249
     5 H(1)   Bbb    -0.0071    -3.793    -1.354    -1.265  0.9251 -0.0405  0.3776
              Bcc     0.0178     9.520     3.397     3.176  0.0253  0.9987  0.0453
 
              Baa    -0.0065    -0.874    -0.312    -0.292 -0.6123  0.7890 -0.0504
     6 C(13)  Bbb    -0.0021    -0.276    -0.099    -0.092  0.3832  0.3519  0.8540
              Bcc     0.0086     1.151     0.411     0.384  0.6915  0.5036 -0.5179
 
              Baa    -0.0060    -3.175    -1.133    -1.059 -0.2874  0.9229  0.2563
     7 H(1)   Bbb    -0.0025    -1.357    -0.484    -0.453  0.7761  0.0676  0.6269
              Bcc     0.0085     4.532     1.617     1.512 -0.5612 -0.3791  0.7357
 
              Baa    -0.0033    -1.777    -0.634    -0.593 -0.2814  0.7085  0.6471
     8 H(1)   Bbb    -0.0024    -1.293    -0.461    -0.431  0.7280 -0.2817  0.6250
              Bcc     0.0058     3.069     1.095     1.024  0.6252  0.6470 -0.4365
 
              Baa    -0.0040    -2.128    -0.759    -0.710 -0.3602  0.9052 -0.2256
     9 H(1)   Bbb    -0.0038    -2.031    -0.725    -0.678  0.3900  0.3658  0.8451
              Bcc     0.0078     4.160     1.484     1.388  0.8474  0.2164 -0.4848
 
              Baa    -0.2146    15.531     5.542     5.181 -0.0584  0.9971 -0.0491
    10 O(17)  Bbb    -0.1515    10.963     3.912     3.657 -0.4710  0.0159  0.8820
              Bcc     0.3661   -26.494    -9.454    -8.837  0.8802  0.0746  0.4687
 
              Baa    -0.7520    54.414    19.416    18.151 -0.4977 -0.0920  0.8624
    11 O(17)  Bbb    -0.7432    53.781    19.190    17.939  0.0620  0.9880  0.1412
              Bcc     1.4953  -108.195   -38.607   -36.090  0.8651 -0.1237  0.4861
 
              Baa    -0.1225   -65.349   -23.318   -21.798 -0.3879  0.4773  0.7885
    12 H(1)   Bbb    -0.1191   -63.560   -22.680   -21.201  0.1788  0.8782 -0.4436
              Bcc     0.2416   128.910    45.998    43.000  0.9042  0.0311  0.4260
 

 ---------------------------------------------------------------------------------

 1\1\GINC-N21\Scan\UB2PLYPD3-FC\CC-pVTZ\C3H7O2(2)\ROOT\13-Jun-2019\0\\#
  opt=(calcfc,ts,noeigentest,maxcyc=500,modredundant) uB2PLYPD3/cc-pvtz
  scf=maxcyc=500 nosymm\\Title Card Required\\0,2\C,-1.6754152047,-1.13
 18361513,0.2040193968\C,-2.0363849469,0.1173553121,0.058845292\H,-2.97
 73293678,0.3879045684,-0.4129312218\H,-2.1329229136,-2.0732244855,-0.0
 601133764\H,-1.4067153834,0.9260648104,0.4115289077\C,1.7006190557,0.2
 251803988,-0.1068103646\H,1.0704495853,-0.0494652076,-0.9537565307\H,2
 .0177101019,1.2620938633,-0.1984900289\H,2.5679012101,-0.4307045076,-0
 .0591129036\O,0.9646091714,0.1683746621,1.1076515924\O,0.6008243435,-1
 .183307123,1.3188793195\H,-0.3936996516,-1.2517051401,0.8574449178\\Ve
 rsion=ES64L-G16RevB.01\HF=-268.3263377,-268.3262041,-268.3258878,-268.
 3254439,-268.3249734,-268.3245854,-268.3243372,-268.3242482,-268.32433
 06,-268.3245712,-268.3248998,-268.3252151,-268.325463,-268.3256191,-26
 8.3256846,-268.3256745,-268.3255967,-268.3254718,-268.3253228,-268.325
 1618,-268.3250168,-268.3249017,-268.3248252,-268.3247952,-268.3248063,
 -268.3248421,-268.3248946,-268.3249506,-268.3250149,-268.3250941,-268.
 3252065,-268.3253609,-268.3255682,-268.3258287,-268.3260971,-268.32629
 2,-268.3263408\MP2=-268.6518385,-268.6517144,-268.6513552,-268.6508121
 ,-268.6501804,-268.6495889,-268.6491589,-268.6489497,-268.6489757,-268
 .6492099,-268.6495552,-268.6498866,-268.6501323,-268.6502738,-268.6503
 19,-268.6502859,-268.6501952,-268.6500639,-268.6499035,-268.6497287,-2
 68.6495591,-268.6494195,-268.6493284,-268.6492936,-268.6493091,-268.64
 93597,-268.6494276,-268.6495001,-268.6495801,-268.6496865,-268.6498572
 ,-268.65013,-268.6505154,-268.650971,-268.6514067,-268.6517228,-268.65
 18387\PUHF=-268.3326588,-268.3325346,-268.3322452,-268.3318442,-268.33
 14243,-268.3310802,-268.3308556,-268.3307675,-268.3308326,-268.3310396
 ,-268.3313349,-268.3316283,-268.3318624,-268.3320123,-268.3320782,-268
 .3320724,-268.3320072,-268.3318989,-268.3317613,-268.3316153,-268.3314
 789,-268.3313679,-268.3312946,-268.3312645,-268.3312724,-268.3313055,-
 268.3313522,-268.3314027,-268.3314593,-268.3315289,-268.3316288,-268.3
 317685,-268.3319583,-268.3321965,-268.3324417,-268.3326191,-268.332661
 8\PMP2-0=-268.6527372,-268.6526135,-268.6522583,-268.6517227,-268.6511
 006,-268.6505179,-268.6500934,-268.649886,-268.6499108,-268.6501415,-2
 68.6504825,-268.6508101,-268.6510527,-268.6511917,-268.6512354,-268.65
 12016,-268.6511111,-268.6509808,-268.6508215,-268.6506484,-268.6504805
 ,-268.6503422,-268.6502524,-268.6502186,-268.6502347,-268.6502859,-268
 .6503541,-268.6504272,-268.6505076,-268.6506137,-268.6507832,-268.6510
 532,-268.6514341,-268.6518837,-268.6523132,-268.6526242,-268.6527374\S
 2=0.780322,0.780302,0.780412,0.78065,0.780985,0.781325,0.781568,0.7816
 87,0.781702,0.78162,0.781487,0.781346,0.781211,0.781092,0.781005,0.780
 946,0.780918,0.780917,0.780936,0.78098,0.781035,0.781092,0.781153,0.78
 1209,0.781258,0.781309,0.781356,0.78141,0.781459,0.781484,0.781461,0.7
 81359,0.781177,0.780927,0.78067,0.780454,0.780321\S2-1=0.751261,0.7512
 28,0.751239,0.751293,0.751389,0.751498,0.751583,0.751646,0.751696,0.75
 1739,0.751753,0.751726,0.751677,0.751614,0.751552,0.751501,0.751443,0.
 751393,0.751374,0.75136,0.751376,0.751406,0.75144,0.751478,0.751518,0.
 751558,0.751603,0.751653,0.751707,0.751752,0.751772,0.751743,0.751665,
 0.75155,0.751434,0.751332,0.75126\S2A=0.750621,0.75062,0.750624,0.7506
 33,0.750645,0.750658,0.750667,0.750672,0.750673,0.750669,0.750663,0.75
 0656,0.750651,0.750647,0.750644,0.750642,0.750642,0.750643,0.750644,0.
 750646,0.750648,0.75065,0.750652,0.750654,0.750655,0.750657,0.750658,0
 .75066,0.750662,0.750662,0.75066,0.750656,0.750649,0.75064,0.750632,0.
 750625,0.750621\RMSD=5.770e-09,6.773e-09,8.743e-09,7.259e-09,8.688e-09
 ,7.587e-09,5.220e-09,5.416e-09,4.933e-09,7.519e-09,5.499e-09,4.132e-09
 ,8.920e-09,6.551e-09,9.927e-09,9.394e-09,8.842e-09,6.587e-09,8.070e-09
 ,6.809e-09,8.771e-09,4.670e-09,5.901e-09,7.001e-09,5.884e-09,5.984e-09
 ,5.369e-09,7.139e-09,5.498e-09,4.205e-09,5.946e-09,5.735e-09,6.708e-09
 ,3.592e-09,9.081e-09,3.412e-09,5.375e-09\PG=C01 [X(C3H7O2)]\\@


 The mind is not a vessel to be filled but a fire to be kindled.
                                  -- Plutarch
 Job cpu time:       5 days 10 hours 17 minutes 15.8 seconds.
 Elapsed time:       0 days  4 hours 53 minutes  4.6 seconds.
 File lengths (MBytes):  RWF=  26434 Int=      0 D2E=      0 Chk=     12 Scr=      1
 Normal termination of Gaussian 16 at Thu Jun 13 10:21:05 2019.
