 Entering Gaussian System, Link 0=g16
 Initial command:
 /ichec/packages/gaussian/16b01/l1.exe "/localscratch/347858/Gau-9077.inp" -scrdir="/localscratch/347858/"
 Entering Link 1 = /ichec/packages/gaussian/16b01/l1.exe PID=      9923.
  
 Copyright (c) 1988-2017, Gaussian, Inc.  All Rights Reserved.
  
 This is part of the Gaussian(R) 16 program.  It is based on
 the Gaussian(R) 09 system (copyright 2009, Gaussian, Inc.),
 the Gaussian(R) 03 system (copyright 2003, Gaussian, Inc.),
 the Gaussian(R) 98 system (copyright 1998, Gaussian, Inc.),
 the Gaussian(R) 94 system (copyright 1995, Gaussian, Inc.),
 the Gaussian 92(TM) system (copyright 1992, Gaussian, Inc.),
 the Gaussian 90(TM) system (copyright 1990, Gaussian, Inc.),
 the Gaussian 88(TM) system (copyright 1988, Gaussian, Inc.),
 the Gaussian 86(TM) system (copyright 1986, Carnegie Mellon
 University), and the Gaussian 82(TM) system (copyright 1983,
 Carnegie Mellon University). Gaussian is a federally registered
 trademark of Gaussian, Inc.
  
 This software contains proprietary and confidential information,
 including trade secrets, belonging to Gaussian, Inc.
  
 This software is provided under written license and may be
 used, copied, transmitted, or stored only in accord with that
 written license.
  
 The following legend is applicable only to US Government
 contracts under FAR:
  
                    RESTRICTED RIGHTS LEGEND
  
 Use, reproduction and disclosure by the US Government is
 subject to restrictions as set forth in subparagraphs (a)
 and (c) of the Commercial Computer Software - Restricted
 Rights clause in FAR 52.227-19.
  
 Gaussian, Inc.
 340 Quinnipiac St., Bldg. 40, Wallingford CT 06492
  
  
 ---------------------------------------------------------------
 Warning -- This program may not be used in any manner that
 competes with the business of Gaussian, Inc. or will provide
 assistance to any competitor of Gaussian, Inc.  The licensee
 of this program is prohibited from giving any competitor of
 Gaussian, Inc. access to this program.  By using this program,
 the user acknowledges that Gaussian, Inc. is engaged in the
 business of creating and licensing software in the field of
 computational chemistry and represents and warrants to the
 licensee that it is not a competitor of Gaussian, Inc. and that
 it will not use this program in any manner prohibited above.
 ---------------------------------------------------------------
  

 Cite this work as:
 Gaussian 16, Revision B.01,
 M. J. Frisch, G. W. Trucks, H. B. Schlegel, G. E. Scuseria, 
 M. A. Robb, J. R. Cheeseman, G. Scalmani, V. Barone, 
 G. A. Petersson, H. Nakatsuji, X. Li, M. Caricato, A. V. Marenich, 
 J. Bloino, B. G. Janesko, R. Gomperts, B. Mennucci, H. P. Hratchian, 
 J. V. Ortiz, A. F. Izmaylov, J. L. Sonnenberg, D. Williams-Young, 
 F. Ding, F. Lipparini, F. Egidi, J. Goings, B. Peng, A. Petrone, 
 T. Henderson, D. Ranasinghe, V. G. Zakrzewski, J. Gao, N. Rega, 
 G. Zheng, W. Liang, M. Hada, M. Ehara, K. Toyota, R. Fukuda, 
 J. Hasegawa, M. Ishida, T. Nakajima, Y. Honda, O. Kitao, H. Nakai, 
 T. Vreven, K. Throssell, J. A. Montgomery, Jr., J. E. Peralta, 
 F. Ogliaro, M. J. Bearpark, J. J. Heyd, E. N. Brothers, K. N. Kudin, 
 V. N. Staroverov, T. A. Keith, R. Kobayashi, J. Normand, 
 K. Raghavachari, A. P. Rendell, J. C. Burant, S. S. Iyengar, 
 J. Tomasi, M. Cossi, J. M. Millam, M. Klene, C. Adamo, R. Cammi, 
 J. W. Ochterski, R. L. Martin, K. Morokuma, O. Farkas, 
 J. B. Foresman, and D. J. Fox, Gaussian, Inc., Wallingford CT, 2016.
 
 ******************************************
 Gaussian 16:  ES64L-G16RevB.01 20-Dec-2017
                12-Jun-2019 
 ******************************************
 %mem=80GB
 %nproc=40
 Will use up to   40 processors via shared memory.
 ----------------------------------------------------------------------
 # opt=(calcfc,ts,noeigentest,maxcyc=500,modredundant) uB2PLYPD3/cc-pvt
 z scf=maxcyc=500 nosymm
 ----------------------------------------------------------------------
 1/5=1,6=500,10=4,11=1,18=120,38=1/1,3;
 2/9=110,12=2,15=1,17=6,18=5,40=1/2;
 3/5=16,6=1,11=2,25=1,30=1,71=2,74=-60,116=2,140=1/1,2,3;
 4//1;
 5/5=2,7=500,38=5/2;
 8/6=3,8=1,10=1,19=11,30=-1/1;
 9/15=3,16=-3/6;
 11/6=1,8=1,15=11,17=12,24=-1,27=1,28=-2,29=300,31=1,32=6,42=3/1,2,10;
 10/6=2,21=1,31=1/2;
 8/6=4,8=1,10=1,19=11,30=-1/11,4;
 10/5=1,20=4,31=1/2;
 11/12=2,14=11,16=1,17=2,28=-2,31=1,42=3,76=2/2,10,12;
 6/7=2,8=2,9=2,10=2/1;
 7/10=1,12=2,25=1,30=1,44=2/1,2,3,16;
 1/5=1,6=500,10=4,11=1,18=20/3(2);
 2/9=110,15=1/2;
 99//99;
 2/9=110,15=1/2;
 3/5=16,6=1,11=2,25=1,30=1,71=1,74=-60,116=2/1,2,3;
 4/5=5,16=3,69=1/1;
 5/5=2,7=500,38=5/2;
 8/6=4,10=1/1;
 9/15=2,16=-3/6;
 10/5=1,31=1/2;
 7/12=2,30=1/1,2,3,16;
 1/5=1,6=500,11=1,18=20/3(-8);
 2/9=110,15=1/2;
 6/7=2,8=2,9=2,10=2/1;
 99/9=10/99;
 -------------------
 Title Card Required
 -------------------
 Symbolic Z-matrix:
 Charge =  0 Multiplicity = 2
 C                     1.56429   0.64659  -0.18094 
 H                     0.89266   1.45707  -0.46951 
 H                     2.32135   1.0206    0.50514 
 H                     2.03423   0.22309  -1.06681 
 O                     0.86625  -0.35447   0.54494 
 O                    -0.06641  -0.94656  -0.33013 
 C                    -2.16004   0.42132   0.04783 
 H                    -2.94067  -0.32759   0.06406 
 H                    -1.91651   0.85813   1.00785 
 H                    -1.01626  -0.34246  -0.17679 
 H                    -2.19895   1.11194  -0.78367 
 
 Add virtual bond connecting atoms H10        and C7         Dist= 2.63D+00.
 The following ModRedundant input section has been read:
 D    *          7       6    *    R                                           
 D       5       6       7       9 S  36 10.000                                
 

 GradGradGradGradGradGradGradGradGradGradGradGradGradGradGradGradGradGrad
 Berny optimization.
 Initialization pass.
                           ----------------------------
                           !    Initial Parameters    !
                           ! (Angstroms and Degrees)  !
 --------------------------                            --------------------------
 ! Name  Definition              Value          Derivative Info.                !
 --------------------------------------------------------------------------------
 ! R1    R(1,2)                  1.0914         calculate D2E/DX2 analytically  !
 ! R2    R(1,3)                  1.088          calculate D2E/DX2 analytically  !
 ! R3    R(1,4)                  1.0886         calculate D2E/DX2 analytically  !
 ! R4    R(1,5)                  1.42           calculate D2E/DX2 analytically  !
 ! R5    R(5,6)                  1.4093         calculate D2E/DX2 analytically  !
 ! R6    R(6,10)                 1.1361         calculate D2E/DX2 analytically  !
 ! R7    R(7,8)                  1.0819         calculate D2E/DX2 analytically  !
 ! R8    R(7,9)                  1.0825         calculate D2E/DX2 analytically  !
 ! R9    R(7,10)                 1.3936         calculate D2E/DX2 analytically  !
 ! R10   R(7,11)                 1.0816         calculate D2E/DX2 analytically  !
 ! A1    A(2,1,3)              109.8554         calculate D2E/DX2 analytically  !
 ! A2    A(2,1,4)              109.8401         calculate D2E/DX2 analytically  !
 ! A3    A(2,1,5)              110.8646         calculate D2E/DX2 analytically  !
 ! A4    A(3,1,4)              110.2739         calculate D2E/DX2 analytically  !
 ! A5    A(3,1,5)              105.1922         calculate D2E/DX2 analytically  !
 ! A6    A(4,1,5)              110.7301         calculate D2E/DX2 analytically  !
 ! A7    A(1,5,6)              107.7039         calculate D2E/DX2 analytically  !
 ! A8    A(5,6,10)             104.2467         calculate D2E/DX2 analytically  !
 ! A9    A(8,7,9)              115.3628         calculate D2E/DX2 analytically  !
 ! A10   A(8,7,10)             102.4288         calculate D2E/DX2 analytically  !
 ! A11   A(8,7,11)             115.3134         calculate D2E/DX2 analytically  !
 ! A12   A(9,7,10)             100.3386         calculate D2E/DX2 analytically  !
 ! A13   A(9,7,11)             115.6096         calculate D2E/DX2 analytically  !
 ! A14   A(10,7,11)            104.8075         calculate D2E/DX2 analytically  !
 ! A15   L(6,10,7,2,-1)        178.8576         calculate D2E/DX2 analytically  !
 ! A16   L(6,10,7,2,-2)        181.6637         calculate D2E/DX2 analytically  !
 ! D1    D(2,1,5,6)             65.6            calculate D2E/DX2 analytically  !
 ! D2    D(3,1,5,6)           -175.7049         calculate D2E/DX2 analytically  !
 ! D3    D(4,1,5,6)            -56.5821         calculate D2E/DX2 analytically  !
 ! D4    D(1,5,6,10)           -91.8806         calculate D2E/DX2 analytically  !
 ! D5    D(5,6,7,9)            -19.2794         Scan                            !
 --------------------------------------------------------------------------------
 Trust Radius=3.00D-01 FncErr=1.00D-07 GrdErr=1.00D-07 EigMax=2.50D+02 EigMin=1.00D-04
 Number of optimizations in scan=  37
 Number of steps in this run=    100 maximum allowed number of steps=    100.
 Search for a saddle point of order  1.
 GradGradGradGradGradGradGradGradGradGradGradGradGradGradGradGradGradGrad

                          Input orientation:                          
 ---------------------------------------------------------------------
 Center     Atomic      Atomic             Coordinates (Angstroms)
 Number     Number       Type             X           Y           Z
 ---------------------------------------------------------------------
      1          6           0        1.564286    0.646589   -0.180944
      2          1           0        0.892655    1.457066   -0.469512
      3          1           0        2.321353    1.020599    0.505135
      4          1           0        2.034230    0.223093   -1.066806
      5          8           0        0.866245   -0.354470    0.544938
      6          8           0       -0.066410   -0.946560   -0.330133
      7          6           0       -2.160040    0.421321    0.047827
      8          1           0       -2.940665   -0.327592    0.064056
      9          1           0       -1.916512    0.858126    1.007852
     10          1           0       -1.016265   -0.342462   -0.176793
     11          1           0       -2.198951    1.111944   -0.783670
 ---------------------------------------------------------------------
                    Distance matrix (angstroms):
                    1          2          3          4          5
     1  C    0.000000
     2  H    1.091436   0.000000
     3  H    1.087997   1.783709   0.000000
     4  H    1.088553   1.783996   1.785904   0.000000
     5  O    1.419960   2.076408   2.002433   2.072556   0.000000
     6  O    2.284634   2.591650   3.204497   2.514650   1.409314
     7  C    3.738139   3.264867   4.544353   4.344376   3.163443
     8  H    4.615586   4.261929   5.449863   5.131441   3.837256
     9  H    3.684283   3.229977   4.270670   4.507309   3.070572
    10  H    2.763600   2.639690   3.669149   3.227614   2.016156
    11  H    3.839503   3.126633   4.701331   4.334748   3.648424
                    6          7          8          9         10
     6  O    0.000000
     7  C    2.529276   0.000000
     8  H    2.966454   1.081901   0.000000
     9  H    2.910322   1.082475   1.829089   0.000000
    10  H    1.136077   1.393571   1.939470   1.911868   0.000000
    11  H    2.998477   1.081601   1.827852   1.831324   1.970366
                   11
    11  H    0.000000
 Symmetry turned off by external request.
 Stoichiometry    C2H7O2(2)
 Framework group  C1[X(C2H7O2)]
 Deg. of freedom    27
 Full point group                 C1      NOp   1
 Rotational constants (GHZ):          13.0042333           3.7093383           3.2655184
 Standard basis: CC-pVTZ (5D, 7F)
   218 basis functions,   327 primitive gaussians,   245 cartesian basis functions
    18 alpha electrons       17 beta electrons
       nuclear repulsion energy       130.7720938067 Hartrees.
 NAtoms=   11 NActive=   11 NUniq=   11 SFac= 1.00D+00 NAtFMM=   60 NAOKFM=F Big=F
 Integral buffers will be    131072 words long.
 Raffenetti 2 integral format.
 Two-electron integral symmetry is turned off.
 Nuclear repulsion after empirical dispersion term =      130.7683987555 Hartrees.
 One-electron integrals computed using PRISM.
 NBasis=   218 RedAO= T EigKep=  1.76D-03  NBF=   218
 NBsUse=   218 1.00D-06 EigRej= -1.00D+00 NBFU=   218
 ExpMin= 1.03D-01 ExpMax= 1.53D+04 ExpMxC= 5.22D+02 IAcc=3 IRadAn=         5 AccDes= 0.00D+00
 Harris functional with IExCor=  419 and IRadAn=       5 diagonalized for initial guess.
 HarFok:  IExCor=  419 AccDes= 0.00D+00 IRadAn=         5 IDoV= 1 UseB2=F ITyADJ=14
 ICtDFT=  3500011 ScaDFX=  1.000000  1.000000  1.000000  1.000000
 FoFCou: FMM=F IPFlag=           0 FMFlag=      100000 FMFlg1=           0
         NFxFlg=           0 DoJE=T BraDBF=F KetDBF=T FulRan=T
         wScrn=  0.000000 ICntrl=       500 IOpCl=  0 I1Cent=   200000004 NGrid=           0
         NMat0=    1 NMatS0=      1 NMatT0=    0 NMatD0=    1 NMtDS0=    0 NMtDT0=    0
 Symmetry not used in FoFCou.
 Initial guess <Sx>= 0.0000 <Sy>= 0.0000 <Sz>= 0.5000 <S**2>= 0.7500 S= 0.5000
 Keep R1 and R2 ints in memory in canonical form, NReq=612885324.
 Requested convergence on RMS density matrix=1.00D-08 within 500 cycles.
 Requested convergence on MAX density matrix=1.00D-06.
 Requested convergence on             energy=1.00D-06.
 No special actions if energy rises.
 Integral accuracy reduced to 1.0D-05 until final iterations.
 Initial convergence to 1.0D-05 achieved.  Increase integral accuracy.
 SCF Done:  E(UB2PLYPD3) =  -230.321143600     A.U. after   19 cycles
            NFock= 19  Conv=0.36D-08     -V/T= 2.0042
 <Sx>= 0.0000 <Sy>= 0.0000 <Sz>= 0.5000 <S**2>= 0.7681 S= 0.5090
 <L.S>=  0.00000000000    
 Annihilation of the first spin contaminant:
 S**2 before annihilation     0.7681,   after     0.7501
 DoSCS=T DFT=T ScalE2(SS,OS)=  0.270000  0.270000
 ExpMin= 1.03D-01 ExpMax= 1.53D+04 ExpMxC= 5.22D+02 IAcc=3 IRadAn=         5 AccDes= 0.00D+00
 HarFok:  IExCor=  205 AccDes= 0.00D+00 IRadAn=         5 IDoV=-2 UseB2=F ITyADJ=14
 ICtDFT= 12500011 ScaDFX=  1.000000  1.000000  1.000000  1.000000
 Range of M.O.s used for correlation:     5   218
 NBasis=   218 NAE=    18 NBE=    17 NFC=     4 NFV=     0
 NROrb=    214 NOA=    14 NOB=    13 NVA=   200 NVB=   201

 **** Warning!!: The largest alpha MO coefficient is  0.10781799D+02


 **** Warning!!: The largest beta MO coefficient is  0.10591113D+02

 DoSCS=T DFT=T ScalE2(SS,OS)=  0.270000  0.270000
 Disk-based method using ON**2 memory for 14 occupieds at a time.
 Permanent disk used for amplitudes=    18079500 words.
 Estimated scratch disk usage=   369728064 words.
 Actual    scratch disk usage=   357218880 words.
 JobTyp=2 Pass  1:  I=   5 to  18 NPSUse= 40 ParTrn=T ParDer=T DoDerP=T.
 (rs|ai) integrals will be sorted in core.
 Actual    scratch disk usage=   357218880 words.
 JobTyp=3 Pass  1:  I=   5 to  17 NPSUse= 40 ParTrn=T ParDer=T DoDerP=T.
 (rs|ai) integrals will be sorted in core.
 Spin components of T(2) and E(2):
     alpha-alpha T2 =       0.4437428045D-01 E2=     -0.3429073998D-01
     alpha-beta  T2 =       0.2729460893D+00 E2=     -0.2114439563D+00
     beta-beta   T2 =       0.4650198412D-01 E2=     -0.3203801336D-01
 (S**2,0)=  0.76810D+00           (S**2,1)=  0.74295D+00
 Scaling Projection term by:   0.270000
 E(PUHF)=      -0.23032720084D+03        E(PMP2)=      -0.23059942072D+03
 E2(B2PLYPD3) =    -0.2777727096D+00 E(B2PLYPD3) =    -0.23059891630972D+03
 G2DrvN: will do    12 centers at a time, making    1 passes.
 Calling FoFCou, ICntrl=  3107 FMM=F I1Cent=   0 AccDes= 0.00D+00.
 End of G2Drv F.D. properties file   721 does not exist.
 End of G2Drv F.D. properties file   722 does not exist.
 End of G2Drv F.D. properties file   788 does not exist.
          IDoAtm=11111111111
          Differentiating once with respect to electric field.
                with respect to dipole field.
          Differentiating once with respect to nuclear coordinates.
 Keep R1 and R2 ints in memory in canonical form, NReq=612756314.
          There are    36 degrees of freedom in the 1st order CPHF.  IDoFFX=6 NUNeed=    36.
     33 vectors produced by pass  0 Test12= 1.95D-14 2.78D-09 XBig12= 5.34D+01 4.68D+00.
 AX will form    33 AO Fock derivatives at one time.
     33 vectors produced by pass  1 Test12= 1.95D-14 2.78D-09 XBig12= 2.77D+00 2.70D-01.
     33 vectors produced by pass  2 Test12= 1.95D-14 2.78D-09 XBig12= 1.29D-01 6.27D-02.
     33 vectors produced by pass  3 Test12= 1.95D-14 2.78D-09 XBig12= 2.20D-03 6.02D-03.
     33 vectors produced by pass  4 Test12= 1.95D-14 2.78D-09 XBig12= 3.36D-05 6.93D-04.
     33 vectors produced by pass  5 Test12= 1.95D-14 2.78D-09 XBig12= 3.18D-07 8.67D-05.
     32 vectors produced by pass  6 Test12= 1.95D-14 2.78D-09 XBig12= 3.14D-09 7.70D-06.
     12 vectors produced by pass  7 Test12= 1.95D-14 2.78D-09 XBig12= 2.07D-11 4.26D-07.
      3 vectors produced by pass  8 Test12= 1.95D-14 2.78D-09 XBig12= 1.24D-13 3.15D-08.
      1 vectors produced by pass  9 Test12= 1.95D-14 2.78D-09 XBig12= 1.01D-15 3.17D-09.
 InvSVY:  IOpt=1 It=  1 EMax= 7.11D-15
 Solved reduced A of dimension   246 with    36 vectors.
 End of Minotr F.D. properties file   721 does not exist.
 End of Minotr F.D. properties file   722 does not exist.
 End of Minotr F.D. properties file   788 does not exist.
 MDV= 10737418240.
 DoSCS=T DFT=T ScalE2(SS,OS)=  0.270000  0.270000
 Form MO integral derivatives with frozen-active canonical formalism.
 Discarding MO integrals.
 Reordered first order wavefunction length =     73075836
 In DefCFB: NBatch=  1 ICI= 18 ICA=201 LFMax= 67
            Large arrays: LIAPS=  1499111880 LIARS=   434340900 words.
 In DefCFB: NBatch=  1 ICI= 18 ICA=201 LFMax= 67
            Large arrays: LIAPS=  1499111880 LIARS=   434340900 words.
 Semi-Direct transformation.
 ModeAB=           4 MOrb=            18 LenV=   10735891527
 LASXX=     88207281 LTotXX=    88207281 LenRXX=   178224822
 LTotAB=    90017541 MaxLAS=   115008516 LenRXY=           0
 NonZer=   266432103 LenScr=   401215488 LnRSAI=   115008516
 LnScr1=   173260800 LExtra=           0 Total=    867709626
 MaxDsk=          -1 SrtSym=           T ITran=            4
 JobTyp=1 Pass  1:  I=   1 to  18.
 (rs|ai) integrals will be sorted in core.
 ModeAB=           4 MOrb=            17 LenV=   10735891527
 LASXX=     83565217 LTotXX=    83565217 LenRXX=   155322217
 LTotAB=    71757000 MaxLAS=   108619154 LenRXY=           0
 NonZer=   238887434 LenScr=   359737344 LnRSAI=   108619154
 LnScr1=   163693056 LExtra=           0 Total=    787371771
 MaxDsk=          -1 SrtSym=           T ITran=            4
 JobTyp=2 Pass  1:  I=   1 to  17.
 (rs|ai) integrals will be sorted in core.
 DoSCS=T DFT=T ScalE2(SS,OS)=  0.270000  0.270000
 Spin components of T(2) and E(2):
     alpha-alpha T2 =       0.4437428045D-01 E2=     -0.3429073998D-01
     alpha-beta  T2 =       0.2729460893D+00 E2=     -0.2114439563D+00
     beta-beta   T2 =       0.4650198412D-01 E2=     -0.3203801336D-01
 E2(B2PLYPD3) =    -0.2777727096D+00 E(B2PLYPD3) =    -0.23059891630972D+03
 (S**2,0)=  0.76810D+00           (S**2,1)=  0.74295D+00
 Scaling Projection term by:   0.270000
 E(PUHF)=      -0.23032720084D+03        E(PMP2)=      -0.23059942072D+03
          IDoAtm=11111111111
          Differentiating once with respect to electric field.
                with respect to dipole field.
          Differentiating once with respect to nuclear coordinates.
 Keep R1 and R2 ints in memory in canonical form, NReq=612893468.
          There are     1 degrees of freedom in the 1st order CPHF.  IDoFFX=0 NUNeed=     1.
 LinEq1:  Iter=  0 NonCon=     1 RMS=1.22D-03 Max=7.29D-02 NDo=     1
 AX will form     1 AO Fock derivatives at one time.
 LinEq1:  Iter=  1 NonCon=     1 RMS=3.75D-04 Max=8.37D-03 NDo=     1
 LinEq1:  Iter=  2 NonCon=     1 RMS=2.03D-04 Max=7.69D-03 NDo=     1
 LinEq1:  Iter=  3 NonCon=     1 RMS=8.26D-05 Max=1.17D-03 NDo=     1
 LinEq1:  Iter=  4 NonCon=     1 RMS=4.38D-05 Max=7.55D-04 NDo=     1
 LinEq1:  Iter=  5 NonCon=     1 RMS=3.23D-05 Max=8.19D-04 NDo=     1
 LinEq1:  Iter=  6 NonCon=     1 RMS=1.88D-05 Max=5.99D-04 NDo=     1
 LinEq1:  Iter=  7 NonCon=     1 RMS=4.82D-06 Max=8.21D-05 NDo=     1
 LinEq1:  Iter=  8 NonCon=     1 RMS=1.56D-06 Max=2.74D-05 NDo=     1
 LinEq1:  Iter=  9 NonCon=     1 RMS=4.94D-07 Max=9.02D-06 NDo=     1
 LinEq1:  Iter= 10 NonCon=     1 RMS=1.64D-07 Max=2.58D-06 NDo=     1
 LinEq1:  Iter= 11 NonCon=     1 RMS=5.19D-08 Max=6.31D-07 NDo=     1
 LinEq1:  Iter= 12 NonCon=     1 RMS=2.10D-08 Max=3.25D-07 NDo=     1
 LinEq1:  Iter= 13 NonCon=     1 RMS=8.19D-09 Max=1.14D-07 NDo=     1
 LinEq1:  Iter= 14 NonCon=     1 RMS=2.49D-09 Max=6.35D-08 NDo=     1
 LinEq1:  Iter= 15 NonCon=     1 RMS=7.13D-10 Max=2.85D-08 NDo=     1
 LinEq1:  Iter= 16 NonCon=     1 RMS=2.31D-10 Max=8.95D-09 NDo=     1
 LinEq1:  Iter= 17 NonCon=     1 RMS=7.45D-11 Max=2.03D-09 NDo=     1
 LinEq1:  Iter= 18 NonCon=     0 RMS=1.87D-11 Max=2.65D-10 NDo=     1
 Linear equations converged to 1.000D-10 1.000D-09 after    18 iterations.
 End of Minotr F.D. properties file   721 does not exist.
 End of Minotr F.D. properties file   722 does not exist.
 End of Minotr F.D. properties file   788 does not exist.
 Symmetrizing basis deriv contribution to polar:
 IMax=3 JMax=2 DiffMx= 0.00D+00
 G2DrvN: will do    12 centers at a time, making    1 passes.
 Calling FoFCou, ICntrl=  3107 FMM=F I1Cent=   0 AccDes= 0.00D+00.
 End of G2Drv F.D. properties file   721 does not exist.
 End of G2Drv F.D. properties file   722 does not exist.
 End of G2Drv F.D. properties file   788 does not exist.
 DoSCS=T DFT=T ScalE2(SS,OS)=  0.270000  0.270000
 R2 and R3 integrals will be kept in memory, NReq=   915591705.
 DD1Dir will call FoFMem   1 times, MxPair=       902
 NAB=   306 NAA=   153 NBB=   136.
 Discarding MO integrals.

 **********************************************************************

            Population analysis using the SCF Density.

 **********************************************************************

 Alpha  occ. eigenvalues --  -19.78660 -19.78639 -10.66119 -10.64075  -1.27549
 Alpha  occ. eigenvalues --   -1.02395  -0.83017  -0.77568  -0.61115  -0.55882
 Alpha  occ. eigenvalues --   -0.54583  -0.50331  -0.49975  -0.49800  -0.44180
 Alpha  occ. eigenvalues --   -0.37846  -0.36838  -0.31392
 Alpha virt. eigenvalues --    0.07343   0.10550   0.12804   0.14258   0.15164
 Alpha virt. eigenvalues --    0.15561   0.16751   0.20200   0.26921   0.28087
 Alpha virt. eigenvalues --    0.28502   0.31346   0.32714   0.36260   0.44606
 Alpha virt. eigenvalues --    0.48313   0.49083   0.50278   0.51210   0.51967
 Alpha virt. eigenvalues --    0.53245   0.53897   0.54403   0.54546   0.57363
 Alpha virt. eigenvalues --    0.59866   0.65938   0.68054   0.71230   0.74317
 Alpha virt. eigenvalues --    0.78845   0.83712   0.89170   0.90381   0.91866
 Alpha virt. eigenvalues --    0.94221   0.94786   0.96098   1.02638   1.03595
 Alpha virt. eigenvalues --    1.04334   1.05857   1.06673   1.11247   1.12245
 Alpha virt. eigenvalues --    1.13704   1.16083   1.18173   1.21317   1.25215
 Alpha virt. eigenvalues --    1.32482   1.36890   1.37283   1.38592   1.39102
 Alpha virt. eigenvalues --    1.39868   1.42815   1.43998   1.49019   1.52292
 Alpha virt. eigenvalues --    1.62155   1.66621   1.69533   1.78505   1.83519
 Alpha virt. eigenvalues --    1.89392   1.97349   2.03358   2.10564   2.13801
 Alpha virt. eigenvalues --    2.19639   2.25284   2.30416   2.32705   2.34991
 Alpha virt. eigenvalues --    2.38623   2.42811   2.49340   2.52782   2.55649
 Alpha virt. eigenvalues --    2.67963   2.71214   2.74222   2.83293   2.85747
 Alpha virt. eigenvalues --    2.88346   2.91170   2.91465   2.92745   2.93688
 Alpha virt. eigenvalues --    2.94488   2.96412   3.00735   3.04574   3.11163
 Alpha virt. eigenvalues --    3.12392   3.13867   3.14908   3.16612   3.18500
 Alpha virt. eigenvalues --    3.20998   3.21558   3.34978   3.40238   3.40333
 Alpha virt. eigenvalues --    3.40756   3.42942   3.44375   3.48961   3.49662
 Alpha virt. eigenvalues --    3.51448   3.53662   3.54403   3.55761   3.57008
 Alpha virt. eigenvalues --    3.59279   3.61341   3.64346   3.79573   3.81206
 Alpha virt. eigenvalues --    3.82758   3.84589   3.86434   3.87251   3.91588
 Alpha virt. eigenvalues --    3.95724   3.96085   4.00529   4.02813   4.05394
 Alpha virt. eigenvalues --    4.07000   4.08648   4.11405   4.17058   4.17949
 Alpha virt. eigenvalues --    4.19935   4.21030   4.21562   4.25585   4.35457
 Alpha virt. eigenvalues --    4.37299   4.42509   4.43375   4.50664   4.54846
 Alpha virt. eigenvalues --    4.62184   4.68441   4.80010   4.81228   4.89007
 Alpha virt. eigenvalues --    4.94242   4.95958   4.98599   4.99059   4.99837
 Alpha virt. eigenvalues --    5.02911   5.06374   5.11008   5.12890   5.22469
 Alpha virt. eigenvalues --    5.23787   5.25565   5.29737   5.30576   5.34664
 Alpha virt. eigenvalues --    5.36167   5.39343   5.39954   5.46755   5.59152
 Alpha virt. eigenvalues --    5.67868   5.71033   5.75676   5.81577   5.86246
 Alpha virt. eigenvalues --    5.88884   5.92675   5.96040   6.04052   6.08780
 Alpha virt. eigenvalues --    6.24958   6.34489   6.37760   6.42084   6.63529
 Alpha virt. eigenvalues --    6.74528   6.75653   6.82496   6.94695   7.04545
 Alpha virt. eigenvalues --    7.06134   7.17565   7.40316   7.42056   7.58392
 Alpha virt. eigenvalues --    7.73415   9.88733  10.65841  13.27272  13.41398
  Beta  occ. eigenvalues --  -19.78529 -19.77132 -10.66126 -10.62742  -1.25766
  Beta  occ. eigenvalues --   -0.99672  -0.79108  -0.76750  -0.57803  -0.54675
  Beta  occ. eigenvalues --   -0.54278  -0.49309  -0.49112  -0.46630  -0.43343
  Beta  occ. eigenvalues --   -0.35717  -0.33951
  Beta virt. eigenvalues --   -0.05327   0.07663   0.10811   0.13465   0.14477
  Beta virt. eigenvalues --    0.15413   0.15705   0.16879   0.21007   0.28296
  Beta virt. eigenvalues --    0.28359   0.29554   0.31744   0.32842   0.37336
  Beta virt. eigenvalues --    0.44887   0.49472   0.49687   0.51621   0.52244
  Beta virt. eigenvalues --    0.53000   0.53793   0.54618   0.55351   0.55828
  Beta virt. eigenvalues --    0.58397   0.60440   0.66175   0.68237   0.71945
  Beta virt. eigenvalues --    0.75080   0.79509   0.84131   0.89545   0.90569
  Beta virt. eigenvalues --    0.91765   0.94302   0.95216   0.96280   1.02899
  Beta virt. eigenvalues --    1.03964   1.04701   1.06319   1.08291   1.12216
  Beta virt. eigenvalues --    1.12861   1.14431   1.16503   1.18385   1.21791
  Beta virt. eigenvalues --    1.25591   1.32753   1.37299   1.37871   1.38648
  Beta virt. eigenvalues --    1.39393   1.40072   1.43532   1.44534   1.49724
  Beta virt. eigenvalues --    1.52508   1.62237   1.67836   1.70280   1.78885
  Beta virt. eigenvalues --    1.86808   1.90654   1.97850   2.04172   2.10894
  Beta virt. eigenvalues --    2.15692   2.19772   2.26358   2.31429   2.33424
  Beta virt. eigenvalues --    2.35129   2.38777   2.43809   2.49550   2.53836
  Beta virt. eigenvalues --    2.56963   2.68443   2.72416   2.75419   2.83662
  Beta virt. eigenvalues --    2.87012   2.89258   2.91749   2.92249   2.93732
  Beta virt. eigenvalues --    2.94189   2.95540   2.97221   3.00994   3.04728
  Beta virt. eigenvalues --    3.11850   3.12470   3.14698   3.16097   3.18750
  Beta virt. eigenvalues --    3.19910   3.22082   3.22893   3.35151   3.39967
  Beta virt. eigenvalues --    3.40514   3.40987   3.43097   3.46114   3.49498
  Beta virt. eigenvalues --    3.50434   3.51614   3.53765   3.54578   3.55827
  Beta virt. eigenvalues --    3.56978   3.60040   3.61426   3.64776   3.79935
  Beta virt. eigenvalues --    3.81172   3.82482   3.84576   3.86608   3.87512
  Beta virt. eigenvalues --    3.91721   3.95822   3.96289   4.00596   4.02824
  Beta virt. eigenvalues --    4.05203   4.06791   4.08862   4.11432   4.17226
  Beta virt. eigenvalues --    4.18117   4.20078   4.21266   4.21822   4.25714
  Beta virt. eigenvalues --    4.35491   4.37642   4.42926   4.44943   4.51483
  Beta virt. eigenvalues --    4.55611   4.63245   4.68848   4.80305   4.81333
  Beta virt. eigenvalues --    4.89738   4.94501   4.96339   4.99244   4.99792
  Beta virt. eigenvalues --    5.00174   5.03258   5.06566   5.12359   5.14130
  Beta virt. eigenvalues --    5.22875   5.24607   5.25878   5.30111   5.30779
  Beta virt. eigenvalues --    5.35042   5.36470   5.39469   5.40763   5.47012
  Beta virt. eigenvalues --    5.59858   5.68515   5.72934   5.76192   5.82308
  Beta virt. eigenvalues --    5.86779   5.89366   5.92721   5.96340   6.05455
  Beta virt. eigenvalues --    6.09198   6.25254   6.36042   6.38987   6.43541
  Beta virt. eigenvalues --    6.64510   6.76694   6.77539   6.83756   6.96323
  Beta virt. eigenvalues --    7.05131   7.07509   7.19620   7.41976   7.42723
  Beta virt. eigenvalues --    7.60276   7.73982   9.89440  10.66909  13.28190
  Beta virt. eigenvalues --   13.41640
          Condensed to atoms (all electrons):
               1          2          3          4          5          6
     1  C    4.580021   0.392489   0.395363   0.409301   0.311527  -0.044844
     2  H    0.392489   0.688269  -0.033642  -0.062708  -0.048570  -0.002590
     3  H    0.395363  -0.033642   0.594650  -0.030560  -0.026414   0.006989
     4  H    0.409301  -0.062708  -0.030560   0.638330  -0.042985   0.003840
     5  O    0.311527  -0.048570  -0.026414  -0.042985   7.945203   0.071825
     6  O   -0.044844  -0.002590   0.006989   0.003840   0.071825   8.044686
     7  C   -0.002874   0.000425   0.000265  -0.000322   0.001860  -0.074616
     8  H    0.000082  -0.000142  -0.000001   0.000011   0.000388   0.000647
     9  H    0.000038  -0.001517   0.000010   0.000287   0.005025  -0.002255
    10  H    0.002483   0.004798  -0.000793   0.000438  -0.028822   0.219669
    11  H   -0.000018  -0.000526  -0.000034   0.000029   0.000206   0.000027
               7          8          9         10         11
     1  C   -0.002874   0.000082   0.000038   0.002483  -0.000018
     2  H    0.000425  -0.000142  -0.001517   0.004798  -0.000526
     3  H    0.000265  -0.000001   0.000010  -0.000793  -0.000034
     4  H   -0.000322   0.000011   0.000287   0.000438   0.000029
     5  O    0.001860   0.000388   0.005025  -0.028822   0.000206
     6  O   -0.074616   0.000647  -0.002255   0.219669   0.000027
     7  C    5.085972   0.397396   0.389835   0.187320   0.392388
     8  H    0.397396   0.528948  -0.022645  -0.006930  -0.025827
     9  H    0.389835  -0.022645   0.539875  -0.005826  -0.028822
    10  H    0.187320  -0.006930  -0.005826   0.411221  -0.003994
    11  H    0.392388  -0.025827  -0.028822  -0.003994   0.549460
          Atomic-Atomic Spin Densities.
               1          2          3          4          5          6
     1  C   -0.004740   0.003492   0.000638  -0.002808   0.000927  -0.002503
     2  H    0.003492   0.002389  -0.000751  -0.001425  -0.000837   0.003609
     3  H    0.000638  -0.000751  -0.001753   0.001101   0.000017  -0.000196
     4  H   -0.002808  -0.001425   0.001101   0.004243  -0.000735  -0.000339
     5  O    0.000927  -0.000837   0.000017  -0.000735   0.044024  -0.037937
     6  O   -0.002503   0.003609  -0.000196  -0.000339  -0.037937   0.536601
     7  C    0.001132  -0.004327   0.000117   0.001152   0.011487  -0.086001
     8  H   -0.000037   0.000110  -0.000001  -0.000020  -0.000247   0.001963
     9  H   -0.000240   0.000507  -0.000015  -0.000070  -0.001007   0.001916
    10  H    0.001367  -0.002966   0.000050   0.001242   0.008202  -0.032789
    11  H   -0.000080   0.000575  -0.000004  -0.000094  -0.000438   0.002538
               7          8          9         10         11
     1  C    0.001132  -0.000037  -0.000240   0.001367  -0.000080
     2  H   -0.004327   0.000110   0.000507  -0.002966   0.000575
     3  H    0.000117  -0.000001  -0.000015   0.000050  -0.000004
     4  H    0.001152  -0.000020  -0.000070   0.001242  -0.000094
     5  O    0.011487  -0.000247  -0.001007   0.008202  -0.000438
     6  O   -0.086001   0.001963   0.001916  -0.032789   0.002538
     7  C    0.746173   0.001515   0.003416   0.045329   0.000682
     8  H    0.001515  -0.025111   0.001700   0.002213   0.002642
     9  H    0.003416   0.001700  -0.027990   0.004159   0.002100
    10  H    0.045329   0.002213   0.004159  -0.112127   0.001393
    11  H    0.000682   0.002642   0.002100   0.001393  -0.024551
 Mulliken charges and spin densities:
               1          2
     1  C   -0.043566  -0.002854
     2  H    0.063716   0.000376
     3  H    0.094167  -0.000798
     4  H    0.084338   0.002246
     5  O   -0.189243   0.023458
     6  O   -0.223378   0.386862
     7  C   -0.377648   0.720674
     8  H    0.128074  -0.015273
     9  H    0.125994  -0.015526
    10  H    0.220435  -0.083927
    11  H    0.117112  -0.015238
 Sum of Mulliken charges =  -0.00000   1.00000
 Mulliken charges and spin densities with hydrogens summed into heavy atoms:
               1          2
     1  C    0.198655  -0.001030
     5  O   -0.189243   0.023458
     6  O   -0.002943   0.302935
     7  C   -0.006469   0.674637
 APT charges:
               1
     1  C    0.438334
     2  H   -0.043792
     3  H   -0.005526
     4  H   -0.030236
     5  O   -0.437042
     6  O    0.179978
     7  C    0.287287
     8  H   -0.012043
     9  H   -0.021009
    10  H   -0.331685
    11  H   -0.024265
 Sum of APT charges =  -0.00000
 APT charges with hydrogens summed into heavy atoms:
               1
     1  C    0.358779
     5  O   -0.437042
     6  O   -0.151707
     7  C    0.229970
 Electronic spatial extent (au):  <R**2>=            416.6920
 Charge=             -0.0000 electrons
 Dipole moment (field-independent basis, Debye):
    X=             -0.6991    Y=              2.2592    Z=             -0.4596  Tot=              2.4091
 Quadrupole moment (field-independent basis, Debye-Ang):
   XX=            -20.9301   YY=            -27.1159   ZZ=            -26.7081
   XY=              1.5071   XZ=             -0.6532   YZ=             -0.0328
 Traceless Quadrupole moment (field-independent basis, Debye-Ang):
   XX=              3.9879   YY=             -2.1978   ZZ=             -1.7901
   XY=              1.5071   XZ=             -0.6532   YZ=             -0.0328
 Octapole moment (field-independent basis, Debye-Ang**2):
  XXX=              3.5959  YYY=             -2.2946  ZZZ=              0.8384  XYY=              1.1874
  XXY=             -0.8395  XXZ=             -0.7459  XZZ=              0.8648  YZZ=             -0.0550
  YYZ=              0.1681  XYZ=              1.1858
 Hexadecapole moment (field-independent basis, Debye-Ang**3):
 XXXX=           -377.5151 YYYY=           -102.9951 ZZZZ=            -53.0554 XXXY=             12.4057
 XXXZ=              4.2811 YYYX=              0.0585 YYYZ=             -0.8199 ZZZX=              0.7715
 ZZZY=              0.9770 XXYY=            -80.8525 XXZZ=            -72.2795 YYZZ=            -24.7147
 XXYZ=              1.2372 YYXZ=              1.7713 ZZXY=             -0.9392
 N-N= 1.307683987555D+02 E-N=-8.026051472400D+02  KE= 2.293470568341D+02
  Exact polarizability:  72.660  -5.023  38.262  -0.168   1.257  33.531
 Approx polarizability:  55.995  -3.188  42.053   2.401   2.114  38.528
                          Isotropic Fermi Contact Couplings
        Atom                 a.u.       MegaHertz       Gauss      10(-4) cm-1
     1  C(13)             -0.00330      -3.71077      -1.32410      -1.23778
     2  H(1)               0.00234      10.45273       3.72980       3.48666
     3  H(1)              -0.00007      -0.31634      -0.11288      -0.10552
     4  H(1)               0.00051       2.26617       0.80862       0.75591
     5  O(17)              0.01403      -8.50770      -3.03576      -2.83786
     6  O(17)              0.03049     -18.48182      -6.59477      -6.16487
     7  C(13)              0.10126     113.84100      40.62130      37.97327
     8  H(1)              -0.00572     -25.57858      -9.12707      -8.53210
     9  H(1)              -0.00578     -25.81438      -9.21121      -8.61075
    10  H(1)              -0.02802    -125.23743     -44.68783     -41.77471
    11  H(1)              -0.00591     -26.42729      -9.42991      -8.81519
 --------------------------------------------------------
       Center         ----  Spin Dipole Couplings  ----
                      3XX-RR        3YY-RR        3ZZ-RR
 --------------------------------------------------------
     1   Atom        0.004730      0.000849     -0.005579
     2   Atom        0.001869      0.003819     -0.005688
     3   Atom        0.003438     -0.000137     -0.003301
     4   Atom        0.005027     -0.002289     -0.002738
     5   Atom        0.204999      0.004077     -0.209076
     6   Atom        0.458114      0.247683     -0.705796
     7   Atom        0.385978     -0.048938     -0.337040
     8   Atom        0.026339      0.021390     -0.047728
     9   Atom       -0.005182     -0.023093      0.028274
    10   Atom        0.142266     -0.023232     -0.119034
    11   Atom       -0.016006      0.000523      0.015482
 --------------------------------------------------------
                        XY            XZ            YZ
 --------------------------------------------------------
     1   Atom        0.005838      0.000530     -0.002421
     2   Atom        0.005243     -0.001591     -0.001922
     3   Atom        0.003921      0.000865      0.000749
     4   Atom        0.004226     -0.003769     -0.001919
     5   Atom       -0.268508     -0.051354     -0.007850
     6   Atom       -1.214240     -0.450371      0.419815
     7   Atom       -0.514007     -0.201508      0.133946
     8   Atom        0.026599     -0.008192      0.006299
     9   Atom       -0.011834      0.018759      0.036418
    10   Atom       -0.164420     -0.037939      0.025539
    11   Atom       -0.020350     -0.011154     -0.041719
 --------------------------------------------------------


 ---------------------------------------------------------------------------------
              Anisotropic Spin Dipole Couplings in Principal Axis System
 ---------------------------------------------------------------------------------

       Atom             a.u.   MegaHertz   Gauss  10(-4) cm-1        Axes

              Baa    -0.0070    -0.945    -0.337    -0.315 -0.2645  0.4562  0.8496
     1 C(13)  Bbb    -0.0020    -0.264    -0.094    -0.088 -0.5363  0.6626 -0.5228
              Bcc     0.0090     1.209     0.431     0.403  0.8015  0.5939 -0.0694
 
              Baa    -0.0061    -3.267    -1.166    -1.090  0.1089  0.1330  0.9851
     2 H(1)   Bbb    -0.0025    -1.328    -0.474    -0.443  0.7692 -0.6390  0.0013
              Bcc     0.0086     4.595     1.640     1.533  0.6296  0.7576 -0.1719
 
              Baa    -0.0035    -1.851    -0.660    -0.617  0.0069 -0.2270  0.9739
     3 H(1)   Bbb    -0.0026    -1.402    -0.500    -0.468 -0.5520  0.8112  0.1930
              Bcc     0.0061     3.253     1.161     1.085  0.8338  0.5389  0.1197
 
              Baa    -0.0044    -2.372    -0.846    -0.791  0.0056  0.6586  0.7524
     4 H(1)   Bbb    -0.0041    -2.185    -0.780    -0.729 -0.5273  0.6412 -0.5574
              Bcc     0.0085     4.557     1.626     1.520  0.8496  0.3937 -0.3509
 
              Baa    -0.2353    17.029     6.076     5.680  0.3584  0.4291  0.8291
     5 O(17)  Bbb    -0.1583    11.452     4.086     3.820  0.4420  0.7043 -0.5555
              Bcc     0.3936   -28.480   -10.162    -9.500  0.8223 -0.5656 -0.0627
 
              Baa    -0.8690    62.883    22.438    20.976  0.4687  0.7082 -0.5280
     6 O(17)  Bbb    -0.8584    62.115    22.164    20.719  0.5199  0.2621  0.8130
              Bcc     1.7275  -124.998   -44.603   -41.695  0.7142 -0.6556 -0.2453
 
              Baa    -0.3899   -52.317   -18.668   -17.451  0.3039  0.7084 -0.6370
     7 C(13)  Bbb    -0.3892   -52.229   -18.637   -17.422  0.4940  0.4545  0.7412
              Bcc     0.7791   104.546    37.305    34.873  0.8146 -0.5399 -0.2119
 
              Baa    -0.0500   -26.655    -9.511    -8.891  0.1552 -0.1441  0.9773
     8 H(1)   Bbb    -0.0007    -0.349    -0.124    -0.116 -0.6529  0.7275  0.2110
              Bcc     0.0506    27.004     9.636     9.008  0.7414  0.6708 -0.0188
 
              Baa    -0.0503   -26.852    -9.581    -8.957  0.3996  0.7917 -0.4622
     9 H(1)   Bbb     0.0007     0.373     0.133     0.124  0.8911 -0.4538 -0.0069
              Bcc     0.0496    26.479     9.448     8.832  0.2152  0.4091  0.8868
 
              Baa    -0.1265   -67.470   -24.075   -22.506 -0.2878 -0.6357  0.7163
    10 H(1)   Bbb    -0.1228   -65.521   -23.380   -21.855  0.4516  0.5695  0.6869
              Bcc     0.2493   132.991    47.455    44.361  0.8445 -0.5211 -0.1231
 
              Baa    -0.0498   -26.574    -9.482    -8.864  0.5608  0.6509  0.5117
    11 H(1)   Bbb    -0.0009    -0.488    -0.174    -0.163  0.8247 -0.3838 -0.4155
              Bcc     0.0507    27.062     9.657     9.027  0.0741 -0.6550  0.7520
 

 ---------------------------------------------------------------------------------

 Calling FoFJK, ICntrl=  10100127 FMM=F ISym2X=0 I1Cent= 0 IOpClX= 1 NMat=1 NMatS=1 NMatT=0.
 -------------------------------------------------------------------
 Center     Atomic                   Forces (Hartrees/Bohr)
 Number     Number              X              Y              Z
 -------------------------------------------------------------------
      1        6          -0.000000046    0.000000642    0.000000103
      2        1          -0.000000244    0.000000044   -0.000000182
      3        1           0.000000171    0.000000023    0.000000076
      4        1          -0.000000095    0.000000007    0.000000105
      5        8           0.000000824    0.000000183    0.000000747
      6        8          -0.000000697   -0.000001236   -0.000000752
      7        6           0.000000925    0.000000078    0.000000762
      8        1          -0.000000291   -0.000000200   -0.000000115
      9        1          -0.000000001    0.000000027   -0.000000371
     10        1          -0.000000724    0.000000288   -0.000000273
     11        1           0.000000177    0.000000144   -0.000000103
 -------------------------------------------------------------------
 Cartesian Forces:  Max     0.000001236 RMS     0.000000457
 FormGI is forming the generalized inverse of G from B-inverse, IUseBI=4.

 GradGradGradGradGradGradGradGradGradGradGradGradGradGradGradGradGradGrad
 Berny optimization.
 Internal  Forces:  Max     0.000001811 RMS     0.000000606
 Search for a saddle point.
 Step number   1 out of a maximum of  100 on scan point     1 out of    37
 All quantities printed in internal units (Hartrees-Bohrs-Radians)
 Swapping is turned off.
 Second derivative matrix not updated -- analytic derivatives used.
 ITU=  0
     Eigenvalues ---   -0.07773   0.00629   0.01482   0.02350   0.03008
     Eigenvalues ---    0.05351   0.05547   0.08492   0.08530   0.10286
     Eigenvalues ---    0.10777   0.10847   0.13045   0.15608   0.16662
     Eigenvalues ---    0.18161   0.19067   0.26038   0.32048   0.33515
     Eigenvalues ---    0.34488   0.35554   0.36083   0.36183   0.36270
     Eigenvalues ---    0.405641000.000001000.000001000.000001000.00000
     Eigenvalues --- 1000.00000
 Eigenvectors required to have negative eigenvalues:
                          R9        R6        R5        A12       A10
   1                    0.71262  -0.62441   0.15499  -0.14620  -0.10953
                          A8        A14       A9        A13       A11
   1                   -0.09651  -0.09400   0.08412   0.08185   0.08000
 RFO step:  Lambda0=5.441619377D-13 Lambda= 0.00000000D+00.
 Linear search not attempted -- option 19 set.
 Iteration  1 RMS(Cart)=  0.00007883 RMS(Int)=  0.00000000
 Iteration  2 RMS(Cart)=  0.00000000 RMS(Int)=  0.00000000
 Iteration  1 RMS(Cart)=  0.00000000 RMS(Int)=  0.00000000
 Variable       Old X    -DE/DX   Delta X   Delta X   Delta X     New X
                                 (Linear)    (Quad)   (Total)
    R1        2.06252   0.00000   0.00000   0.00000   0.00000   2.06252
    R2        2.05602   0.00000   0.00000   0.00000   0.00000   2.05602
    R3        2.05707  -0.00000   0.00000  -0.00000  -0.00000   2.05707
    R4        2.68333   0.00000   0.00000   0.00000   0.00000   2.68334
    R5        2.66322   0.00000   0.00000   0.00001   0.00001   2.66322
    R6        2.14688   0.00000   0.00000  -0.00000  -0.00000   2.14687
    R7        2.04450   0.00000   0.00000   0.00000   0.00000   2.04450
    R8        2.04558  -0.00000   0.00000  -0.00000  -0.00000   2.04558
    R9        2.63347  -0.00000   0.00000   0.00000   0.00000   2.63347
   R10        2.04393   0.00000   0.00000   0.00000   0.00000   2.04393
    A1        1.91734   0.00000   0.00000   0.00000   0.00000   1.91734
    A2        1.91707  -0.00000   0.00000  -0.00000  -0.00000   1.91707
    A3        1.93495  -0.00000   0.00000  -0.00000  -0.00000   1.93495
    A4        1.92464   0.00000   0.00000   0.00000   0.00000   1.92464
    A5        1.83595   0.00000   0.00000   0.00000   0.00000   1.83595
    A6        1.93261  -0.00000   0.00000  -0.00000  -0.00000   1.93261
    A7        1.87979  -0.00000   0.00000  -0.00000  -0.00000   1.87979
    A8        1.81945  -0.00000   0.00000  -0.00001  -0.00001   1.81944
    A9        2.01346   0.00000   0.00000   0.00000   0.00000   2.01346
   A10        1.78772   0.00000   0.00000   0.00001   0.00001   1.78773
   A11        2.01260   0.00000   0.00000  -0.00000  -0.00000   2.01260
   A12        1.75124   0.00000   0.00000  -0.00001  -0.00001   1.75123
   A13        2.01777  -0.00000   0.00000  -0.00000  -0.00000   2.01777
   A14        1.82924  -0.00000   0.00000  -0.00001  -0.00001   1.82923
   A15        3.12165  -0.00000   0.00000  -0.00004  -0.00004   3.12161
   A16        3.17063   0.00000   0.00000   0.00002   0.00002   3.17065
    D1        1.14494  -0.00000   0.00000  -0.00001  -0.00001   1.14493
    D2       -3.06663  -0.00000   0.00000  -0.00001  -0.00001  -3.06664
    D3       -0.98754  -0.00000   0.00000  -0.00001  -0.00001  -0.98755
    D4       -1.60362   0.00000   0.00000   0.00007   0.00007  -1.60355
    D5       -0.33649  -0.00000   0.00000   0.00000  -0.00000  -0.33649
         Item               Value     Threshold  Converged?
 Maximum Force            0.000002     0.000450     YES
 RMS     Force            0.000001     0.000300     YES
 Maximum Displacement     0.000182     0.001800     YES
 RMS     Displacement     0.000079     0.001200     YES
 Predicted change in Energy=-1.066179D-10
 Optimization completed.
    -- Stationary point found.
                           ----------------------------
                           !   Optimized Parameters   !
                           ! (Angstroms and Degrees)  !
 --------------------------                            --------------------------
 ! Name  Definition              Value          Derivative Info.                !
 --------------------------------------------------------------------------------
 ! R1    R(1,2)                  1.0914         -DE/DX =    0.0                 !
 ! R2    R(1,3)                  1.088          -DE/DX =    0.0                 !
 ! R3    R(1,4)                  1.0886         -DE/DX =    0.0                 !
 ! R4    R(1,5)                  1.42           -DE/DX =    0.0                 !
 ! R5    R(5,6)                  1.4093         -DE/DX =    0.0                 !
 ! R6    R(6,10)                 1.1361         -DE/DX =    0.0                 !
 ! R7    R(7,8)                  1.0819         -DE/DX =    0.0                 !
 ! R8    R(7,9)                  1.0825         -DE/DX =    0.0                 !
 ! R9    R(7,10)                 1.3936         -DE/DX =    0.0                 !
 ! R10   R(7,11)                 1.0816         -DE/DX =    0.0                 !
 ! A1    A(2,1,3)              109.8554         -DE/DX =    0.0                 !
 ! A2    A(2,1,4)              109.8401         -DE/DX =    0.0                 !
 ! A3    A(2,1,5)              110.8646         -DE/DX =    0.0                 !
 ! A4    A(3,1,4)              110.2739         -DE/DX =    0.0                 !
 ! A5    A(3,1,5)              105.1922         -DE/DX =    0.0                 !
 ! A6    A(4,1,5)              110.7301         -DE/DX =    0.0                 !
 ! A7    A(1,5,6)              107.7039         -DE/DX =    0.0                 !
 ! A8    A(5,6,10)             104.2467         -DE/DX =    0.0                 !
 ! A9    A(8,7,9)              115.3628         -DE/DX =    0.0                 !
 ! A10   A(8,7,10)             102.4288         -DE/DX =    0.0                 !
 ! A11   A(8,7,11)             115.3134         -DE/DX =    0.0                 !
 ! A12   A(9,7,10)             100.3386         -DE/DX =    0.0                 !
 ! A13   A(9,7,11)             115.6096         -DE/DX =    0.0                 !
 ! A14   A(10,7,11)            104.8075         -DE/DX =    0.0                 !
 ! A15   L(6,10,7,2,-1)        178.8576         -DE/DX =    0.0                 !
 ! A16   L(6,10,7,2,-2)        181.6637         -DE/DX =    0.0                 !
 ! D1    D(2,1,5,6)             65.6            -DE/DX =    0.0                 !
 ! D2    D(3,1,5,6)           -175.7049         -DE/DX =    0.0                 !
 ! D3    D(4,1,5,6)            -56.5821         -DE/DX =    0.0                 !
 ! D4    D(1,5,6,10)           -91.8806         -DE/DX =    0.0                 !
 ! D5    D(5,6,7,9)            -19.2794         -DE/DX =    0.0                 !
 --------------------------------------------------------------------------------
 Iteration  1 RMS(Cart)=  0.09126890 RMS(Int)=  0.00518013
 Iteration  2 RMS(Cart)=  0.00602828 RMS(Int)=  0.00001286
 Iteration  3 RMS(Cart)=  0.00002182 RMS(Int)=  0.00000000
 Iteration  4 RMS(Cart)=  0.00000000 RMS(Int)=  0.00000000
 Iteration  1 RMS(Cart)=  0.00000000 RMS(Int)=  0.00000000
 GradGradGradGradGradGradGradGradGradGradGradGradGradGradGradGradGradGrad

                          Input orientation:                          
 ---------------------------------------------------------------------
 Center     Atomic      Atomic             Coordinates (Angstroms)
 Number     Number       Type             X           Y           Z
 ---------------------------------------------------------------------
      1          6           0        1.565793    0.642832   -0.155747
      2          1           0        0.899242    1.469941   -0.406416
      3          1           0        2.320603    0.978125    0.552474
      4          1           0        2.038867    0.262682   -1.059425
      5          8           0        0.859449   -0.390575    0.514651
      6          8           0       -0.070826   -0.933278   -0.394324
      7          6           0       -2.160583    0.423337    0.041270
      8          1           0       -2.914021   -0.337360    0.196774
      9          1           0       -1.846155    0.953306    0.931225
     10          1           0       -1.018909   -0.333372   -0.215663
     11          1           0       -2.293533    1.032015   -0.842867
 ---------------------------------------------------------------------
                    Distance matrix (angstroms):
                    1          2          3          4          5
     1  C    0.000000
     2  H    1.091436   0.000000
     3  H    1.087998   1.783710   0.000000
     4  H    1.088553   1.783996   1.785905   0.000000
     5  O    1.419960   2.076408   2.002434   2.072556   0.000000
     6  O    2.284636   2.591648   3.204501   2.514654   1.409317
     7  C    3.738031   3.264710   4.544244   4.344275   3.163407
     8  H    4.599324   4.262763   5.409096   5.144822   3.787210
     9  H    3.594342   3.097322   4.184011   4.419621   3.049565
    10  H    2.763557   2.639626   3.669115   3.227570   2.016150
    11  H    3.939288   3.252089   4.820803   4.405504   3.715900
                    6          7          8          9         10
     6  O    0.000000
     7  C    2.529275   0.000000
     8  H    2.964503   1.081901   0.000000
     9  H    2.909996   1.082475   1.829091   0.000000
    10  H    1.136076   1.393572   1.939477   1.911865   0.000000
    11  H    3.000665   1.081602   1.827853   1.831323   1.970363
                   11
    11  H    0.000000
 Symmetry turned off by external request.
 Stoichiometry    C2H7O2(2)
 Framework group  C1[X(C2H7O2)]
 Deg. of freedom    27
 Full point group                 C1      NOp   1
 Rotational constants (GHZ):          13.0056734           3.7096019           3.2657953
 Standard basis: CC-pVTZ (5D, 7F)
   218 basis functions,   327 primitive gaussians,   245 cartesian basis functions
    18 alpha electrons       17 beta electrons
       nuclear repulsion energy       130.7795732090 Hartrees.
 NAtoms=   11 NActive=   11 NUniq=   11 SFac= 1.00D+00 NAtFMM=   60 NAOKFM=F Big=F
 Integral buffers will be    131072 words long.
 Raffenetti 2 integral format.
 Two-electron integral symmetry is turned off.
 Nuclear repulsion after empirical dispersion term =      130.7758765723 Hartrees.
 One-electron integrals computed using PRISM.
 NBasis=   218 RedAO= T EigKep=  1.76D-03  NBF=   218
 NBsUse=   218 1.00D-06 EigRej= -1.00D+00 NBFU=   218
 Initial guess from the checkpoint file:  "/localscratch/347858/Gau-9923.chk"
 B after Tr=    -0.003977   -0.009096   -0.030676
         Rot=    0.999880   -0.015389    0.000832    0.001704 Ang=  -1.78 deg.
 Initial guess <Sx>= 0.0000 <Sy>= 0.0000 <Sz>= 0.5000 <S**2>= 0.7681 S= 0.5090
 ExpMin= 1.03D-01 ExpMax= 1.53D+04 ExpMxC= 5.22D+02 IAcc=3 IRadAn=         5 AccDes= 0.00D+00
 Harris functional with IExCor=  419 and IRadAn=       5 diagonalized for initial guess.
 HarFok:  IExCor=  419 AccDes= 0.00D+00 IRadAn=         5 IDoV= 1 UseB2=F ITyADJ=14
 ICtDFT=  3500011 ScaDFX=  1.000000  1.000000  1.000000  1.000000
 FoFCou: FMM=F IPFlag=           0 FMFlag=      100000 FMFlg1=           0
         NFxFlg=           0 DoJE=T BraDBF=F KetDBF=T FulRan=T
         wScrn=  0.000000 ICntrl=       500 IOpCl=  0 I1Cent=   200000004 NGrid=           0
         NMat0=    1 NMatS0=      1 NMatT0=    0 NMatD0=    1 NMtDS0=    0 NMtDT0=    0
 Symmetry not used in FoFCou.
 Keep R1 and R2 ints in memory in canonical form, NReq=612885324.
 Requested convergence on RMS density matrix=1.00D-08 within 500 cycles.
 Requested convergence on MAX density matrix=1.00D-06.
 Requested convergence on             energy=1.00D-06.
 No special actions if energy rises.
 Integral accuracy reduced to 1.0D-05 until final iterations.
 Initial convergence to 1.0D-05 achieved.  Increase integral accuracy.
 SCF Done:  E(UB2PLYPD3) =  -230.321129899     A.U. after   13 cycles
            NFock= 13  Conv=0.51D-08     -V/T= 2.0042
 <Sx>= 0.0000 <Sy>= 0.0000 <Sz>= 0.5000 <S**2>= 0.7681 S= 0.5090
 <L.S>=  0.00000000000    
 Annihilation of the first spin contaminant:
 S**2 before annihilation     0.7681,   after     0.7501
 DoSCS=T DFT=T ScalE2(SS,OS)=  0.270000  0.270000
 ExpMin= 1.03D-01 ExpMax= 1.53D+04 ExpMxC= 5.22D+02 IAcc=3 IRadAn=         5 AccDes= 0.00D+00
 HarFok:  IExCor=  205 AccDes= 0.00D+00 IRadAn=         5 IDoV=-2 UseB2=F ITyADJ=14
 ICtDFT= 12500011 ScaDFX=  1.000000  1.000000  1.000000  1.000000
 Range of M.O.s used for correlation:     5   218
 NBasis=   218 NAE=    18 NBE=    17 NFC=     4 NFV=     0
 NROrb=    214 NOA=    14 NOB=    13 NVA=   200 NVB=   201

 **** Warning!!: The largest alpha MO coefficient is  0.10906452D+02


 **** Warning!!: The largest beta MO coefficient is  0.10702465D+02

 DoSCS=T DFT=T ScalE2(SS,OS)=  0.270000  0.270000
 Fully direct method using O(ONN) memory.
 JobTyp=2 Pass  1:  I=   5 to  18 NPSUse= 40 ParTrn=T ParDer=T DoDerP=T.
 JobTyp=3 Pass  1:  I=   5 to  17 NPSUse= 40 ParTrn=T ParDer=T DoDerP=T.
 Spin components of T(2) and E(2):
     alpha-alpha T2 =       0.4437531650D-01 E2=     -0.3429142645D-01
     alpha-beta  T2 =       0.2729440296D+00 E2=     -0.2114445300D+00
     beta-beta   T2 =       0.4649880334D-01 E2=     -0.3203777814D-01
 (S**2,0)=  0.76810D+00           (S**2,1)=  0.74295D+00
 Scaling Projection term by:   0.270000
 E(PUHF)=      -0.23032718661D+03        E(PMP2)=      -0.23059940805D+03
 E2(B2PLYPD3) =    -0.2777737346D+00 E(B2PLYPD3) =    -0.23059890363323D+03
          IDoAtm=11111111111
          Differentiating once with respect to electric field.
                with respect to dipole field.
          Differentiating once with respect to nuclear coordinates.
 Keep R1 and R2 ints in memory in canonical form, NReq=612893468.
          There are     1 degrees of freedom in the 1st order CPHF.  IDoFFX=0 NUNeed=     1.
 LinEq1:  Iter=  0 NonCon=     1 RMS=1.22D-03 Max=7.29D-02 NDo=     1
 AX will form     1 AO Fock derivatives at one time.
 LinEq1:  Iter=  1 NonCon=     1 RMS=3.75D-04 Max=8.37D-03 NDo=     1
 LinEq1:  Iter=  2 NonCon=     1 RMS=2.03D-04 Max=7.68D-03 NDo=     1
 LinEq1:  Iter=  3 NonCon=     1 RMS=8.27D-05 Max=1.19D-03 NDo=     1
 LinEq1:  Iter=  4 NonCon=     1 RMS=4.38D-05 Max=7.38D-04 NDo=     1
 LinEq1:  Iter=  5 NonCon=     1 RMS=3.24D-05 Max=8.26D-04 NDo=     1
 LinEq1:  Iter=  6 NonCon=     1 RMS=1.88D-05 Max=6.05D-04 NDo=     1
 LinEq1:  Iter=  7 NonCon=     1 RMS=4.81D-06 Max=8.35D-05 NDo=     1
 LinEq1:  Iter=  8 NonCon=     1 RMS=1.56D-06 Max=2.77D-05 NDo=     1
 LinEq1:  Iter=  9 NonCon=     1 RMS=4.94D-07 Max=9.04D-06 NDo=     1
 LinEq1:  Iter= 10 NonCon=     1 RMS=1.63D-07 Max=2.55D-06 NDo=     1
 LinEq1:  Iter= 11 NonCon=     1 RMS=5.10D-08 Max=6.21D-07 NDo=     1
 LinEq1:  Iter= 12 NonCon=     1 RMS=2.03D-08 Max=3.15D-07 NDo=     1
 LinEq1:  Iter= 13 NonCon=     1 RMS=8.08D-09 Max=1.13D-07 NDo=     1
 LinEq1:  Iter= 14 NonCon=     1 RMS=2.46D-09 Max=5.85D-08 NDo=     1
 LinEq1:  Iter= 15 NonCon=     1 RMS=6.92D-10 Max=2.68D-08 NDo=     1
 LinEq1:  Iter= 16 NonCon=     1 RMS=2.25D-10 Max=8.97D-09 NDo=     1
 LinEq1:  Iter= 17 NonCon=     1 RMS=7.34D-11 Max=2.15D-09 NDo=     1
 LinEq1:  Iter= 18 NonCon=     0 RMS=1.86D-11 Max=2.66D-10 NDo=     1
 Linear equations converged to 1.000D-10 1.000D-09 after    18 iterations.
 End of Minotr F.D. properties file   721 does not exist.
 End of Minotr F.D. properties file   722 does not exist.
 End of Minotr F.D. properties file   788 does not exist.
 Calling FoFJK, ICntrl=  10002127 FMM=F ISym2X=0 I1Cent= 0 IOpClX= 1 NMat=1 NMatS=1 NMatT=0.
 -------------------------------------------------------------------
 Center     Atomic                   Forces (Hartrees/Bohr)
 Number     Number              X              Y              Z
 -------------------------------------------------------------------
      1        6           0.000014969   -0.000016929   -0.000012052
      2        1          -0.000014148    0.000011248   -0.000022694
      3        1           0.000004593   -0.000003421    0.000001608
      4        1          -0.000004597    0.000004309   -0.000002247
      5        8           0.000014617    0.000021777    0.000030830
      6        8           0.000037883    0.000044585   -0.000013212
      7        6          -0.000043774    0.000095083   -0.000104845
      8        1           0.000097765    0.000004396    0.000084796
      9        1          -0.000098752   -0.000024390    0.000111489
     10        1          -0.000103647   -0.000156507   -0.000047538
     11        1           0.000095091    0.000019849   -0.000026135
 -------------------------------------------------------------------
 Cartesian Forces:  Max     0.000156507 RMS     0.000059269

 GradGradGradGradGradGradGradGradGradGradGradGradGradGradGradGradGradGrad
 Berny optimization.
 FormGI is forming the generalized inverse of G from B-inverse, IUseBI=4.
 Internal  Forces:  Max     0.000147960 RMS     0.000063583
 Search for a saddle point.
 Step number   1 out of a maximum of  100 on scan point     2 out of    37
 All quantities printed in internal units (Hartrees-Bohrs-Radians)
 Swapping is turned off.
 Second derivative matrix not updated -- first step.
 ITU=  0
     Eigenvalues ---   -0.07773   0.00629   0.01482   0.02350   0.03008
     Eigenvalues ---    0.05351   0.05547   0.08492   0.08530   0.10286
     Eigenvalues ---    0.10777   0.10847   0.13045   0.15608   0.16662
     Eigenvalues ---    0.18161   0.19067   0.26038   0.32048   0.33515
     Eigenvalues ---    0.34488   0.35554   0.36083   0.36183   0.36270
     Eigenvalues ---    0.405641000.000001000.000001000.000001000.00000
     Eigenvalues --- 1000.00000
 Eigenvectors required to have negative eigenvalues:
                          R9        R6        R5        A12       A10
   1                    0.71262  -0.62441   0.15499  -0.14620  -0.10953
                          A8        A14       A9        A13       A11
   1                   -0.09651  -0.09400   0.08412   0.08185   0.08000
 RFO step:  Lambda0=2.782199415D-09 Lambda=-2.00315004D-06.
 Linear search not attempted -- option 19 set.
 Iteration  1 RMS(Cart)=  0.00213825 RMS(Int)=  0.00000431
 Iteration  2 RMS(Cart)=  0.00000678 RMS(Int)=  0.00000007
 Iteration  3 RMS(Cart)=  0.00000000 RMS(Int)=  0.00000007
 Iteration  1 RMS(Cart)=  0.00000000 RMS(Int)=  0.00000000
 Variable       Old X    -DE/DX   Delta X   Delta X   Delta X     New X
                                 (Linear)    (Quad)   (Total)
    R1        2.06252   0.00002   0.00000   0.00003   0.00003   2.06255
    R2        2.05602   0.00000   0.00000   0.00001   0.00001   2.05603
    R3        2.05707  -0.00000   0.00000  -0.00000  -0.00000   2.05707
    R4        2.68334   0.00001   0.00000   0.00006   0.00006   2.68340
    R5        2.66322   0.00001   0.00000   0.00006   0.00006   2.66329
    R6        2.14687   0.00002   0.00000   0.00031   0.00031   2.14719
    R7        2.04450  -0.00006   0.00000  -0.00013  -0.00013   2.04437
    R8        2.04558   0.00005   0.00000   0.00012   0.00012   2.04570
    R9        2.63347   0.00002   0.00000  -0.00013  -0.00013   2.63334
   R10        2.04393   0.00002   0.00000   0.00000   0.00000   2.04394
    A1        1.91734   0.00001   0.00000   0.00015   0.00015   1.91749
    A2        1.91707  -0.00001   0.00000  -0.00012  -0.00012   1.91695
    A3        1.93495   0.00001   0.00000   0.00004   0.00004   1.93499
    A4        1.92464   0.00000   0.00000  -0.00004  -0.00004   1.92460
    A5        1.83595   0.00000   0.00000   0.00000   0.00000   1.83596
    A6        1.93261  -0.00000   0.00000  -0.00003  -0.00003   1.93258
    A7        1.87979  -0.00009   0.00000  -0.00036  -0.00036   1.87942
    A8        1.81944   0.00001   0.00000   0.00021   0.00021   1.81965
    A9        2.01346  -0.00010   0.00000  -0.00084  -0.00084   2.01262
   A10        1.78773  -0.00008   0.00000  -0.00099  -0.00099   1.78673
   A11        2.01260   0.00013   0.00000   0.00113   0.00113   2.01373
   A12        1.75123   0.00013   0.00000   0.00252   0.00252   1.75376
   A13        2.01777   0.00000   0.00000  -0.00000  -0.00000   2.01777
   A14        1.82923  -0.00011   0.00000  -0.00196  -0.00196   1.82727
   A15        3.12161  -0.00015   0.00000  -0.00539  -0.00539   3.11622
   A16        3.17065  -0.00001   0.00000  -0.00266  -0.00266   3.16799
    D1        1.14493  -0.00002   0.00000  -0.00077  -0.00077   1.14416
    D2       -3.06664   0.00000   0.00000  -0.00057  -0.00057  -3.06720
    D3       -0.98755   0.00000   0.00000  -0.00062  -0.00062  -0.98817
    D4       -1.60355  -0.00005   0.00000  -0.00438  -0.00438  -1.60793
    D5       -0.16196  -0.00014   0.00000   0.00000  -0.00000  -0.16196
         Item               Value     Threshold  Converged?
 Maximum Force            0.000148     0.000450     YES
 RMS     Force            0.000059     0.000300     YES
 Maximum Displacement     0.007340     0.001800     NO 
 RMS     Displacement     0.002139     0.001200     NO 
 Predicted change in Energy=-1.000184D-06
 GradGradGradGradGradGradGradGradGradGradGradGradGradGradGradGradGradGrad

                          Input orientation:                          
 ---------------------------------------------------------------------
 Center     Atomic      Atomic             Coordinates (Angstroms)
 Number     Number       Type             X           Y           Z
 ---------------------------------------------------------------------
      1          6           0        1.565792    0.643106   -0.156072
      2          1           0        0.899235    1.469936   -0.407710
      3          1           0        2.319926    0.978763    0.552707
      4          1           0        2.039761    0.262810   -1.059219
      5          8           0        0.859118   -0.390336    0.513998
      6          8           0       -0.070638   -0.932669   -0.395781
      7          6           0       -2.160417    0.423323    0.042009
      8          1           0       -2.914942   -0.336379    0.196633
      9          1           0       -1.847857    0.953330    0.932676
     10          1           0       -1.020403   -0.335932   -0.214403
     11          1           0       -2.289649    1.031703   -0.842887
 ---------------------------------------------------------------------
                    Distance matrix (angstroms):
                    1          2          3          4          5
     1  C    0.000000
     2  H    1.091452   0.000000
     3  H    1.088003   1.783820   0.000000
     4  H    1.088553   1.783932   1.785885   0.000000
     5  O    1.419994   2.076479   2.002470   2.072567   0.000000
     6  O    2.284389   2.591005   3.204371   2.514579   1.409351
     7  C    3.737938   3.264831   4.543435   4.345109   3.162658
     8  H    4.600084   4.263327   5.409272   5.146385   3.787765
     9  H    3.596472   3.100005   4.185144   4.422447   3.050974
    10  H    2.765922   2.642638   3.670787   3.230606   2.016464
    11  H    3.935372   3.248140   4.816499   4.402475   3.711881
                    6          7          8          9         10
     6  O    0.000000
     7  C    2.529338   0.000000
     8  H    2.965903   1.081833   0.000000
     9  H    2.912094   1.082538   1.828600   0.000000
    10  H    1.136242   1.393502   1.938615   1.913809   0.000000
    11  H    2.997110   1.081604   1.828453   1.831378   1.968858
                   11
    11  H    0.000000
 Symmetry turned off by external request.
 Stoichiometry    C2H7O2(2)
 Framework group  C1[X(C2H7O2)]
 Deg. of freedom    27
 Full point group                 C1      NOp   1
 Rotational constants (GHZ):          13.0052548           3.7099378           3.2664721
 Standard basis: CC-pVTZ (5D, 7F)
   218 basis functions,   327 primitive gaussians,   245 cartesian basis functions
    18 alpha electrons       17 beta electrons
       nuclear repulsion energy       130.7802752206 Hartrees.
 NAtoms=   11 NActive=   11 NUniq=   11 SFac= 1.00D+00 NAtFMM=   60 NAOKFM=F Big=F
 Integral buffers will be    131072 words long.
 Raffenetti 2 integral format.
 Two-electron integral symmetry is turned off.
 Nuclear repulsion after empirical dispersion term =      130.7765786971 Hartrees.
 One-electron integrals computed using PRISM.
 NBasis=   218 RedAO= T EigKep=  1.76D-03  NBF=   218
 NBsUse=   218 1.00D-06 EigRej= -1.00D+00 NBFU=   218
 Initial guess from the checkpoint file:  "/localscratch/347858/Gau-9923.chk"
 B after Tr=    -0.000006    0.000375   -0.000681
         Rot=    1.000000   -0.000265   -0.000071   -0.000020 Ang=  -0.03 deg.
 Initial guess <Sx>= 0.0000 <Sy>= 0.0000 <Sz>= 0.5000 <S**2>= 0.7681 S= 0.5090
 Keep R1 and R2 ints in memory in canonical form, NReq=612885324.
 Requested convergence on RMS density matrix=1.00D-08 within 500 cycles.
 Requested convergence on MAX density matrix=1.00D-06.
 Requested convergence on             energy=1.00D-06.
 No special actions if energy rises.
 SCF Done:  E(UB2PLYPD3) =  -230.321130169     A.U. after   11 cycles
            NFock= 11  Conv=0.29D-08     -V/T= 2.0042
 <Sx>= 0.0000 <Sy>= 0.0000 <Sz>= 0.5000 <S**2>= 0.7681 S= 0.5090
 <L.S>=  0.00000000000    
 Annihilation of the first spin contaminant:
 S**2 before annihilation     0.7681,   after     0.7501
 DoSCS=T DFT=T ScalE2(SS,OS)=  0.270000  0.270000
 ExpMin= 1.03D-01 ExpMax= 1.53D+04 ExpMxC= 5.22D+02 IAcc=3 IRadAn=         5 AccDes= 0.00D+00
 HarFok:  IExCor=  205 AccDes= 0.00D+00 IRadAn=         5 IDoV=-2 UseB2=F ITyADJ=14
 ICtDFT= 12500011 ScaDFX=  1.000000  1.000000  1.000000  1.000000
 Range of M.O.s used for correlation:     5   218
 NBasis=   218 NAE=    18 NBE=    17 NFC=     4 NFV=     0
 NROrb=    214 NOA=    14 NOB=    13 NVA=   200 NVB=   201

 **** Warning!!: The largest alpha MO coefficient is  0.10890204D+02


 **** Warning!!: The largest beta MO coefficient is  0.10684841D+02

 DoSCS=T DFT=T ScalE2(SS,OS)=  0.270000  0.270000
 Fully direct method using O(ONN) memory.
 JobTyp=2 Pass  1:  I=   5 to  18 NPSUse= 40 ParTrn=T ParDer=T DoDerP=T.
 JobTyp=3 Pass  1:  I=   5 to  17 NPSUse= 40 ParTrn=T ParDer=T DoDerP=T.
 Spin components of T(2) and E(2):
     alpha-alpha T2 =       0.4437520606D-01 E2=     -0.3429114632D-01
     alpha-beta  T2 =       0.2729531889D+00 E2=     -0.2114456615D+00
     beta-beta   T2 =       0.4650020534D-01 E2=     -0.3203763371D-01
 (S**2,0)=  0.76811D+00           (S**2,1)=  0.74295D+00
 Scaling Projection term by:   0.270000
 E(PUHF)=      -0.23032718998D+03        E(PMP2)=      -0.23059940934D+03
 E2(B2PLYPD3) =    -0.2777744415D+00 E(B2PLYPD3) =    -0.23059890461035D+03
          IDoAtm=11111111111
          Differentiating once with respect to electric field.
                with respect to dipole field.
          Differentiating once with respect to nuclear coordinates.
 Keep R1 and R2 ints in memory in canonical form, NReq=612893468.
          There are     1 degrees of freedom in the 1st order CPHF.  IDoFFX=0 NUNeed=     1.
 LinEq1:  Iter=  0 NonCon=     1 RMS=1.22D-03 Max=7.29D-02 NDo=     1
 AX will form     1 AO Fock derivatives at one time.
 LinEq1:  Iter=  1 NonCon=     1 RMS=3.75D-04 Max=8.37D-03 NDo=     1
 LinEq1:  Iter=  2 NonCon=     1 RMS=2.03D-04 Max=7.69D-03 NDo=     1
 LinEq1:  Iter=  3 NonCon=     1 RMS=8.26D-05 Max=1.19D-03 NDo=     1
 LinEq1:  Iter=  4 NonCon=     1 RMS=4.39D-05 Max=7.39D-04 NDo=     1
 LinEq1:  Iter=  5 NonCon=     1 RMS=3.24D-05 Max=8.22D-04 NDo=     1
 LinEq1:  Iter=  6 NonCon=     1 RMS=1.89D-05 Max=6.05D-04 NDo=     1
 LinEq1:  Iter=  7 NonCon=     1 RMS=4.82D-06 Max=8.38D-05 NDo=     1
 LinEq1:  Iter=  8 NonCon=     1 RMS=1.56D-06 Max=2.77D-05 NDo=     1
 LinEq1:  Iter=  9 NonCon=     1 RMS=4.94D-07 Max=9.02D-06 NDo=     1
 LinEq1:  Iter= 10 NonCon=     1 RMS=1.64D-07 Max=2.56D-06 NDo=     1
 LinEq1:  Iter= 11 NonCon=     1 RMS=5.19D-08 Max=6.38D-07 NDo=     1
 LinEq1:  Iter= 12 NonCon=     1 RMS=2.10D-08 Max=3.20D-07 NDo=     1
 LinEq1:  Iter= 13 NonCon=     1 RMS=8.26D-09 Max=1.30D-07 NDo=     1
 LinEq1:  Iter= 14 NonCon=     1 RMS=2.55D-09 Max=7.11D-08 NDo=     1
 LinEq1:  Iter= 15 NonCon=     1 RMS=7.48D-10 Max=3.07D-08 NDo=     1
 LinEq1:  Iter= 16 NonCon=     1 RMS=2.40D-10 Max=8.74D-09 NDo=     1
 LinEq1:  Iter= 17 NonCon=     1 RMS=7.57D-11 Max=1.84D-09 NDo=     1
 LinEq1:  Iter= 18 NonCon=     0 RMS=1.88D-11 Max=2.72D-10 NDo=     1
 Linear equations converged to 1.000D-10 1.000D-09 after    18 iterations.
 End of Minotr F.D. properties file   721 does not exist.
 End of Minotr F.D. properties file   722 does not exist.
 End of Minotr F.D. properties file   788 does not exist.
 Calling FoFJK, ICntrl=  10002127 FMM=F ISym2X=0 I1Cent= 0 IOpClX= 1 NMat=1 NMatS=1 NMatT=0.
 -------------------------------------------------------------------
 Center     Atomic                   Forces (Hartrees/Bohr)
 Number     Number              X              Y              Z
 -------------------------------------------------------------------
      1        6          -0.000000317   -0.000000096    0.000000291
      2        1          -0.000001440   -0.000000178   -0.000000012
      3        1           0.000000129    0.000000072   -0.000000115
      4        1          -0.000000076   -0.000000148   -0.000000077
      5        8           0.000015443    0.000033566   -0.000035887
      6        8          -0.000018152   -0.000041341    0.000043305
      7        6           0.000028431    0.000058525   -0.000044186
      8        1          -0.000000369   -0.000001430    0.000000934
      9        1          -0.000022971   -0.000050320    0.000035801
     10        1           0.000000629    0.000000868    0.000001578
     11        1          -0.000001308    0.000000482   -0.000001632
 -------------------------------------------------------------------
 Cartesian Forces:  Max     0.000058525 RMS     0.000022769

 GradGradGradGradGradGradGradGradGradGradGradGradGradGradGradGradGradGrad
 Berny optimization.
 FormGI is forming the generalized inverse of G from B-inverse, IUseBI=4.
 Internal  Forces:  Max     0.000130325 RMS     0.000023447
 Search for a saddle point.
 Step number   2 out of a maximum of  100 on scan point     2 out of    37
 All quantities printed in internal units (Hartrees-Bohrs-Radians)
 Swapping is turned off.
 Update second derivatives using D2CorX and points    1    2
 ITU=  0  0
     Eigenvalues ---   -0.07773   0.00630   0.01518   0.02343   0.02990
     Eigenvalues ---    0.05355   0.05570   0.08492   0.08530   0.10282
     Eigenvalues ---    0.10773   0.10850   0.13045   0.15608   0.16662
     Eigenvalues ---    0.18161   0.19068   0.26038   0.32048   0.33515
     Eigenvalues ---    0.34488   0.35554   0.36084   0.36183   0.36270
     Eigenvalues ---    0.405631000.000001000.000001000.000001000.00000
     Eigenvalues --- 1000.00000
 Eigenvectors required to have negative eigenvalues:
                          R9        R6        R5        A12       A10
   1                    0.71262  -0.62441   0.15500  -0.14622  -0.10951
                          A8        A14       A9        A13       A11
   1                   -0.09651  -0.09404   0.08411   0.08179   0.07994
 RFO step:  Lambda0=2.011724121D-13 Lambda= 0.00000000D+00.
 Linear search not attempted -- option 19 set.
 Iteration  1 RMS(Cart)=  0.00015033 RMS(Int)=  0.00000001
 Iteration  2 RMS(Cart)=  0.00000001 RMS(Int)=  0.00000000
 Iteration  1 RMS(Cart)=  0.00000000 RMS(Int)=  0.00000000
 Variable       Old X    -DE/DX   Delta X   Delta X   Delta X     New X
                                 (Linear)    (Quad)   (Total)
    R1        2.06255   0.00000   0.00000   0.00000   0.00000   2.06255
    R2        2.05603   0.00000   0.00000   0.00000   0.00000   2.05603
    R3        2.05707   0.00000   0.00000  -0.00000  -0.00000   2.05707
    R4        2.68340  -0.00000   0.00000  -0.00000  -0.00000   2.68340
    R5        2.66329  -0.00000   0.00000  -0.00000  -0.00000   2.66328
    R6        2.14719  -0.00000   0.00000  -0.00001  -0.00001   2.14718
    R7        2.04437   0.00000   0.00000   0.00000   0.00000   2.04437
    R8        2.04570  -0.00000   0.00000  -0.00000  -0.00000   2.04570
    R9        2.63334  -0.00000   0.00000   0.00001   0.00001   2.63335
   R10        2.04394   0.00000   0.00000   0.00000   0.00000   2.04394
    A1        1.91749   0.00000   0.00000   0.00000   0.00000   1.91749
    A2        1.91695   0.00000   0.00000   0.00000   0.00000   1.91695
    A3        1.93499  -0.00000   0.00000  -0.00001  -0.00001   1.93498
    A4        1.92460   0.00000   0.00000   0.00000   0.00000   1.92461
    A5        1.83596   0.00000   0.00000   0.00000   0.00000   1.83596
    A6        1.93258   0.00000   0.00000   0.00000   0.00000   1.93258
    A7        1.87942  -0.00000   0.00000   0.00000   0.00000   1.87942
    A8        1.81965  -0.00000   0.00000   0.00000   0.00000   1.81965
    A9        2.01262  -0.00000   0.00000  -0.00001  -0.00001   2.01261
   A10        1.78673  -0.00000   0.00000  -0.00003  -0.00003   1.78671
   A11        2.01373   0.00000   0.00000   0.00000   0.00000   2.01374
   A12        1.75376  -0.00000   0.00000  -0.00003  -0.00003   1.75372
   A13        2.01777   0.00000   0.00000   0.00002   0.00002   2.01779
   A14        1.82727   0.00000   0.00000   0.00004   0.00004   1.82732
   A15        3.11622  -0.00000   0.00000   0.00002   0.00002   3.11625
   A16        3.16799  -0.00000   0.00000  -0.00000  -0.00000   3.16798
    D1        1.14416  -0.00000   0.00000   0.00003   0.00003   1.14419
    D2       -3.06720  -0.00000   0.00000   0.00002   0.00002  -3.06718
    D3       -0.98817   0.00000   0.00000   0.00003   0.00003  -0.98814
    D4       -1.60793   0.00000   0.00000   0.00022   0.00022  -1.60771
    D5       -0.16196  -0.00013   0.00000   0.00000   0.00000  -0.16196
         Item               Value     Threshold  Converged?
 Maximum Force            0.000004     0.000450     YES
 RMS     Force            0.000001     0.000300     YES
 Maximum Displacement     0.000326     0.001800     YES
 RMS     Displacement     0.000150     0.001200     YES
 Predicted change in Energy=-6.058722D-10
 Optimization completed.
    -- Stationary point found.
                           ----------------------------
                           !   Optimized Parameters   !
                           ! (Angstroms and Degrees)  !
 --------------------------                            --------------------------
 ! Name  Definition              Value          Derivative Info.                !
 --------------------------------------------------------------------------------
 ! R1    R(1,2)                  1.0915         -DE/DX =    0.0                 !
 ! R2    R(1,3)                  1.088          -DE/DX =    0.0                 !
 ! R3    R(1,4)                  1.0886         -DE/DX =    0.0                 !
 ! R4    R(1,5)                  1.42           -DE/DX =    0.0                 !
 ! R5    R(5,6)                  1.4094         -DE/DX =    0.0                 !
 ! R6    R(6,10)                 1.1362         -DE/DX =    0.0                 !
 ! R7    R(7,8)                  1.0818         -DE/DX =    0.0                 !
 ! R8    R(7,9)                  1.0825         -DE/DX =    0.0                 !
 ! R9    R(7,10)                 1.3935         -DE/DX =    0.0                 !
 ! R10   R(7,11)                 1.0816         -DE/DX =    0.0                 !
 ! A1    A(2,1,3)              109.8639         -DE/DX =    0.0                 !
 ! A2    A(2,1,4)              109.833          -DE/DX =    0.0                 !
 ! A3    A(2,1,5)              110.867          -DE/DX =    0.0                 !
 ! A4    A(3,1,4)              110.2717         -DE/DX =    0.0                 !
 ! A5    A(3,1,5)              105.1926         -DE/DX =    0.0                 !
 ! A6    A(4,1,5)              110.7286         -DE/DX =    0.0                 !
 ! A7    A(1,5,6)              107.6831         -DE/DX =    0.0                 !
 ! A8    A(5,6,10)             104.2583         -DE/DX =    0.0                 !
 ! A9    A(8,7,9)              115.3148         -DE/DX =    0.0                 !
 ! A10   A(8,7,10)             102.3723         -DE/DX =    0.0                 !
 ! A11   A(8,7,11)             115.3784         -DE/DX =    0.0                 !
 ! A12   A(9,7,10)             100.4829         -DE/DX =    0.0                 !
 ! A13   A(9,7,11)             115.6095         -DE/DX =    0.0                 !
 ! A14   A(10,7,11)            104.6951         -DE/DX =    0.0                 !
 ! A15   L(6,10,7,2,-1)        178.5463         -DE/DX =    0.0                 !
[...]
 Alpha virt. eigenvalues --    6.74528   6.75652   6.82497   6.94696   7.04545
 Alpha virt. eigenvalues --    7.06133   7.17565   7.40314   7.42055   7.58392
 Alpha virt. eigenvalues --    7.73419   9.88734  10.65843  13.27271  13.41390
  Beta  occ. eigenvalues --  -19.78529 -19.77131 -10.66126 -10.62742  -1.25765
  Beta  occ. eigenvalues --   -0.99672  -0.79108  -0.76749  -0.57803  -0.54675
  Beta  occ. eigenvalues --   -0.54278  -0.49310  -0.49112  -0.46631  -0.43343
  Beta  occ. eigenvalues --   -0.35717  -0.33951
  Beta virt. eigenvalues --   -0.05327   0.07663   0.10811   0.13464   0.14477
  Beta virt. eigenvalues --    0.15413   0.15705   0.16879   0.21008   0.28296
  Beta virt. eigenvalues --    0.28360   0.29554   0.31744   0.32841   0.37336
  Beta virt. eigenvalues --    0.44887   0.49471   0.49689   0.51621   0.52243
  Beta virt. eigenvalues --    0.53000   0.53793   0.54618   0.55350   0.55829
  Beta virt. eigenvalues --    0.58397   0.60438   0.66178   0.68238   0.71944
  Beta virt. eigenvalues --    0.75081   0.79510   0.84127   0.89545   0.90571
  Beta virt. eigenvalues --    0.91764   0.94301   0.95214   0.96280   1.02899
  Beta virt. eigenvalues --    1.03964   1.04701   1.06319   1.08291   1.12219
  Beta virt. eigenvalues --    1.12860   1.14432   1.16499   1.18385   1.21794
  Beta virt. eigenvalues --    1.25589   1.32754   1.37299   1.37871   1.38648
  Beta virt. eigenvalues --    1.39392   1.40072   1.43531   1.44534   1.49722
  Beta virt. eigenvalues --    1.52508   1.62238   1.67838   1.70282   1.78884
  Beta virt. eigenvalues --    1.86806   1.90653   1.97849   2.04171   2.10892
  Beta virt. eigenvalues --    2.15691   2.19771   2.26360   2.31430   2.33426
  Beta virt. eigenvalues --    2.35125   2.38777   2.43807   2.49549   2.53834
  Beta virt. eigenvalues --    2.56966   2.68441   2.72416   2.75417   2.83663
  Beta virt. eigenvalues --    2.87014   2.89257   2.91749   2.92250   2.93732
  Beta virt. eigenvalues --    2.94186   2.95539   2.97222   3.00994   3.04728
  Beta virt. eigenvalues --    3.11851   3.12469   3.14699   3.16097   3.18751
  Beta virt. eigenvalues --    3.19908   3.22083   3.22894   3.35149   3.39963
  Beta virt. eigenvalues --    3.40515   3.40988   3.43096   3.46111   3.49498
  Beta virt. eigenvalues --    3.50432   3.51612   3.53766   3.54584   3.55829
  Beta virt. eigenvalues --    3.56973   3.60041   3.61427   3.64776   3.79933
  Beta virt. eigenvalues --    3.81175   3.82474   3.84578   3.86606   3.87509
  Beta virt. eigenvalues --    3.91722   3.95824   3.96290   4.00598   4.02820
  Beta virt. eigenvalues --    4.05196   4.06789   4.08862   4.11430   4.17227
  Beta virt. eigenvalues --    4.18116   4.20079   4.21265   4.21823   4.25713
  Beta virt. eigenvalues --    4.35492   4.37644   4.42922   4.44938   4.51483
  Beta virt. eigenvalues --    4.55607   4.63247   4.68848   4.80302   4.81334
  Beta virt. eigenvalues --    4.89739   4.94501   4.96339   4.99245   4.99790
  Beta virt. eigenvalues --    5.00174   5.03261   5.06564   5.12365   5.14123
  Beta virt. eigenvalues --    5.22874   5.24605   5.25877   5.30110   5.30779
  Beta virt. eigenvalues --    5.35042   5.36471   5.39469   5.40763   5.47011
  Beta virt. eigenvalues --    5.59857   5.68516   5.72927   5.76197   5.82309
  Beta virt. eigenvalues --    5.86774   5.89366   5.92722   5.96341   6.05453
  Beta virt. eigenvalues --    6.09198   6.25256   6.36041   6.38989   6.43543
  Beta virt. eigenvalues --    6.64509   6.76691   6.77541   6.83757   6.96324
  Beta virt. eigenvalues --    7.05131   7.07507   7.19619   7.41972   7.42723
  Beta virt. eigenvalues --    7.60275   7.73985   9.89441  10.66911  13.28190
  Beta virt. eigenvalues --   13.41632
          Condensed to atoms (all electrons):
               1          2          3          4          5          6
     1  C    4.580016   0.392489   0.395361   0.409297   0.311536  -0.044846
     2  H    0.392489   0.688284  -0.033646  -0.062712  -0.048568  -0.002594
     3  H    0.395361  -0.033646   0.594658  -0.030560  -0.026414   0.006990
     4  H    0.409297  -0.062712  -0.030560   0.638341  -0.042988   0.003843
     5  O    0.311536  -0.048568  -0.026414  -0.042988   7.945200   0.071833
     6  O   -0.044846  -0.002594   0.006990   0.003843   0.071833   8.044657
     7  C   -0.002875   0.000425   0.000265  -0.000321   0.001865  -0.074616
     8  H    0.000082  -0.000142  -0.000001   0.000011   0.000388   0.000646
     9  H    0.000037  -0.001516   0.000010   0.000287   0.005018  -0.002250
    10  H    0.002481   0.004800  -0.000793   0.000438  -0.028827   0.219704
    11  H   -0.000018  -0.000527  -0.000034   0.000029   0.000206   0.000027
               7          8          9         10         11
     1  C   -0.002875   0.000082   0.000037   0.002481  -0.000018
     2  H    0.000425  -0.000142  -0.001516   0.004800  -0.000527
     3  H    0.000265  -0.000001   0.000010  -0.000793  -0.000034
     4  H   -0.000321   0.000011   0.000287   0.000438   0.000029
     5  O    0.001865   0.000388   0.005018  -0.028827   0.000206
     6  O   -0.074616   0.000646  -0.002250   0.219704   0.000027
     7  C    5.085983   0.397398   0.389847   0.187280   0.392387
     8  H    0.397398   0.528944  -0.022648  -0.006934  -0.025825
     9  H    0.389847  -0.022648   0.539859  -0.005816  -0.028822
    10  H    0.187280  -0.006934  -0.005816   0.411222  -0.003993
    11  H    0.392387  -0.025825  -0.028822  -0.003993   0.549452
          Atomic-Atomic Spin Densities.
               1          2          3          4          5          6
     1  C   -0.004738   0.003493   0.000637  -0.002808   0.000926  -0.002502
     2  H    0.003493   0.002386  -0.000750  -0.001425  -0.000836   0.003609
     3  H    0.000637  -0.000750  -0.001753   0.001100   0.000017  -0.000196
     4  H   -0.002808  -0.001425   0.001100   0.004243  -0.000735  -0.000340
     5  O    0.000926  -0.000836   0.000017  -0.000735   0.043998  -0.037925
     6  O   -0.002502   0.003609  -0.000196  -0.000340  -0.037925   0.536513
     7  C    0.001132  -0.004328   0.000117   0.001152   0.011487  -0.086000
     8  H   -0.000037   0.000110  -0.000001  -0.000020  -0.000247   0.001964
     9  H   -0.000240   0.000506  -0.000015  -0.000070  -0.001006   0.001915
    10  H    0.001367  -0.002966   0.000050   0.001242   0.008200  -0.032778
    11  H   -0.000080   0.000575  -0.000004  -0.000094  -0.000438   0.002538
               7          8          9         10         11
     1  C    0.001132  -0.000037  -0.000240   0.001367  -0.000080
     2  H   -0.004328   0.000110   0.000506  -0.002966   0.000575
     3  H    0.000117  -0.000001  -0.000015   0.000050  -0.000004
     4  H    0.001152  -0.000020  -0.000070   0.001242  -0.000094
     5  O    0.011487  -0.000247  -0.001006   0.008200  -0.000438
     6  O   -0.086000   0.001964   0.001915  -0.032778   0.002538
     7  C    0.746255   0.001513   0.003415   0.045326   0.000681
     8  H    0.001513  -0.025114   0.001700   0.002216   0.002641
     9  H    0.003415   0.001700  -0.027987   0.004152   0.002101
    10  H    0.045326   0.002216   0.004152  -0.112125   0.001394
    11  H    0.000681   0.002641   0.002101   0.001394  -0.024552
 Mulliken charges and spin densities:
               1          2
     1  C   -0.043560  -0.002851
     2  H    0.063707   0.000375
     3  H    0.094166  -0.000799
     4  H    0.084335   0.002246
     5  O   -0.189248   0.023442
     6  O   -0.223394   0.386797
     7  C   -0.377637   0.720751
     8  H    0.128082  -0.015274
     9  H    0.125993  -0.015528
    10  H    0.220439  -0.083920
    11  H    0.117118  -0.015238
 Sum of Mulliken charges =  -0.00000   1.00000
 Mulliken charges and spin densities with hydrogens summed into heavy atoms:
               1          2
     1  C    0.198648  -0.001029
     5  O   -0.189248   0.023442
     6  O   -0.002955   0.302877
     7  C   -0.006445   0.674711
 Electronic spatial extent (au):  <R**2>=            453.7704
 Charge=             -0.0000 electrons
 Dipole moment (field-independent basis, Debye):
    X=             -0.6704    Y=             -0.0360    Z=              2.3141  Tot=              2.4095
 Quadrupole moment (field-independent basis, Debye-Ang):
   XX=            -21.0316   YY=            -26.5941   ZZ=            -29.1375
   XY=             -1.2587   XZ=              1.7486   YZ=              0.5467
 Traceless Quadrupole moment (field-independent basis, Debye-Ang):
   XX=              4.5561   YY=             -1.0064   ZZ=             -3.5498
   XY=             -1.2587   XZ=              1.7486   YZ=              0.5467
 Octapole moment (field-independent basis, Debye-Ang**2):
  XXX=              4.6268  YYY=            -26.4750  ZZZ=             34.2192  XYY=              0.4392
  XXY=             -5.9753  XXZ=              7.9440  XZZ=             -0.5504  YZZ=             -8.6681
  YYZ=             11.6686  XYZ=              0.0629
 Hexadecapole moment (field-independent basis, Debye-Ang**3):
 XXXX=           -367.6168 YYYY=            -87.5258 ZZZZ=           -125.2174 XXXY=             29.3558
 XXXZ=             11.8862 YYYX=             33.6579 YYYZ=             15.8397 ZZZX=              3.2919
 ZZZY=             17.5795 XXYY=            -71.1115 XXZZ=            -82.5038 YYZZ=            -35.5430
 XXYZ=              1.1489 YYXZ=              1.4242 ZZXY=             10.5567
 N-N= 1.307677919622D+02 E-N=-8.026039850026D+02  KE= 2.293470361625D+02
                          Isotropic Fermi Contact Couplings
        Atom                 a.u.       MegaHertz       Gauss      10(-4) cm-1
     1  C(13)             -0.00330      -3.70994      -1.32380      -1.23750
     2  H(1)               0.00234      10.45259       3.72974       3.48661
     3  H(1)              -0.00007      -0.31676      -0.11303      -0.10566
     4  H(1)               0.00051       2.26620       0.80864       0.75592
     5  O(17)              0.01403      -8.50623      -3.03523      -2.83737
     6  O(17)              0.03048     -18.47410      -6.59202      -6.16230
     7  C(13)              0.10127     113.84370      40.62226      37.97417
     8  H(1)              -0.00572     -25.58603      -9.12973      -8.53458
     9  H(1)              -0.00578     -25.81885      -9.21281      -8.61224
    10  H(1)              -0.02802    -125.23924     -44.68847     -41.77531
    11  H(1)              -0.00591     -26.42879      -9.43045      -8.81570
 --------------------------------------------------------
       Center         ----  Spin Dipole Couplings  ----
                      3XX-RR        3YY-RR        3ZZ-RR
 --------------------------------------------------------
     1   Atom        0.003558     -0.004953      0.001395
     2   Atom        0.001772     -0.005635      0.003862
     3   Atom        0.002484     -0.001551     -0.000933
     4   Atom        0.005889     -0.004353     -0.001536
     5   Atom        0.226969     -0.230299      0.003329
     6   Atom        0.689505     -0.690757      0.001252
     7   Atom        0.477090     -0.355612     -0.121478
     8   Atom        0.024477     -0.036051      0.011575
     9   Atom       -0.010038      0.047746     -0.037708
    10   Atom        0.158500     -0.121370     -0.037130
    11   Atom       -0.009037     -0.015419      0.024456
 --------------------------------------------------------
                        XY            XZ            YZ
 --------------------------------------------------------
     1   Atom       -0.004307      0.005346     -0.000773
     2   Atom       -0.001652      0.005201     -0.002061
     3   Atom       -0.003084      0.003041     -0.002136
     4   Atom        0.000366      0.005146      0.000348
     5   Atom        0.028206     -0.253986      0.002434
     6   Atom        0.509261     -1.164046     -0.383267
     7   Atom        0.170843     -0.482336     -0.095298
     8   Atom       -0.014087      0.021726     -0.029029
     9   Atom       -0.003263     -0.020542     -0.012835
    10   Atom        0.023791     -0.158722     -0.014932
    11   Atom        0.017506     -0.006771      0.041432
 --------------------------------------------------------


 ---------------------------------------------------------------------------------
              Anisotropic Spin Dipole Couplings in Principal Axis System
 ---------------------------------------------------------------------------------

       Atom             a.u.   MegaHertz   Gauss  10(-4) cm-1        Axes

              Baa    -0.0070    -0.945    -0.337    -0.315  0.4572  0.8641 -0.2104
     1 C(13)  Bbb    -0.0020    -0.263    -0.094    -0.088 -0.4369  0.4243  0.7931
              Bcc     0.0090     1.209     0.431     0.403  0.7746 -0.2707  0.5716
 
              Baa    -0.0061    -3.268    -1.166    -1.090  0.1096  0.9832  0.1459
     2 H(1)   Bbb    -0.0025    -1.327    -0.474    -0.443  0.7748  0.0074 -0.6322
              Bcc     0.0086     4.595     1.640     1.533  0.6227 -0.1823  0.7610
 
              Baa    -0.0035    -1.851    -0.660    -0.617  0.1931  0.8522  0.4863
     3 H(1)   Bbb    -0.0026    -1.402    -0.500    -0.468 -0.6109 -0.2835  0.7392
              Bcc     0.0061     3.252     1.161     1.085  0.7678 -0.4398  0.4659
 
              Baa    -0.0044    -2.372    -0.846    -0.791  0.1803  0.8870 -0.4251
     4 H(1)   Bbb    -0.0041    -2.185    -0.780    -0.729 -0.4200  0.4603  0.7821
              Bcc     0.0085     4.557     1.626     1.520  0.8894  0.0375  0.4555
 
              Baa    -0.2353    17.024     6.074     5.679 -0.1560  0.9720 -0.1760
     5 O(17)  Bbb    -0.1582    11.447     4.084     3.818  0.5235  0.2324  0.8197
              Bcc     0.3935   -28.470   -10.159    -9.497  0.8376  0.0357 -0.5451
 
              Baa    -0.8689    62.875    22.435    20.973  0.5436  0.1999  0.8152
     6 O(17)  Bbb    -0.8583    62.107    22.161    20.717 -0.3235  0.9461 -0.0163
              Bcc     1.7272  -124.981   -44.596   -41.689  0.7745  0.2549 -0.5789
 
              Baa    -0.3899   -52.323   -18.670   -17.453  0.4060  0.3375  0.8493
     7 C(13)  Bbb    -0.3893   -52.235   -18.639   -17.424 -0.3060  0.9259 -0.2216
              Bcc     0.7792   104.558    37.309    34.877  0.8611  0.1699 -0.4791
 
              Baa    -0.0500   -26.659    -9.513    -8.893  0.0523  0.9102  0.4109
     8 H(1)   Bbb    -0.0007    -0.348    -0.124    -0.116  0.7103  0.2553 -0.6560
              Bcc     0.0506    27.007     9.637     9.009  0.7020 -0.3262  0.6331
 
              Baa    -0.0503   -26.854    -9.582    -8.957  0.4587  0.1303  0.8790
     9 H(1)   Bbb     0.0007     0.372     0.133     0.124  0.8886 -0.0623 -0.4545
              Bcc     0.0496    26.482     9.449     8.833 -0.0044  0.9895 -0.1444
 
              Baa    -0.1265   -67.469   -24.075   -22.505  0.4102  0.4350  0.8016
    10 H(1)   Bbb    -0.1228   -65.519   -23.379   -21.855 -0.2721  0.8972 -0.3477
              Bcc     0.2492   132.988    47.453    44.360  0.8705  0.0755 -0.4864
 
              Baa    -0.0498   -26.578    -9.484    -8.865 -0.4128  0.7789 -0.4721
    11 H(1)   Bbb    -0.0009    -0.488    -0.174    -0.163  0.9086  0.3159 -0.2733
              Bcc     0.0507    27.065     9.658     9.028  0.0638  0.5418  0.8381
 

 ---------------------------------------------------------------------------------

 1\1\GINC-N21\Scan\UB2PLYPD3-FC\CC-pVTZ\C2H7O2(2)\ROOT\12-Jun-2019\0\\#
  opt=(calcfc,ts,noeigentest,maxcyc=500,modredundant) uB2PLYPD3/cc-pvtz
  scf=maxcyc=500 nosymm\\Title Card Required\\0,2\C,1.5319869991,-0.032
 1292502,0.2036611016\H,0.9072682208,0.1617167189,1.0773772075\H,2.1099
 272,-0.9410968145,0.3569641982\H,2.1963689401,0.8124565614,0.029814162
 3\O,0.7334960717,-0.2877088732,-0.9423649433\O,0.0328827314,0.89600719
 79,-1.2492336878\C,-2.1435900293,0.6201337311,0.0094329421\H,-2.880285
 6776,0.9785362438,-0.6971815638\H,-2.1282422508,-0.4517679103,0.159647
 9378\H,-0.9499741057,0.792398168,-0.6889989449\H,-2.0299120997,1.21910
 8227,0.9028315903\\Version=ES64L-G16RevB.01\HF=-230.3211436,-230.32113
 02,-230.3211085,-230.3210841,-230.321067,-230.3210624,-230.3210665,-23
 0.3210791,-230.3210967,-230.3211149,-230.3211325,-230.3211442,-230.321
 1442,-230.3211308,-230.3211083,-230.3210847,-230.3210681,-230.3210609,
 -230.3210645,-230.3210767,-230.3210943,-230.3211139,-230.3211317,-230.
 3211436,-230.3211445,-230.3211313,-230.3211095,-230.3210853,-230.32106
 74,-230.3210605,-230.3210651,-230.3210777,-230.3210954,-230.3211164,-2
 30.3211342,-230.3211451,-230.3211439\MP2=-230.5989163,-230.5989046,-23
 0.5988741,-230.598838,-230.5988099,-230.5987965,-230.5987975,-230.5988
 09,-230.5988278,-230.5988523,-230.5988807,-230.5989059,-230.5989165,-2
 30.5989046,-230.5988743,-230.5988385,-230.5988103,-230.5987964,-230.59
 87972,-230.5988086,-230.5988269,-230.5988505,-230.5988782,-230.5989037
 ,-230.5989161,-230.5989069,-230.598878,-230.5988417,-230.5988118,-230.
 5987969,-230.5987972,-230.5988086,-230.5988274,-230.5988522,-230.59888
 05,-230.5989055,-230.5989159\PUHF=-230.3272008,-230.32719,-230.3271685
 ,-230.3271425,-230.3271224,-230.3271131,-230.327114,-230.327124,-230.3
 271408,-230.3271611,-230.3271819,-230.3271975,-230.3272011,-230.327190
 4,-230.3271686,-230.3271434,-230.3271237,-230.3271127,-230.3271131,-23
 0.3271231,-230.3271398,-230.32716,-230.3271803,-230.327196,-230.327201
 1,-230.3271911,-230.3271699,-230.3271444,-230.3271235,-230.3271129,-23
 0.3271135,-230.3271237,-230.3271411,-230.327161,-230.3271825,-230.3271
 974,-230.3272006\PMP2-0=-230.5994207,-230.5994093,-230.599379,-230.599
 343,-230.5993147,-230.599301,-230.5993017,-230.5993129,-230.5993315,-2
 30.599356,-230.5993845,-230.59941,-230.5994209,-230.5994094,-230.59937
 93,-230.5993435,-230.5993151,-230.599301,-230.5993015,-230.5993126,-23
 0.5993307,-230.5993542,-230.599382,-230.5994077,-230.5994205,-230.5994
 116,-230.599383,-230.5993467,-230.5993167,-230.5993015,-230.5993014,-2
 30.5993125,-230.5993312,-230.5993558,-230.5993843,-230.5994095,-230.59
 94203\S2=0.768099,0.76811,0.768112,0.768107,0.768095,0.768077,0.768063
 ,0.768053,0.76805,0.768057,0.768069,0.768084,0.768098,0.76811,0.768113
 ,0.768108,0.768096,0.76808,0.768066,0.768056,0.768053,0.768057,0.76806
 7,0.768082,0.768097,0.768109,0.768113,0.768109,0.768097,0.768082,0.768
 065,0.768055,0.768053,0.768053,0.768067,0.768082,0.768098\S2-1=0.74294
 8,0.742946,0.742949,0.742955,0.742962,0.74297,0.742974,0.742976,0.7429
 75,0.742969,0.742961,0.742954,0.742948,0.742946,0.742949,0.742954,0.74
 2962,0.742969,0.742973,0.742975,0.742973,0.74297,0.742963,0.742955,0.7
 42949,0.742946,0.742948,0.742954,0.742961,0.742968,0.742973,0.742975,0
 .742973,0.742971,0.742963,0.742955,0.742949\S2A=0.750142,0.750142,0.75
 0142,0.750142,0.750142,0.750142,0.750141,0.750141,0.750141,0.750141,0.
 750141,0.750142,0.750142,0.750142,0.750142,0.750142,0.750142,0.750142,
 0.750141,0.750141,0.750141,0.750141,0.750141,0.750142,0.750142,0.75014
 2,0.750142,0.750142,0.750142,0.750142,0.750141,0.750141,0.750141,0.750
 141,0.750141,0.750142,0.750142\RMSD=3.551e-09,2.889e-09,5.284e-09,5.48
 1e-09,7.005e-09,8.762e-09,3.922e-09,9.268e-09,2.460e-09,4.656e-09,4.63
 8e-09,5.636e-09,6.116e-09,7.049e-09,4.385e-09,7.504e-09,5.853e-09,6.52
 8e-09,5.832e-09,3.467e-09,2.185e-09,2.742e-09,7.673e-09,7.677e-09,4.98
 8e-09,4.988e-09,8.664e-09,4.476e-09,4.697e-09,5.753e-09,8.447e-09,4.01
 7e-09,5.481e-09,4.163e-09,3.871e-09,5.242e-09,5.427e-09\PG=C01 [X(C2H7
 O2)]\\@


 It is also a good rule not to put too much confidence in
 experimental results until they have been confirmed by
 Theory.
                             -- Sir Arthur Eddington
 Job cpu time:       2 days  9 hours 42 minutes 18.0 seconds.
 Elapsed time:       0 days  2 hours  4 minutes 29.4 seconds.
 File lengths (MBytes):  RWF=  15745 Int=      0 D2E=      0 Chk=     10 Scr=      1
 Normal termination of Gaussian 16 at Wed Jun 12 13:45:21 2019.
