 Entering Gaussian System, Link 0=g16
 Initial command:
 /ichec/packages/gaussian/16b01/l1.exe "/localscratch/347858/Gau-88361.inp" -scrdir="/localscratch/347858/"
 Entering Link 1 = /ichec/packages/gaussian/16b01/l1.exe PID=     88598.
  
 Copyright (c) 1988-2017, Gaussian, Inc.  All Rights Reserved.
  
 This is part of the Gaussian(R) 16 program.  It is based on
 the Gaussian(R) 09 system (copyright 2009, Gaussian, Inc.),
 the Gaussian(R) 03 system (copyright 2003, Gaussian, Inc.),
 the Gaussian(R) 98 system (copyright 1998, Gaussian, Inc.),
 the Gaussian(R) 94 system (copyright 1995, Gaussian, Inc.),
 the Gaussian 92(TM) system (copyright 1992, Gaussian, Inc.),
 the Gaussian 90(TM) system (copyright 1990, Gaussian, Inc.),
 the Gaussian 88(TM) system (copyright 1988, Gaussian, Inc.),
 the Gaussian 86(TM) system (copyright 1986, Carnegie Mellon
 University), and the Gaussian 82(TM) system (copyright 1983,
 Carnegie Mellon University). Gaussian is a federally registered
 trademark of Gaussian, Inc.
  
 This software contains proprietary and confidential information,
 including trade secrets, belonging to Gaussian, Inc.
  
 This software is provided under written license and may be
 used, copied, transmitted, or stored only in accord with that
 written license.
  
 The following legend is applicable only to US Government
 contracts under FAR:
  
                    RESTRICTED RIGHTS LEGEND
  
 Use, reproduction and disclosure by the US Government is
 subject to restrictions as set forth in subparagraphs (a)
 and (c) of the Commercial Computer Software - Restricted
 Rights clause in FAR 52.227-19.
  
 Gaussian, Inc.
 340 Quinnipiac St., Bldg. 40, Wallingford CT 06492
  
  
 ---------------------------------------------------------------
 Warning -- This program may not be used in any manner that
 competes with the business of Gaussian, Inc. or will provide
 assistance to any competitor of Gaussian, Inc.  The licensee
 of this program is prohibited from giving any competitor of
 Gaussian, Inc. access to this program.  By using this program,
 the user acknowledges that Gaussian, Inc. is engaged in the
 business of creating and licensing software in the field of
 computational chemistry and represents and warrants to the
 licensee that it is not a competitor of Gaussian, Inc. and that
 it will not use this program in any manner prohibited above.
 ---------------------------------------------------------------
  

 Cite this work as:
 Gaussian 16, Revision B.01,
 M. J. Frisch, G. W. Trucks, H. B. Schlegel, G. E. Scuseria, 
 M. A. Robb, J. R. Cheeseman, G. Scalmani, V. Barone, 
 G. A. Petersson, H. Nakatsuji, X. Li, M. Caricato, A. V. Marenich, 
 J. Bloino, B. G. Janesko, R. Gomperts, B. Mennucci, H. P. Hratchian, 
 J. V. Ortiz, A. F. Izmaylov, J. L. Sonnenberg, D. Williams-Young, 
 F. Ding, F. Lipparini, F. Egidi, J. Goings, B. Peng, A. Petrone, 
 T. Henderson, D. Ranasinghe, V. G. Zakrzewski, J. Gao, N. Rega, 
 G. Zheng, W. Liang, M. Hada, M. Ehara, K. Toyota, R. Fukuda, 
 J. Hasegawa, M. Ishida, T. Nakajima, Y. Honda, O. Kitao, H. Nakai, 
 T. Vreven, K. Throssell, J. A. Montgomery, Jr., J. E. Peralta, 
 F. Ogliaro, M. J. Bearpark, J. J. Heyd, E. N. Brothers, K. N. Kudin, 
 V. N. Staroverov, T. A. Keith, R. Kobayashi, J. Normand, 
 K. Raghavachari, A. P. Rendell, J. C. Burant, S. S. Iyengar, 
 J. Tomasi, M. Cossi, J. M. Millam, M. Klene, C. Adamo, R. Cammi, 
 J. W. Ochterski, R. L. Martin, K. Morokuma, O. Farkas, 
 J. B. Foresman, and D. J. Fox, Gaussian, Inc., Wallingford CT, 2016.
 
 ******************************************
 Gaussian 16:  ES64L-G16RevB.01 20-Dec-2017
                13-Jun-2019 
 ******************************************
 %mem=80GB
 %nproc=40
 Will use up to   40 processors via shared memory.
 ----------------------------------------------------------------------
 # opt=(calcfc,ts,noeigentest,maxcyc=500,modredundant) uB2PLYPD3/cc-pvt
 z scf=maxcyc=500 nosymm
 ----------------------------------------------------------------------
 1/5=1,6=500,10=4,11=1,18=120,38=1/1,3;
 2/9=110,12=2,15=1,17=6,18=5,40=1/2;
 3/5=16,6=1,11=2,25=1,30=1,71=2,74=-60,116=2,140=1/1,2,3;
 4//1;
 5/5=2,7=500,38=5/2;
 8/6=3,8=1,10=1,19=11,30=-1/1;
 9/15=3,16=-3/6;
 11/6=1,8=1,15=11,17=12,24=-1,27=1,28=-2,29=300,31=1,32=6,42=3/1,2,10;
 10/6=2,21=1,31=1/2;
 8/6=4,8=1,10=1,19=11,30=-1/11,4;
 10/5=1,20=4,31=1/2;
 11/12=2,14=11,16=1,17=2,28=-2,31=1,42=3,76=2/2,10,12;
 6/7=2,8=2,9=2,10=2/1;
 7/10=1,12=2,25=1,30=1,44=2/1,2,3,16;
 1/5=1,6=500,10=4,11=1,18=20/3(2);
 2/9=110,15=1/2;
 99//99;
 2/9=110,15=1/2;
 3/5=16,6=1,11=2,25=1,30=1,71=1,74=-60,116=2/1,2,3;
 4/5=5,16=3,69=1/1;
 5/5=2,7=500,38=5/2;
 8/6=4,10=1/1;
 9/15=2,16=-3/6;
 10/5=1,31=1/2;
 7/12=2,30=1/1,2,3,16;
 1/5=1,6=500,11=1,18=20/3(-8);
 2/9=110,15=1/2;
 6/7=2,8=2,9=2,10=2/1;
 99/9=10/99;
 -------------------
 Title Card Required
 -------------------
 Symbolic Z-matrix:
 Charge =  0 Multiplicity = 2
 C                    -1.98267  -0.72465  -0.30674 
 H                    -2.9468   -1.15998  -0.02609 
 H                    -2.04317  -0.4329   -1.35318 
 H                    -1.23206  -1.50855  -0.2202 
 C                    -1.65534   0.44791   0.56858 
 H                    -2.23931   1.34862   0.40729 
 H                    -1.49417   0.23385   1.62042 
 C                     1.91265  -0.59564   0.48524 
 H                     1.24561  -0.8106    1.32205 
 H                     2.38825  -1.51351   0.14566 
 H                     2.66531   0.12894   0.79085 
 O                     1.18163  -0.11639  -0.63405 
 O                     0.62275   1.12776  -0.28034 
 H                    -0.42661   0.85737   0.14587 
 
 Add virtual bond connecting atoms H14        and O13        Dist= 2.20D+00.
 Add virtual bond connecting atoms H14        and C5         Dist= 2.57D+00.
 The following ModRedundant input section has been read:
 D    *          5      13    *    R                                           
 D       1       5      13      12 S  36 10.000                                
 

 GradGradGradGradGradGradGradGradGradGradGradGradGradGradGradGradGradGrad
 Berny optimization.
 Initialization pass.
                           ----------------------------
                           !    Initial Parameters    !
                           ! (Angstroms and Degrees)  !
 --------------------------                            --------------------------
 ! Name  Definition              Value          Derivative Info.                !
 --------------------------------------------------------------------------------
 ! R1    R(1,2)                  1.0944         calculate D2E/DX2 analytically  !
 ! R2    R(1,3)                  1.088          calculate D2E/DX2 analytically  !
 ! R3    R(1,4)                  1.0888         calculate D2E/DX2 analytically  !
 ! R4    R(1,5)                  1.4994         calculate D2E/DX2 analytically  !
 ! R5    R(5,6)                  1.0855         calculate D2E/DX2 analytically  !
 ! R6    R(5,7)                  1.0854         calculate D2E/DX2 analytically  !
 ! R7    R(5,14)                 1.3624         calculate D2E/DX2 analytically  !
 ! R8    R(8,9)                  1.0915         calculate D2E/DX2 analytically  !
 ! R9    R(8,10)                 1.0881         calculate D2E/DX2 analytically  !
 ! R10   R(8,11)                 1.0885         calculate D2E/DX2 analytically  !
 ! R11   R(8,12)                 1.4202         calculate D2E/DX2 analytically  !
 ! R12   R(12,13)                1.409          calculate D2E/DX2 analytically  !
 ! R13   R(13,14)                1.1644         calculate D2E/DX2 analytically  !
 ! A1    A(2,1,3)              107.7167         calculate D2E/DX2 analytically  !
 ! A2    A(2,1,4)              107.4908         calculate D2E/DX2 analytically  !
 ! A3    A(2,1,5)              110.7118         calculate D2E/DX2 analytically  !
 ! A4    A(3,1,4)              107.9293         calculate D2E/DX2 analytically  !
 ! A5    A(3,1,5)              111.3404         calculate D2E/DX2 analytically  !
 ! A6    A(4,1,5)              111.4774         calculate D2E/DX2 analytically  !
 ! A7    A(1,5,6)              116.4036         calculate D2E/DX2 analytically  !
 ! A8    A(1,5,7)              116.3532         calculate D2E/DX2 analytically  !
 ! A9    A(1,5,14)             104.5242         calculate D2E/DX2 analytically  !
 ! A10   A(6,5,7)              112.8            calculate D2E/DX2 analytically  !
 ! A11   A(6,5,14)             100.9362         calculate D2E/DX2 analytically  !
 ! A12   A(7,5,14)             103.063          calculate D2E/DX2 analytically  !
 ! A13   A(9,8,10)             109.8916         calculate D2E/DX2 analytically  !
 ! A14   A(9,8,11)             109.7796         calculate D2E/DX2 analytically  !
 ! A15   A(9,8,12)             110.8623         calculate D2E/DX2 analytically  !
 ! A16   A(10,8,11)            110.2977         calculate D2E/DX2 analytically  !
 ! A17   A(10,8,12)            105.2891         calculate D2E/DX2 analytically  !
 ! A18   A(11,8,12)            110.6432         calculate D2E/DX2 analytically  !
 ! A19   A(8,12,13)            107.7159         calculate D2E/DX2 analytically  !
 ! A20   A(12,13,14)           104.1399         calculate D2E/DX2 analytically  !
 ! A21   L(5,14,13,9,-1)       178.9408         calculate D2E/DX2 analytically  !
 ! A22   L(5,14,13,9,-2)       174.8919         calculate D2E/DX2 analytically  !
 ! D1    D(2,1,5,6)            -71.7016         calculate D2E/DX2 analytically  !
 ! D2    D(2,1,5,7)             65.0822         calculate D2E/DX2 analytically  !
 ! D3    D(2,1,5,14)           177.9684         calculate D2E/DX2 analytically  !
 ! D4    D(3,1,5,6)             48.1007         calculate D2E/DX2 analytically  !
 ! D5    D(3,1,5,7)           -175.1155         calculate D2E/DX2 analytically  !
 ! D6    D(3,1,5,14)           -62.2293         calculate D2E/DX2 analytically  !
 ! D7    D(4,1,5,6)            168.6905         calculate D2E/DX2 analytically  !
 ! D8    D(4,1,5,7)            -54.5258         calculate D2E/DX2 analytically  !
 ! D9    D(4,1,5,14)            58.3605         calculate D2E/DX2 analytically  !
 ! D10   D(1,5,13,12)          -33.9468         Scan                            !
 ! D11   D(9,8,12,13)           65.4864         calculate D2E/DX2 analytically  !
 ! D12   D(10,8,12,13)        -175.72           calculate D2E/DX2 analytically  !
 ! D13   D(11,8,12,13)         -56.5576         calculate D2E/DX2 analytically  !
 ! D14   D(8,12,13,14)         -91.4074         calculate D2E/DX2 analytically  !
 --------------------------------------------------------------------------------
 Trust Radius=3.00D-01 FncErr=1.00D-07 GrdErr=1.00D-07 EigMax=2.50D+02 EigMin=1.00D-04
 Number of optimizations in scan=  37
 Number of steps in this run=    100 maximum allowed number of steps=    100.
 Search for a saddle point of order  1.
 GradGradGradGradGradGradGradGradGradGradGradGradGradGradGradGradGradGrad

                          Input orientation:                          
 ---------------------------------------------------------------------
 Center     Atomic      Atomic             Coordinates (Angstroms)
 Number     Number       Type             X           Y           Z
 ---------------------------------------------------------------------
      1          6           0       -1.982674   -0.724646   -0.306743
      2          1           0       -2.946800   -1.159976   -0.026087
      3          1           0       -2.043169   -0.432896   -1.353179
      4          1           0       -1.232058   -1.508554   -0.220200
      5          6           0       -1.655337    0.447914    0.568584
      6          1           0       -2.239314    1.348620    0.407288
      7          1           0       -1.494167    0.233852    1.620415
      8          6           0        1.912649   -0.595644    0.485240
      9          1           0        1.245612   -0.810603    1.322046
     10          1           0        2.388252   -1.513513    0.145662
     11          1           0        2.665311    0.128943    0.790849
     12          8           0        1.181635   -0.116387   -0.634050
     13          8           0        0.622753    1.127763   -0.280344
     14          1           0       -0.426605    0.857372    0.145871
 ---------------------------------------------------------------------
                    Distance matrix (angstroms):
                    1          2          3          4          5
     1  C    0.000000
     2  H    1.094449   0.000000
     3  H    1.088028   1.762489   0.000000
     4  H    1.088773   1.760547   1.760279   0.000000
     5  C    1.499414   2.146351   2.149282   2.151537   0.000000
     6  H    2.207745   2.642235   2.512273   3.093824   1.085503
     7  H    2.207101   2.600744   3.096485   2.548047   1.085425
     8  C    3.977112   4.918757   4.365177   3.349662   3.718398
     9  H    3.616929   4.417674   4.256239   3.000751   3.250704
    10  H    4.464524   5.349511   4.801224   3.638753   4.514053
    11  H    4.851504   5.815882   5.204066   4.346620   4.338104
    12  O    3.238821   4.301473   3.319139   2.816969   3.132599
    13  O    3.196931   4.247364   3.270133   3.223990   2.524394
    14  H    2.264728   3.232746   2.554451   2.525939   1.362397
                    6          7          8          9         10
     6  H    0.000000
     7  H    1.808212   0.000000
     8  C    4.585307   3.685523   0.000000
     9  H    4.200445   2.947253   1.091508   0.000000
    10  H    5.447442   4.505703   1.088115   1.784261   0.000000
    11  H    5.068538   4.242693   1.088542   1.783385   1.786250
    12  O    3.864392   3.516418   1.420169   2.076618   2.003955
    13  O    2.951786   2.982166   2.284750   2.590921   3.205434
    14  H    1.896201   1.924252   2.774624   2.638530   3.680287
                   11         12         13         14
    11  H    0.000000
    12  O    2.071670   0.000000
    13  O    2.513392   1.409030   0.000000
    14  H    3.241381   2.035416   1.164441   0.000000
 Symmetry turned off by external request.
 Stoichiometry    C3H9O2(2)
 Framework group  C1[X(C3H9O2)]
 Deg. of freedom    36
 Full point group                 C1      NOp   1
 Rotational constants (GHZ):           7.7345853           2.3919350           2.1811545
 Standard basis: CC-pVTZ (5D, 7F)
   276 basis functions,   413 primitive gaussians,   310 cartesian basis functions
    22 alpha electrons       21 beta electrons
       nuclear repulsion energy       189.4582176979 Hartrees.
 NAtoms=   14 NActive=   14 NUniq=   14 SFac= 1.00D+00 NAtFMM=   60 NAOKFM=F Big=F
 Integral buffers will be    131072 words long.
 Raffenetti 2 integral format.
 Two-electron integral symmetry is turned off.
 Nuclear repulsion after empirical dispersion term =      189.4523980405 Hartrees.
 One-electron integrals computed using PRISM.
 NBasis=   276 RedAO= T EigKep=  1.05D-03  NBF=   276
 NBsUse=   276 1.00D-06 EigRej= -1.00D+00 NBFU=   276
 ExpMin= 1.03D-01 ExpMax= 1.53D+04 ExpMxC= 5.22D+02 IAcc=3 IRadAn=         5 AccDes= 0.00D+00
 Harris functional with IExCor=  419 and IRadAn=       5 diagonalized for initial guess.
 HarFok:  IExCor=  419 AccDes= 0.00D+00 IRadAn=         5 IDoV= 1 UseB2=F ITyADJ=14
 ICtDFT=  3500011 ScaDFX=  1.000000  1.000000  1.000000  1.000000
 FoFCou: FMM=F IPFlag=           0 FMFlag=      100000 FMFlg1=           0
         NFxFlg=           0 DoJE=T BraDBF=F KetDBF=T FulRan=T
         wScrn=  0.000000 ICntrl=       500 IOpCl=  0 I1Cent=   200000004 NGrid=           0
         NMat0=    1 NMatS0=      1 NMatT0=    0 NMatD0=    1 NMtDS0=    0 NMtDT0=    0
 Symmetry not used in FoFCou.
 Initial guess <Sx>= 0.0000 <Sy>= 0.0000 <Sz>= 0.5000 <S**2>= 0.7500 S= 0.5000
 Requested convergence on RMS density matrix=1.00D-08 within 500 cycles.
 Requested convergence on MAX density matrix=1.00D-06.
 Requested convergence on             energy=1.00D-06.
 No special actions if energy rises.
 Integral accuracy reduced to 1.0D-05 until final iterations.
 Initial convergence to 1.0D-05 achieved.  Increase integral accuracy.
 SCF Done:  E(UB2PLYPD3) =  -269.557868731     A.U. after   19 cycles
            NFock= 19  Conv=0.28D-08     -V/T= 2.0043
 <Sx>= 0.0000 <Sy>= 0.0000 <Sz>= 0.5000 <S**2>= 0.7683 S= 0.5091
 <L.S>=  0.00000000000    
 Annihilation of the first spin contaminant:
 S**2 before annihilation     0.7683,   after     0.7501
 DoSCS=T DFT=T ScalE2(SS,OS)=  0.270000  0.270000
 ExpMin= 1.03D-01 ExpMax= 1.53D+04 ExpMxC= 5.22D+02 IAcc=3 IRadAn=         5 AccDes= 0.00D+00
 HarFok:  IExCor=  205 AccDes= 0.00D+00 IRadAn=         5 IDoV=-2 UseB2=F ITyADJ=14
 ICtDFT= 12500011 ScaDFX=  1.000000  1.000000  1.000000  1.000000
 Range of M.O.s used for correlation:     6   276
 NBasis=   276 NAE=    22 NBE=    21 NFC=     5 NFV=     0
 NROrb=    271 NOA=    17 NOB=    16 NVA=   254 NVB=   255

 **** Warning!!: The largest alpha MO coefficient is  0.11895603D+02


 **** Warning!!: The largest beta MO coefficient is  0.11894935D+02

 DoSCS=T DFT=T ScalE2(SS,OS)=  0.270000  0.270000
 Disk-based method using ON**2 memory for 17 occupieds at a time.
 Permanent disk used for amplitudes=    44146851 words.
 Estimated scratch disk usage=   897492384 words.
 Actual    scratch disk usage=   867704224 words.
 JobTyp=2 Pass  1:  I=   6 to  22 NPSUse= 40 ParTrn=T ParDer=T DoDerP=T.
 (rs|ai) integrals will be sorted in core.
 Actual    scratch disk usage=   867704224 words.
 JobTyp=3 Pass  1:  I=   6 to  21 NPSUse= 40 ParTrn=T ParDer=T DoDerP=T.
 (rs|ai) integrals will be sorted in core.
 Spin components of T(2) and E(2):
     alpha-alpha T2 =       0.5410711179D-01 E2=     -0.4068339926D-01
     alpha-beta  T2 =       0.3355479864D+00 E2=     -0.2555945148D+00
     beta-beta   T2 =       0.5842299045D-01 E2=     -0.3915842505D-01
 (S**2,0)=  0.76827D+00           (S**2,1)=  0.74276D+00
 Scaling Projection term by:   0.270000
 E(PUHF)=      -0.26956402526D+03        E(PMP2)=      -0.26989381254D+03
 E2(B2PLYPD3) =    -0.3354363391D+00 E(B2PLYPD3) =    -0.26989330506986D+03
 G2DrvN: will do    15 centers at a time, making    1 passes.
 Calling FoFCou, ICntrl=  3107 FMM=F I1Cent=   0 AccDes= 0.00D+00.
 End of G2Drv F.D. properties file   721 does not exist.
 End of G2Drv F.D. properties file   722 does not exist.
 End of G2Drv F.D. properties file   788 does not exist.
          IDoAtm=11111111111111
          Differentiating once with respect to electric field.
                with respect to dipole field.
          Differentiating once with respect to nuclear coordinates.
 Keep R1 and R2 ints in memory in canonical form, NReq=1506835291.
          There are    45 degrees of freedom in the 1st order CPHF.  IDoFFX=6 NUNeed=    45.
     42 vectors produced by pass  0 Test12= 2.43D-14 2.22D-09 XBig12= 6.42D+01 4.95D+00.
 AX will form    42 AO Fock derivatives at one time.
     42 vectors produced by pass  1 Test12= 2.43D-14 2.22D-09 XBig12= 4.89D+00 2.92D-01.
     42 vectors produced by pass  2 Test12= 2.43D-14 2.22D-09 XBig12= 2.71D-01 1.12D-01.
     42 vectors produced by pass  3 Test12= 2.43D-14 2.22D-09 XBig12= 4.01D-03 6.56D-03.
     42 vectors produced by pass  4 Test12= 2.43D-14 2.22D-09 XBig12= 4.76D-05 8.74D-04.
     42 vectors produced by pass  5 Test12= 2.43D-14 2.22D-09 XBig12= 7.52D-07 1.16D-04.
     42 vectors produced by pass  6 Test12= 2.43D-14 2.22D-09 XBig12= 6.67D-09 8.69D-06.
     14 vectors produced by pass  7 Test12= 2.43D-14 2.22D-09 XBig12= 3.63D-11 5.58D-07.
      3 vectors produced by pass  8 Test12= 2.43D-14 2.22D-09 XBig12= 2.26D-13 5.47D-08.
      2 vectors produced by pass  9 Test12= 2.43D-14 2.22D-09 XBig12= 1.62D-15 3.65D-09.
 InvSVY:  IOpt=1 It=  1 EMax= 1.78D-15
 Solved reduced A of dimension   313 with    45 vectors.
 End of Minotr F.D. properties file   721 does not exist.
 End of Minotr F.D. properties file   722 does not exist.
 End of Minotr F.D. properties file   788 does not exist.
 MDV= 10737418240.
 DoSCS=T DFT=T ScalE2(SS,OS)=  0.270000  0.270000
 Form MO integral derivatives with frozen-active canonical formalism.
 Discarding MO integrals.
 Reordered first order wavefunction length =    178086595
 In DefCFB: NBatch=  1 ICI= 22 ICA=255 LFMax= 64
            Large arrays: LIAPS=  3745132320 LIARS=   852159000 words.
 In DefCFB: NBatch=  1 ICI= 22 ICA=255 LFMax= 64
            Large arrays: LIAPS=  3745132320 LIARS=   852159000 words.
 Semi-Direct transformation.
 ModeAB=           4 MOrb=            22 LenV=   10735093695
 LASXX=    219513657 LTotXX=   219513657 LenRXX=   442791723
 LTotAB=   223278066 MaxLAS=   278049024 LenRXY=           0
 NonZer=   662305380 LenScr=   997354496 LnRSAI=   278049024
 LnScr1=   418709504 LExtra=           0 Total=   2136904747
 MaxDsk=          -1 SrtSym=           T ITran=            4
 JobTyp=1 Pass  1:  I=   1 to  22.
 (rs|ai) integrals will be sorted in core.
 ModeAB=           4 MOrb=            21 LenV=   10735093695
 LASXX=    210045255 LTotXX=   210045255 LenRXX=   390947865
 LTotAB=   180902610 MaxLAS=   265410432 LenRXY=           0
 NonZer=   600993120 LenScr=   905025536 LnRSAI=   265410432
 LnScr1=   399677440 LExtra=           0 Total=   1961061273
 MaxDsk=          -1 SrtSym=           T ITran=            4
 JobTyp=2 Pass  1:  I=   1 to  21.
 (rs|ai) integrals will be sorted in core.
 DoSCS=T DFT=T ScalE2(SS,OS)=  0.270000  0.270000
 Spin components of T(2) and E(2):
     alpha-alpha T2 =       0.5410711179D-01 E2=     -0.4068339926D-01
     alpha-beta  T2 =       0.3355479864D+00 E2=     -0.2555945148D+00
     beta-beta   T2 =       0.5842299045D-01 E2=     -0.3915842505D-01
 E2(B2PLYPD3) =    -0.3354363391D+00 E(B2PLYPD3) =    -0.26989330506986D+03
 (S**2,0)=  0.76827D+00           (S**2,1)=  0.74276D+00
 Scaling Projection term by:   0.270000
 E(PUHF)=      -0.26956402526D+03        E(PMP2)=      -0.26989381254D+03
          IDoAtm=11111111111111
          Differentiating once with respect to electric field.
                with respect to dipole field.
          Differentiating once with respect to nuclear coordinates.
 Keep R1 and R2 ints in memory in canonical form, NReq=1506971530.
          There are     1 degrees of freedom in the 1st order CPHF.  IDoFFX=0 NUNeed=     1.
 LinEq1:  Iter=  0 NonCon=     1 RMS=1.02D-03 Max=6.68D-02 NDo=     1
 AX will form     1 AO Fock derivatives at one time.
 LinEq1:  Iter=  1 NonCon=     1 RMS=3.25D-04 Max=8.57D-03 NDo=     1
 LinEq1:  Iter=  2 NonCon=     1 RMS=1.78D-04 Max=7.80D-03 NDo=     1
 LinEq1:  Iter=  3 NonCon=     1 RMS=7.36D-05 Max=1.04D-03 NDo=     1
 LinEq1:  Iter=  4 NonCon=     1 RMS=4.06D-05 Max=6.40D-04 NDo=     1
 LinEq1:  Iter=  5 NonCon=     1 RMS=3.04D-05 Max=8.19D-04 NDo=     1
 LinEq1:  Iter=  6 NonCon=     1 RMS=1.83D-05 Max=4.77D-04 NDo=     1
 LinEq1:  Iter=  7 NonCon=     1 RMS=5.84D-06 Max=9.27D-05 NDo=     1
 LinEq1:  Iter=  8 NonCon=     1 RMS=2.38D-06 Max=3.17D-05 NDo=     1
 LinEq1:  Iter=  9 NonCon=     1 RMS=1.11D-06 Max=2.26D-05 NDo=     1
 LinEq1:  Iter= 10 NonCon=     1 RMS=3.64D-07 Max=6.55D-06 NDo=     1
 LinEq1:  Iter= 11 NonCon=     1 RMS=1.08D-07 Max=2.29D-06 NDo=     1
 LinEq1:  Iter= 12 NonCon=     1 RMS=4.18D-08 Max=8.45D-07 NDo=     1
 LinEq1:  Iter= 13 NonCon=     1 RMS=1.78D-08 Max=2.91D-07 NDo=     1
 LinEq1:  Iter= 14 NonCon=     1 RMS=6.11D-09 Max=9.04D-08 NDo=     1
 LinEq1:  Iter= 15 NonCon=     1 RMS=1.59D-09 Max=3.77D-08 NDo=     1
 LinEq1:  Iter= 16 NonCon=     1 RMS=4.54D-10 Max=1.84D-08 NDo=     1
 LinEq1:  Iter= 17 NonCon=     1 RMS=1.52D-10 Max=7.45D-09 NDo=     1
 LinEq1:  Iter= 18 NonCon=     1 RMS=5.79D-11 Max=2.63D-09 NDo=     1
 LinEq1:  Iter= 19 NonCon=     0 RMS=1.69D-11 Max=4.65D-10 NDo=     1
 Linear equations converged to 1.000D-10 1.000D-09 after    19 iterations.
 End of Minotr F.D. properties file   721 does not exist.
 End of Minotr F.D. properties file   722 does not exist.
 End of Minotr F.D. properties file   788 does not exist.
 Symmetrizing basis deriv contribution to polar:
 IMax=3 JMax=2 DiffMx= 0.00D+00
 G2DrvN: will do    15 centers at a time, making    1 passes.
 Calling FoFCou, ICntrl=  3107 FMM=F I1Cent=   0 AccDes= 0.00D+00.
 End of G2Drv F.D. properties file   721 does not exist.
 End of G2Drv F.D. properties file   722 does not exist.
 End of G2Drv F.D. properties file   788 does not exist.
 DoSCS=T DFT=T ScalE2(SS,OS)=  0.270000  0.270000
 R2 and R3 integrals will be kept in memory, NReq=  2338810190.
 DD1Dir will call FoFMem   1 times, MxPair=      1366
 NAB=   462 NAA=   231 NBB=   210.
 Discarding MO integrals.

 **********************************************************************

            Population analysis using the SCF Density.

 **********************************************************************

 Alpha  occ. eigenvalues --  -19.78528 -19.78265 -10.66032 -10.63891 -10.61392
 Alpha  occ. eigenvalues --   -1.27241  -1.01943  -0.89078  -0.77741  -0.72830
 Alpha  occ. eigenvalues --   -0.60878  -0.55800  -0.54449  -0.53179  -0.50936
 Alpha  occ. eigenvalues --   -0.47855  -0.46009  -0.43963  -0.42840  -0.37063
 Alpha  occ. eigenvalues --   -0.36495  -0.29821
 Alpha virt. eigenvalues --    0.07294   0.10171   0.10841   0.12831   0.14139
 Alpha virt. eigenvalues --    0.15068   0.15421   0.17515   0.17877   0.20997
 Alpha virt. eigenvalues --    0.24684   0.27916   0.29266   0.30460   0.31642
 Alpha virt. eigenvalues --    0.31998   0.33342   0.37371   0.39203   0.45668
 Alpha virt. eigenvalues --    0.48045   0.49271   0.50904   0.51625   0.52051
 Alpha virt. eigenvalues --    0.52087   0.53332   0.54381   0.55638   0.56152
 Alpha virt. eigenvalues --    0.57124   0.59872   0.60022   0.61868   0.66443
 Alpha virt. eigenvalues --    0.67845   0.69796   0.73552   0.76910   0.79694
 Alpha virt. eigenvalues --    0.82483   0.86347   0.89269   0.90803   0.93144
 Alpha virt. eigenvalues --    0.95160   0.96117   1.00917   1.01603   1.03483
 Alpha virt. eigenvalues --    1.04200   1.06052   1.09494   1.11461   1.12378
 Alpha virt. eigenvalues --    1.13864   1.14699   1.15606   1.16262   1.17974
 Alpha virt. eigenvalues --    1.21629   1.23302   1.24845   1.26110   1.27328
 Alpha virt. eigenvalues --    1.31137   1.33650   1.36924   1.37096   1.39102
 Alpha virt. eigenvalues --    1.40762   1.41597   1.44204   1.45674   1.47864
 Alpha virt. eigenvalues --    1.50630   1.55140   1.55598   1.61536   1.62927
 Alpha virt. eigenvalues --    1.65843   1.67852   1.74369   1.79329   1.86737
 Alpha virt. eigenvalues --    1.93035   1.99393   2.04663   2.12147   2.17549
 Alpha virt. eigenvalues --    2.21176   2.28094   2.30300   2.33988   2.37125
 Alpha virt. eigenvalues --    2.42641   2.43602   2.44248   2.48672   2.50600
 Alpha virt. eigenvalues --    2.55899   2.57058   2.62615   2.65687   2.70060
 Alpha virt. eigenvalues --    2.72205   2.74477   2.83764   2.84790   2.85315
 Alpha virt. eigenvalues --    2.87599   2.90870   2.91590   2.92600   2.96543
 Alpha virt. eigenvalues --    2.99154   3.00734   3.02182   3.03761   3.05853
 Alpha virt. eigenvalues --    3.08394   3.10298   3.12953   3.13684   3.15262
 Alpha virt. eigenvalues --    3.16132   3.17516   3.19628   3.20645   3.21422
 Alpha virt. eigenvalues --    3.22998   3.27276   3.28618   3.38431   3.40090
 Alpha virt. eigenvalues --    3.41147   3.42799   3.43352   3.44378   3.45673
 Alpha virt. eigenvalues --    3.50769   3.52482   3.53384   3.56063   3.58301
 Alpha virt. eigenvalues --    3.59446   3.60568   3.60705   3.63571   3.64256
 Alpha virt. eigenvalues --    3.66123   3.67721   3.76469   3.81994   3.83342
 Alpha virt. eigenvalues --    3.85689   3.87131   3.88649   3.90110   3.92238
 Alpha virt. eigenvalues --    3.93424   3.95748   3.96250   3.97882   4.01284
 Alpha virt. eigenvalues --    4.04280   4.07039   4.09674   4.09750   4.12560
 Alpha virt. eigenvalues --    4.14748   4.16057   4.18537   4.19310   4.20031
 Alpha virt. eigenvalues --    4.23772   4.24965   4.26084   4.29675   4.33888
 Alpha virt. eigenvalues --    4.35119   4.37929   4.38543   4.39476   4.43868
 Alpha virt. eigenvalues --    4.44899   4.49623   4.56537   4.60495   4.63976
 Alpha virt. eigenvalues --    4.66522   4.72068   4.80034   4.81781   4.86597
 Alpha virt. eigenvalues --    4.92043   4.94131   4.95932   4.97144   4.98806
 Alpha virt. eigenvalues --    5.00314   5.02602   5.04791   5.06374   5.12937
 Alpha virt. eigenvalues --    5.15199   5.24423   5.27323   5.30640   5.31593
 Alpha virt. eigenvalues --    5.34956   5.35719   5.37041   5.37560   5.39256
 Alpha virt. eigenvalues --    5.40198   5.40878   5.46922   5.49828   5.50593
 Alpha virt. eigenvalues --    5.57966   5.61310   5.62565   5.68259   5.78092
 Alpha virt. eigenvalues --    5.85391   5.93127   5.97125   6.00923   6.01743
 Alpha virt. eigenvalues --    6.05651   6.09283   6.09790   6.26314   6.32499
 Alpha virt. eigenvalues --    6.38302   6.40856   6.64435   6.74897   6.75894
 Alpha virt. eigenvalues --    6.82646   6.96286   7.05693   7.06891   7.17801
 Alpha virt. eigenvalues --    7.42001   7.43200   7.58157   7.74254   9.88118
 Alpha virt. eigenvalues --   10.60361  12.58529  13.42619  13.69278
  Beta  occ. eigenvalues --  -19.78381 -19.76656 -10.66041 -10.62628 -10.61450
  Beta  occ. eigenvalues --   -1.25383  -0.99043  -0.87034  -0.77317  -0.70476
  Beta  occ. eigenvalues --   -0.57505  -0.54715  -0.54098  -0.52526  -0.48938
  Beta  occ. eigenvalues --   -0.45573  -0.44533  -0.43027  -0.42476  -0.35280
  Beta  occ. eigenvalues --   -0.33503
  Beta virt. eigenvalues --   -0.04278   0.07442   0.10280   0.11252   0.13161
  Beta virt. eigenvalues --    0.14629   0.15207   0.15466   0.17725   0.18030
  Beta virt. eigenvalues --    0.21646   0.25059   0.28622   0.29992   0.30652
  Beta virt. eigenvalues --    0.32043   0.32223   0.34254   0.37730   0.40246
  Beta virt. eigenvalues --    0.45761   0.48616   0.50430   0.51043   0.52024
  Beta virt. eigenvalues --    0.52395   0.53353   0.53788   0.55134   0.56483
  Beta virt. eigenvalues --    0.57294   0.57792   0.60360   0.60796   0.62466
  Beta virt. eigenvalues --    0.66608   0.68160   0.70099   0.74616   0.77293
  Beta virt. eigenvalues --    0.80362   0.82637   0.86688   0.89433   0.91002
  Beta virt. eigenvalues --    0.93473   0.95253   0.96373   1.01171   1.02017
  Beta virt. eigenvalues --    1.04191   1.04377   1.06256   1.09940   1.11760
  Beta virt. eigenvalues --    1.12802   1.14385   1.15224   1.16277   1.16536
  Beta virt. eigenvalues --    1.18109   1.22102   1.23742   1.25512   1.26390
  Beta virt. eigenvalues --    1.27561   1.31663   1.33885   1.37164   1.37446
  Beta virt. eigenvalues --    1.39143   1.40862   1.41926   1.44584   1.46392
  Beta virt. eigenvalues --    1.48266   1.51305   1.55765   1.56040   1.61845
  Beta virt. eigenvalues --    1.63425   1.66179   1.68529   1.75172   1.79687
  Beta virt. eigenvalues --    1.89429   1.93967   1.99962   2.05641   2.12487
  Beta virt. eigenvalues --    2.19594   2.21486   2.29051   2.30900   2.34492
  Beta virt. eigenvalues --    2.37599   2.43158   2.43946   2.45092   2.49264
  Beta virt. eigenvalues --    2.50818   2.56185   2.57855   2.64124   2.66290
  Beta virt. eigenvalues --    2.70188   2.72855   2.74673   2.84519   2.85335
  Beta virt. eigenvalues --    2.85503   2.88424   2.91192   2.91800   2.92923
  Beta virt. eigenvalues --    2.97341   2.99976   3.01400   3.02488   3.04112
  Beta virt. eigenvalues --    3.06891   3.08941   3.10778   3.13092   3.13912
  Beta virt. eigenvalues --    3.15529   3.16388   3.17634   3.20043   3.21108
  Beta virt. eigenvalues --    3.22372   3.23489   3.28248   3.30153   3.38807
  Beta virt. eigenvalues --    3.40782   3.41340   3.42997   3.44236   3.45168
  Beta virt. eigenvalues --    3.46145   3.50910   3.52817   3.53695   3.56326
  Beta virt. eigenvalues --    3.58833   3.59930   3.60820   3.61156   3.63917
  Beta virt. eigenvalues --    3.64521   3.66397   3.68070   3.76753   3.82271
  Beta virt. eigenvalues --    3.83778   3.85833   3.87125   3.88697   3.90227
  Beta virt. eigenvalues --    3.92394   3.93733   3.95926   3.96407   3.98190
  Beta virt. eigenvalues --    4.01492   4.04241   4.07207   4.09791   4.09968
  Beta virt. eigenvalues --    4.12833   4.14879   4.16331   4.18676   4.19541
  Beta virt. eigenvalues --    4.20334   4.24065   4.25196   4.26487   4.29885
  Beta virt. eigenvalues --    4.34593   4.35198   4.38303   4.38891   4.39907
  Beta virt. eigenvalues --    4.44243   4.45283   4.49820   4.57593   4.61120
  Beta virt. eigenvalues --    4.64528   4.67471   4.72700   4.80507   4.81946
  Beta virt. eigenvalues --    4.87351   4.92375   4.94240   4.96660   4.97435
  Beta virt. eigenvalues --    4.99015   5.00471   5.02842   5.05054   5.06799
  Beta virt. eigenvalues --    5.13668   5.16186   5.25451   5.27656   5.30878
  Beta virt. eigenvalues --    5.32036   5.35495   5.36023   5.37302   5.37915
  Beta virt. eigenvalues --    5.39979   5.40453   5.41270   5.47195   5.50042
  Beta virt. eigenvalues --    5.50830   5.58725   5.61640   5.63034   5.68930
  Beta virt. eigenvalues --    5.78668   5.87052   5.93226   5.97467   6.01350
  Beta virt. eigenvalues --    6.02831   6.06049   6.09695   6.10313   6.26672
  Beta virt. eigenvalues --    6.34614   6.38948   6.42261   6.65424   6.76708
  Beta virt. eigenvalues --    6.78649   6.83900   6.98056   7.06706   7.08197
  Beta virt. eigenvalues --    7.20051   7.42585   7.44961   7.60006   7.74845
  Beta virt. eigenvalues --    9.89012  10.61407  12.59532  13.42620  13.69369
          Condensed to atoms (all electrons):
               1          2          3          4          5          6
     1  C    4.821487   0.400721   0.404795   0.409217   0.313513  -0.028769
     2  H    0.400721   0.601474  -0.031377  -0.034512  -0.037120  -0.003179
     3  H    0.404795  -0.031377   0.570093  -0.026086  -0.030721  -0.004966
     4  H    0.409217  -0.034512  -0.026086   0.577234  -0.034830   0.006101
     5  C    0.313513  -0.037120  -0.030721  -0.034830   5.134038   0.403970
     6  H   -0.028769  -0.003179  -0.004966   0.006101   0.403970   0.541939
     7  H   -0.038743  -0.003542   0.006415  -0.004323   0.401419  -0.030417
     8  C   -0.000516  -0.000052   0.000111  -0.000815  -0.002851   0.000082
     9  H    0.000290  -0.000051   0.000055  -0.002188   0.000092  -0.000179
    10  H   -0.000143  -0.000009  -0.000052   0.000159   0.000347   0.000003
    11  H    0.000171   0.000007  -0.000018   0.000333  -0.000483   0.000023
    12  O    0.001514   0.000269  -0.000775   0.007316   0.001761   0.000478
    13  O   -0.003377  -0.000160   0.002899  -0.000602  -0.075059   0.000241
    14  H   -0.008054   0.002806  -0.002514  -0.004507   0.214285  -0.009065
               7          8          9         10         11         12
     1  C   -0.038743  -0.000516   0.000290  -0.000143   0.000171   0.001514
     2  H   -0.003542  -0.000052  -0.000051  -0.000009   0.000007   0.000269
     3  H    0.006415   0.000111   0.000055  -0.000052  -0.000018  -0.000775
     4  H   -0.004323  -0.000815  -0.002188   0.000159   0.000333   0.007316
     5  C    0.401419  -0.002851   0.000092   0.000347  -0.000483   0.001761
     6  H   -0.030417   0.000082  -0.000179   0.000003   0.000023   0.000478
     7  H    0.562154   0.000189  -0.000481  -0.000075  -0.000040  -0.000126
     8  C    0.000189   4.602222   0.392139   0.395293   0.413638   0.302147
     9  H   -0.000481   0.392139   0.687436  -0.036078  -0.058470  -0.051002
    10  H   -0.000075   0.395293  -0.036078   0.593063  -0.027881  -0.026280
    11  H   -0.000040   0.413638  -0.058470  -0.027881   0.610325  -0.037308
    12  O   -0.000126   0.302147  -0.051002  -0.026280  -0.037308   7.947299
    13  O   -0.000206  -0.045004  -0.002689   0.006873   0.003947   0.072223
    14  H   -0.007140   0.001890   0.004266  -0.000620   0.000660  -0.027114
              13         14
     1  C   -0.003377  -0.008054
     2  H   -0.000160   0.002806
     3  H    0.002899  -0.002514
     4  H   -0.000602  -0.004507
     5  C   -0.075059   0.214285
     6  H    0.000241  -0.009065
     7  H   -0.000206  -0.007140
     8  C   -0.045004   0.001890
     9  H   -0.002689   0.004266
    10  H    0.006873  -0.000620
    11  H    0.003947   0.000660
    12  O    0.072223  -0.027114
    13  O    8.067918   0.199642
    14  H    0.199642   0.419858
          Atomic-Atomic Spin Densities.
               1          2          3          4          5          6
     1  C   -0.028792   0.009009   0.003330   0.004002  -0.027146   0.001022
     2  H    0.009009   0.061553  -0.005049  -0.004877  -0.015809  -0.001937
     3  H    0.003330  -0.005049   0.007375   0.001549  -0.004351   0.001016
     4  H    0.004002  -0.004877   0.001549   0.009318  -0.004203   0.000076
     5  C   -0.027146  -0.015809  -0.004351  -0.004203   0.706424   0.002985
     6  H    0.001022  -0.001937   0.001016   0.000076   0.002985  -0.022401
     7  H    0.002214  -0.002334   0.000247   0.000856   0.001394   0.003697
     8  C   -0.000346   0.000056  -0.000037  -0.000326   0.000924  -0.000038
     9  H    0.000716  -0.000151   0.000073   0.000662  -0.004809   0.000145
    10  H   -0.000031   0.000006  -0.000001  -0.000052   0.000129  -0.000002
    11  H   -0.000118   0.000011  -0.000013  -0.000080   0.001154  -0.000027
    12  O   -0.002609   0.000272  -0.000477  -0.001552   0.013027  -0.000290
    13  O    0.006943  -0.000741   0.001200   0.001184  -0.089334   0.002617
    14  H   -0.000264   0.000563  -0.000742   0.000333   0.062597   0.001946
               7          8          9         10         11         12
     1  C    0.002214  -0.000346   0.000716  -0.000031  -0.000118  -0.002609
     2  H   -0.002334   0.000056  -0.000151   0.000006   0.000011   0.000272
     3  H    0.000247  -0.000037   0.000073  -0.000001  -0.000013  -0.000477
     4  H    0.000856  -0.000326   0.000662  -0.000052  -0.000080  -0.001552
     5  C    0.001394   0.000924  -0.004809   0.000129   0.001154   0.013027
     6  H    0.003697  -0.000038   0.000145  -0.000002  -0.000027  -0.000290
     7  H   -0.022612  -0.000156   0.000976  -0.000008  -0.000136  -0.000722
     8  C   -0.000156  -0.005724   0.003663   0.000632  -0.002404   0.000947
     9  H    0.000976   0.003663   0.002242  -0.000839  -0.001241  -0.001110
    10  H   -0.000008   0.000632  -0.000839  -0.001726   0.001060   0.000097
    11  H   -0.000136  -0.002404  -0.001241   0.001060   0.003400  -0.000457
    12  O   -0.000722   0.000947  -0.001110   0.000097  -0.000457   0.050522
    13  O    0.003574  -0.002024   0.003882  -0.000219  -0.000383  -0.041367
    14  H    0.000992   0.001205  -0.003453   0.000080   0.001331   0.009707
              13         14
     1  C    0.006943  -0.000264
     2  H   -0.000741   0.000563
     3  H    0.001200  -0.000742
     4  H    0.001184   0.000333
     5  C   -0.089334   0.062597
     6  H    0.002617   0.001946
     7  H    0.003574   0.000992
     8  C   -0.002024   0.001205
     9  H    0.003882  -0.003453
    10  H   -0.000219   0.000080
    11  H   -0.000383   0.001331
    12  O   -0.041367   0.009707
    13  O    0.575536  -0.048816
    14  H   -0.048816  -0.101147
 Mulliken charges and spin densities:
               1          2
     1  C   -0.272106  -0.032070
     2  H    0.104726   0.040572
     3  H    0.112141   0.004119
     4  H    0.107504   0.006887
     5  C   -0.288362   0.642982
     6  H    0.123739  -0.011192
     7  H    0.114917  -0.012017
     8  C   -0.058474  -0.003628
     9  H    0.066860   0.000754
    10  H    0.095399  -0.000876
    11  H    0.095096   0.002097
    12  O   -0.190401   0.025987
    13  O   -0.226646   0.412052
    14  H    0.215608  -0.075667
 Sum of Mulliken charges =  -0.00000   1.00000
 Mulliken charges and spin densities with hydrogens summed into heavy atoms:
               1          2
     1  C    0.052266   0.019508
     5  C   -0.049707   0.619773
     8  C    0.198881  -0.001653
    12  O   -0.190401   0.025987
    13  O   -0.011039   0.336385
 APT charges:
               1
     1  C   -0.067271
     2  H    0.003826
     3  H    0.006110
     4  H    0.011312
     5  C    0.414555
     6  H   -0.049333
     7  H   -0.062631
     8  C    0.437940
     9  H   -0.042620
    10  H   -0.006621
    11  H   -0.029950
    12  O   -0.421367
    13  O    0.122450
    14  H   -0.316401
 Sum of APT charges =  -0.00000
 APT charges with hydrogens summed into heavy atoms:
               1
     1  C   -0.046022
     5  C    0.302591
     8  C    0.358749
    12  O   -0.421367
    13  O   -0.193950
 Electronic spatial extent (au):  <R**2>=            618.5888
 Charge=             -0.0000 electrons
 Dipole moment (field-independent basis, Debye):
    X=             -0.9920    Y=             -1.3707    Z=              1.7655  Tot=              2.4454
 Quadrupole moment (field-independent basis, Debye-Ang):
   XX=            -28.4840   YY=            -33.3299   ZZ=            -33.3460
   XY=             -2.6642   XZ=              1.7999   YZ=              0.1278
 Traceless Quadrupole moment (field-independent basis, Debye-Ang):
   XX=              3.2360   YY=             -1.6099   ZZ=             -1.6260
   XY=             -2.6642   XZ=              1.7999   YZ=              0.1278
 Octapole moment (field-independent basis, Debye-Ang**2):
  XXX=             11.8413  YYY=              0.9942  ZZZ=             -1.8854  XYY=              1.8398
  XXY=             -0.9492  XXZ=              1.5020  XZZ=              0.9333  YZZ=              0.7692
  YYZ=             -0.5093  XYZ=              0.1208
 Hexadecapole moment (field-independent basis, Debye-Ang**3):
 XXXX=           -545.1305 YYYY=           -149.2460 ZZZZ=            -96.7580 XXXY=             -3.3633
 XXXZ=              2.0166 YYYX=             -7.3181 YYYZ=              0.5015 ZZZX=             -1.3895
 ZZZY=             -1.9585 XXYY=           -112.7485 XXZZ=           -112.9351 YYZZ=            -43.4493
 XXYZ=             -0.5115 YYXZ=             -1.7906 ZZXY=              0.3380
 N-N= 1.894523980405D+02 E-N=-1.010843764324D+03  KE= 2.684000921142D+02
  Exact polarizability:  83.404  -1.242  50.288  -4.454   0.618  45.416
 Approx polarizability:  68.663  -1.089  57.194  -5.602   0.161  51.638
                          Isotropic Fermi Contact Couplings
        Atom                 a.u.       MegaHertz       Gauss      10(-4) cm-1
     1  C(13)             -0.01199     -13.47497      -4.80820      -4.49477
     2  H(1)               0.02208      98.71465      35.22384      32.92766
     3  H(1)               0.00270      12.08227       4.31126       4.03021
     4  H(1)               0.00516      23.06065       8.22861       7.69221
     5  C(13)              0.09736     109.44700      39.05341      36.50759
     6  H(1)              -0.00371     -16.56892      -5.91220      -5.52680
     7  H(1)              -0.00426     -19.05222      -6.79831      -6.35514
     8  C(13)             -0.00354      -3.97671      -1.41899      -1.32649
     9  H(1)               0.00222       9.91876       3.53926       3.30854
    10  H(1)              -0.00010      -0.44478      -0.15871      -0.14836
    11  H(1)               0.00054       2.42604       0.86567       0.80924
    12  O(17)              0.01495      -9.06342      -3.23405      -3.02323
    13  O(17)              0.04417     -26.77409      -9.55366      -8.93088
    14  H(1)              -0.02334    -104.33371     -37.22886     -34.80198
 --------------------------------------------------------
       Center         ----  Spin Dipole Couplings  ----
                      3XX-RR        3YY-RR        3ZZ-RR
 --------------------------------------------------------
     1   Atom        0.013514      0.000758     -0.014272
     2   Atom        0.003012      0.001136     -0.004148
     3   Atom       -0.002503     -0.004459      0.006962
     4   Atom       -0.005582      0.011988     -0.006406
     5   Atom        0.552433     -0.288704     -0.263730
     6   Atom        0.011799      0.026078     -0.037877
     7   Atom       -0.002429     -0.039675      0.042104
     8   Atom        0.001806     -0.000526     -0.001280
     9   Atom        0.000209     -0.000023     -0.000186
    10   Atom        0.001443      0.001629     -0.003072
    11   Atom        0.005071     -0.003261     -0.001810
    12   Atom        0.288990     -0.202252     -0.086738
    13   Atom        0.980999     -0.401390     -0.579609
    14   Atom        0.178174     -0.098675     -0.079499
 --------------------------------------------------------
                        XY            XZ            YZ
 --------------------------------------------------------
     1   Atom        0.020714      0.003586      0.008685
     2   Atom        0.008100     -0.000939      0.002858
     3   Atom        0.003299      0.005458      0.006615
     4   Atom       -0.000811     -0.001164      0.004830
     5   Atom        0.268957     -0.308917     -0.091512
     6   Atom       -0.025569     -0.005535     -0.019174
     7   Atom        0.006662      0.006383     -0.020136
     8   Atom       -0.007236      0.002797     -0.003662
     9   Atom       -0.004110      0.003244     -0.005793
    10   Atom       -0.004415      0.001020     -0.001559
    11   Atom       -0.003552      0.004796     -0.001770
    12   Atom        0.132247     -0.213650     -0.084755
    13   Atom        0.962534     -0.773544     -0.391838
    14   Atom        0.079237     -0.115515     -0.029919
 --------------------------------------------------------


 ---------------------------------------------------------------------------------
              Anisotropic Spin Dipole Couplings in Principal Axis System
 ---------------------------------------------------------------------------------

       Atom             a.u.   MegaHertz   Gauss  10(-4) cm-1        Axes

              Baa    -0.0200    -2.678    -0.955    -0.893  0.2956 -0.6055  0.7390
     1 C(13)  Bbb    -0.0103    -1.386    -0.494    -0.462 -0.5521  0.5230  0.6493
              Bcc     0.0303     4.063     1.450     1.355  0.7796  0.5999  0.1797
 
              Baa    -0.0081    -4.302    -1.535    -1.435 -0.5111  0.6312 -0.5834
     2 H(1)   Bbb    -0.0023    -1.210    -0.432    -0.403 -0.4467  0.3848  0.8077
              Bcc     0.0103     5.512     1.967     1.839  0.7343  0.6734  0.0853
 
              Baa    -0.0077    -4.092    -1.460    -1.365 -0.2428  0.9147 -0.3230
     3 H(1)   Bbb    -0.0050    -2.654    -0.947    -0.885  0.8898  0.0774 -0.4497
              Bcc     0.0126     6.747     2.407     2.250  0.3864  0.3966  0.8327
 
              Baa    -0.0080    -4.254    -1.518    -1.419  0.3719 -0.2040  0.9056
     4 H(1)   Bbb    -0.0053    -2.810    -1.003    -0.937  0.9265  0.1411 -0.3487
              Bcc     0.0132     7.064     2.521     2.356 -0.0567  0.9687  0.2415
 
              Baa    -0.3686   -49.462   -17.649   -16.499  0.0390  0.6932  0.7197
     5 C(13)  Bbb    -0.3664   -49.170   -17.545   -16.401 -0.4053  0.6693 -0.6227
              Bcc     0.7350    98.632    35.194    32.900  0.9134  0.2674 -0.3070
 
              Baa    -0.0461   -24.589    -8.774    -8.202  0.2315  0.3256  0.9167
     6 H(1)   Bbb    -0.0012    -0.624    -0.223    -0.208  0.7930  0.4827 -0.3717
              Bcc     0.0473    25.212     8.996     8.410 -0.5635  0.8130 -0.1465
 
              Baa    -0.0458   -24.449    -8.724    -8.155 -0.1808  0.9558  0.2320
     7 H(1)   Bbb    -0.0014    -0.758    -0.271    -0.253  0.9789  0.1978 -0.0520
              Bcc     0.0472    25.208     8.995     8.408  0.0956 -0.2177  0.9713
 
              Baa    -0.0069    -0.927    -0.331    -0.309  0.5797  0.7841  0.2219
     8 C(13)  Bbb    -0.0029    -0.389    -0.139    -0.130 -0.4332  0.0660  0.8989
              Bcc     0.0098     1.316     0.470     0.439  0.6901 -0.6172  0.3779
 
              Baa    -0.0060    -3.193    -1.139    -1.065  0.1468  0.7396  0.6569
     9 H(1)   Bbb    -0.0029    -1.522    -0.543    -0.508  0.8431  0.2538 -0.4742
              Bcc     0.0088     4.715     1.682     1.573 -0.5174  0.6234 -0.5863
 
              Baa    -0.0036    -1.922    -0.686    -0.641  0.1969  0.4288  0.8817
    10 H(1)   Bbb    -0.0027    -1.444    -0.515    -0.482  0.7051  0.5629 -0.4313
              Bcc     0.0063     3.366     1.201     1.123 -0.6813  0.7066 -0.1915
 
              Baa    -0.0046    -2.438    -0.870    -0.813  0.3425  0.9395  0.0074
    11 H(1)   Bbb    -0.0043    -2.276    -0.812    -0.759 -0.4090  0.1420  0.9014
              Bcc     0.0088     4.714     1.682     1.572  0.8458 -0.3118  0.4329
 
              Baa    -0.2483    17.967     6.411     5.993 -0.0728  0.9196  0.3861
    12 O(17)  Bbb    -0.1759    12.730     4.542     4.246  0.4684 -0.3102  0.8272
              Bcc     0.4242   -30.697   -10.954   -10.240  0.8805  0.2411 -0.4081
 
              Baa    -0.9002    65.136    23.242    21.727  0.5272 -0.4523  0.7194
    13 O(17)  Bbb    -0.8917    64.521    23.023    21.522 -0.1527  0.7824  0.6038
              Bcc     1.7919  -129.658   -46.265   -43.249  0.8359  0.4282 -0.3434
 
              Baa    -0.1237   -66.019   -23.557   -22.022  0.3757 -0.0863  0.9227
    14 H(1)   Bbb    -0.1196   -63.821   -22.773   -21.289 -0.1919  0.9668  0.1686
              Bcc     0.2434   129.840    46.330    43.310  0.9067  0.2404 -0.3467
 

 ---------------------------------------------------------------------------------

 Calling FoFJK, ICntrl=  10100127 FMM=F ISym2X=0 I1Cent= 0 IOpClX= 1 NMat=1 NMatS=1 NMatT=0.
 -------------------------------------------------------------------
 Center     Atomic                   Forces (Hartrees/Bohr)
 Number     Number              X              Y              Z
 -------------------------------------------------------------------
      1        6           0.000000353   -0.000000737    0.000000634
      2        1          -0.000000242   -0.000000422    0.000000166
      3        1           0.000000019    0.000000018    0.000000598
      4        1          -0.000001900    0.000000789   -0.000001437
      5        6           0.000001658   -0.000001868   -0.000001345
      6        1          -0.000000829   -0.000000371   -0.000001479
      7        1          -0.000001238    0.000000400    0.000000978
      8        6           0.000000927    0.000000254    0.000000377
      9        1           0.000001128    0.000000640   -0.000000282
     10        1           0.000000133    0.000000752   -0.000000148
     11        1           0.000000115    0.000000775    0.000000047
     12        8           0.000001047   -0.000002838   -0.000002641
     13        8          -0.000000259    0.000003001    0.000002790
     14        1          -0.000000913   -0.000000392    0.000001743
 -------------------------------------------------------------------
 Cartesian Forces:  Max     0.000003001 RMS     0.000001222
 FormGI is forming the generalized inverse of G from B-inverse, IUseBI=4.

 GradGradGradGradGradGradGradGradGradGradGradGradGradGradGradGradGradGrad
 Berny optimization.
 Internal  Forces:  Max     0.000008731 RMS     0.000002426
 Search for a saddle point.
 Step number   1 out of a maximum of  100 on scan point     1 out of    37
 All quantities printed in internal units (Hartrees-Bohrs-Radians)
 Swapping is turned off.
 Second derivative matrix not updated -- analytic derivatives used.
 ITU=  0
     Eigenvalues ---   -0.07294   0.00109   0.00620   0.01604   0.02481
     Eigenvalues ---    0.03031   0.03202   0.04170   0.04383   0.04425
     Eigenvalues ---    0.08286   0.08500   0.08554   0.11033   0.11372
     Eigenvalues ---    0.12131   0.13075   0.14568   0.16477   0.16965
     Eigenvalues ---    0.16978   0.18075   0.18573   0.25877   0.31366
     Eigenvalues ---    0.31941   0.33033   0.33494   0.34129   0.34440
     Eigenvalues ---    0.34944   0.34964   0.35298   0.35527   0.40416
     Eigenvalues --- 1000.000001000.000001000.000001000.000001000.00000
     Eigenvalues --- 1000.000001000.000001000.000001000.000001000.00000
     Eigenvalues --- 1000.000001000.000001000.000001000.00000
 Eigenvectors required to have negative eigenvalues:
                          R7        R13       R12       D4        D8
   1                    0.69249  -0.66355   0.14996  -0.07971   0.07692
                          A20       D1        D2        D7        D5
   1                   -0.07568  -0.07123   0.07053  -0.06485   0.06206
 RFO step:  Lambda0=5.079790755D-12 Lambda= 0.00000000D+00.
 Linear search not attempted -- option 19 set.
 Iteration  1 RMS(Cart)=  0.00034698 RMS(Int)=  0.00000003
 Iteration  2 RMS(Cart)=  0.00000004 RMS(Int)=  0.00000000
 Iteration  1 RMS(Cart)=  0.00000000 RMS(Int)=  0.00000000
 Variable       Old X    -DE/DX   Delta X   Delta X   Delta X     New X
                                 (Linear)    (Quad)   (Total)
    R1        2.06821   0.00000   0.00000   0.00000   0.00000   2.06821
    R2        2.05608  -0.00000   0.00000  -0.00000  -0.00000   2.05607
    R3        2.05748  -0.00000   0.00000  -0.00001  -0.00001   2.05748
    R4        2.83348  -0.00000   0.00000  -0.00000  -0.00000   2.83348
    R5        2.05130   0.00000   0.00000   0.00000   0.00000   2.05131
    R6        2.05116   0.00000   0.00000   0.00000   0.00000   2.05116
    R7        2.57456   0.00000   0.00000  -0.00001  -0.00001   2.57455
    R8        2.06265  -0.00000   0.00000  -0.00000  -0.00000   2.06265
    R9        2.05624  -0.00000   0.00000  -0.00000  -0.00000   2.05624
   R10        2.05705   0.00000   0.00000   0.00000   0.00000   2.05705
   R11        2.68373   0.00000   0.00000   0.00000   0.00000   2.68373
   R12        2.66268   0.00000   0.00000   0.00002   0.00002   2.66270
   R13        2.20047   0.00000   0.00000   0.00000   0.00000   2.20048
    A1        1.88001   0.00000   0.00000  -0.00000  -0.00000   1.88001
    A2        1.87607  -0.00000   0.00000  -0.00000  -0.00000   1.87607
    A3        1.93228  -0.00000   0.00000  -0.00001  -0.00001   1.93227
    A4        1.88372  -0.00000   0.00000   0.00000   0.00000   1.88372
    A5        1.94326  -0.00000   0.00000  -0.00001  -0.00001   1.94325
    A6        1.94565   0.00000   0.00000   0.00002   0.00002   1.94567
    A7        2.03163  -0.00000   0.00000  -0.00003  -0.00003   2.03159
    A8        2.03075   0.00000   0.00000   0.00001   0.00001   2.03076
    A9        1.82429   0.00001   0.00000   0.00005   0.00005   1.82434
   A10        1.96873   0.00000   0.00000  -0.00000  -0.00000   1.96873
   A11        1.76167  -0.00000   0.00000  -0.00004  -0.00004   1.76163
   A12        1.79879  -0.00000   0.00000   0.00002   0.00002   1.79881
   A13        1.91797   0.00000   0.00000   0.00001   0.00001   1.91798
   A14        1.91602  -0.00000   0.00000  -0.00000  -0.00000   1.91601
   A15        1.93491   0.00000   0.00000   0.00001   0.00001   1.93492
   A16        1.92506   0.00000   0.00000  -0.00000  -0.00000   1.92505
   A17        1.83764  -0.00000   0.00000  -0.00000  -0.00000   1.83764
   A18        1.93109  -0.00000   0.00000  -0.00000  -0.00000   1.93109
   A19        1.88000  -0.00000   0.00000  -0.00001  -0.00001   1.87998
   A20        1.81758   0.00001   0.00000   0.00001   0.00001   1.81760
   A21        3.12311   0.00001   0.00000   0.00019   0.00019   3.12330
   A22        3.05244   0.00000   0.00000   0.00002   0.00002   3.05246
    D1       -1.25143   0.00000   0.00000  -0.00003  -0.00003  -1.25146
    D2        1.13590  -0.00000   0.00000  -0.00005  -0.00005   1.13585
    D3        3.10613   0.00000   0.00000   0.00001   0.00001   3.10614
    D4        0.83952  -0.00000   0.00000  -0.00004  -0.00004   0.83948
    D5       -3.05634  -0.00000   0.00000  -0.00006  -0.00006  -3.05641
    D6       -1.08611   0.00000   0.00000  -0.00000  -0.00000  -1.08611
    D7        2.94420   0.00000   0.00000  -0.00003  -0.00003   2.94417
    D8       -0.95165  -0.00000   0.00000  -0.00005  -0.00005  -0.95171
    D9        1.01858   0.00000   0.00000   0.00001   0.00001   1.01859
   D10       -0.59248   0.00000   0.00000   0.00000   0.00000  -0.59248
   D11        1.14295  -0.00000   0.00000  -0.00009  -0.00009   1.14287
   D12       -3.06689   0.00000   0.00000  -0.00008  -0.00008  -3.06697
   D13       -0.98712  -0.00000   0.00000  -0.00009  -0.00009  -0.98720
   D14       -1.59536  -0.00001   0.00000  -0.00032  -0.00032  -1.59568
         Item               Value     Threshold  Converged?
 Maximum Force            0.000009     0.000450     YES
 RMS     Force            0.000002     0.000300     YES
 Maximum Displacement     0.001097     0.001800     YES
 RMS     Displacement     0.000347     0.001200     YES
 Predicted change in Energy=-2.468737D-09
 Optimization completed.
    -- Stationary point found.
                           ----------------------------
                           !   Optimized Parameters   !
                           ! (Angstroms and Degrees)  !
 --------------------------                            --------------------------
 ! Name  Definition              Value          Derivative Info.                !
 --------------------------------------------------------------------------------
 ! R1    R(1,2)                  1.0944         -DE/DX =    0.0                 !
 ! R2    R(1,3)                  1.088          -DE/DX =    0.0                 !
 ! R3    R(1,4)                  1.0888         -DE/DX =    0.0                 !
 ! R4    R(1,5)                  1.4994         -DE/DX =    0.0                 !
 ! R5    R(5,6)                  1.0855         -DE/DX =    0.0                 !
 ! R6    R(5,7)                  1.0854         -DE/DX =    0.0                 !
 ! R7    R(5,14)                 1.3624         -DE/DX =    0.0                 !
 ! R8    R(8,9)                  1.0915         -DE/DX =    0.0                 !
 ! R9    R(8,10)                 1.0881         -DE/DX =    0.0                 !
 ! R10   R(8,11)                 1.0885         -DE/DX =    0.0                 !
 ! R11   R(8,12)                 1.4202         -DE/DX =    0.0                 !
 ! R12   R(12,13)                1.409          -DE/DX =    0.0                 !
 ! R13   R(13,14)                1.1644         -DE/DX =    0.0                 !
 ! A1    A(2,1,3)              107.7167         -DE/DX =    0.0                 !
 ! A2    A(2,1,4)              107.4908         -DE/DX =    0.0                 !
 ! A3    A(2,1,5)              110.7118         -DE/DX =    0.0                 !
 ! A4    A(3,1,4)              107.9293         -DE/DX =    0.0                 !
 ! A5    A(3,1,5)              111.3404         -DE/DX =    0.0                 !
 ! A6    A(4,1,5)              111.4774         -DE/DX =    0.0                 !
 ! A7    A(1,5,6)              116.4036         -DE/DX =    0.0                 !
 ! A8    A(1,5,7)              116.3532         -DE/DX =    0.0                 !
 ! A9    A(1,5,14)             104.5242         -DE/DX =    0.0                 !
 ! A10   A(6,5,7)              112.8            -DE/DX =    0.0                 !
 ! A11   A(6,5,14)             100.9362         -DE/DX =    0.0                 !
 ! A12   A(7,5,14)             103.063          -DE/DX =    0.0                 !
 ! A13   A(9,8,10)             109.8916         -DE/DX =    0.0                 !
 ! A14   A(9,8,11)             109.7796         -DE/DX =    0.0                 !
 ! A15   A(9,8,12)             110.8623         -DE/DX =    0.0                 !
 ! A16   A(10,8,11)            110.2977         -DE/DX =    0.0                 !
 ! A17   A(10,8,12)            105.2891         -DE/DX =    0.0                 !
 ! A18   A(11,8,12)            110.6432         -DE/DX =    0.0                 !
 ! A19   A(8,12,13)            107.7159         -DE/DX =    0.0                 !
 ! A20   A(12,13,14)           104.1399         -DE/DX =    0.0                 !
 ! A21   L(5,14,13,9,-1)       178.9408         -DE/DX =    0.0                 !
 ! A22   L(5,14,13,9,-2)       174.8919         -DE/DX =    0.0                 !
 ! D1    D(2,1,5,6)            -71.7016         -DE/DX =    0.0                 !
 ! D2    D(2,1,5,7)             65.0822         -DE/DX =    0.0                 !
 ! D3    D(2,1,5,14)           177.9684         -DE/DX =    0.0                 !
 ! D4    D(3,1,5,6)             48.1007         -DE/DX =    0.0                 !
 ! D5    D(3,1,5,7)           -175.1155         -DE/DX =    0.0                 !
 ! D6    D(3,1,5,14)           -62.2293         -DE/DX =    0.0                 !
 ! D7    D(4,1,5,6)            168.6905         -DE/DX =    0.0                 !
 ! D8    D(4,1,5,7)            -54.5258         -DE/DX =    0.0                 !
 ! D9    D(4,1,5,14)            58.3605         -DE/DX =    0.0                 !
 ! D10   D(1,5,13,12)          -33.9468         -DE/DX =    0.0                 !
 ! D11   D(9,8,12,13)           65.4864         -DE/DX =    0.0                 !
 ! D12   D(10,8,12,13)        -175.72           -DE/DX =    0.0                 !
 ! D13   D(11,8,12,13)         -56.5576         -DE/DX =    0.0                 !
 ! D14   D(8,12,13,14)         -91.4074         -DE/DX =    0.0                 !
 --------------------------------------------------------------------------------
 Iteration  1 RMS(Cart)=  0.11496040 RMS(Int)=  0.00425156
 Iteration  2 RMS(Cart)=  0.00696054 RMS(Int)=  0.00001561
 Iteration  3 RMS(Cart)=  0.00003080 RMS(Int)=  0.00000000
 Iteration  4 RMS(Cart)=  0.00000000 RMS(Int)=  0.00000000
 Iteration  1 RMS(Cart)=  0.00000000 RMS(Int)=  0.00000000
 GradGradGradGradGradGradGradGradGradGradGradGradGradGradGradGradGradGrad

                          Input orientation:                          
 ---------------------------------------------------------------------
 Center     Atomic      Atomic             Coordinates (Angstroms)
 Number     Number       Type             X           Y           Z
 ---------------------------------------------------------------------
      1          6           0       -1.911246   -0.747353   -0.261188
      2          1           0       -2.881566   -1.193229   -0.021408
      3          1           0       -1.904170   -0.522506   -1.325706
      4          1           0       -1.149010   -1.501642   -0.072868
      5          6           0       -1.677357    0.486137    0.558592
      6          1           0       -2.271073    1.357316    0.300003
      7          1           0       -1.586474    0.342171    1.630582
      8          6           0        1.868335   -0.628115    0.430793
      9          1           0        1.181928   -0.907445    1.232169
     10          1           0        2.329757   -1.519658    0.010991
     11          1           0        2.631076    0.045562    0.817201
     12          8           0        1.168076   -0.025586   -0.647854
     13          8           0        0.630202    1.191153   -0.183498
     14          1           0       -0.432391    0.905439    0.197541
 ---------------------------------------------------------------------
                    Distance matrix (angstroms):
                    1          2          3          4          5
     1  C    0.000000
     2  H    1.094450   0.000000
     3  H    1.088028   1.762488   0.000000
     4  H    1.088770   1.760544   1.760277   0.000000
     5  C    1.499413   2.146343   2.149275   2.151547   0.000000
     6  H    2.207723   2.642212   2.512226   3.093816   1.085505
     7  H    2.207110   2.600729   3.096488   2.548090   1.085426
     8  C    3.844254   4.804727   4.162720   3.181367   3.718847
     9  H    3.438527   4.262055   4.026773   2.736688   3.251351
    10  H    4.319334   5.221638   4.550518   3.479825   4.514426
    11  H    4.735433   5.712013   5.048090   4.180325   4.338615
    12  O    3.186327   4.260918   3.185139   2.806820   3.132708
    13  O    3.197311   4.247831   3.265625   3.229393   2.524396
    14  H    2.264766   3.232770   2.554494   2.526005   1.362392
                    6          7          8          9         10
     6  H    0.000000
     7  H    1.808213   0.000000
     8  C    4.592792   3.783736   0.000000
     9  H    4.233354   3.063384   1.091506   0.000000
    10  H    5.433981   4.628861   1.088115   1.784263   0.000000
    11  H    5.100908   4.305496   1.088543   1.783382   1.786248
    12  O    3.826042   3.593614   1.420170   2.076621   2.003954
    13  O    2.945977   2.987526   2.284746   2.590874   3.205435
    14  H    1.896165   1.924263   2.774804   2.638756   3.680403
                   11         12         13         14
    11  H    0.000000
    12  O    2.071671   0.000000
    13  O    2.513420   1.409039   0.000000
    14  H    3.241636   2.035435   1.164443   0.000000
 Symmetry turned off by external request.
 Stoichiometry    C3H9O2(2)
 Framework group  C1[X(C3H9O2)]
 Deg. of freedom    36
 Full point group                 C1      NOp   1
 Rotational constants (GHZ):           7.5318124           2.4845618           2.2025971
 Standard basis: CC-pVTZ (5D, 7F)
   276 basis functions,   413 primitive gaussians,   310 cartesian basis functions
    22 alpha electrons       21 beta electrons
       nuclear repulsion energy       190.0067901975 Hartrees.
 NAtoms=   14 NActive=   14 NUniq=   14 SFac= 1.00D+00 NAtFMM=   60 NAOKFM=F Big=F
 Integral buffers will be    131072 words long.
 Raffenetti 2 integral format.
 Two-electron integral symmetry is turned off.
 Nuclear repulsion after empirical dispersion term =      190.0009070922 Hartrees.
 One-electron integrals computed using PRISM.
 NBasis=   276 RedAO= T EigKep=  1.01D-03  NBF=   276
 NBsUse=   276 1.00D-06 EigRej= -1.00D+00 NBFU=   276
 Initial guess from the checkpoint file:  "/localscratch/347858/Gau-88598.chk"
 B after Tr=    -0.000760    0.043708    0.021397
         Rot=    0.999889   -0.014578   -0.001422   -0.002557 Ang=  -1.70 deg.
 Initial guess <Sx>= 0.0000 <Sy>= 0.0000 <Sz>= 0.5000 <S**2>= 0.7683 S= 0.5091
 ExpMin= 1.03D-01 ExpMax= 1.53D+04 ExpMxC= 5.22D+02 IAcc=3 IRadAn=         5 AccDes= 0.00D+00
 Harris functional with IExCor=  419 and IRadAn=       5 diagonalized for initial guess.
 HarFok:  IExCor=  419 AccDes= 0.00D+00 IRadAn=         5 IDoV= 1 UseB2=F ITyADJ=14
 ICtDFT=  3500011 ScaDFX=  1.000000  1.000000  1.000000  1.000000
 FoFCou: FMM=F IPFlag=           0 FMFlag=      100000 FMFlg1=           0
         NFxFlg=           0 DoJE=T BraDBF=F KetDBF=T FulRan=T
         wScrn=  0.000000 ICntrl=       500 IOpCl=  0 I1Cent=   200000004 NGrid=           0
         NMat0=    1 NMatS0=      1 NMatT0=    0 NMatD0=    1 NMtDS0=    0 NMtDT0=    0
 Symmetry not used in FoFCou.
 Requested convergence on RMS density matrix=1.00D-08 within 500 cycles.
 Requested convergence on MAX density matrix=1.00D-06.
 Requested convergence on             energy=1.00D-06.
 No special actions if energy rises.
 Integral accuracy reduced to 1.0D-05 until final iterations.
 Initial convergence to 1.0D-05 achieved.  Increase integral accuracy.
 SCF Done:  E(UB2PLYPD3) =  -269.557746130     A.U. after   15 cycles
            NFock= 15  Conv=0.90D-08     -V/T= 2.0043
 <Sx>= 0.0000 <Sy>= 0.0000 <Sz>= 0.5000 <S**2>= 0.7683 S= 0.5091
 <L.S>=  0.00000000000    
 Annihilation of the first spin contaminant:
 S**2 before annihilation     0.7683,   after     0.7501
 DoSCS=T DFT=T ScalE2(SS,OS)=  0.270000  0.270000
 ExpMin= 1.03D-01 ExpMax= 1.53D+04 ExpMxC= 5.22D+02 IAcc=3 IRadAn=         5 AccDes= 0.00D+00
 HarFok:  IExCor=  205 AccDes= 0.00D+00 IRadAn=         5 IDoV=-2 UseB2=F ITyADJ=14
 ICtDFT= 12500011 ScaDFX=  1.000000  1.000000  1.000000  1.000000
 Range of M.O.s used for correlation:     6   276
 NBasis=   276 NAE=    22 NBE=    21 NFC=     5 NFV=     0
 NROrb=    271 NOA=    17 NOB=    16 NVA=   254 NVB=   255

 **** Warning!!: The largest alpha MO coefficient is  0.11764301D+02


 **** Warning!!: The largest beta MO coefficient is  0.11764869D+02

 DoSCS=T DFT=T ScalE2(SS,OS)=  0.270000  0.270000
 Fully direct method using O(ONN) memory.
 JobTyp=2 Pass  1:  I=   6 to  21 NPSUse= 40 ParTrn=T ParDer=T DoDerP=T.
 JobTyp=2 Pass  2:  I=  22 to  22 NPSUse= 40 ParTrn=T ParDer=T DoDerP=T.
 JobTyp=3 Pass  1:  I=   6 to  21 NPSUse= 40 ParTrn=T ParDer=T DoDerP=T.
 Spin components of T(2) and E(2):
     alpha-alpha T2 =       0.5412864555D-01 E2=     -0.4069727147D-01
     alpha-beta  T2 =       0.3356357413D+00 E2=     -0.2556433571D+00
     beta-beta   T2 =       0.5847905430D-01 E2=     -0.3918608138D-01
 (S**2,0)=  0.76828D+00           (S**2,1)=  0.74276D+00
 Scaling Projection term by:   0.270000
 E(PUHF)=      -0.26956390542D+03        E(PMP2)=      -0.26989378045D+03
 E2(B2PLYPD3) =    -0.3355267099D+00 E(B2PLYPD3) =    -0.26989327283971D+03
          IDoAtm=11111111111111
          Differentiating once with respect to electric field.
                with respect to dipole field.
          Differentiating once with respect to nuclear coordinates.
 Keep R1 and R2 ints in memory in canonical form, NReq=1506971530.
          There are     1 degrees of freedom in the 1st order CPHF.  IDoFFX=0 NUNeed=     1.
 LinEq1:  Iter=  0 NonCon=     1 RMS=1.02D-03 Max=6.70D-02 NDo=     1
 AX will form     1 AO Fock derivatives at one time.
 LinEq1:  Iter=  1 NonCon=     1 RMS=3.26D-04 Max=8.70D-03 NDo=     1
 LinEq1:  Iter=  2 NonCon=     1 RMS=1.78D-04 Max=7.82D-03 NDo=     1
 LinEq1:  Iter=  3 NonCon=     1 RMS=7.43D-05 Max=1.06D-03 NDo=     1
 LinEq1:  Iter=  4 NonCon=     1 RMS=4.09D-05 Max=6.35D-04 NDo=     1
 LinEq1:  Iter=  5 NonCon=     1 RMS=3.08D-05 Max=8.60D-04 NDo=     1
 LinEq1:  Iter=  6 NonCon=     1 RMS=1.83D-05 Max=4.90D-04 NDo=     1
 LinEq1:  Iter=  7 NonCon=     1 RMS=5.85D-06 Max=9.14D-05 NDo=     1
 LinEq1:  Iter=  8 NonCon=     1 RMS=2.38D-06 Max=3.29D-05 NDo=     1
 LinEq1:  Iter=  9 NonCon=     1 RMS=1.12D-06 Max=2.29D-05 NDo=     1
 LinEq1:  Iter= 10 NonCon=     1 RMS=3.64D-07 Max=6.56D-06 NDo=     1
 LinEq1:  Iter= 11 NonCon=     1 RMS=1.07D-07 Max=2.24D-06 NDo=     1
 LinEq1:  Iter= 12 NonCon=     1 RMS=4.19D-08 Max=8.59D-07 NDo=     1
 LinEq1:  Iter= 13 NonCon=     1 RMS=1.77D-08 Max=2.88D-07 NDo=     1
 LinEq1:  Iter= 14 NonCon=     1 RMS=6.05D-09 Max=1.31D-07 NDo=     1
 LinEq1:  Iter= 15 NonCon=     1 RMS=1.62D-09 Max=5.39D-08 NDo=     1
 LinEq1:  Iter= 16 NonCon=     1 RMS=4.86D-10 Max=2.46D-08 NDo=     1
 LinEq1:  Iter= 17 NonCon=     1 RMS=1.52D-10 Max=7.41D-09 NDo=     1
 LinEq1:  Iter= 18 NonCon=     1 RMS=5.26D-11 Max=1.78D-09 NDo=     1
 LinEq1:  Iter= 19 NonCon=     0 RMS=1.44D-11 Max=2.64D-10 NDo=     1
 Linear equations converged to 1.000D-10 1.000D-09 after    19 iterations.
 End of Minotr F.D. properties file   721 does not exist.
 End of Minotr F.D. properties file   722 does not exist.
 End of Minotr F.D. properties file   788 does not exist.
 Calling FoFJK, ICntrl=  10002127 FMM=F ISym2X=0 I1Cent= 0 IOpClX= 1 NMat=1 NMatS=1 NMatT=0.
 -------------------------------------------------------------------
 Center     Atomic                   Forces (Hartrees/Bohr)
 Number     Number              X              Y              Z
 -------------------------------------------------------------------
      1        6          -0.000025425    0.000266375   -0.000123560
      2        1          -0.000003011   -0.000011084    0.000023500
      3        1           0.000086534   -0.000111943    0.000029357
      4        1          -0.000282848   -0.000197073   -0.000057284
      5        6           0.000069246   -0.000065545    0.000276098
      6        1          -0.000004204   -0.000131487   -0.000051706
      7        1           0.000068632   -0.000032488   -0.000000141
      8        6           0.000084413    0.000076474   -0.000066185
      9        1          -0.000016696    0.000010498    0.000060210
     10        1           0.000002443   -0.000010492    0.000004640
     11        1          -0.000019967   -0.000008900    0.000011421
     12        8           0.000064099    0.000093551    0.000061497
     13        8           0.000258056   -0.000110378   -0.000043330
     14        1          -0.000281273    0.000232489   -0.000124517
 -------------------------------------------------------------------
 Cartesian Forces:  Max     0.000282848 RMS     0.000120486

 GradGradGradGradGradGradGradGradGradGradGradGradGradGradGradGradGradGrad
 Berny optimization.
 FormGI is forming the generalized inverse of G from B-inverse, IUseBI=4.
 Internal  Forces:  Max     0.000627320 RMS     0.000187908
 Search for a saddle point.
 Step number   1 out of a maximum of  100 on scan point     2 out of    37
 All quantities printed in internal units (Hartrees-Bohrs-Radians)
 Swapping is turned off.
 Second derivative matrix not updated -- first step.
 ITU=  0
     Eigenvalues ---   -0.07294   0.00109   0.00620   0.01604   0.02481
     Eigenvalues ---    0.03031   0.03202   0.04170   0.04383   0.04425
     Eigenvalues ---    0.08286   0.08500   0.08554   0.11033   0.11372
     Eigenvalues ---    0.12131   0.13075   0.14568   0.16477   0.16965
     Eigenvalues ---    0.16978   0.18075   0.18573   0.25877   0.31366
     Eigenvalues ---    0.31941   0.33033   0.33494   0.34129   0.34440
     Eigenvalues ---    0.34944   0.34964   0.35298   0.35527   0.40416
     Eigenvalues --- 1000.000001000.000001000.000001000.000001000.00000
     Eigenvalues --- 1000.000001000.000001000.000001000.000001000.00000
     Eigenvalues --- 1000.000001000.000001000.000001000.00000
 Eigenvectors required to have negative eigenvalues:
                          R7        R13       R12       D4        D8
   1                    0.69249  -0.66355   0.14996  -0.07971   0.07692
                          A20       D1        D2        D7        D5
   1                   -0.07568  -0.07123   0.07053  -0.06485   0.06206
 RFO step:  Lambda0=3.348586427D-07 Lambda=-4.35286800D-05.
 Linear search not attempted -- option 19 set.
 Iteration  1 RMS(Cart)=  0.02977443 RMS(Int)=  0.00068488
 Iteration  2 RMS(Cart)=  0.00071140 RMS(Int)=  0.00000354
 Iteration  3 RMS(Cart)=  0.00000030 RMS(Int)=  0.00000353
 Iteration  1 RMS(Cart)=  0.00000000 RMS(Int)=  0.00000000
 Variable       Old X    -DE/DX   Delta X   Delta X   Delta X     New X
                                 (Linear)    (Quad)   (Total)
    R1        2.06821   0.00001   0.00000   0.00036   0.00036   2.06857
    R2        2.05607  -0.00005   0.00000   0.00015   0.00015   2.05622
    R3        2.05748  -0.00007   0.00000  -0.00060  -0.00060   2.05687
    R4        2.83348   0.00015   0.00000  -0.00004  -0.00004   2.83344
    R5        2.05131  -0.00009   0.00000  -0.00003  -0.00003   2.05128
    R6        2.05116   0.00001   0.00000  -0.00014  -0.00014   2.05102
    R7        2.57455   0.00020   0.00000   0.00179   0.00179   2.57634
    R8        2.06265   0.00005   0.00000   0.00014   0.00014   2.06279
    R9        2.05624   0.00001   0.00000   0.00003   0.00003   2.05627
   R10        2.05705  -0.00002   0.00000   0.00003   0.00003   2.05707
   R11        2.68373   0.00000   0.00000  -0.00022  -0.00022   2.68351
   R12        2.66270  -0.00012   0.00000  -0.00006  -0.00006   2.66264
   R13        2.20048   0.00034   0.00000  -0.00077  -0.00077   2.19971
    A1        1.88001   0.00000   0.00000  -0.00150  -0.00151   1.87850
    A2        1.87607  -0.00020   0.00000  -0.00157  -0.00156   1.87450
    A3        1.93227  -0.00012   0.00000  -0.00225  -0.00225   1.93002
    A4        1.88372  -0.00018   0.00000   0.00044   0.00043   1.88415
    A5        1.94325   0.00009   0.00000   0.00067   0.00066   1.94391
    A6        1.94567   0.00038   0.00000   0.00403   0.00403   1.94969
    A7        2.03159  -0.00023   0.00000  -0.00356  -0.00356   2.02803
    A8        2.03076  -0.00004   0.00000   0.00086   0.00085   2.03161
    A9        1.82434   0.00063   0.00000   0.00662   0.00662   1.83096
   A10        1.96873   0.00012   0.00000   0.00060   0.00060   1.96933
   A11        1.76163  -0.00025   0.00000  -0.00497  -0.00497   1.75666
   A12        1.79881  -0.00020   0.00000   0.00097   0.00095   1.79976
   A13        1.91798   0.00000   0.00000   0.00004   0.00004   1.91802
   A14        1.91601  -0.00004   0.00000  -0.00037  -0.00037   1.91564
   A15        1.93492   0.00001   0.00000   0.00008   0.00008   1.93499
   A16        1.92505   0.00000   0.00000  -0.00004  -0.00004   1.92501
   A17        1.83764   0.00002   0.00000   0.00012   0.00012   1.83776
   A18        1.93109  -0.00000   0.00000   0.00019   0.00019   1.93128
   A19        1.87998  -0.00014   0.00000  -0.00063  -0.00063   1.87935
   A20        1.81760   0.00045   0.00000   0.00068   0.00068   1.81828
   A21        3.12330   0.00014   0.00000   0.00223   0.00223   3.12553
   A22        3.05246   0.00043   0.00000   0.00894   0.00894   3.06140
    D1       -1.25146   0.00008   0.00000   0.05146   0.05146  -1.20000
    D2        1.13585  -0.00005   0.00000   0.04908   0.04908   1.18492
    D3        3.10614   0.00009   0.00000   0.05496   0.05497  -3.12207
    D4        0.83948   0.00006   0.00000   0.04850   0.04850   0.88797
    D5       -3.05641  -0.00007   0.00000   0.04612   0.04612  -3.01029
    D6       -1.08611   0.00007   0.00000   0.05201   0.05201  -1.03410
    D7        2.94417   0.00016   0.00000   0.05229   0.05229   2.99646
    D8       -0.95171   0.00002   0.00000   0.04991   0.04990  -0.90180
    D9        1.01859   0.00017   0.00000   0.05579   0.05580   1.07439
   D10       -0.41795  -0.00040   0.00000   0.00000   0.00000  -0.41795
   D11        1.14287  -0.00003   0.00000  -0.00259  -0.00259   1.14027
   D12       -3.06697  -0.00001   0.00000  -0.00244  -0.00244  -3.06940
   D13       -0.98720   0.00000   0.00000  -0.00231  -0.00231  -0.98951
   D14       -1.59568  -0.00021   0.00000  -0.00849  -0.00849  -1.60416
         Item               Value     Threshold  Converged?
 Maximum Force            0.000627     0.000450     NO 
 RMS     Force            0.000181     0.000300     YES
 Maximum Displacement     0.099869     0.001800     NO 
 RMS     Displacement     0.029769     0.001200     NO 
 Predicted change in Energy=-2.211643D-05
 GradGradGradGradGradGradGradGradGradGradGradGradGradGradGradGradGradGrad

                          Input orientation:                          
 ---------------------------------------------------------------------
 Center     Atomic      Atomic             Coordinates (Angstroms)
 Number     Number       Type             X           Y           Z
 ---------------------------------------------------------------------
      1          6           0       -1.925105   -0.751055   -0.259120
      2          1           0       -2.920496   -1.157378   -0.053350
      3          1           0       -1.870743   -0.535834   -1.324343
      4          1           0       -1.201858   -1.533726   -0.037615
      5          6           0       -1.678545    0.480047    0.560493
      6          1           0       -2.267182    1.354366    0.300956
      7          1           0       -1.588283    0.336110    1.632464
      8          6           0        1.882995   -0.621076    0.426481
      9          1           0        1.201311   -0.906468    1.229852
     10          1           0        2.347815   -1.508844    0.002410
     11          1           0        2.643440    0.055644    0.812136
     12          8           0        1.175261   -0.019397   -0.647597
     13          8           0        0.630062    1.191210   -0.175907
     14          1           0       -0.432583    0.898646    0.198492
 ---------------------------------------------------------------------
                    Distance matrix (angstroms):
                    1          2          3          4          5
     1  C    0.000000
     2  H    1.094642   0.000000
     3  H    1.088107   1.761738   0.000000
     4  H    1.088450   1.759431   1.760359   0.000000
[...]
          Condensed to atoms (all electrons):
               1          2          3          4          5          6
     1  C    4.821476   0.400720   0.404801   0.409215   0.313516  -0.028771
     2  H    0.400720   0.601479  -0.031379  -0.034509  -0.037120  -0.003178
     3  H    0.404801  -0.031379   0.570102  -0.026088  -0.030722  -0.004967
     4  H    0.409215  -0.034509  -0.026088   0.577232  -0.034832   0.006101
     5  C    0.313516  -0.037120  -0.030722  -0.034832   5.134021   0.403973
     6  H   -0.028771  -0.003178  -0.004967   0.006101   0.403973   0.541951
     7  H   -0.038740  -0.003544   0.006414  -0.004322   0.401414  -0.030421
     8  C   -0.000514  -0.000052   0.000111  -0.000812  -0.002850   0.000082
     9  H    0.000289  -0.000051   0.000055  -0.002186   0.000094  -0.000179
    10  H   -0.000143  -0.000009  -0.000052   0.000159   0.000347   0.000003
    11  H    0.000171   0.000007  -0.000018   0.000333  -0.000483   0.000023
    12  O    0.001516   0.000268  -0.000774   0.007314   0.001761   0.000478
    13  O   -0.003369  -0.000160   0.002896  -0.000602  -0.075060   0.000241
    14  H   -0.008053   0.002805  -0.002512  -0.004507   0.214270  -0.009065
               7          8          9         10         11         12
     1  C   -0.038740  -0.000514   0.000289  -0.000143   0.000171   0.001516
     2  H   -0.003544  -0.000052  -0.000051  -0.000009   0.000007   0.000268
     3  H    0.006414   0.000111   0.000055  -0.000052  -0.000018  -0.000774
     4  H   -0.004322  -0.000812  -0.002186   0.000159   0.000333   0.007314
     5  C    0.401414  -0.002850   0.000094   0.000347  -0.000483   0.001761
     6  H   -0.030421   0.000082  -0.000179   0.000003   0.000023   0.000478
     7  H    0.562159   0.000189  -0.000480  -0.000075  -0.000040  -0.000126
     8  C    0.000189   4.602158   0.392139   0.395292   0.413631   0.302173
     9  H   -0.000480   0.392139   0.687446  -0.036074  -0.058480  -0.051000
    10  H   -0.000075   0.395292  -0.036074   0.593075  -0.027887  -0.026281
    11  H   -0.000040   0.413631  -0.058480  -0.027887   0.610382  -0.037318
    12  O   -0.000126   0.302173  -0.051000  -0.026281  -0.037318   7.947294
    13  O   -0.000207  -0.045003  -0.002684   0.006873   0.003945   0.072211
    14  H   -0.007135   0.001894   0.004262  -0.000620   0.000660  -0.027108
              13         14
     1  C   -0.003369  -0.008053
     2  H   -0.000160   0.002805
     3  H    0.002896  -0.002512
     4  H   -0.000602  -0.004507
     5  C   -0.075060   0.214270
     6  H    0.000241  -0.009065
     7  H   -0.000207  -0.007135
     8  C   -0.045003   0.001894
     9  H   -0.002684   0.004262
    10  H    0.006873  -0.000620
    11  H    0.003945   0.000660
    12  O    0.072211  -0.027108
    13  O    8.067923   0.199647
    14  H    0.199647   0.419839
          Atomic-Atomic Spin Densities.
               1          2          3          4          5          6
     1  C   -0.028785   0.009007   0.003329   0.004003  -0.027147   0.001023
     2  H    0.009007   0.061550  -0.005047  -0.004877  -0.015808  -0.001937
     3  H    0.003329  -0.005047   0.007370   0.001548  -0.004349   0.001015
     4  H    0.004003  -0.004877   0.001548   0.009318  -0.004203   0.000076
     5  C   -0.027147  -0.015808  -0.004349  -0.004203   0.706435   0.002983
     6  H    0.001023  -0.001937   0.001015   0.000076   0.002983  -0.022400
     7  H    0.002214  -0.002333   0.000246   0.000856   0.001397   0.003697
     8  C   -0.000346   0.000056  -0.000037  -0.000326   0.000923  -0.000038
     9  H    0.000715  -0.000150   0.000073   0.000661  -0.004805   0.000145
    10  H   -0.000031   0.000006  -0.000001  -0.000052   0.000129  -0.000002
    11  H   -0.000118   0.000011  -0.000013  -0.000080   0.001154  -0.000027
    12  O   -0.002607   0.000271  -0.000476  -0.001550   0.013022  -0.000289
    13  O    0.006941  -0.000740   0.001199   0.001183  -0.089332   0.002617
    14  H   -0.000266   0.000563  -0.000742   0.000334   0.062596   0.001946
               7          8          9         10         11         12
     1  C    0.002214  -0.000346   0.000715  -0.000031  -0.000118  -0.002607
     2  H   -0.002333   0.000056  -0.000150   0.000006   0.000011   0.000271
     3  H    0.000246  -0.000037   0.000073  -0.000001  -0.000013  -0.000476
     4  H    0.000856  -0.000326   0.000661  -0.000052  -0.000080  -0.001550
     5  C    0.001397   0.000923  -0.004805   0.000129   0.001154   0.013022
     6  H    0.003697  -0.000038   0.000145  -0.000002  -0.000027  -0.000289
     7  H   -0.022615  -0.000155   0.000975  -0.000008  -0.000136  -0.000722
     8  C   -0.000155  -0.005720   0.003663   0.000633  -0.002405   0.000946
     9  H    0.000975   0.003663   0.002240  -0.000840  -0.001241  -0.001110
    10  H   -0.000008   0.000633  -0.000840  -0.001726   0.001061   0.000096
    11  H   -0.000136  -0.002405  -0.001241   0.001061   0.003399  -0.000457
    12  O   -0.000722   0.000946  -0.001110   0.000096  -0.000457   0.050519
    13  O    0.003574  -0.002024   0.003880  -0.000219  -0.000382  -0.041366
    14  H    0.000993   0.001203  -0.003451   0.000080   0.001331   0.009707
              13         14
     1  C    0.006941  -0.000266
     2  H   -0.000740   0.000563
     3  H    0.001199  -0.000742
     4  H    0.001183   0.000334
     5  C   -0.089332   0.062596
     6  H    0.002617   0.001946
     7  H    0.003574   0.000993
     8  C   -0.002024   0.001203
     9  H    0.003880  -0.003451
    10  H   -0.000219   0.000080
    11  H   -0.000382   0.001331
    12  O   -0.041366   0.009707
    13  O    0.575530  -0.048819
    14  H   -0.048819  -0.101141
 Mulliken charges and spin densities:
               1          2
     1  C   -0.272115  -0.032067
     2  H    0.104722   0.040572
     3  H    0.112135   0.004116
     4  H    0.107505   0.006889
     5  C   -0.288331   0.642993
     6  H    0.123729  -0.011194
     7  H    0.114913  -0.012017
     8  C   -0.058438  -0.003628
     9  H    0.066849   0.000755
    10  H    0.095392  -0.000875
    11  H    0.095074   0.002096
    12  O   -0.190407   0.025986
    13  O   -0.226652   0.412040
    14  H    0.215623  -0.075666
 Sum of Mulliken charges =  -0.00000   1.00000
 Mulliken charges and spin densities with hydrogens summed into heavy atoms:
               1          2
     1  C    0.052248   0.019510
     5  C   -0.049689   0.619782
     8  C    0.198877  -0.001652
    12  O   -0.190407   0.025986
    13  O   -0.011029   0.336374
 Electronic spatial extent (au):  <R**2>=            661.4842
 Charge=             -0.0000 electrons
 Dipole moment (field-independent basis, Debye):
    X=             -1.1157    Y=              1.8880    Z=             -1.0815  Tot=              2.4452
 Quadrupole moment (field-independent basis, Debye-Ang):
   XX=            -29.0985   YY=            -34.4077   ZZ=            -33.9296
   XY=              4.0701   XZ=             -0.6484   YZ=              1.2435
 Traceless Quadrupole moment (field-independent basis, Debye-Ang):
   XX=              3.3801   YY=             -1.9291   ZZ=             -1.4510
   XY=              4.0701   XZ=             -0.6484   YZ=              1.2435
 Octapole moment (field-independent basis, Debye-Ang**2):
  XXX=              9.9510  YYY=             41.3787  ZZZ=            -28.9724  XYY=             -1.7776
  XXY=             14.6256  XXZ=             -9.2106  XZZ=              0.2710  YZZ=             13.9805
  YYZ=             -9.7796  XYZ=              1.7671
 Hexadecapole moment (field-independent basis, Debye-Ang**3):
 XXXX=           -541.3883 YYYY=           -177.8362 ZZZZ=           -127.6910 XXXY=            -19.0528
 XXXZ=             -7.7829 YYYX=            -13.9679 YYYZ=              2.9239 ZZZX=             -8.1910
 ZZZY=             -0.8378 XXYY=           -119.7907 XXZZ=           -116.1765 YYZZ=            -48.2970
 XXYZ=              3.2807 YYXZ=             -0.2801 ZZXY=             -4.0908
 N-N= 1.894435096390D+02 E-N=-1.010826034773D+03  KE= 2.684000749723D+02
                          Isotropic Fermi Contact Couplings
        Atom                 a.u.       MegaHertz       Gauss      10(-4) cm-1
     1  C(13)             -0.01199     -13.47352      -4.80769      -4.49428
     2  H(1)               0.02208      98.71304      35.22327      32.92712
     3  H(1)               0.00270      12.07591       4.30898       4.02809
     4  H(1)               0.00516      23.06371       8.22970       7.69323
     5  C(13)              0.09737     109.45934      39.05782      36.51171
     6  H(1)              -0.00371     -16.57325      -5.91375      -5.52824
     7  H(1)              -0.00426     -19.05307      -6.79861      -6.35542
     8  C(13)             -0.00354      -3.97564      -1.41861      -1.32613
     9  H(1)               0.00222       9.91750       3.53881       3.30812
    10  H(1)              -0.00010      -0.44187      -0.15767      -0.14739
    11  H(1)               0.00054       2.42234       0.86435       0.80801
    12  O(17)              0.01495      -9.06229      -3.23365      -3.02285
    13  O(17)              0.04418     -26.78229      -9.55659      -8.93361
    14  H(1)              -0.02334    -104.33570     -37.22957     -34.80264
 --------------------------------------------------------
       Center         ----  Spin Dipole Couplings  ----
                      3XX-RR        3YY-RR        3ZZ-RR
 --------------------------------------------------------
     1   Atom        0.017764     -0.011525     -0.006239
     2   Atom        0.004669     -0.003361     -0.001308
     3   Atom       -0.001736     -0.007571      0.009307
     4   Atom       -0.005570      0.004979      0.000591
     5   Atom        0.594047     -0.276208     -0.317840
     6   Atom        0.006497      0.033029     -0.039526
     7   Atom       -0.001377     -0.010287      0.011664
     8   Atom        0.000315      0.003547     -0.003863
     9   Atom       -0.000607      0.005272     -0.004666
    10   Atom        0.000542      0.002787     -0.003328
    11   Atom        0.004316     -0.000638     -0.003678
    12   Atom        0.307464     -0.151744     -0.155719
    13   Atom        1.152780     -0.342459     -0.810321
    14   Atom        0.189747     -0.092297     -0.097450
 --------------------------------------------------------
                        XY            XZ            YZ
 --------------------------------------------------------
     1   Atom       -0.015474     -0.011806      0.009413
     2   Atom       -0.007331     -0.002612      0.003236
     3   Atom       -0.000187     -0.006911     -0.000696
     4   Atom       -0.001255      0.000144      0.010180
     5   Atom       -0.294647      0.220503     -0.068244
     6   Atom        0.018173      0.017090      0.014457
     7   Atom       -0.000306     -0.005200     -0.044923
     8   Atom        0.007676      0.000922     -0.001621
     9   Atom        0.004816     -0.000662     -0.003521
    10   Atom        0.004259      0.001065      0.001097
    11   Atom        0.005861     -0.002285     -0.001649
    12   Atom       -0.164904      0.171140     -0.094380
    13   Atom       -1.067955      0.413837     -0.211582
    14   Atom       -0.094513      0.088685     -0.024857
 --------------------------------------------------------


 ---------------------------------------------------------------------------------
              Anisotropic Spin Dipole Couplings in Principal Axis System
 ---------------------------------------------------------------------------------

       Atom             a.u.   MegaHertz   Gauss  10(-4) cm-1        Axes

              Baa    -0.0200    -2.678    -0.956    -0.893  0.2365  0.8841 -0.4031
     1 C(13)  Bbb    -0.0103    -1.386    -0.495    -0.462  0.4890  0.2502  0.8356
              Bcc     0.0303     4.064     1.450     1.356  0.8396 -0.3947 -0.3731
 
              Baa    -0.0081    -4.303    -1.535    -1.435  0.4469  0.8618 -0.2400
     2 H(1)   Bbb    -0.0023    -1.209    -0.431    -0.403  0.3972  0.0492  0.9164
              Bcc     0.0103     5.512     1.967     1.839  0.8016 -0.5049 -0.3203
 
              Baa    -0.0077    -4.092    -1.460    -1.365  0.1484  0.9838  0.1007
     3 H(1)   Bbb    -0.0050    -2.655    -0.947    -0.885  0.8893 -0.1773  0.4216
              Bcc     0.0126     6.747     2.408     2.251 -0.4327 -0.0270  0.9012
 
              Baa    -0.0080    -4.253    -1.518    -1.419 -0.3558 -0.5986  0.7177
     4 H(1)   Bbb    -0.0053    -2.811    -1.003    -0.938  0.9334 -0.1889  0.3052
              Bcc     0.0132     7.065     2.521     2.356 -0.0472  0.7784  0.6259
 
              Baa    -0.3686   -49.463   -17.650   -16.499 -0.1174  0.3201  0.9401
     5 C(13)  Bbb    -0.3664   -49.170   -17.545   -16.401  0.3379  0.9030 -0.2653
              Bcc     0.7350    98.633    35.195    32.901  0.9338 -0.2865  0.2141
 
              Baa    -0.0461   -24.589    -8.774    -8.202 -0.2719 -0.1122  0.9558
     6 H(1)   Bbb    -0.0012    -0.624    -0.223    -0.208  0.8362 -0.5191  0.1769
              Bcc     0.0473    25.213     8.996     8.410  0.4763  0.8473  0.2350
 
              Baa    -0.0458   -24.450    -8.724    -8.156  0.0777  0.7822  0.6182
     7 H(1)   Bbb    -0.0014    -0.759    -0.271    -0.253  0.9937 -0.1106  0.0151
              Bcc     0.0472    25.208     8.995     8.409 -0.0802 -0.6132  0.7859
 
              Baa    -0.0069    -0.927    -0.331    -0.309  0.6603 -0.5618 -0.4983
     8 C(13)  Bbb    -0.0029    -0.389    -0.139    -0.130  0.4165 -0.2783  0.8655
              Bcc     0.0098     1.316     0.470     0.439  0.6250  0.7790 -0.0502
 
              Baa    -0.0060    -3.192    -1.139    -1.065 -0.2286  0.3784  0.8970
     9 H(1)   Bbb    -0.0029    -1.522    -0.543    -0.508  0.8611 -0.3511  0.3676
              Bcc     0.0088     4.714     1.682     1.572  0.4541  0.8564 -0.2456
 
              Baa    -0.0036    -1.922    -0.686    -0.641 -0.2476 -0.0013  0.9689
    10 H(1)   Bbb    -0.0027    -1.444    -0.515    -0.482  0.7565 -0.6250  0.1925
              Bcc     0.0063     3.366     1.201     1.123  0.6053  0.7806  0.1557
 
              Baa    -0.0046    -2.438    -0.870    -0.813 -0.4390  0.8140  0.3805
    11 H(1)   Bbb    -0.0043    -2.276    -0.812    -0.759  0.3844 -0.2126  0.8984
              Bcc     0.0088     4.714     1.682     1.572  0.8121  0.5406 -0.2195
 
              Baa    -0.2483    17.968     6.411     5.994 -0.0268  0.6749  0.7375
    12 O(17)  Bbb    -0.1759    12.729     4.542     4.246  0.4402  0.6703 -0.5974
              Bcc     0.4242   -30.698   -10.954   -10.240  0.8975 -0.3086  0.3151
 
              Baa    -0.9002    65.135    23.242    21.727  0.4828  0.7585 -0.4377
    13 O(17)  Bbb    -0.8917    64.520    23.022    21.521  0.0655  0.4671  0.8817
              Bcc     1.7918  -129.654   -46.264   -43.248  0.8733 -0.4544  0.1758
 
              Baa    -0.1237   -66.021   -23.558   -22.022 -0.3719 -0.4993  0.7825
    14 H(1)   Bbb    -0.1196   -63.828   -22.775   -21.291  0.0885  0.8201  0.5654
              Bcc     0.2434   129.850    46.334    43.313  0.9240 -0.2795  0.2608
 

 ---------------------------------------------------------------------------------

 1\1\GINC-N21\Scan\UB2PLYPD3-FC\CC-pVTZ\C3H9O2(2)\ROOT\13-Jun-2019\0\\#
  opt=(calcfc,ts,noeigentest,maxcyc=500,modredundant) uB2PLYPD3/cc-pvtz
  scf=maxcyc=500 nosymm\\Title Card Required\\0,2\C,-2.033346581,-0.079
 2740486,0.7755809154\H,-3.0354417858,0.3432389584,0.6526667119\H,-2.07
 16057196,-0.787674303,1.6005135132\H,-1.3683682914,0.7336920483,1.0624
 693094\C,-1.577622749,-0.7404095729,-0.4907021624\H,-2.065212362,-1.67
 49938126,-0.7498086216\H,-1.4311951691,-0.090682357,-1.3477632717\C,1.
 8613769548,0.4935247476,0.2030126271\H,1.1824276647,0.9782864279,-0.50
 08489814\H,2.2358708063,1.2229942293,0.9182905515\H,2.6879763055,0.036
 3405461,-0.3379475363\O,1.1752054387,-0.4760706259,0.9814270728\O,0.75
 22358754,-1.5019186169,0.1130266175\H,-0.3162123875,-1.1748086207,-0.2
 145647451\\Version=ES64L-G16RevB.01\HF=-269.5578687,-269.5578344,-269.
 5577722,-269.5576787,-269.557571,-269.5574724,-269.5573918,-269.557316
 6,-269.5572508,-269.5571845,-269.5571238,-269.5570843,-269.5570811,-26
 9.5571177,-269.5571874,-269.5572539,-269.557298,-269.5573194,-269.5573
 314,-269.5573394,-269.5573499,-269.5573674,-269.5573944,-269.5574277,-
 269.5574669,-269.5575045,-269.557534,-269.5575557,-269.5575735,-269.55
 75973,-269.5576368,-269.5576932,-269.5577663,-269.5578346,-269.5578771
 ,-269.5578856,-269.5578706\MP2=-269.8933051,-269.8932924,-269.8932491,
 -269.8931688,-269.8930734,-269.8929727,-269.8928468,-269.8926848,-269.
 8925011,-269.8923264,-269.8921878,-269.8921018,-269.8920766,-269.89211
 26,-269.8921896,-269.8922535,-269.8922716,-269.8922596,-269.8922403,-2
 69.8922228,-269.8922126,-269.8922137,-269.8922315,-269.8922681,-269.89
 23214,-269.892382,-269.8924368,-269.8924793,-269.8925136,-269.8925562,
 -269.8926261,-269.8927387,-269.892895,-269.8930682,-269.8932096,-269.8
 932869,-269.8933057\PUHF=-269.5640253,-269.5639909,-269.5639343,-269.5
 638494,-269.563751,-269.5636642,-269.5635984,-269.5635393,-269.5634843
 ,-269.5634224,-269.5633607,-269.5633184,-269.5633101,-269.5633419,-269
 .5634045,-269.5634665,-269.5635062,-269.5635235,-269.5635318,-269.5635
 367,-269.5635449,-269.5635611,-269.5635881,-269.5636229,-269.563664,-2
 69.5637046,-269.563737,-269.5637612,-269.5637794,-269.5638029,-269.563
 8403,-269.5638959,-269.5639652,-269.5640247,-269.564055,-269.5640505,-
 269.5640271\PMP2-0=-269.8938125,-269.8938002,-269.893758,-269.8936791,
 -269.893585,-269.8934856,-269.893361,-269.8932005,-269.8930181,-269.89
 28444,-269.8927063,-269.8926205,-269.892595,-269.89263,-269.8927057,-2
 69.8927684,-269.8927857,-269.8927731,-269.8927532,-269.8927352,-269.89
 27247,-269.8927255,-269.8927431,-269.8927797,-269.8928332,-269.8928942
 ,-269.8929492,-269.8929922,-269.8930267,-269.8930693,-269.893139,-269.
 8932512,-269.8934068,-269.8935789,-269.8937191,-269.893795,-269.893813
 2\S2=0.768271,0.768283,0.768314,0.768354,0.768392,0.768421,0.768444,0.
 768466,0.768491,0.768515,0.768534,0.768551,0.768556,0.768545,0.768514,
 0.768482,0.768455,0.768431,0.768413,0.768396,0.768384,0.768379,0.76838
 1,0.768388,0.768399,0.768413,0.768425,0.768435,0.768434,0.768426,0.768
 407,0.76839,0.768367,0.768335,0.768308,0.768282,0.768271\S2-1=0.742761
 ,0.742764,0.742765,0.742765,0.742763,0.742757,0.74275,0.742745,0.74274
 6,0.742751,0.742756,0.742758,0.742757,0.74275,0.742745,0.74274,0.74274
 ,0.742743,0.742746,0.742747,0.742747,0.742746,0.742742,0.742737,0.7427
 33,0.742728,0.742725,0.742726,0.74273,0.742735,0.742741,0.742742,0.742
 744,0.742746,0.742751,0.742756,0.742761\S2A=0.750149,0.750149,0.750149
 ,0.75015,0.75015,0.750151,0.750151,0.75015,0.75015,0.750151,0.750151,0
 .750151,0.750151,0.750151,0.750151,0.75015,0.75015,0.75015,0.75015,0.7
 50149,0.750149,0.750149,0.750149,0.750149,0.75015,0.75015,0.75015,0.75
 015,0.75015,0.75015,0.75015,0.750149,0.750149,0.750149,0.750148,0.7501
 49,0.750149\RMSD=2.761e-09,6.546e-09,9.925e-09,6.383e-09,8.321e-09,6.0
 31e-09,8.823e-09,7.985e-09,6.508e-09,4.643e-09,9.743e-09,7.209e-09,6.7
 77e-09,1.178e-09,5.718e-09,8.703e-09,9.656e-09,6.916e-09,9.340e-09,5.0
 65e-09,2.733e-09,2.395e-09,6.331e-09,6.158e-09,3.978e-09,7.946e-09,6.9
 15e-09,9.534e-09,5.396e-09,5.641e-09,2.678e-09,5.044e-09,5.732e-09,8.0
 82e-09,5.094e-09,4.846e-09,3.009e-09\PG=C01 [X(C3H9O2)]\\@


 The number of Unix installations has grown to 10,
  with more expected.
                  -- The Unix Programmer's Manual,
                     2nd Edition, June, 1972.
 Job cpu time:       9 days  5 hours 44 minutes 58.7 seconds.
 Elapsed time:       0 days  7 hours 20 minutes 44.0 seconds.
 File lengths (MBytes):  RWF=  37356 Int=      0 D2E=      0 Chk=     14 Scr=      1
 Normal termination of Gaussian 16 at Thu Jun 13 17:42:49 2019.
