 Entering Gaussian System, Link 0=g16
 Initial command:
 /ichec/packages/gaussian/16b01/l1.exe "/localscratch/341085/Gau-36347.inp" -scrdir="/localscratch/341085/"
 Entering Link 1 = /ichec/packages/gaussian/16b01/l1.exe PID=     39450.
  
 Copyright (c) 1988-2017, Gaussian, Inc.  All Rights Reserved.
  
 This is part of the Gaussian(R) 16 program.  It is based on
 the Gaussian(R) 09 system (copyright 2009, Gaussian, Inc.),
 the Gaussian(R) 03 system (copyright 2003, Gaussian, Inc.),
 the Gaussian(R) 98 system (copyright 1998, Gaussian, Inc.),
 the Gaussian(R) 94 system (copyright 1995, Gaussian, Inc.),
 the Gaussian 92(TM) system (copyright 1992, Gaussian, Inc.),
 the Gaussian 90(TM) system (copyright 1990, Gaussian, Inc.),
 the Gaussian 88(TM) system (copyright 1988, Gaussian, Inc.),
 the Gaussian 86(TM) system (copyright 1986, Carnegie Mellon
 University), and the Gaussian 82(TM) system (copyright 1983,
 Carnegie Mellon University). Gaussian is a federally registered
 trademark of Gaussian, Inc.
  
 This software contains proprietary and confidential information,
 including trade secrets, belonging to Gaussian, Inc.
  
 This software is provided under written license and may be
 used, copied, transmitted, or stored only in accord with that
 written license.
  
 The following legend is applicable only to US Government
 contracts under FAR:
  
                    RESTRICTED RIGHTS LEGEND
  
 Use, reproduction and disclosure by the US Government is
 subject to restrictions as set forth in subparagraphs (a)
 and (c) of the Commercial Computer Software - Restricted
 Rights clause in FAR 52.227-19.
  
 Gaussian, Inc.
 340 Quinnipiac St., Bldg. 40, Wallingford CT 06492
  
  
 ---------------------------------------------------------------
 Warning -- This program may not be used in any manner that
 competes with the business of Gaussian, Inc. or will provide
 assistance to any competitor of Gaussian, Inc.  The licensee
 of this program is prohibited from giving any competitor of
 Gaussian, Inc. access to this program.  By using this program,
 the user acknowledges that Gaussian, Inc. is engaged in the
 business of creating and licensing software in the field of
 computational chemistry and represents and warrants to the
 licensee that it is not a competitor of Gaussian, Inc. and that
 it will not use this program in any manner prohibited above.
 ---------------------------------------------------------------
  

 Cite this work as:
 Gaussian 16, Revision B.01,
 M. J. Frisch, G. W. Trucks, H. B. Schlegel, G. E. Scuseria, 
 M. A. Robb, J. R. Cheeseman, G. Scalmani, V. Barone, 
 G. A. Petersson, H. Nakatsuji, X. Li, M. Caricato, A. V. Marenich, 
 J. Bloino, B. G. Janesko, R. Gomperts, B. Mennucci, H. P. Hratchian, 
 J. V. Ortiz, A. F. Izmaylov, J. L. Sonnenberg, D. Williams-Young, 
 F. Ding, F. Lipparini, F. Egidi, J. Goings, B. Peng, A. Petrone, 
 T. Henderson, D. Ranasinghe, V. G. Zakrzewski, J. Gao, N. Rega, 
 G. Zheng, W. Liang, M. Hada, M. Ehara, K. Toyota, R. Fukuda, 
 J. Hasegawa, M. Ishida, T. Nakajima, Y. Honda, O. Kitao, H. Nakai, 
 T. Vreven, K. Throssell, J. A. Montgomery, Jr., J. E. Peralta, 
 F. Ogliaro, M. J. Bearpark, J. J. Heyd, E. N. Brothers, K. N. Kudin, 
 V. N. Staroverov, T. A. Keith, R. Kobayashi, J. Normand, 
 K. Raghavachari, A. P. Rendell, J. C. Burant, S. S. Iyengar, 
 J. Tomasi, M. Cossi, J. M. Millam, M. Klene, C. Adamo, R. Cammi, 
 J. W. Ochterski, R. L. Martin, K. Morokuma, O. Farkas, 
 J. B. Foresman, and D. J. Fox, Gaussian, Inc., Wallingford CT, 2016.
 
 ******************************************
 Gaussian 16:  ES64L-G16RevB.01 20-Dec-2017
                 7-Jun-2019 
 ******************************************
 %mem=80GB
 %nproc=40
 Will use up to   40 processors via shared memory.
 ----------------------------------------------------------------------
 # opt=(calcfc,ts,noeigentest,maxcyc=500) freq=noraman uB2PLYPD3/cc-pvt
 z
 ----------------------------------------------------------------------
 1/5=1,6=500,10=4,11=1,18=20,38=1/1,3;
 2/9=110,12=2,17=6,18=5,40=1/2;
 3/5=16,6=1,11=2,25=1,30=1,71=2,74=-60,116=2,140=1/1,2,3;
 4//1;
 5/5=2,38=5/2;
 8/6=3,8=1,10=1,19=11,30=-1/1;
 9/15=3,16=-3/6;
 11/6=1,8=1,15=11,17=12,24=-1,27=1,28=-2,29=300,32=6,42=3/1,2,10;
 10/6=2,21=1/2;
 8/6=4,8=1,10=1,19=11,30=-1/11,4;
 10/5=1,20=4/2;
 11/12=2,14=11,16=1,17=2,28=-2,42=3,76=2/2,10,12;
 6/7=2,8=2,9=2,10=2/1;
 7/10=1,12=2,25=1,44=2/1,2,3,16;
 1/5=1,6=500,10=4,11=1,18=20/3(2);
 2/9=110/2;
 99//99;
 2/9=110/2;
 3/5=16,6=1,11=2,25=1,30=1,71=1,74=-60,116=2/1,2,3;
 4/5=5,16=3,69=1/1;
 5/5=2,38=5/2;
 8/6=4,10=1/1;
 9/15=2,16=-3/6;
 10/5=1/2;
 7/12=2/1,2,3,16;
 1/5=1,6=500,11=1,18=20/3(-8);
 2/9=110/2;
 6/7=2,8=2,9=2,10=2/1;
 99/9=10/99;
 -------------------
 Title Card Required
 -------------------
 Symbolic Z-matrix:
 Charge =  0 Multiplicity = 2
 C                    -2.70147  -1.21843   0.21276 
 H                    -1.69096  -1.49617   0.52438 
 H                    -3.42555  -1.58186   0.93953 
 H                    -2.91033  -1.63551  -0.77228 
 O                    -2.84449   0.18618   0.19563 
 O                    -2.00872   0.69224  -0.7813 
 H                    -0.99684   0.86614  -0.22598 
 C                     0.15998   0.96447   0.46395 
 C                     1.18232   0.13198  -0.25344 
 H                    -0.15802   0.59902   1.43883 
 H                     0.33176   2.03822   0.45591 
 C                     2.55058   0.1712    0.43845 
 H                     0.84541  -0.9059   -0.31472 
 H                     1.29628   0.4848   -1.28122 
 C                     3.58518  -0.67392  -0.29356 
 H                     2.88968   1.20765   0.4987 
 H                     2.44086  -0.17954   1.46704 
 H                     4.55299  -0.63904   0.20526 
 H                     3.26978  -1.71691  -0.34276 
 H                     3.72102  -0.32012  -1.31627 
 
 Add virtual bond connecting atoms H7         and O6         Dist= 2.21D+00.
 Add virtual bond connecting atoms C8         and H7         Dist= 2.55D+00.

 GradGradGradGradGradGradGradGradGradGradGradGradGradGradGradGradGradGrad
 Berny optimization.
 Initialization pass.
                           ----------------------------
                           !    Initial Parameters    !
                           ! (Angstroms and Degrees)  !
 --------------------------                            --------------------------
 ! Name  Definition              Value          Derivative Info.                !
 --------------------------------------------------------------------------------
 ! R1    R(1,2)                  1.0933         calculate D2E/DX2 analytically  !
 ! R2    R(1,3)                  1.0884         calculate D2E/DX2 analytically  !
 ! R3    R(1,4)                  1.0899         calculate D2E/DX2 analytically  !
 ! R4    R(1,5)                  1.412          calculate D2E/DX2 analytically  !
 ! R5    R(5,6)                  1.3817         calculate D2E/DX2 analytically  !
 ! R6    R(6,7)                  1.1673         calculate D2E/DX2 analytically  !
 ! R7    R(7,8)                  1.3505         calculate D2E/DX2 analytically  !
 ! R8    R(8,9)                  1.501          calculate D2E/DX2 analytically  !
 ! R9    R(8,10)                 1.0886         calculate D2E/DX2 analytically  !
 ! R10   R(8,11)                 1.0874         calculate D2E/DX2 analytically  !
 ! R11   R(9,12)                 1.5337         calculate D2E/DX2 analytically  !
 ! R12   R(9,13)                 1.0929         calculate D2E/DX2 analytically  !
 ! R13   R(9,14)                 1.0926         calculate D2E/DX2 analytically  !
 ! R14   R(12,15)                1.5233         calculate D2E/DX2 analytically  !
 ! R15   R(12,16)                1.0922         calculate D2E/DX2 analytically  !
 ! R16   R(12,17)                1.0923         calculate D2E/DX2 analytically  !
 ! R17   R(15,18)                1.0894         calculate D2E/DX2 analytically  !
 ! R18   R(15,19)                1.0907         calculate D2E/DX2 analytically  !
 ! R19   R(15,20)                1.0907         calculate D2E/DX2 analytically  !
 ! A1    A(2,1,3)              109.8613         calculate D2E/DX2 analytically  !
 ! A2    A(2,1,4)              109.7249         calculate D2E/DX2 analytically  !
 ! A3    A(2,1,5)              110.4734         calculate D2E/DX2 analytically  !
 ! A4    A(3,1,4)              110.3798         calculate D2E/DX2 analytically  !
 ! A5    A(3,1,5)              105.836          calculate D2E/DX2 analytically  !
 ! A6    A(4,1,5)              110.5059         calculate D2E/DX2 analytically  !
 ! A7    A(1,5,6)              108.1595         calculate D2E/DX2 analytically  !
 ! A8    A(5,6,7)              104.0376         calculate D2E/DX2 analytically  !
 ! A9    A(7,8,9)              107.3907         calculate D2E/DX2 analytically  !
 ! A10   A(7,8,10)             100.5345         calculate D2E/DX2 analytically  !
 ! A11   A(7,8,11)             101.7372         calculate D2E/DX2 analytically  !
 ! A12   A(9,8,10)             116.1554         calculate D2E/DX2 analytically  !
 ! A13   A(9,8,11)             115.8823         calculate D2E/DX2 analytically  !
 ! A14   A(10,8,11)            112.5968         calculate D2E/DX2 analytically  !
 ! A15   A(8,9,12)             112.1998         calculate D2E/DX2 analytically  !
 ! A16   A(8,9,13)             110.0924         calculate D2E/DX2 analytically  !
 ! A17   A(8,9,14)             109.9711         calculate D2E/DX2 analytically  !
 ! A18   A(12,9,13)            108.9404         calculate D2E/DX2 analytically  !
 ! A19   A(12,9,14)            108.8469         calculate D2E/DX2 analytically  !
 ! A20   A(13,9,14)            106.6222         calculate D2E/DX2 analytically  !
 ! A21   A(9,12,15)            112.0202         calculate D2E/DX2 analytically  !
 ! A22   A(9,12,16)            109.0345         calculate D2E/DX2 analytically  !
 ! A23   A(9,12,17)            109.0861         calculate D2E/DX2 analytically  !
 ! A24   A(15,12,16)           110.0062         calculate D2E/DX2 analytically  !
 ! A25   A(15,12,17)           110.0352         calculate D2E/DX2 analytically  !
 ! A26   A(16,12,17)           106.497          calculate D2E/DX2 analytically  !
 ! A27   A(12,15,18)           111.4443         calculate D2E/DX2 analytically  !
 ! A28   A(12,15,19)           110.8416         calculate D2E/DX2 analytically  !
 ! A29   A(12,15,20)           110.8071         calculate D2E/DX2 analytically  !
 ! A30   A(18,15,19)           107.9489         calculate D2E/DX2 analytically  !
 ! A31   A(18,15,20)           107.9588         calculate D2E/DX2 analytically  !
 ! A32   A(19,15,20)           107.692          calculate D2E/DX2 analytically  !
 ! A33   L(6,7,8,2,-1)         175.1587         calculate D2E/DX2 analytically  !
 ! A34   L(6,7,8,2,-2)         180.1459         calculate D2E/DX2 analytically  !
 ! D1    D(2,1,5,6)             65.1902         calculate D2E/DX2 analytically  !
 ! D2    D(3,1,5,6)           -175.9374         calculate D2E/DX2 analytically  !
 ! D3    D(4,1,5,6)            -56.4287         calculate D2E/DX2 analytically  !
 ! D4    D(1,5,6,7)            -88.6965         calculate D2E/DX2 analytically  !
 ! D5    D(5,6,8,9)            121.2694         calculate D2E/DX2 analytically  !
 ! D6    D(5,6,8,10)             0.3371         calculate D2E/DX2 analytically  !
 ! D7    D(5,6,8,11)          -115.7231         calculate D2E/DX2 analytically  !
 ! D8    D(7,8,9,12)           179.7144         calculate D2E/DX2 analytically  !
 ! D9    D(7,8,9,13)           -58.7809         calculate D2E/DX2 analytically  !
 ! D10   D(7,8,9,14)            58.4139         calculate D2E/DX2 analytically  !
 ! D11   D(10,8,9,12)          -68.7393         calculate D2E/DX2 analytically  !
 ! D12   D(10,8,9,13)           52.7654         calculate D2E/DX2 analytically  !
 ! D13   D(10,8,9,14)          169.9602         calculate D2E/DX2 analytically  !
 ! D14   D(11,8,9,12)           66.8286         calculate D2E/DX2 analytically  !
 ! D15   D(11,8,9,13)         -171.6668         calculate D2E/DX2 analytically  !
 ! D16   D(11,8,9,14)          -54.472          calculate D2E/DX2 analytically  !
 ! D17   D(8,9,12,15)         -179.9504         calculate D2E/DX2 analytically  !
 ! D18   D(8,9,12,16)          -57.9504         calculate D2E/DX2 analytically  !
 ! D19   D(8,9,12,17)           57.9772         calculate D2E/DX2 analytically  !
 ! D20   D(13,9,12,15)          57.8872         calculate D2E/DX2 analytically  !
 ! D21   D(13,9,12,16)         179.8872         calculate D2E/DX2 analytically  !
 ! D22   D(13,9,12,17)         -64.1852         calculate D2E/DX2 analytically  !
 ! D23   D(14,9,12,15)         -58.0065         calculate D2E/DX2 analytically  !
 ! D24   D(14,9,12,16)          63.9934         calculate D2E/DX2 analytically  !
 ! D25   D(14,9,12,17)         179.9211         calculate D2E/DX2 analytically  !
 ! D26   D(9,12,15,18)         179.9744         calculate D2E/DX2 analytically  !
 ! D27   D(9,12,15,19)         -59.7738         calculate D2E/DX2 analytically  !
 ! D28   D(9,12,15,20)          59.7333         calculate D2E/DX2 analytically  !
 ! D29   D(16,12,15,18)         58.5318         calculate D2E/DX2 analytically  !
 ! D30   D(16,12,15,19)        178.7836         calculate D2E/DX2 analytically  !
 ! D31   D(16,12,15,20)        -61.7093         calculate D2E/DX2 analytically  !
 ! D32   D(17,12,15,18)        -58.497          calculate D2E/DX2 analytically  !
 ! D33   D(17,12,15,19)         61.7548         calculate D2E/DX2 analytically  !
 ! D34   D(17,12,15,20)       -178.7382         calculate D2E/DX2 analytically  !
 --------------------------------------------------------------------------------
 Trust Radius=3.00D-01 FncErr=1.00D-07 GrdErr=1.00D-07 EigMax=2.50D+02 EigMin=1.00D-04
 Number of steps in this run=    120 maximum allowed number of steps=    120.
 Search for a saddle point of order  1.
 GradGradGradGradGradGradGradGradGradGradGradGradGradGradGradGradGradGrad

                          Input orientation:                          
 ---------------------------------------------------------------------
 Center     Atomic      Atomic             Coordinates (Angstroms)
 Number     Number       Type             X           Y           Z
 ---------------------------------------------------------------------
      1          6           0       -2.701470   -1.218434    0.212757
      2          1           0       -1.690957   -1.496168    0.524378
      3          1           0       -3.425552   -1.581856    0.939527
      4          1           0       -2.910329   -1.635508   -0.772281
      5          8           0       -2.844487    0.186184    0.195629
      6          8           0       -2.008718    0.692241   -0.781297
      7          1           0       -0.996841    0.866140   -0.225976
      8          6           0        0.159983    0.964466    0.463952
      9          6           0        1.182323    0.131984   -0.253442
     10          1           0       -0.158020    0.599024    1.438831
     11          1           0        0.331764    2.038220    0.455908
     12          6           0        2.550578    0.171204    0.438450
     13          1           0        0.845410   -0.905903   -0.314721
     14          1           0        1.296284    0.484795   -1.281218
     15          6           0        3.585180   -0.673917   -0.293561
     16          1           0        2.889679    1.207646    0.498704
     17          1           0        2.440858   -0.179539    1.467041
     18          1           0        4.552986   -0.639038    0.205257
     19          1           0        3.269778   -1.716909   -0.342760
     20          1           0        3.721022   -0.320121   -1.316274
 ---------------------------------------------------------------------
                    Distance matrix (angstroms):
                    1          2          3          4          5
     1  C    0.000000
     2  H    1.093335   0.000000
     3  H    1.088377   1.785640   0.000000
     4  H    1.089896   1.785387   1.788469   0.000000
     5  O    1.411984   2.066160   2.004242   2.063915   0.000000
     6  O    2.262461   2.568052   3.184364   2.496277   1.381661
     7  H    2.728314   2.573971   3.640016   3.196581   2.013427
     8  C    3.607778   3.079667   4.423346   4.208913   3.115214
     9  C    4.138214   3.392878   5.058946   4.488098   4.052135
    10  H    3.357908   2.752444   3.960089   4.178200   2.988828
    11  H    4.457065   4.072835   5.239872   5.051326   3.685967
    12  C    5.437466   4.558304   6.248074   5.878059   5.400547
    13  H    3.599481   2.735993   4.502351   3.853214   3.881810
    14  H    4.595105   4.013477   5.612352   4.738174   4.406385
    15  C    6.330468   5.402105   7.176017   6.583727   6.505359
    16  H    6.101523   5.319163   6.917932   6.583238   5.832315
    17  H    5.394077   4.437795   6.054711   5.980770   5.448405
    18  H    7.277561   6.310573   8.067535   7.592734   7.443366
    19  H    6.017714   5.040788   6.818353   6.195550   6.426186
    20  H    6.662830   5.836146   7.599614   6.782403   6.756338
                    6          7          8          9         10
     6  O    0.000000
     7  H    1.167269   0.000000
     8  C    2.515555   1.350522   0.000000
     9  C    3.282569   2.299673   1.500953   0.000000
    10  H    2.891840   1.883230   1.088606   2.208718   0.000000
    11  H    2.969881   1.898402   1.087438   2.204623   1.810335
    12  C    4.748309   3.675402   2.518900   1.533745   2.918954
    13  H    3.304210   2.557714   2.138790   1.092920   2.519250
    14  H    3.349029   2.552916   2.137027   1.092605   3.086538
    15  C    5.778925   4.834383   3.871705   2.534720   4.316608
    16  H    5.089041   3.968227   2.740727   2.153564   3.246957
    17  H    5.061003   3.972093   2.741774   2.154302   2.713139
    18  H    6.767684   5.766464   4.683655   3.488015   5.024747
    19  H    5.818835   4.988970   4.184660   2.789955   4.504155
    20  H    5.843030   4.985398   4.183344   2.789086   4.845864
                   11         12         13         14         15
    11  H    0.000000
    12  C    2.899860   0.000000
    13  H    3.086351   2.152911   0.000000
    14  H    2.522109   2.151476   1.752554   0.000000
    15  C    4.301408   1.523309   2.749655   2.749023   0.000000
    16  H    2.689724   1.092169   3.050866   2.495905   2.156776
    17  H    3.223216   1.092272   2.499547   3.050298   2.157221
    18  H    5.004923   2.172673   3.753360   3.752162   1.089350
    19  H    4.834335   2.166220   2.556575   3.102077   1.090748
    20  H    4.493270   2.165732   3.100870   2.555088   1.090673
                   16         17         18         19         20
    16  H    0.000000
    17  H    1.750257   0.000000
    18  H    2.502587   2.502863   0.000000
    19  H    3.066848   2.515153   1.763165   0.000000
    20  H    2.513831   3.066827   1.763215   1.761354   0.000000
 Stoichiometry    C5H13O2(2)
 Framework group  C1[X(C5H13O2)]
 Deg. of freedom    54
 Full point group                 C1      NOp   1
 Largest Abelian subgroup         C1      NOp   1
 Largest concise Abelian subgroup C1      NOp   1
                         Standard orientation:                         
 ---------------------------------------------------------------------
 Center     Atomic      Atomic             Coordinates (Angstroms)
 Number     Number       Type             X           Y           Z
 ---------------------------------------------------------------------
      1          6           0       -2.701470    1.218434   -0.212757
      2          1           0       -1.690957    1.496168   -0.524378
      3          1           0       -3.425552    1.581856   -0.939527
      4          1           0       -2.910329    1.635508    0.772281
      5          8           0       -2.844487   -0.186184   -0.195629
      6          8           0       -2.008718   -0.692241    0.781297
      7          1           0       -0.996841   -0.866140    0.225976
      8          6           0        0.159983   -0.964466   -0.463952
      9          6           0        1.182323   -0.131984    0.253442
     10          1           0       -0.158020   -0.599024   -1.438831
     11          1           0        0.331764   -2.038220   -0.455908
     12          6           0        2.550578   -0.171204   -0.438450
     13          1           0        0.845410    0.905903    0.314721
     14          1           0        1.296284   -0.484795    1.281218
     15          6           0        3.585180    0.673917    0.293561
     16          1           0        2.889679   -1.207646   -0.498704
     17          1           0        2.440858    0.179539   -1.467041
     18          1           0        4.552986    0.639038   -0.205257
     19          1           0        3.269778    1.716909    0.342760
     20          1           0        3.721022    0.320121    1.316274
 ---------------------------------------------------------------------
 Rotational constants (GHZ):           5.6365933           0.7840413           0.7445097
 Standard basis: CC-pVTZ (5D, 7F)
 There are   440 symmetry adapted cartesian basis functions of A   symmetry.
 There are   392 symmetry adapted basis functions of A   symmetry.
   392 basis functions,   585 primitive gaussians,   440 cartesian basis functions
    30 alpha electrons       29 beta electrons
       nuclear repulsion energy       312.7731123591 Hartrees.
 NAtoms=   20 NActive=   20 NUniq=   20 SFac= 1.00D+00 NAtFMM=   60 NAOKFM=F Big=F
 Integral buffers will be    131072 words long.
 Raffenetti 2 integral format.
 Two-electron integral symmetry is turned on.
 Nuclear repulsion after empirical dispersion term =      312.7631916123 Hartrees.
 One-electron integrals computed using PRISM.
 NBasis=   392 RedAO= T EigKep=  5.04D-04  NBF=   392
 NBsUse=   392 1.00D-06 EigRej= -1.00D+00 NBFU=   392
 ExpMin= 1.03D-01 ExpMax= 1.53D+04 ExpMxC= 5.22D+02 IAcc=3 IRadAn=         5 AccDes= 0.00D+00
 Harris functional with IExCor=  419 and IRadAn=       5 diagonalized for initial guess.
 HarFok:  IExCor=  419 AccDes= 0.00D+00 IRadAn=         5 IDoV= 1 UseB2=F ITyADJ=14
 ICtDFT=  3500011 ScaDFX=  1.000000  1.000000  1.000000  1.000000
 FoFCou: FMM=F IPFlag=           0 FMFlag=      100000 FMFlg1=           0
         NFxFlg=           0 DoJE=T BraDBF=F KetDBF=T FulRan=T
         wScrn=  0.000000 ICntrl=       500 IOpCl=  0 I1Cent=   200000004 NGrid=           0
         NMat0=    1 NMatS0=      1 NMatT0=    0 NMatD0=    1 NMtDS0=    0 NMtDT0=    0
 Petite list used in FoFCou.
 Initial guess <Sx>= 0.0000 <Sy>= 0.0000 <Sz>= 0.5000 <S**2>= 0.7500 S= 0.5000
 Requested convergence on RMS density matrix=1.00D-08 within 128 cycles.
 Requested convergence on MAX density matrix=1.00D-06.
 Requested convergence on             energy=1.00D-06.
 No special actions if energy rises.
 Integral accuracy reduced to 1.0D-05 until final iterations.
 Initial convergence to 1.0D-05 achieved.  Increase integral accuracy.
 SCF Done:  E(UB2PLYPD3) =  -348.023951066     A.U. after   19 cycles
            NFock= 19  Conv=0.30D-08     -V/T= 2.0042
 <Sx>= 0.0000 <Sy>= 0.0000 <Sz>= 0.5000 <S**2>= 0.7683 S= 0.5091
 <L.S>=  0.00000000000    
 Annihilation of the first spin contaminant:
 S**2 before annihilation     0.7683,   after     0.7501
 DoSCS=T DFT=T ScalE2(SS,OS)=  0.270000  0.270000
 ExpMin= 1.03D-01 ExpMax= 1.53D+04 ExpMxC= 5.22D+02 IAcc=3 IRadAn=         5 AccDes= 0.00D+00
 HarFok:  IExCor=  205 AccDes= 0.00D+00 IRadAn=         5 IDoV=-2 UseB2=F ITyADJ=14
 ICtDFT= 12500011 ScaDFX=  1.000000  1.000000  1.000000  1.000000
 Range of M.O.s used for correlation:     8   392
 NBasis=   392 NAE=    30 NBE=    29 NFC=     7 NFV=     0
 NROrb=    385 NOA=    23 NOB=    22 NVA=   362 NVB=   363

 **** Warning!!: The largest alpha MO coefficient is  0.12072225D+02


 **** Warning!!: The largest beta MO coefficient is  0.12071710D+02

 DoSCS=T DFT=T ScalE2(SS,OS)=  0.270000  0.270000
 Disk-based method using ON**2 memory for 23 occupieds at a time.
 Permanent disk used for amplitudes=   169421973 words.
 Estimated scratch disk usage=  3106141536 words.
 Actual    scratch disk usage=  3003914592 words.
 JobTyp=2 Pass  1:  I=   8 to  30 NPSUse= 40 ParTrn=T ParDer=T DoDerP=T.
 (rs|ai) integrals will be sorted in core.
 Actual    scratch disk usage=  3003914592 words.
 JobTyp=3 Pass  1:  I=   8 to  29 NPSUse= 40 ParTrn=T ParDer=T DoDerP=T.
 (rs|ai) integrals will be sorted in core.
 Spin components of T(2) and E(2):
     alpha-alpha T2 =       0.7380893914D-01 E2=     -0.5366015558D-01
     alpha-beta  T2 =       0.4546111558D+00 E2=     -0.3421485872D+00
     beta-beta   T2 =       0.7869221858D-01 E2=     -0.5220223596D-01
 (S**2,0)=  0.76829D+00           (S**2,1)=  0.74250D+00
 Scaling Projection term by:   0.270000
 E(PUHF)=      -0.34803019694D+03        E(PMP2)=      -0.34847246504D+03
 E2(B2PLYPD3) =    -0.4480109787D+00 E(B2PLYPD3) =    -0.34847196204500D+03
 G2DrvN: will do    21 centers at a time, making    1 passes.
 Calling FoFCou, ICntrl=  3107 FMM=F I1Cent=   0 AccDes= 0.00D+00.
 End of G2Drv F.D. properties file   721 does not exist.
 End of G2Drv F.D. properties file   722 does not exist.
 End of G2Drv F.D. properties file   788 does not exist.
          IDoAtm=11111111111111111111
          Differentiating once with respect to electric field.
                with respect to dipole field.
          Differentiating once with respect to nuclear coordinates.
 CalDSu exits because no D1Ps are significant.
          There are    63 degrees of freedom in the 1st order CPHF.  IDoFFX=6 NUNeed=    63.
     60 vectors produced by pass  0 Test12= 3.39D-14 1.59D-09 XBig12= 9.05D+01 5.59D+00.
 AX will form    60 AO Fock derivatives at one time.
     60 vectors produced by pass  1 Test12= 3.39D-14 1.59D-09 XBig12= 6.53D+00 2.96D-01.
     60 vectors produced by pass  2 Test12= 3.39D-14 1.59D-09 XBig12= 3.68D-01 1.04D-01.
     60 vectors produced by pass  3 Test12= 3.39D-14 1.59D-09 XBig12= 5.36D-03 7.45D-03.
     60 vectors produced by pass  4 Test12= 3.39D-14 1.59D-09 XBig12= 4.93D-05 8.10D-04.
     60 vectors produced by pass  5 Test12= 3.39D-14 1.59D-09 XBig12= 5.84D-07 7.67D-05.
     57 vectors produced by pass  6 Test12= 3.39D-14 1.59D-09 XBig12= 4.66D-09 5.18D-06.
     22 vectors produced by pass  7 Test12= 3.39D-14 1.59D-09 XBig12= 2.76D-11 4.26D-07.
      3 vectors produced by pass  8 Test12= 3.39D-14 1.59D-09 XBig12= 1.67D-13 2.98D-08.
      2 vectors produced by pass  9 Test12= 3.39D-14 1.59D-09 XBig12= 1.36D-15 2.47D-09.
 InvSVY:  IOpt=1 It=  1 EMax= 7.99D-15
 Solved reduced A of dimension   444 with    63 vectors.
 End of Minotr F.D. properties file   721 does not exist.
 End of Minotr F.D. properties file   722 does not exist.
 End of Minotr F.D. properties file   788 does not exist.
 MDV= 10737418240.
 DoSCS=T DFT=T ScalE2(SS,OS)=  0.270000  0.270000
 Form MO integral derivatives with frozen-active canonical formalism.
 Discarding MO integrals.
 Reordered first order wavefunction length =    681858357
 In DefCFB: NBatch=  1 ICI= 30 ICA=363 LFMax= 73
            Large arrays: LIAPS= 14755319040 LIARS=  2347884000 words.
 In DefCFB: NBatch=  1 ICI= 30 ICA=363 LFMax= 73
            Large arrays: LIAPS= 14755319040 LIARS=  2347884000 words.
 Semi-Direct transformation.
 ModeAB=           4 MOrb=            30 LenV=   10733002297
 LASXX=    860785125 LTotXX=   860785125 LenRXX=  1733127225
 LTotAB=   872342100 MaxLAS=   939753360 LenRXY=           0
 NonZer=  2593912350 LenScr=  3906126848 LnRSAI=   939753360
 LnScr1=  1415158784 LExtra=           0 Total=   7994166217
 MaxDsk=          -1 SrtSym=           T ITran=            4
 JobTyp=1 Pass  1:  I=   1 to  30.
 (rs|ai) integrals will be sorted in core.
 ModeAB=           4 MOrb=            29 LenV=   10733002297
 LASXX=    833505211 LTotXX=   833505211 LenRXX=  1553741497
 LTotAB=   720236286 MaxLAS=   908428248 LenRXY=           0
 NonZer=  2387246708 LenScr=  3594912768 LnRSAI=   908428248
 LnScr1=  1367986176 LExtra=           0 Total=   7425068689
 MaxDsk=          -1 SrtSym=           T ITran=            4
 JobTyp=2 Pass  1:  I=   1 to  29.
 (rs|ai) integrals will be sorted in core.
 SymMOI:  orbitals are not symmetric.
 DoSCS=T DFT=T ScalE2(SS,OS)=  0.270000  0.270000
 Spin components of T(2) and E(2):
     alpha-alpha T2 =       0.7380893914D-01 E2=     -0.5366015558D-01
     alpha-beta  T2 =       0.4546111558D+00 E2=     -0.3421485872D+00
     beta-beta   T2 =       0.7869221858D-01 E2=     -0.5220223596D-01
 E2(B2PLYPD3) =    -0.4480109787D+00 E(B2PLYPD3) =    -0.34847196204500D+03
 (S**2,0)=  0.76829D+00           (S**2,1)=  0.74250D+00
 Scaling Projection term by:   0.270000
 E(PUHF)=      -0.34803019694D+03        E(PMP2)=      -0.34847246504D+03
          IDoAtm=11111111111111111111
          Differentiating once with respect to electric field.
                with respect to dipole field.
          Differentiating once with respect to nuclear coordinates.
          There are     1 degrees of freedom in the 1st order CPHF.  IDoFFX=0 NUNeed=     1.
 LinEq1:  Iter=  0 NonCon=     1 RMS=7.61D-04 Max=6.12D-02 NDo=     1
 AX will form     1 AO Fock derivatives at one time.
 LinEq1:  Iter=  1 NonCon=     1 RMS=2.47D-04 Max=8.40D-03 NDo=     1
 LinEq1:  Iter=  2 NonCon=     1 RMS=1.39D-04 Max=9.29D-03 NDo=     1
 LinEq1:  Iter=  3 NonCon=     1 RMS=5.53D-05 Max=8.38D-04 NDo=     1
 LinEq1:  Iter=  4 NonCon=     1 RMS=2.78D-05 Max=8.06D-04 NDo=     1
 LinEq1:  Iter=  5 NonCon=     1 RMS=1.80D-05 Max=6.26D-04 NDo=     1
 LinEq1:  Iter=  6 NonCon=     1 RMS=1.09D-05 Max=3.28D-04 NDo=     1
 LinEq1:  Iter=  7 NonCon=     1 RMS=4.43D-06 Max=1.40D-04 NDo=     1
 LinEq1:  Iter=  8 NonCon=     1 RMS=2.17D-06 Max=4.05D-05 NDo=     1
 LinEq1:  Iter=  9 NonCon=     1 RMS=8.35D-07 Max=2.11D-05 NDo=     1
 LinEq1:  Iter= 10 NonCon=     1 RMS=2.96D-07 Max=9.08D-06 NDo=     1
 LinEq1:  Iter= 11 NonCon=     1 RMS=1.25D-07 Max=2.91D-06 NDo=     1
 LinEq1:  Iter= 12 NonCon=     1 RMS=5.38D-08 Max=1.48D-06 NDo=     1
 LinEq1:  Iter= 13 NonCon=     1 RMS=1.97D-08 Max=5.14D-07 NDo=     1
 LinEq1:  Iter= 14 NonCon=     1 RMS=6.49D-09 Max=2.08D-07 NDo=     1
 LinEq1:  Iter= 15 NonCon=     1 RMS=2.49D-09 Max=1.04D-07 NDo=     1
 LinEq1:  Iter= 16 NonCon=     1 RMS=1.19D-09 Max=7.25D-08 NDo=     1
 LinEq1:  Iter= 17 NonCon=     1 RMS=5.45D-10 Max=3.97D-08 NDo=     1
 LinEq1:  Iter= 18 NonCon=     1 RMS=1.87D-10 Max=1.12D-08 NDo=     1
 LinEq1:  Iter= 19 NonCon=     1 RMS=5.89D-11 Max=2.20D-09 NDo=     1
 LinEq1:  Iter= 20 NonCon=     0 RMS=1.73D-11 Max=3.88D-10 NDo=     1
 Linear equations converged to 1.000D-10 1.000D-09 after    20 iterations.
 End of Minotr F.D. properties file   721 does not exist.
 End of Minotr F.D. properties file   722 does not exist.
 End of Minotr F.D. properties file   788 does not exist.
 Symmetrizing basis deriv contribution to polar:
 IMax=3 JMax=2 DiffMx= 0.00D+00
 G2DrvN: will do    21 centers at a time, making    1 passes.
 Calling FoFCou, ICntrl=  3107 FMM=F I1Cent=   0 AccDes= 0.00D+00.
 End of G2Drv F.D. properties file   721 does not exist.
 End of G2Drv F.D. properties file   722 does not exist.
 End of G2Drv F.D. properties file   788 does not exist.
 DoSCS=T DFT=T ScalE2(SS,OS)=  0.270000  0.270000
 R2 and R3 integrals will be kept in memory, NReq=  9455860260.
 DD1Dir will call FoFMem   1 times, MxPair=      2582
 NAB=   870 NAA=   435 NBB=   406.
 Discarding MO integrals.

 **********************************************************************

            Population analysis using the SCF Density.

 **********************************************************************

 Orbital symmetries:
 Alpha Orbitals:
       Occupied  (A) (A) (A) (A) (A) (A) (A) (A) (A) (A) (A) (A)
                 (A) (A) (A) (A) (A) (A) (A) (A) (A) (A) (A) (A)
                 (A) (A) (A) (A) (A) (A)
       Virtual   (A) (A) (A) (A) (A) (A) (A) (A) (A) (A) (A) (A)
                 (A) (A) (A) (A) (A) (A) (A) (A) (A) (A) (A) (A)
                 (A) (A) (A) (A) (A) (A) (A) (A) (A) (A) (A) (A)
                 (A) (A) (A) (A) (A) (A) (A) (A) (A) (A) (A) (A)
                 (A) (A) (A) (A) (A) (A) (A) (A) (A) (A) (A) (A)
                 (A) (A) (A) (A) (A) (A) (A) (A) (A) (A) (A) (A)
                 (A) (A) (A) (A) (A) (A) (A) (A) (A) (A) (A) (A)
                 (A) (A) (A) (A) (A) (A) (A) (A) (A) (A) (A) (A)
                 (A) (A) (A) (A) (A) (A) (A) (A) (A) (A) (A) (A)
                 (A) (A) (A) (A) (A) (A) (A) (A) (A) (A) (A) (A)
                 (A) (A) (A) (A) (A) (A) (A) (A) (A) (A) (A) (A)
                 (A) (A) (A) (A) (A) (A) (A) (A) (A) (A) (A) (A)
                 (A) (A) (A) (A) (A) (A) (A) (A) (A) (A) (A) (A)
                 (A) (A) (A) (A) (A) (A) (A) (A) (A) (A) (A) (A)
                 (A) (A) (A) (A) (A) (A) (A) (A) (A) (A) (A) (A)
                 (A) (A) (A) (A) (A) (A) (A) (A) (A) (A) (A) (A)
                 (A) (A) (A) (A) (A) (A) (A) (A) (A) (A) (A) (A)
                 (A) (A) (A) (A) (A) (A) (A) (A) (A) (A) (A) (A)
                 (A) (A) (A) (A) (A) (A) (A) (A) (A) (A) (A) (A)
                 (A) (A) (A) (A) (A) (A) (A) (A) (A) (A) (A) (A)
                 (A) (A) (A) (A) (A) (A) (A) (A) (A) (A) (A) (A)
                 (A) (A) (A) (A) (A) (A) (A) (A) (A) (A) (A) (A)
                 (A) (A) (A) (A) (A) (A) (A) (A) (A) (A) (A) (A)
                 (A) (A) (A) (A) (A) (A) (A) (A) (A) (A) (A) (A)
                 (A) (A) (A) (A) (A) (A) (A) (A) (A) (A) (A) (A)
                 (A) (A) (A) (A) (A) (A) (A) (A) (A) (A) (A) (A)
                 (A) (A) (A) (A) (A) (A) (A) (A) (A) (A) (A) (A)
                 (A) (A) (A) (A) (A) (A) (A) (A) (A) (A) (A) (A)
                 (A) (A) (A) (A) (A) (A) (A) (A) (A) (A) (A) (A)
                 (A) (A) (A) (A) (A) (A) (A) (A) (A) (A) (A) (A)
                 (A) (A)
 Beta  Orbitals:
       Occupied  (A) (A) (A) (A) (A) (A) (A) (A) (A) (A) (A) (A)
                 (A) (A) (A) (A) (A) (A) (A) (A) (A) (A) (A) (A)
                 (A) (A) (A) (A) (A)
       Virtual   (A) (A) (A) (A) (A) (A) (A) (A) (A) (A) (A) (A)
                 (A) (A) (A) (A) (A) (A) (A) (A) (A) (A) (A) (A)
                 (A) (A) (A) (A) (A) (A) (A) (A) (A) (A) (A) (A)
                 (A) (A) (A) (A) (A) (A) (A) (A) (A) (A) (A) (A)
                 (A) (A) (A) (A) (A) (A) (A) (A) (A) (A) (A) (A)
                 (A) (A) (A) (A) (A) (A) (A) (A) (A) (A) (A) (A)
                 (A) (A) (A) (A) (A) (A) (A) (A) (A) (A) (A) (A)
                 (A) (A) (A) (A) (A) (A) (A) (A) (A) (A) (A) (A)
                 (A) (A) (A) (A) (A) (A) (A) (A) (A) (A) (A) (A)
                 (A) (A) (A) (A) (A) (A) (A) (A) (A) (A) (A) (A)
                 (A) (A) (A) (A) (A) (A) (A) (A) (A) (A) (A) (A)
                 (A) (A) (A) (A) (A) (A) (A) (A) (A) (A) (A) (A)
                 (A) (A) (A) (A) (A) (A) (A) (A) (A) (A) (A) (A)
                 (A) (A) (A) (A) (A) (A) (A) (A) (A) (A) (A) (A)
                 (A) (A) (A) (A) (A) (A) (A) (A) (A) (A) (A) (A)
                 (A) (A) (A) (A) (A) (A) (A) (A) (A) (A) (A) (A)
                 (A) (A) (A) (A) (A) (A) (A) (A) (A) (A) (A) (A)
                 (A) (A) (A) (A) (A) (A) (A) (A) (A) (A) (A) (A)
                 (A) (A) (A) (A) (A) (A) (A) (A) (A) (A) (A) (A)
                 (A) (A) (A) (A) (A) (A) (A) (A) (A) (A) (A) (A)
                 (A) (A) (A) (A) (A) (A) (A) (A) (A) (A) (A) (A)
                 (A) (A) (A) (A) (A) (A) (A) (A) (A) (A) (A) (A)
                 (A) (A) (A) (A) (A) (A) (A) (A) (A) (A) (A) (A)
                 (A) (A) (A) (A) (A) (A) (A) (A) (A) (A) (A) (A)
                 (A) (A) (A) (A) (A) (A) (A) (A) (A) (A) (A) (A)
                 (A) (A) (A) (A) (A) (A) (A) (A) (A) (A) (A) (A)
                 (A) (A) (A) (A) (A) (A) (A) (A) (A) (A) (A) (A)
                 (A) (A) (A) (A) (A) (A) (A) (A) (A) (A) (A) (A)
                 (A) (A) (A) (A) (A) (A) (A) (A) (A) (A) (A) (A)
                 (A) (A) (A) (A) (A) (A) (A) (A) (A) (A) (A) (A)
                 (A) (A) (A)
 The electronic state is 2-A.
 Alpha  occ. eigenvalues --  -19.78505 -19.78369 -10.65985 -10.63370 -10.61947
 Alpha  occ. eigenvalues --  -10.61764 -10.60622  -1.28814  -1.01809  -0.92882
 Alpha  occ. eigenvalues --   -0.85031  -0.77720  -0.74086  -0.68036  -0.61192
 Alpha  occ. eigenvalues --   -0.56609  -0.55525  -0.55002  -0.50697  -0.50350
 Alpha  occ. eigenvalues --   -0.49806  -0.47077  -0.44268  -0.43051  -0.42610
 Alpha  occ. eigenvalues --   -0.41047  -0.39659  -0.36495  -0.36118  -0.29641
 Alpha virt. eigenvalues --    0.06938   0.08855   0.10007   0.11017   0.12349
 Alpha virt. eigenvalues --    0.13859   0.14450   0.15609   0.15859   0.16408
 Alpha virt. eigenvalues --    0.16636   0.17867   0.20178   0.22428   0.22812
 Alpha virt. eigenvalues --    0.24374   0.25147   0.27940   0.30757   0.31171
 Alpha virt. eigenvalues --    0.32050   0.33446   0.35091   0.35887   0.36795
 Alpha virt. eigenvalues --    0.39321   0.40381   0.45563   0.45899   0.46422
 Alpha virt. eigenvalues --    0.47166   0.47793   0.49376   0.51500   0.51920
 Alpha virt. eigenvalues --    0.52536   0.52846   0.53055   0.54100   0.54882
 Alpha virt. eigenvalues --    0.55043   0.55582   0.56106   0.56797   0.57352
 Alpha virt. eigenvalues --    0.58281   0.60243   0.61799   0.63553   0.67528
 Alpha virt. eigenvalues --    0.68394   0.69682   0.71869   0.75134   0.78006
 Alpha virt. eigenvalues --    0.79047   0.79468   0.81757   0.82334   0.83088
 Alpha virt. eigenvalues --    0.87648   0.88485   0.89101   0.90289   0.91639
 Alpha virt. eigenvalues --    0.93144   0.95225   0.95731   0.98044   0.99352
 Alpha virt. eigenvalues --    1.03078   1.04918   1.05974   1.07984   1.08529
 Alpha virt. eigenvalues --    1.09262   1.11322   1.12639   1.13238   1.13951
 Alpha virt. eigenvalues --    1.15043   1.16809   1.17530   1.18860   1.19284
 Alpha virt. eigenvalues --    1.22091   1.23069   1.23961   1.24531   1.25890
 Alpha virt. eigenvalues --    1.26423   1.27268   1.30025   1.30576   1.31673
 Alpha virt. eigenvalues --    1.34056   1.34836   1.36372   1.38184   1.39029
 Alpha virt. eigenvalues --    1.39727   1.40323   1.41098   1.42560   1.45473
 Alpha virt. eigenvalues --    1.47433   1.48460   1.49526   1.50617   1.51108
 Alpha virt. eigenvalues --    1.54362   1.55550   1.59733   1.61281   1.63038
 Alpha virt. eigenvalues --    1.64335   1.65187   1.67143   1.67359   1.72392
 Alpha virt. eigenvalues --    1.75108   1.78566   1.79207   1.80339   1.87786
 Alpha virt. eigenvalues --    1.95338   2.02417   2.05761   2.12523   2.19238
 Alpha virt. eigenvalues --    2.22695   2.30139   2.32238   2.37102   2.38550
 Alpha virt. eigenvalues --    2.40807   2.42405   2.43602   2.45977   2.48631
 Alpha virt. eigenvalues --    2.48867   2.49812   2.51892   2.56417   2.57194
 Alpha virt. eigenvalues --    2.59123   2.61388   2.64422   2.67672   2.69134
 Alpha virt. eigenvalues --    2.69189   2.70090   2.72511   2.75682   2.78068
 Alpha virt. eigenvalues --    2.80025   2.80709   2.82485   2.85678   2.87984
 Alpha virt. eigenvalues --    2.90829   2.91479   2.92399   2.93373   2.94263
 Alpha virt. eigenvalues --    2.95239   2.97027   2.97345   3.01019   3.03134
 Alpha virt. eigenvalues --    3.04797   3.06039   3.08518   3.10128   3.11515
 Alpha virt. eigenvalues --    3.12601   3.13115   3.14449   3.15647   3.16162
 Alpha virt. eigenvalues --    3.17936   3.18386   3.19155   3.20049   3.20533
 Alpha virt. eigenvalues --    3.21773   3.23494   3.24145   3.25491   3.28895
 Alpha virt. eigenvalues --    3.29895   3.31439   3.31907   3.33541   3.36519
 Alpha virt. eigenvalues --    3.37564   3.39287   3.41592   3.42582   3.44391
 Alpha virt. eigenvalues --    3.45620   3.46744   3.47561   3.50891   3.51853
 Alpha virt. eigenvalues --    3.53860   3.54613   3.55501   3.57524   3.58158
 Alpha virt. eigenvalues --    3.58389   3.60436   3.61636   3.64143   3.66644
 Alpha virt. eigenvalues --    3.67471   3.68749   3.69145   3.73585   3.76528
 Alpha virt. eigenvalues --    3.77045   3.79880   3.81850   3.82393   3.85382
 Alpha virt. eigenvalues --    3.86487   3.88437   3.88961   3.90349   3.90796
 Alpha virt. eigenvalues --    3.93276   3.94376   3.95259   3.96283   3.97202
 Alpha virt. eigenvalues --    3.98466   3.99792   4.00293   4.01076   4.02639
 Alpha virt. eigenvalues --    4.04884   4.07309   4.08148   4.09039   4.10315
 Alpha virt. eigenvalues --    4.11231   4.13058   4.16088   4.17761   4.18502
 Alpha virt. eigenvalues --    4.19806   4.20782   4.22708   4.23685   4.24444
 Alpha virt. eigenvalues --    4.25192   4.25531   4.26863   4.29299   4.31349
 Alpha virt. eigenvalues --    4.35325   4.35922   4.36284   4.38997   4.40039
 Alpha virt. eigenvalues --    4.40911   4.42701   4.43199   4.44223   4.46820
 Alpha virt. eigenvalues --    4.47531   4.51610   4.53959   4.58649   4.60615
 Alpha virt. eigenvalues --    4.65505   4.68664   4.69111   4.72164   4.76430
 Alpha virt. eigenvalues --    4.78266   4.81015   4.81444   4.83388   4.87514
 Alpha virt. eigenvalues --    4.90351   4.91357   4.93134   4.95014   4.98830
 Alpha virt. eigenvalues --    4.99479   4.99891   5.00223   5.01592   5.04888
 Alpha virt. eigenvalues --    5.06515   5.07309   5.08616   5.10852   5.12617
 Alpha virt. eigenvalues --    5.18068   5.22353   5.23590   5.25904   5.29317
 Alpha virt. eigenvalues --    5.30471   5.31558   5.34091   5.34433   5.36890
 Alpha virt. eigenvalues --    5.39565   5.40597   5.41112   5.42638   5.48174
 Alpha virt. eigenvalues --    5.49249   5.49343   5.50963   5.54782   5.58506
 Alpha virt. eigenvalues --    5.63546   5.65497   5.65678   5.66647   5.68507
 Alpha virt. eigenvalues --    5.70439   5.73851   5.78789   5.80387   5.89386
 Alpha virt. eigenvalues --    5.95186   5.97615   6.04443   6.06365   6.07272
 Alpha virt. eigenvalues --    6.09165   6.10200   6.11539   6.19512   6.28298
 Alpha virt. eigenvalues --    6.31948   6.42271   6.45371   6.68353   6.75977
 Alpha virt. eigenvalues --    6.77565   6.84955   6.97556   7.06345   7.08087
 Alpha virt. eigenvalues --    7.19502   7.44031   7.45660   7.61815   7.73428
 Alpha virt. eigenvalues --    9.95524  10.81050  12.59938  12.91024  13.29624
 Alpha virt. eigenvalues --   13.43136  13.71503
  Beta  occ. eigenvalues --  -19.78330 -19.76706 -10.65996 -10.62141 -10.62001
  Beta  occ. eigenvalues --  -10.61650 -10.60602  -1.26858  -0.98868  -0.92092
  Beta  occ. eigenvalues --   -0.83536  -0.77231  -0.72322  -0.67575  -0.57800
  Beta  occ. eigenvalues --   -0.55955  -0.54677  -0.54563  -0.50362  -0.49460
  Beta  occ. eigenvalues --   -0.47833  -0.45327  -0.43467  -0.42765  -0.41301
  Beta  occ. eigenvalues --   -0.40705  -0.39565  -0.35015  -0.32894
  Beta virt. eigenvalues --   -0.04291   0.07041   0.08926   0.10241   0.11129
  Beta virt. eigenvalues --    0.12423   0.14328   0.14750   0.15727   0.15984
  Beta virt. eigenvalues --    0.16436   0.16762   0.18035   0.20437   0.22853
  Beta virt. eigenvalues --    0.23318   0.24835   0.25497   0.28060   0.30830
  Beta virt. eigenvalues --    0.31265   0.32467   0.33889   0.35607   0.36190
  Beta virt. eigenvalues --    0.37073   0.40021   0.41076   0.45796   0.46056
  Beta virt. eigenvalues --    0.46827   0.47322   0.48117   0.49859   0.51671
  Beta virt. eigenvalues --    0.52095   0.52957   0.53181   0.53739   0.54469
  Beta virt. eigenvalues --    0.55213   0.55522   0.56242   0.57063   0.57244
  Beta virt. eigenvalues --    0.58011   0.58708   0.60735   0.61940   0.63994
  Beta virt. eigenvalues --    0.67857   0.68526   0.69869   0.72457   0.75916
  Beta virt. eigenvalues --    0.78281   0.79271   0.79809   0.81875   0.82532
  Beta virt. eigenvalues --    0.83339   0.87954   0.88735   0.89500   0.90518
  Beta virt. eigenvalues --    0.91965   0.93515   0.95531   0.96234   0.98060
  Beta virt. eigenvalues --    0.99641   1.03156   1.05051   1.06101   1.08387
  Beta virt. eigenvalues --    1.08815   1.09403   1.11420   1.12820   1.13319
  Beta virt. eigenvalues --    1.14093   1.15109   1.16899   1.17712   1.19081
  Beta virt. eigenvalues --    1.19588   1.22246   1.23542   1.24116   1.24702
  Beta virt. eigenvalues --    1.26165   1.26628   1.27431   1.30281   1.31053
  Beta virt. eigenvalues --    1.32271   1.34218   1.35140   1.36623   1.38378
  Beta virt. eigenvalues --    1.39078   1.39838   1.40537   1.41200   1.42833
  Beta virt. eigenvalues --    1.45881   1.47525   1.48660   1.49788   1.51257
  Beta virt. eigenvalues --    1.51455   1.54557   1.55860   1.60129   1.61625
  Beta virt. eigenvalues --    1.63200   1.64828   1.65266   1.67233   1.67777
  Beta virt. eigenvalues --    1.73178   1.75331   1.78986   1.79467   1.80677
  Beta virt. eigenvalues --    1.90546   1.96315   2.03051   2.06758   2.12864
  Beta virt. eigenvalues --    2.21225   2.23255   2.30745   2.32594   2.37318
  Beta virt. eigenvalues --    2.38650   2.41681   2.42680   2.44062   2.46306
  Beta virt. eigenvalues --    2.49033   2.49137   2.50101   2.52129   2.56664
  Beta virt. eigenvalues --    2.57905   2.59303   2.61526   2.65166   2.67852
  Beta virt. eigenvalues --    2.69380   2.69608   2.70525   2.72726   2.75852
  Beta virt. eigenvalues --    2.78833   2.80174   2.80940   2.82875   2.85911
  Beta virt. eigenvalues --    2.88180   2.91111   2.91947   2.92569   2.93664
  Beta virt. eigenvalues --    2.94596   2.96176   2.97550   2.97811   3.01228
  Beta virt. eigenvalues --    3.03723   3.04881   3.06412   3.08759   3.10922
  Beta virt. eigenvalues --    3.11742   3.12885   3.13187   3.14806   3.15951
  Beta virt. eigenvalues --    3.16426   3.18137   3.18665   3.19468   3.20245
  Beta virt. eigenvalues --    3.20791   3.21884   3.23887   3.24431   3.25824
  Beta virt. eigenvalues --    3.29630   3.30017   3.31498   3.32965   3.34018
  Beta virt. eigenvalues --    3.36636   3.37704   3.39676   3.41658   3.42706
  Beta virt. eigenvalues --    3.44501   3.46616   3.46892   3.48182   3.51051
  Beta virt. eigenvalues --    3.52327   3.54134   3.54874   3.55694   3.57628
  Beta virt. eigenvalues --    3.58367   3.58715   3.60681   3.61905   3.64285
  Beta virt. eigenvalues --    3.66779   3.67591   3.68949   3.69273   3.74054
  Beta virt. eigenvalues --    3.77049   3.77196   3.80063   3.82084   3.82483
  Beta virt. eigenvalues --    3.85513   3.86488   3.88524   3.89103   3.90367
  Beta virt. eigenvalues --    3.90999   3.93366   3.94312   3.95176   3.96522
  Beta virt. eigenvalues --    3.97321   3.98558   3.99984   4.00371   4.01185
  Beta virt. eigenvalues --    4.02762   4.05158   4.07532   4.08225   4.09021
  Beta virt. eigenvalues --    4.10407   4.11268   4.13164   4.16363   4.17943
  Beta virt. eigenvalues --    4.18596   4.20071   4.20949   4.22855   4.23942
  Beta virt. eigenvalues --    4.24603   4.25430   4.25590   4.26968   4.29417
  Beta virt. eigenvalues --    4.31704   4.35364   4.35988   4.36468   4.39158
  Beta virt. eigenvalues --    4.40180   4.41017   4.42771   4.43341   4.44373
  Beta virt. eigenvalues --    4.46881   4.48004   4.51946   4.54094   4.59218
  Beta virt. eigenvalues --    4.61259   4.65983   4.69192   4.69724   4.72553
  Beta virt. eigenvalues --    4.77004   4.78504   4.81147   4.81594   4.83574
  Beta virt. eigenvalues --    4.87649   4.90833   4.91887   4.93486   4.95200
  Beta virt. eigenvalues --    4.99037   4.99571   5.00067   5.00331   5.01810
  Beta virt. eigenvalues --    5.05076   5.06613   5.07476   5.09222   5.11122
  Beta virt. eigenvalues --    5.12706   5.19009   5.22622   5.24047   5.26150
  Beta virt. eigenvalues --    5.29709   5.30848   5.32022   5.34420   5.34744
  Beta virt. eigenvalues --    5.37012   5.39966   5.40965   5.41800   5.42969
  Beta virt. eigenvalues --    5.48402   5.49420   5.49643   5.51015   5.54889
  Beta virt. eigenvalues --    5.58591   5.63679   5.65623   5.65797   5.66866
  Beta virt. eigenvalues --    5.68638   5.71100   5.74414   5.78977   5.80765
  Beta virt. eigenvalues --    5.91062   5.95252   5.97857   6.04686   6.06865
  Beta virt. eigenvalues --    6.08013   6.09277   6.10737   6.12218   6.19574
  Beta virt. eigenvalues --    6.28759   6.34111   6.42846   6.46919   6.69211
  Beta virt. eigenvalues --    6.78644   6.79910   6.86160   6.99367   7.06903
  Beta virt. eigenvalues --    7.10014   7.21783   7.44692   7.47263   7.63444
  Beta virt. eigenvalues --    7.74468   9.96522  10.82059  12.60357  12.91440
  Beta virt. eigenvalues --   13.29912  13.43138  13.71526
          Condensed to atoms (all electrons):
               1          2          3          4          5          6
     1  C    4.580809   0.387765   0.402973   0.410291   0.315417  -0.040746
     2  H    0.387765   0.712805  -0.037077  -0.066123  -0.051398  -0.006457
     3  H    0.402973  -0.037077   0.583998  -0.028812  -0.025550   0.006681
     4  H    0.410291  -0.066123  -0.028812   0.638703  -0.044332   0.006070
     5  O    0.315417  -0.051398  -0.025550  -0.044332   7.941612   0.063726
     6  O   -0.040746  -0.006457   0.006681   0.006070   0.063726   8.065414
     7  H    0.004540   0.005239  -0.001308   0.000879  -0.032426   0.196371
     8  C   -0.004075   0.002120   0.000303  -0.000776   0.004167  -0.087403
     9  C   -0.000698  -0.002083   0.000123   0.000143   0.000679   0.006860
    10  H   -0.000377  -0.003589  -0.000109   0.000460   0.004893  -0.001262
    11  H    0.000093  -0.000123   0.000004   0.000003   0.000411   0.000778
    12  C   -0.000017   0.000292   0.000011  -0.000015  -0.000039   0.000425
    13  H   -0.000194  -0.001783   0.000084   0.000421   0.000188   0.001622
    14  H    0.000049   0.000113  -0.000006  -0.000014  -0.000059   0.000674
    15  C   -0.000003  -0.000042   0.000000   0.000001   0.000001   0.000005
    16  H    0.000000  -0.000006   0.000000   0.000001   0.000001   0.000005
    17  H   -0.000002   0.000085   0.000000  -0.000005  -0.000011   0.000014
    18  H   -0.000000   0.000000   0.000000  -0.000000  -0.000000   0.000000
    19  H    0.000000   0.000008  -0.000000  -0.000000  -0.000000  -0.000002
    20  H   -0.000000  -0.000001   0.000000  -0.000000   0.000000  -0.000001
               7          8          9         10         11         12
     1  C    0.004540  -0.004075  -0.000698  -0.000377   0.000093  -0.000017
     2  H    0.005239   0.002120  -0.002083  -0.003589  -0.000123   0.000292
     3  H   -0.001308   0.000303   0.000123  -0.000109   0.000004   0.000011
     4  H    0.000879  -0.000776   0.000143   0.000460   0.000003  -0.000015
     5  O   -0.032426   0.004167   0.000679   0.004893   0.000411  -0.000039
     6  O    0.196371  -0.087403   0.006860  -0.001262   0.000778   0.000425
     7  H    0.420517   0.226083  -0.011153  -0.007551  -0.007825   0.000475
     8  C    0.226083   5.172329   0.320786   0.399927   0.401063  -0.049679
     9  C   -0.011153   0.320786   4.893840  -0.038939  -0.031473   0.316895
    10  H   -0.007551   0.399927  -0.038939   0.552160  -0.026356  -0.004424
    11  H   -0.007825   0.401063  -0.031473  -0.026356   0.539633  -0.003490
    12  C    0.000475  -0.049679   0.316895  -0.004424  -0.003490   4.915074
    13  H   -0.003149  -0.038642   0.413433  -0.004510   0.006212  -0.037973
    14  H   -0.001361  -0.033239   0.411145   0.006284  -0.004375  -0.037419
    15  C   -0.000113   0.005759  -0.050114  -0.000082  -0.000006   0.341385
    16  H   -0.000139  -0.003043  -0.037174  -0.000045   0.002558   0.413900
    17  H   -0.000062  -0.001623  -0.037457   0.002295   0.000011   0.412551
    18  H    0.000002  -0.000390   0.007089  -0.000000   0.000003  -0.033817
    19  H    0.000003   0.000030  -0.004443   0.000006  -0.000011  -0.037757
    20  H   -0.000005   0.000044  -0.004304  -0.000011   0.000014  -0.037612
              13         14         15         16         17         18
     1  C   -0.000194   0.000049  -0.000003   0.000000  -0.000002  -0.000000
     2  H   -0.001783   0.000113  -0.000042  -0.000006   0.000085   0.000000
     3  H    0.000084  -0.000006   0.000000   0.000000   0.000000   0.000000
     4  H    0.000421  -0.000014   0.000001   0.000001  -0.000005  -0.000000
     5  O    0.000188  -0.000059   0.000001   0.000001  -0.000011  -0.000000
     6  O    0.001622   0.000674   0.000005   0.000005   0.000014   0.000000
     7  H   -0.003149  -0.001361  -0.000113  -0.000139  -0.000062   0.000002
     8  C   -0.038642  -0.033239   0.005759  -0.003043  -0.001623  -0.000390
     9  C    0.413433   0.411145  -0.050114  -0.037174  -0.037457   0.007089
    10  H   -0.004510   0.006284  -0.000082  -0.000045   0.002295  -0.000000
    11  H    0.006212  -0.004375  -0.000006   0.002558   0.000011   0.000003
    12  C   -0.037973  -0.037419   0.341385   0.413900   0.412551  -0.033817
    13  H    0.598100  -0.033377  -0.002714   0.007798  -0.005882  -0.000106
    14  H   -0.033377   0.588388  -0.003963  -0.005707   0.007640  -0.000115
    15  C   -0.002714  -0.003963   4.849723  -0.033922  -0.034913   0.412950
    16  H    0.007798  -0.005707  -0.033922   0.601704  -0.037243  -0.004860
    17  H   -0.005882   0.007640  -0.034913  -0.037243   0.605347  -0.004904
    18  H   -0.000106  -0.000115   0.412950  -0.004860  -0.004904   0.579790
    19  H    0.003319  -0.000266   0.410325   0.007344  -0.005342  -0.030580
    20  H   -0.000342   0.003222   0.410788  -0.005329   0.007401  -0.030280
              19         20
     1  C    0.000000  -0.000000
     2  H    0.000008  -0.000001
     3  H   -0.000000   0.000000
     4  H   -0.000000  -0.000000
     5  O   -0.000000   0.000000
     6  O   -0.000002  -0.000001
     7  H    0.000003  -0.000005
     8  C    0.000030   0.000044
     9  C   -0.004443  -0.004304
    10  H    0.000006  -0.000011
    11  H   -0.000011   0.000014
    12  C   -0.037757  -0.037612
    13  H    0.003319  -0.000342
    14  H   -0.000266   0.003222
    15  C    0.410325   0.410788
    16  H    0.007344  -0.005329
    17  H   -0.005342   0.007401
    18  H   -0.030580  -0.030280
    19  H    0.597469  -0.033258
    20  H   -0.033258   0.594710
          Atomic-Atomic Spin Densities.
               1          2          3          4          5          6
     1  C   -0.006069   0.002647   0.000416  -0.002366   0.001427  -0.003231
     2  H    0.002647   0.005363  -0.000481  -0.002222  -0.001414   0.005139
     3  H    0.000416  -0.000481  -0.001831   0.000824   0.000059  -0.000195
     4  H   -0.002366  -0.002222   0.000824   0.005663  -0.001022  -0.000511
     5  O    0.001427  -0.001414   0.000059  -0.001022   0.061552  -0.046421
     6  O   -0.003231   0.005139  -0.000195  -0.000511  -0.046421   0.598447
     7  H    0.001374  -0.004084   0.000112   0.001585   0.010639  -0.049813
     8  C    0.001861  -0.006283   0.000090   0.001545   0.012715  -0.089059
     9  C   -0.000207   0.000982  -0.000013  -0.000227  -0.000545   0.004681
    10  H   -0.000513   0.001337  -0.000013  -0.000160  -0.001549   0.002698
    11  H   -0.000064   0.000192  -0.000002  -0.000029  -0.000410   0.002719
    12  C    0.000036  -0.000228  -0.000001   0.000016   0.000030  -0.000364
    13  H   -0.000117   0.000888  -0.000011  -0.000166  -0.000158   0.000846
    14  H   -0.000011   0.000116  -0.000000  -0.000036  -0.000049   0.000953
    15  C   -0.000001   0.000024  -0.000000  -0.000002  -0.000001   0.000012
    16  H   -0.000001   0.000005  -0.000000  -0.000000  -0.000001   0.000012
    17  H   -0.000003   0.000033  -0.000000  -0.000002  -0.000005   0.000025
    18  H    0.000000  -0.000001   0.000000   0.000000   0.000000  -0.000000
    19  H    0.000000  -0.000001   0.000000   0.000000   0.000000   0.000000
    20  H    0.000000   0.000000   0.000000  -0.000000  -0.000000   0.000000
               7          8          9         10         11         12
     1  C    0.001374   0.001861  -0.000207  -0.000513  -0.000064   0.000036
     2  H   -0.004084  -0.006283   0.000982   0.001337   0.000192  -0.000228
     3  H    0.000112   0.000090  -0.000013  -0.000013  -0.000002  -0.000001
     4  H    0.001585   0.001545  -0.000227  -0.000160  -0.000029   0.000016
     5  O    0.010639   0.012715  -0.000545  -0.001549  -0.000410   0.000030
     6  O   -0.049813  -0.089059   0.004681   0.002698   0.002719  -0.000364
     7  H   -0.098757   0.055492   0.000509   0.003711   0.001279   0.000012
     8  C    0.055492   0.695363  -0.030035   0.006708   0.004589  -0.015100
     9  C    0.000509  -0.030035  -0.029150  -0.001293  -0.000689   0.021639
    10  H    0.003711   0.006708  -0.001293  -0.028052   0.002489  -0.000329
    11  H    0.001279   0.004589  -0.000689   0.002489  -0.023605  -0.001104
    12  C    0.000012  -0.015100   0.021639  -0.000329  -0.001104   0.034756
    13  H   -0.000189  -0.002772   0.000608   0.000757   0.000071  -0.003316
    14  H   -0.000635  -0.003702   0.001014   0.000019   0.001023  -0.003056
    15  C   -0.000029   0.001844  -0.004106   0.000100   0.000140  -0.003426
    16  H   -0.000002   0.000574   0.000121   0.000058   0.000074  -0.000267
    17  H   -0.000066   0.001426  -0.000403   0.000177   0.000183  -0.001165
    18  H    0.000001  -0.000144   0.000357  -0.000006  -0.000011   0.000604
    19  H   -0.000001   0.000011  -0.000046   0.000003   0.000001   0.000113
    20  H    0.000000   0.000019  -0.000024   0.000000   0.000003   0.000112
              13         14         15         16         17         18
     1  C   -0.000117  -0.000011  -0.000001  -0.000001  -0.000003   0.000000
     2  H    0.000888   0.000116   0.000024   0.000005   0.000033  -0.000001
     3  H   -0.000011  -0.000000  -0.000000  -0.000000  -0.000000   0.000000
     4  H   -0.000166  -0.000036  -0.000002  -0.000000  -0.000002   0.000000
     5  O   -0.000158  -0.000049  -0.000001  -0.000001  -0.000005   0.000000
     6  O    0.000846   0.000953   0.000012   0.000012   0.000025  -0.000000
     7  H   -0.000189  -0.000635  -0.000029  -0.000002  -0.000066   0.000001
     8  C   -0.002772  -0.003702   0.001844   0.000574   0.001426  -0.000144
     9  C    0.000608   0.001014  -0.004106   0.000121  -0.000403   0.000357
    10  H    0.000757   0.000019   0.000100   0.000058   0.000177  -0.000006
    11  H    0.000071   0.001023   0.000140   0.000074   0.000183  -0.000011
    12  C   -0.003316  -0.003056  -0.003426  -0.000267  -0.001165   0.000604
    13  H    0.006181   0.001195   0.000856   0.000051   0.000231  -0.000078
    14  H    0.001195   0.007308   0.000949   0.000110   0.000125  -0.000071
    15  C    0.000856   0.000949   0.011927   0.000441   0.000830  -0.000930
    16  H    0.000051   0.000110   0.000441  -0.002253   0.000578  -0.000140
    17  H    0.000231   0.000125   0.000830   0.000578  -0.001901  -0.000229
    18  H   -0.000078  -0.000071  -0.000930  -0.000140  -0.000229   0.002127
    19  H    0.000029  -0.000001   0.000066  -0.000022   0.000029  -0.000026
    20  H    0.000009   0.000022   0.000039   0.000027  -0.000018  -0.000047
              19         20
     1  C    0.000000   0.000000
     2  H   -0.000001   0.000000
     3  H    0.000000   0.000000
     4  H    0.000000  -0.000000
     5  O    0.000000  -0.000000
     6  O    0.000000   0.000000
     7  H   -0.000001   0.000000
     8  C    0.000011   0.000019
     9  C   -0.000046  -0.000024
    10  H    0.000003   0.000000
    11  H    0.000001   0.000003
    12  C    0.000113   0.000112
    13  H    0.000029   0.000009
    14  H   -0.000001   0.000022
    15  C    0.000066   0.000039
    16  H   -0.000022   0.000027
    17  H    0.000029  -0.000018
    18  H   -0.000026  -0.000047
    19  H   -0.000549   0.000002
    20  H    0.000002  -0.000518
 Mulliken charges and spin densities:
               1          2
     1  C   -0.055823  -0.004821
     2  H    0.060256   0.002014
     3  H    0.098685  -0.001047
     4  H    0.083104   0.002892
     5  O   -0.177278   0.034849
     6  O   -0.212773   0.425938
     7  H    0.210983  -0.078861
     8  C   -0.313742   0.635141
     9  C   -0.153155  -0.036828
    10  H    0.121230  -0.013859
    11  H    0.122877  -0.013150
    12  C   -0.158769   0.028962
    13  H    0.097494   0.004914
    14  H    0.102385   0.005272
    15  C   -0.305067   0.008734
    16  H    0.094159  -0.000635
    17  H    0.092099  -0.000155
    18  H    0.105216   0.001405
    19  H    0.093157  -0.000392
    20  H    0.094964  -0.000375
 Sum of Mulliken charges =  -0.00000   1.00000
 Mulliken charges and spin densities with hydrogens summed into heavy atoms:
               1          2
     1  C    0.186222  -0.000961
     5  O   -0.177278   0.034849
     6  O   -0.001790   0.347078
     8  C   -0.069636   0.608133
     9  C    0.046723  -0.026642
    12  C    0.027489   0.028172
    15  C   -0.011730   0.009372
 APT charges:
               1
     1  C    0.425930
     2  H   -0.040541
     3  H   -0.006454
     4  H   -0.028625
     5  O   -0.487087
     6  O    0.276903
     7  H   -0.412904
     8  C    0.473811
     9  C   -0.072589
    10  H   -0.063946
    11  H   -0.052669
    12  C    0.159036
    13  H   -0.028810
    14  H   -0.023125
    15  C    0.049611
    16  H   -0.041810
    17  H   -0.042517
    18  H   -0.039730
    19  H   -0.022123
    20  H   -0.022361
 Sum of APT charges =  -0.00000
 APT charges with hydrogens summed into heavy atoms:
               1
     1  C    0.350310
     5  O   -0.487087
     6  O   -0.136001
     8  C    0.357196
     9  C   -0.124524
    12  C    0.074709
    15  C   -0.034603
 Electronic spatial extent (au):  <R**2>=           1572.1947
 Charge=             -0.0000 electrons
 Dipole moment (field-independent basis, Debye):
    X=              2.0577    Y=              1.5411    Z=             -0.9683  Tot=              2.7472
 Quadrupole moment (field-independent basis, Debye-Ang):
   XX=            -49.8814   YY=            -44.4733   ZZ=            -46.8185
   XY=             -6.4248   XZ=              1.8154   YZ=             -0.1389
 Traceless Quadrupole moment (field-independent basis, Debye-Ang):
   XX=             -2.8236   YY=              2.5844   ZZ=              0.2392
   XY=             -6.4248   XZ=              1.8154   YZ=             -0.1389
 Octapole moment (field-independent basis, Debye-Ang**2):
  XXX=            -10.8177  YYY=             -2.7974  ZZZ=              1.1361  XYY=             -9.3496
  XXY=             15.1241  XXZ=             -3.7613  XZZ=             -6.1536  YZZ=              0.3064
  YYZ=             -0.2152  XYZ=             -0.9511
 Hexadecapole moment (field-independent basis, Debye-Ang**3):
 XXXX=          -1719.6635 YYYY=           -230.9030 ZZZZ=           -131.6696 XXXY=            -52.5060
 XXXZ=             -1.1340 YYYX=             -3.7491 YYYZ=             -1.2131 ZZZX=              0.9091
 ZZZY=             -4.2569 XXYY=           -317.2875 XXZZ=           -304.7592 YYZZ=            -63.0524
 XXYZ=             -6.2509 YYXZ=              1.1300 ZZXY=             -3.6544
 N-N= 3.127631916123D+02 E-N=-1.439058334496D+03  KE= 3.465602593933D+02
  Exact polarizability: 122.428  -8.925  71.880  -4.379   0.930  67.107
 Approx polarizability:  98.145  -5.068  78.764  -2.975  -1.720  80.209
                          Isotropic Fermi Contact Couplings
        Atom                 a.u.       MegaHertz       Gauss      10(-4) cm-1
     1  C(13)             -0.00425      -4.78216      -1.70639      -1.59516
     2  H(1)               0.00262      11.71256       4.17933       3.90689
     3  H(1)              -0.00017      -0.74829      -0.26701      -0.24960
     4  H(1)               0.00085       3.81550       1.36147       1.27271
     5  O(17)              0.01621      -9.82407      -3.50547      -3.27696
     6  O(17)              0.04426     -26.82934      -9.57338      -8.94930
     7  H(1)              -0.02381    -106.43695     -37.97935     -35.50355
     8  C(13)              0.09291     104.45404      37.27180      34.84212
     9  C(13)             -0.01282     -14.41425      -5.14336      -4.80808
    10  H(1)              -0.00409     -18.27437      -6.52075      -6.09567
    11  H(1)              -0.00398     -17.80218      -6.35226      -5.93817
    12  C(13)              0.03495      39.28970      14.01954      13.10563
    13  H(1)               0.00213       9.53048       3.40071       3.17902
    14  H(1)               0.00313      13.99685       4.99442       4.66885
    15  C(13)              0.00394       4.42872       1.58028       1.47726
    16  H(1)              -0.00046      -2.05257      -0.73241      -0.68466
    17  H(1)              -0.00051      -2.26034      -0.80655      -0.75397
    18  H(1)               0.00076       3.39000       1.20964       1.13078
    19  H(1)              -0.00014      -0.60435      -0.21565      -0.20159
    20  H(1)              -0.00014      -0.62020      -0.22130      -0.20688
 --------------------------------------------------------
       Center         ----  Spin Dipole Couplings  ----
                      3XX-RR        3YY-RR        3ZZ-RR
 --------------------------------------------------------
     1   Atom       -0.001541      0.007760     -0.006219
     2   Atom       -0.003060      0.007532     -0.004472
     3   Atom       -0.000831      0.002708     -0.001878
     4   Atom       -0.002484      0.007261     -0.004777
     5   Atom        0.272146     -0.182126     -0.090020
     6   Atom        0.734658     -0.919729      0.185071
     7   Atom        0.157191     -0.117367     -0.039824
     8   Atom        0.376683     -0.346806     -0.029877
     9   Atom        0.022957     -0.010239     -0.012718
    10   Atom        0.000040     -0.032996      0.032957
    11   Atom       -0.013033      0.043193     -0.030160
    12   Atom        0.048522     -0.025781     -0.022740
    13   Atom       -0.001234      0.006716     -0.005482
    14   Atom        0.003066     -0.007106      0.004040
    15   Atom        0.006468     -0.001850     -0.004618
    16   Atom        0.007613     -0.001508     -0.006105
    17   Atom        0.002441     -0.003989      0.001548
    18   Atom        0.002285     -0.001305     -0.000980
    19   Atom        0.000829      0.001209     -0.002037
    20   Atom        0.001546     -0.001783      0.000237
 --------------------------------------------------------
                        XY            XZ            YZ
 --------------------------------------------------------
     1   Atom       -0.003474      0.001816     -0.004242
     2   Atom       -0.001681     -0.000816     -0.004526
     3   Atom       -0.003816      0.001483     -0.003271
     4   Atom       -0.004640     -0.000441      0.001162
     5   Atom       -0.061180     -0.297311      0.038946
     6   Atom       -0.142439     -1.359966      0.120998
     7   Atom       -0.040951     -0.149527      0.019900
     8   Atom       -0.081713     -0.488151      0.053068
     9   Atom        0.015594     -0.001087      0.002751
    10   Atom       -0.016057      0.006945     -0.024608
    11   Atom       -0.011815     -0.020114     -0.003694
    12   Atom        0.010850     -0.019451     -0.003065
    13   Atom        0.007484      0.001045      0.004802
    14   Atom        0.002065      0.008748      0.003183
    15   Atom        0.009690      0.007335      0.004801
    16   Atom       -0.004016     -0.000798      0.001406
    17   Atom        0.004630     -0.004727     -0.003244
    18   Atom        0.001028     -0.000480      0.000554
    19   Atom        0.001914      0.000565      0.000917
    20   Atom        0.001274      0.001855      0.000306
 --------------------------------------------------------


 ---------------------------------------------------------------------------------
              Anisotropic Spin Dipole Couplings in Principal Axis System
 ---------------------------------------------------------------------------------

       Atom             a.u.   MegaHertz   Gauss  10(-4) cm-1        Axes

              Baa    -0.0075    -1.011    -0.361    -0.337 -0.1572  0.2306  0.9603
     1 C(13)  Bbb    -0.0027    -0.358    -0.128    -0.119  0.9372  0.3413  0.0715
              Bcc     0.0102     1.369     0.489     0.457 -0.3113  0.9112 -0.2698
 
              Baa    -0.0065    -3.469    -1.238    -1.157  0.3657  0.3251  0.8721
     2 H(1)   Bbb    -0.0027    -1.437    -0.513    -0.479  0.9243 -0.0168 -0.3813
              Bcc     0.0092     4.905     1.750     1.636 -0.1093  0.9455 -0.3066
 
              Baa    -0.0038    -2.022    -0.722    -0.675  0.4186  0.5923  0.6884
     3 H(1)   Bbb    -0.0028    -1.517    -0.541    -0.506  0.7712  0.1683 -0.6139
              Bcc     0.0066     3.540     1.263     1.181 -0.4795  0.7879 -0.3864
 
              Baa    -0.0049    -2.608    -0.931    -0.870 -0.0036 -0.0965  0.9953
     4 H(1)   Bbb    -0.0043    -2.315    -0.826    -0.772  0.9291  0.3678  0.0390
              Bcc     0.0092     4.923     1.757     1.642 -0.3698  0.9249  0.0884
 
              Baa    -0.2573    18.617     6.643     6.210  0.4836 -0.0589  0.8733
     5 O(17)  Bbb    -0.1902    13.764     4.911     4.591  0.1285  0.9917 -0.0043
              Bcc     0.4475   -32.381   -11.554   -10.801  0.8658 -0.1143 -0.4872
 
              Baa    -0.9341    67.592    24.118    22.546 -0.2498  0.8823 -0.3990
     6 O(17)  Bbb    -0.9258    66.988    23.903    22.345  0.5842  0.4659  0.6645
              Bcc     1.8599  -134.579   -48.021   -44.891  0.7722 -0.0671 -0.6319
 
              Baa    -0.1241   -66.196   -23.620   -22.081  0.3137  0.8834  0.3481
     7 H(1)   Bbb    -0.1194   -63.712   -22.734   -21.252  0.3716 -0.4516  0.8111
              Bcc     0.2435   129.908    46.354    43.333  0.8738 -0.1251 -0.4700
 
              Baa    -0.3568   -47.875   -17.083   -15.970  0.4165  0.7603  0.4985
     8 C(13)  Bbb    -0.3544   -47.555   -16.969   -15.863  0.3743 -0.6430  0.6681
              Bcc     0.7112    95.431    34.052    31.832  0.8285 -0.0917 -0.5524
 
              Baa    -0.0181    -2.423    -0.865    -0.808 -0.3220  0.8132 -0.4848
     9 C(13)  Bbb    -0.0111    -1.487    -0.530    -0.496 -0.1786  0.4507  0.8746
              Bcc     0.0291     3.909     1.395     1.304  0.9297  0.3682  0.0000
 
              Baa    -0.0451   -24.051    -8.582    -8.023  0.2869  0.9206  0.2648
    10 H(1)   Bbb     0.0007     0.396     0.141     0.132  0.9205 -0.1884 -0.3424
              Bcc     0.0443    23.655     8.441     7.890  0.2653 -0.3420  0.9015
 
              Baa    -0.0445   -23.756    -8.477    -7.924  0.5641  0.1104  0.8183
    11 H(1)   Bbb    -0.0011    -0.561    -0.200    -0.187  0.8013  0.1660 -0.5748
              Bcc     0.0456    24.317     8.677     8.111 -0.1993  0.9799  0.0051
 
              Baa    -0.0279    -3.739    -1.334    -1.247  0.1511  0.4826  0.8627
    12 C(13)  Bbb    -0.0272    -3.649    -1.302    -1.217 -0.2375  0.8649 -0.4422
              Bcc     0.0551     7.388     2.636     2.464  0.9595  0.1381 -0.2453
 
              Baa    -0.0078    -4.170    -1.488    -1.391  0.4095 -0.4694  0.7823
    13 H(1)   Bbb    -0.0046    -2.463    -0.879    -0.822  0.7762 -0.2714 -0.5691
              Bcc     0.0124     6.634     2.367     2.213  0.4795  0.8402  0.2532
 
              Baa    -0.0080    -4.249    -1.516    -1.417  0.0522  0.9552 -0.2913
    14 H(1)   Bbb    -0.0050    -2.691    -0.960    -0.898  0.7400 -0.2328 -0.6310
              Bcc     0.0130     6.940     2.476     2.315  0.6706  0.1826  0.7190
 
              Baa    -0.0083    -1.110    -0.396    -0.370 -0.5678  0.2771  0.7751
    15 C(13)  Bbb    -0.0082    -1.103    -0.394    -0.368 -0.2874  0.8157 -0.5021
              Bcc     0.0165     2.213     0.790     0.738  0.7714  0.5078  0.3835
 
              Baa    -0.0065    -3.474    -1.239    -1.159 -0.0291 -0.2921  0.9560
    16 H(1)   Bbb    -0.0027    -1.451    -0.518    -0.484  0.3664  0.8867  0.2820
              Bcc     0.0092     4.925     1.757     1.643  0.9300 -0.3585 -0.0812
 
              Baa    -0.0065    -3.469    -1.238    -1.157 -0.4009  0.9069  0.1300
    17 H(1)   Bbb    -0.0026    -1.411    -0.503    -0.471  0.5961  0.1505  0.7887
              Bcc     0.0091     4.879     1.741     1.628  0.6956  0.3937 -0.6009
 
              Baa    -0.0020    -1.072    -0.383    -0.358 -0.2522  0.7980 -0.5473
    18 H(1)   Bbb    -0.0006    -0.309    -0.110    -0.103 -0.0585  0.5520  0.8318
              Bcc     0.0026     1.381     0.493     0.461  0.9659  0.2418 -0.0925
 
              Baa    -0.0023    -1.217    -0.434    -0.406 -0.0290 -0.2392  0.9705
    19 H(1)   Bbb    -0.0009    -0.469    -0.167    -0.156  0.7590 -0.6371 -0.1344
              Bcc     0.0032     1.685     0.601     0.562  0.6505  0.7327  0.2000
 
              Baa    -0.0023    -1.211    -0.432    -0.404 -0.3879  0.9046  0.1766
    20 H(1)   Bbb    -0.0009    -0.476    -0.170    -0.159 -0.4437 -0.3512  0.8245
              Bcc     0.0032     1.687     0.602     0.563  0.8079  0.2415  0.5376
 

 ---------------------------------------------------------------------------------

 Calling FoFJK, ICntrl=  10100127 FMM=F ISym2X=0 I1Cent= 0 IOpClX= 1 NMat=1 NMatS=1 NMatT=0.
 ***** Axes restored to original set *****
 -------------------------------------------------------------------
 Center     Atomic                   Forces (Hartrees/Bohr)
 Number     Number              X              Y              Z
 -------------------------------------------------------------------
      1        6           0.001151115   -0.005160021   -0.000406933
      2        1          -0.001078222   -0.000559246   -0.000210205
      3        1           0.000201343    0.000356300   -0.000262484
      4        1           0.000180175   -0.000322109    0.000662943
      5        8          -0.010329306   -0.000210899    0.009483208
      6        8           0.004960867    0.004687284   -0.010660740
      7        1           0.005106879    0.000731614    0.002538503
      8        6          -0.002144119    0.000628868   -0.001231694
      9        6          -0.000441385    0.000056667    0.000094529
     10        1           0.000450542    0.000525040   -0.000675869
     11        1           0.000203288   -0.000652267    0.000315188
     12        6           0.000262691    0.000312353    0.000459355
     13        1           0.000186197    0.000604550    0.000003597
     14        1          -0.000125672   -0.000134877    0.000384988
     15        6           0.000653344   -0.000499125   -0.000414199
     16        1           0.000078386   -0.000409972    0.000071343
     17        1           0.000230585    0.000115966   -0.000294506
     18        1          -0.000125686   -0.000099959   -0.000194591
     19        1           0.000382097    0.000311189   -0.000037487
     20        1           0.000196880   -0.000281355    0.000375053
 -------------------------------------------------------------------
 Cartesian Forces:  Max     0.010660740 RMS     0.002681216
 FormGI is forming the generalized inverse of G from B-inverse, IUseBI=4.

 GradGradGradGradGradGradGradGradGradGradGradGradGradGradGradGradGradGrad
 Berny optimization.
 Internal  Forces:  Max     0.014678101 RMS     0.001921316
 Search for a saddle point.
 Step number   1 out of a maximum of  120
 All quantities printed in internal units (Hartrees-Bohrs-Radians)
 Swapping is turned off.
 Second derivative matrix not updated -- analytic derivatives used.
 ITU=  0
     Eigenvalues ---   -0.07752   0.00107   0.00158   0.00223   0.00291
     Eigenvalues ---    0.00657   0.01677   0.02145   0.02968   0.03201
     Eigenvalues ---    0.03295   0.03819   0.03843   0.03953   0.04153
     Eigenvalues ---    0.04596   0.04608   0.06534   0.06865   0.07028
     Eigenvalues ---    0.08488   0.08554   0.08768   0.09342   0.10668
     Eigenvalues ---    0.12253   0.13072   0.13272   0.13478   0.16000
     Eigenvalues ---    0.16438   0.16504   0.17303   0.18090   0.18784
     Eigenvalues ---    0.21671   0.27446   0.27945   0.30035   0.31323
     Eigenvalues ---    0.32580   0.32719   0.32914   0.33417   0.33571
     Eigenvalues ---    0.33659   0.33805   0.34017   0.34365   0.34544
     Eigenvalues ---    0.34639   0.34786   0.36281   0.43919
 Eigenvectors required to have negative eigenvalues:
                          R6        R7        R5        D12       D16
   1                   -0.68087   0.67184   0.15385  -0.08257   0.07790
                          A8        D11       D14       D13       A10
   1                   -0.07720  -0.07596   0.07064  -0.06870  -0.06624
 RFO step:  Lambda0=7.036216111D-05 Lambda=-1.01513480D-03.
 Linear search not attempted -- option 19 set.
 Iteration  1 RMS(Cart)=  0.05442304 RMS(Int)=  0.00064015
 Iteration  2 RMS(Cart)=  0.00114997 RMS(Int)=  0.00002582
 Iteration  3 RMS(Cart)=  0.00000098 RMS(Int)=  0.00002581
 Variable       Old X    -DE/DX   Delta X   Delta X   Delta X     New X
                                 (Linear)    (Quad)   (Total)
    R1        2.06610  -0.00091   0.00000  -0.00310  -0.00309   2.06301
    R2        2.05673  -0.00043   0.00000  -0.00053  -0.00053   2.05620
    R3        2.05960  -0.00051   0.00000  -0.00215  -0.00215   2.05746
    R4        2.66826   0.00570   0.00000   0.01353   0.01353   2.68180
    R5        2.61096   0.01468   0.00000   0.04777   0.04777   2.65873
    R6        2.20582   0.00510   0.00000  -0.00797  -0.00797   2.19785
    R7        2.55212  -0.00072   0.00000   0.01947   0.01947   2.57158
    R8        2.83639   0.00068   0.00000  -0.00059  -0.00059   2.83580
    R9        2.05717  -0.00091   0.00000  -0.00287  -0.00287   2.05430
   R10        2.05496  -0.00061   0.00000  -0.00215  -0.00215   2.05281
   R11        2.89836   0.00147   0.00000   0.00503   0.00503   2.90339
   R12        2.06532  -0.00063   0.00000  -0.00202  -0.00202   2.06330
   R13        2.06472  -0.00042   0.00000  -0.00132  -0.00132   2.06341
   R14        2.87864   0.00120   0.00000   0.00348   0.00348   2.88212
   R15        2.06390  -0.00036   0.00000  -0.00116  -0.00116   2.06274
   R16        2.06410  -0.00034   0.00000  -0.00112  -0.00112   2.06297
   R17        2.05857  -0.00020   0.00000  -0.00054  -0.00054   2.05804
   R18        2.06122  -0.00041   0.00000  -0.00126  -0.00126   2.05995
   R19        2.06107  -0.00042   0.00000  -0.00128  -0.00128   2.05979
    A1        1.91744  -0.00037   0.00000  -0.00132  -0.00131   1.91613
    A2        1.91506  -0.00055   0.00000   0.00072   0.00069   1.91575
    A3        1.92812   0.00123   0.00000   0.00749   0.00748   1.93560
    A4        1.92649  -0.00027   0.00000  -0.00189  -0.00189   1.92460
    A5        1.84719  -0.00078   0.00000  -0.00907  -0.00906   1.83812
    A6        1.92869   0.00074   0.00000   0.00379   0.00378   1.93247
    A7        1.88774   0.00155   0.00000  -0.00712  -0.00712   1.88062
    A8        1.81580   0.00465   0.00000   0.00582   0.00582   1.82162
    A9        1.87432   0.00077   0.00000   0.00243   0.00241   1.87674
   A10        1.75466  -0.00021   0.00000  -0.00643  -0.00641   1.74825
   A11        1.77565  -0.00006   0.00000  -0.00484  -0.00481   1.77084
   A12        2.02729  -0.00014   0.00000   0.00274   0.00271   2.03000
   A13        2.02253  -0.00020   0.00000   0.00237   0.00228   2.02481
   A14        1.96518  -0.00005   0.00000   0.00116   0.00122   1.96641
   A15        1.95826   0.00121   0.00000   0.00398   0.00398   1.96224
   A16        1.92148  -0.00035   0.00000  -0.00094  -0.00094   1.92054
   A17        1.91936  -0.00040   0.00000  -0.00096  -0.00096   1.91839
   A18        1.90137  -0.00036   0.00000  -0.00146  -0.00146   1.89990
   A19        1.89974  -0.00032   0.00000  -0.00115  -0.00115   1.89859
   A20        1.86091   0.00017   0.00000   0.00034   0.00034   1.86124
   A21        1.95512   0.00092   0.00000   0.00328   0.00328   1.95840
[...]
 75367,0.03455966,0.00061180,-0.01090087,0.00050082,-0.00117847,0.00233
 162,-0.00000510,0.00011890,0.00090865,-0.00024765,-0.00014011,0.001157
 50,0.00118371,0.01769814,0.01713439,-0.02985669,-0.13192164,-0.0294189
 3,-0.03234756,0.09864696,0.01768015,0.06054459,0.25045653,-0.00134429,
 0.00007498,-0.00063387,0.00014843,0.00040866,0.00012493,-0.00001177,-0
 .00005367,0.00000566,0.00013590,0.00003509,-0.00002499,0.00219824,0.00
 058699,-0.00124414,-0.01232553,0.00064444,-0.00470752,0.00834702,-0.01
 947694,0.00543912,-0.00680380,0.55857724,0.00002851,-0.00649559,0.0004
 9111,-0.00103587,0.00143503,0.00013093,0.00019589,0.00026281,-0.000070
 89,-0.00023337,0.00085668,0.00040181,0.01148314,0.00909339,-0.01436150
 ,-0.07385366,-0.01550154,-0.01498748,0.06259593,0.01006243,0.00860579,
 -0.16206608,-0.05023317,0.45322547,0.00047725,0.00256912,0.00029855,-0
 .00006720,-0.00080692,-0.00001583,-0.00002568,-0.00027776,0.00006033,-
 0.00000590,-0.00029620,-0.00028784,-0.00504737,-0.00329711,0.00513156,
 0.01481823,0.00403379,0.00007386,-0.02941646,0.00379136,-0.00413640,-0
 .11440485,0.05489984,0.06183483,0.42736254,-0.00064904,0.00216505,-0.0
 0034787,0.00026771,-0.00034369,0.00038554,0.00016283,-0.00025459,0.000
 06606,0.00002380,-0.00020317,-0.00012821,-0.00185218,-0.00207568,0.001
 88995,0.00156782,0.00065453,-0.00186359,-0.00093311,-0.00056272,0.0000
 3009,0.05111580,-0.12864853,-0.03415818,0.02646336,0.57023759,0.000236
 92,0.00242167,0.00011513,0.00011130,-0.00062742,-0.00008912,-0.0000779
 0,-0.00027835,0.00004623,0.00001431,-0.00030784,-0.00019975,-0.0040450
 1,-0.00325918,0.00452795,0.00740201,0.00307900,-0.00252197,-0.01266472
 ,0.00168268,-0.00219212,0.05581683,-0.03197607,-0.10600526,-0.03294087
 ,-0.02562514,0.54800597,-0.00003273,0.00067821,0.00002178,-0.00006563,
 -0.00054736,-0.00019830,-0.00000354,-0.00022664,0.00004330,-0.00000696
 ,-0.00000981,-0.00013767,-0.00103949,-0.00162759,0.00486226,0.00955819
 ,0.00298339,-0.00102733,-0.01218891,0.00103131,-0.01694312,-0.04674563
 ,-0.01660491,0.06895624,-0.00357623,-0.00779650,0.02205203,0.05299686,
 -0.00023944,0.00029198,-0.00013498,-0.00001971,-0.00025110,-0.00010260
 ,0.00004106,-0.00003713,0.00003040,0.00007238,-0.00004991,-0.00002168,
 0.00006974,-0.00020166,0.00077159,0.00182961,0.00022066,-0.00032223,-0
 .00290960,-0.00012028,-0.00192648,-0.01949925,-0.08089849,0.07949962,0
 .00432205,0.00824447,-0.01707968,0.02066997,0.07911290,-0.00038446,0.0
 0069531,-0.00010522,0.00009049,-0.00051898,-0.00012102,0.00003982,-0.0
 0012282,0.00002779,0.00012531,-0.00009031,-0.00001451,-0.00142541,-0.0
 0133524,0.00316205,0.00573250,0.00151669,-0.00025910,-0.00601899,0.001
 96682,-0.01254261,0.08328616,0.08343841,-0.27335723,0.00027348,0.00517
 043,-0.01031325,-0.08318249,-0.08658187,0.29086245,-0.00019771,0.00171
 608,-0.00012749,0.00019945,-0.00012562,0.00006780,-0.00004759,-0.00012
 778,0.00003357,0.00001687,-0.00016377,-0.00018335,-0.00261058,-0.00237
 691,0.00335595,0.00894690,0.00280407,-0.00014605,-0.01454416,-0.012987
 00,-0.00556926,-0.03974652,-0.05092674,0.01692098,0.00574118,0.0240277
 7,-0.00141942,0.00136346,-0.00637693,-0.00071522,0.04149002,0.00040029
 ,-0.00026836,0.00005684,-0.00008682,0.00008162,-0.00005111,-0.00004569
 ,0.00007962,-0.00002345,-0.00003851,0.00001916,0.00000661,-0.00009694,
 0.00024239,0.00007475,-0.00017138,0.00087676,-0.00037271,-0.00059581,-
 0.00366963,0.00038147,-0.03883308,-0.31914039,0.01804498,-0.00552046,-
 0.01457047,0.00098237,-0.00167454,-0.00613071,-0.00195697,0.04370332,0
 .34113427,-0.00031945,0.00100706,-0.00012994,0.00013720,-0.00027090,-0
 .00009688,-0.00002936,-0.00009464,0.00002775,0.00010075,-0.00013600,-0
 .00008599,-0.00124173,-0.00133569,0.00257349,0.00614262,0.00162069,-0.
 00044036,-0.01022952,-0.00743631,-0.00399563,0.01608647,0.01019769,-0.
 04546145,-0.00367944,-0.01416095,0.00297686,0.00570938,0.02791810,0.00
 153441,-0.01457426,-0.01517353,0.04282706,-0.00006920,-0.00019707,-0.0
 0010037,0.00003466,0.00001045,0.00004921,0.00004365,0.00005039,-0.0000
 2237,-0.00001581,0.00000478,0.00006123,0.00032056,0.00017380,-0.000305
 35,-0.00164148,-0.00060197,-0.00091534,0.00241917,0.00159134,0.0027884
 5,-0.03269843,0.00672623,-0.00373948,-0.14051693,-0.01510573,-0.045075
 66,0.00205316,-0.00042981,-0.00011841,0.00213481,-0.00087330,0.0000344
 6,0.44303391,0.00026239,-0.00158095,0.00010211,-0.00024663,0.00031174,
 -0.00015210,-0.00004946,0.00020013,-0.00005270,-0.00000783,0.00014728,
 0.00012690,0.00172367,0.00172943,-0.00217516,-0.00353097,-0.00099870,0
 .00149618,0.00491983,0.00007058,0.00113333,0.01574970,-0.00138517,0.00
 584917,-0.00569912,-0.07624227,-0.00003130,-0.00070768,0.00002995,-0.0
 0000231,-0.00008674,0.00026500,-0.00047605,0.03401611,0.56494350,-0.00
 009809,-0.00161309,-0.00015069,-0.00010519,0.00032738,0.00007034,0.000
 08434,0.00020197,-0.00004349,-0.00000413,0.00019362,0.00017601,0.00241
 775,0.00212290,-0.00280170,-0.00496050,-0.00188856,0.00146944,0.007149
 78,0.00044336,0.00273041,0.00849668,0.00218415,0.00507807,-0.03283072,
 -0.00383213,-0.09534975,0.00030554,-0.00065141,-0.00002048,0.00007841,
 0.00000665,-0.00019937,-0.01651145,-0.02837333,0.55285002,-0.00029910,
 0.00027456,-0.00008899,-0.00004969,-0.00015938,0.00017846,0.00010506,-
 0.00004942,0.00001935,0.00002738,-0.00002225,-0.00000431,-0.00004559,-
 0.00016667,0.00010857,0.00019259,-0.00029986,-0.00022467,0.00076984,0.
 00051267,0.00022207,0.00516530,0.02551857,-0.00062675,-0.06771204,-0.0
 7481072,0.00208710,0.00048426,-0.00112485,-0.00046501,-0.00281397,0.00
 288955,0.00270733,-0.01320611,-0.02985581,-0.00061151,0.08091243,0.000
 53225,-0.00088036,0.00026829,-0.00022536,0.00021115,-0.00021575,-0.000
 12991,0.00012451,-0.00003196,-0.00002905,0.00006583,0.00002157,0.00027
 529,0.00074439,-0.00071833,-0.00055449,0.00022263,0.00093729,0.0001735
 5,-0.00028798,-0.00005243,-0.00425045,-0.01940187,0.00007933,-0.073808
 27,-0.28039812,0.00186441,0.00026782,0.00106619,-0.00014389,0.00252597
 ,-0.00044442,-0.00249715,-0.00075980,-0.00286372,-0.00023599,0.0788864
 3,0.30772499,0.00020843,-0.00027690,0.00010364,0.00004388,0.00013442,0
 .00006644,-0.00001216,0.00002396,-0.00003343,-0.00012242,0.00004165,-0
 .00003038,0.00015963,0.00020523,-0.00038664,-0.00032824,-0.00016738,0.
 00016975,0.00033510,0.00020792,0.00028815,-0.00528670,-0.01602212,0.00
 041361,0.00278744,0.00179290,-0.05138148,-0.00087272,0.00028095,0.0004
 3432,0.00248234,-0.00200048,-0.00042270,-0.00705717,-0.01466910,-0.000
 64032,-0.00075056,0.00097826,0.05080290,0.00014009,-0.00011918,0.00004
 236,-0.00000519,0.00008374,0.00001253,-0.00001182,0.00003716,-0.000012
 93,-0.00006459,0.00000182,-0.00001615,0.00009100,-0.00000951,-0.000149
 74,-0.00025722,-0.00009438,-0.00055932,0.00082668,-0.00004512,0.001175
 48,-0.00571863,-0.00707384,0.02400324,-0.04511359,-0.00712357,0.019875
 01,-0.00240188,0.00345985,0.00222745,0.00056352,0.00001256,-0.00117916
 ,-0.00154463,0.01002426,-0.03114572,-0.00149774,-0.00282716,0.00939928
 ,0.05707247,0.00010631,-0.00019988,0.00008951,0.00004083,0.00005845,-0
 .00003534,-0.00003913,0.00001908,-0.00002496,-0.00005093,0.00001277,-0
 .00000050,0.00005994,0.00007807,-0.00017717,-0.00015318,-0.00006001,0.
 00015190,0.00002404,0.00023150,-0.00001900,0.00215025,0.00690299,-0.01
 935926,-0.00657165,-0.07565852,0.07341142,0.00323245,-0.00126232,-0.00
 198672,-0.00088690,0.00076474,0.00033262,-0.00080145,0.00073387,-0.002
 33762,-0.00225964,-0.00927000,0.02989642,0.00455660,0.07629759,-0.0000
 6917,-0.00013166,-0.00004859,0.00004735,0.00000161,-0.00002048,0.00000
 341,0.00001648,0.00000162,0.00003887,0.00002200,0.00004061,0.00026965,
 0.00031729,-0.00032031,-0.00004807,-0.00016224,0.00063816,0.00003337,-
 0.00004004,-0.00009679,0.00269453,0.00454034,-0.01494435,0.02034622,0.
 07321999,-0.27866403,0.00138968,-0.00232288,-0.00015051,-0.00012272,-0
 .00031711,0.00064327,-0.00044708,0.00487395,-0.01602427,-0.00004820,0.
 00031550,0.00047530,-0.02184926,-0.07904780,0.30620959,0.00000083,0.00
 053803,0.00002446,0.00005013,-0.00009925,0.00000164,-0.00001426,-0.000
 06730,0.00001767,0.00000412,-0.00005912,-0.00005428,-0.00071859,-0.000
 64461,0.00082578,0.00131526,0.00047472,-0.00054169,-0.00176195,0.00006
 447,-0.00043506,-0.00356728,-0.00063515,-0.00221233,-0.02932723,0.0196
 7299,0.01398501,-0.00005024,0.00014199,0.00011222,-0.00004673,0.000230
 91,0.00016104,-0.12548088,0.04211334,0.03722854,0.00174468,0.00053592,
 0.00093191,0.00206090,-0.00007217,0.00107395,0.53230436,-0.00001613,0.
 00036544,0.00002437,0.00004112,-0.00004494,0.00000926,-0.00000935,-0.0
 0004580,0.00001271,-0.00000628,-0.00003093,-0.00004670,-0.00040957,-0.
 00043084,0.00051984,0.00095896,0.00033838,-0.00020487,-0.00123025,-0.0
 0011461,-0.00074377,0.00046539,-0.00007740,0.00013662,0.00070655,0.000
 42873,0.00070548,0.00014397,0.00001328,-0.00001005,0.00007293,0.000361
 75,0.00008177,0.04307607,-0.11795296,-0.03176366,-0.00145981,0.0008606
 7,0.00012325,-0.00017205,-0.00015390,-0.00018332,0.03836203,0.53764853
 ,0.00003426,0.00059823,0.00005709,0.00005842,-0.00010100,-0.00002948,-
 0.00003439,-0.00007171,0.00001846,0.00000421,-0.00006802,-0.00006634,-
 0.00084209,-0.00073603,0.00093468,0.00174769,0.00063600,-0.00043117,-0
 .00233088,-0.00036377,-0.00090883,-0.00084784,-0.00027757,-0.00069331,
 -0.01070029,0.00832876,0.00660929,-0.00005534,0.00003322,0.00042035,0.
 00011145,0.00009578,0.00010287,0.03851683,-0.03220514,-0.10744137,0.00
 017898,0.00030315,0.00014244,-0.00090341,0.00044749,0.00087529,0.03524
 445,-0.02735025,0.54876098,0.00017427,-0.00026195,0.00007705,-0.000067
 06,0.00005411,-0.00007382,-0.00004069,0.00003542,-0.00000689,-0.000005
 85,0.00002073,0.00000640,0.00010604,0.00024350,-0.00021213,-0.00020816
 ,0.00008001,0.00028393,0.00022825,-0.00003060,-0.00011725,0.00165662,-
 0.00178242,-0.00026176,-0.01340591,-0.02883674,0.00008654,-0.00011025,
 0.00008402,0.00000828,-0.00026700,0.00076240,0.00012428,-0.07038321,-0
 .07553175,0.00059134,-0.00540682,0.00008349,-0.00288275,0.00145849,0.0
 0053555,0.00025251,0.00627575,0.02424028,0.00036019,0.08231055,0.00007
 125,0.00000340,0.00002128,-0.00001820,-0.00001256,-0.00001371,-0.00000
 729,-0.00000138,0.00000271,-0.00000224,-0.00000287,-0.00000556,-0.0001
 5123,-0.00003715,0.00011942,0.00038168,0.00010549,0.00005167,-0.000426
 65,0.00003821,-0.00027266,0.00085999,0.00088114,0.00017502,-0.00088706
 ,-0.00166463,-0.00032453,-0.00000273,0.00000839,-0.00000479,-0.0005035
 8,0.00029923,0.00020956,-0.07521832,-0.28124243,0.00213974,0.00022467,
 0.00137043,-0.00045840,-0.00014596,0.00042821,-0.00045298,-0.00504337,
 -0.01820753,0.00003319,0.08060191,0.30691886,0.00004526,-0.00005936,0.
 00002783,-0.00002111,0.00001263,-0.00003834,-0.00001850,0.00001091,-0.
 00000298,0.00000581,0.00000018,0.00000249,0.00001304,0.00004879,-0.000
 02836,-0.00006604,0.00003393,0.00004180,0.00010273,-0.00005179,-0.0000
 7842,0.00088208,0.00000694,-0.00006257,-0.00618285,-0.01450205,-0.0006
 1337,-0.00001415,0.00010653,0.00000993,-0.00005511,0.00021243,0.000222
 20,0.00112606,0.00295837,-0.05030094,-0.00296144,-0.00061604,-0.000518
 88,0.00071443,-0.00046361,0.00043737,-0.00459454,-0.01671645,-0.000365
 46,-0.00013337,0.00022499,0.05125226,-0.00004777,-0.00003245,-0.000014
 99,0.00001915,0.00001080,-0.00001843,-0.00000319,0.00000311,0.00000197
 ,0.00002463,0.00000694,0.00001292,0.00009391,0.00010742,-0.00014563,-0
 .00016608,-0.00009489,0.00029363,0.00026597,-0.00012264,-0.00003329,0.
 00198128,-0.00043482,-0.00137812,-0.00138583,0.01052420,-0.03020029,-0
 .00029074,-0.00003759,0.00054433,-0.00013015,0.00003754,0.00005295,-0.
 04802846,-0.00704081,0.01831364,0.00143396,-0.00015811,0.00078301,-0.0
 0559723,-0.00015777,-0.00288751,-0.00299117,-0.00659795,0.02321986,-0.
 00113731,-0.00291149,0.01001355,0.05734044,-0.00004300,0.00005408,-0.0
 0001351,0.00000881,-0.00000671,0.00001322,0.00001036,-0.00000435,0.000
 00213,0.00000398,-0.00000539,-0.00000234,0.00001002,-0.00003879,0.0000
 1998,-0.00006924,-0.00001944,-0.00007700,0.00011611,-0.00000792,-0.000
 00884,-0.00013155,-0.00008929,0.00040356,0.00019775,0.00023136,-0.0025
 4794,0.00020240,0.00008266,-0.00003043,-0.00000721,-0.00003434,0.00008
 571,-0.00687974,-0.07350525,0.07392149,0.00050776,0.00044250,-0.000466
 23,-0.00020337,0.00106133,-0.00077424,0.00241300,0.00550974,-0.0203740
 6,-0.00198764,-0.00956546,0.03030982,0.00438601,0.07602295,-0.00003513
 ,0.00011445,-0.00000929,0.00002440,-0.00002055,-0.00003309,-0.00001619
 ,-0.00001183,0.00000475,0.00002806,-0.00001335,0.00000227,-0.00009506,
 -0.00009194,0.00013802,0.00037194,0.00011840,0.00008132,-0.00048086,-0
 .00022169,-0.00015905,0.00133480,-0.00053659,0.00076877,-0.00078358,0.
 00462371,-0.01446658,-0.00063781,0.00034630,0.00039646,-0.00007690,0.0
 0001202,0.00002258,0.01844593,0.07296740,-0.28006700,0.00020323,-0.000
 46214,0.00041893,-0.00272777,-0.00067381,-0.00004005,0.00163058,0.0044
 6790,-0.01483788,0.00025481,0.00053435,0.00005510,-0.01945049,-0.07870
 603,0.30675421,0.00005807,0.00027291,0.00003230,0.00001801,-0.00003984
 ,-0.00002408,-0.00002471,-0.00003186,0.00001162,0.00000160,-0.00003290
 ,-0.00003467,-0.00040022,-0.00033691,0.00046089,0.00073816,0.00027150,
 -0.00028307,-0.00092752,-0.00005768,-0.00031341,-0.00020015,-0.0001921
 3,-0.00055875,-0.00204767,0.00336193,0.00349568,-0.00007695,0.00001497
 ,0.00006394,-0.00006414,0.00010299,0.00004924,-0.01867002,-0.00247478,
 -0.01011970,0.00046624,0.00003318,0.00014390,0.00031050,-0.00000390,0.
 00001052,-0.25981010,-0.01643852,-0.10552288,0.00087885,0.00028081,-0.
 00026741,0.00050213,-0.00066798,0.00031652,0.28348968,0.00000045,-0.00
 022052,-0.00001653,-0.00001956,0.00003353,-0.00000369,0.00000531,0.000
 02798,-0.00000635,0.00000356,0.00002233,0.00002640,0.00028334,0.000264
 71,-0.00032343,-0.00055952,-0.00019625,0.00017866,0.00072586,0.0000564
 2,0.00027421,0.00045904,0.00058039,0.00010029,0.00245256,-0.00230668,-
 0.00223541,0.00001300,-0.00006568,-0.00007169,-0.00008330,-0.00000990,
 0.00004519,0.01792141,0.00064923,0.00975237,0.00030954,0.00034961,-0.0
 0003684,-0.00035904,-0.00004630,-0.00027125,-0.01699593,-0.04879559,-0
 .00782358,-0.00053944,0.00044428,0.00074049,-0.00076350,0.00060957,0.0
 0012719,0.01592382,0.04990011,0.00000310,-0.00015781,-0.00001433,-0.00
 001668,0.00002860,-0.00000088,0.00000388,0.00002050,-0.00000283,0.0000
 0379,0.00001622,0.00001758,0.00020393,0.00019198,-0.00023724,-0.000427
 96,-0.00015637,0.00012873,0.00058041,0.00005862,0.00022303,0.00026536,
 -0.00014871,0.00054405,0.00233899,-0.00190094,-0.00135853,-0.00008741,
 0.00006693,-0.00000450,-0.00003976,-0.00002577,-0.00005478,0.01656148,
 0.00164539,0.00736027,-0.00014041,-0.00002670,-0.00019615,0.00018247,-
 0.00024069,0.00036699,-0.10623864,-0.00760263,-0.10006269,-0.00071778,
 0.00051033,0.00047389,-0.00043941,0.00072696,0.00067606,0.11464465,0.0
 1015990,0.10569240,-0.00004189,0.00000609,-0.00001430,0.00000735,-0.00
 000247,0.00001541,0.00001082,-0.00000170,-0.00000132,0.00000076,0.0000
 0079,0.00000309,0.00003905,0.00000360,-0.00002765,-0.00005710,-0.00004
 176,-0.00000262,0.00006686,0.00000300,0.00004626,-0.00003937,-0.000014
 43,0.00011025,0.00210680,0.00094896,-0.00001064,0.00003664,-0.00000819
 ,-0.00000262,-0.00002850,-0.00017953,-0.00006664,0.00573919,0.02351206
 ,-0.00066920,-0.00018336,-0.00054276,0.00005490,-0.00008729,-0.0000293
 4,-0.00007070,-0.06999703,-0.07408841,0.00026198,-0.00285518,0.0031885
 3,0.00230041,0.00086913,-0.00087030,-0.00057069,-0.00799391,-0.0284988
 7,0.00165612,0.07417569,0.00003570,-0.00015358,-0.00000283,-0.00001928
 ,0.00001538,-0.00001294,-0.00000130,0.00001808,-0.00000254,0.00000318,
 0.00001322,0.00001726,0.00012069,0.00016627,-0.00016860,-0.00025059,-0
 .00006749,0.00012047,0.00029429,0.00003287,0.00012068,-0.00003837,0.00
 051519,-0.00017419,-0.00121269,0.00049765,0.00038185,-0.00000832,-0.00
 002680,-0.00001329,-0.00019718,0.00016486,0.00010351,-0.00521188,-0.01
 918812,-0.00006840,0.00103288,0.00039846,0.00025633,0.00004847,-0.0000
 5534,-0.00001266,-0.07301199,-0.28791667,0.00320781,0.00313670,-0.0006
 3813,-0.00239499,-0.00010558,0.00086616,-0.00026560,-0.00041126,-0.001
 14395,0.00005344,0.07846326,0.31530199,0.00000937,-0.00002919,0.000008
 34,-0.00000518,0.00000369,0.00001224,0.00000691,0.00000164,-0.00000280
 ,-0.00001147,0.00000563,-0.00000227,0.00003056,0.00002991,-0.00004946,
 -0.00004115,-0.00002665,0.00002355,0.00003970,0.00003708,0.00003116,-0
 .00016641,0.00007117,-0.00010093,-0.00071762,0.00056909,0.00013144,0.0
 0001663,-0.00001842,-0.00003048,-0.00002307,0.00006041,-0.00000285,-0.
 00493511,-0.01747727,-0.00044628,0.00016545,0.00027279,0.00031047,0.00
 009087,0.00011609,0.00000327,0.00045128,0.00363373,-0.04827643,0.00276
 469,-0.00216574,-0.00093247,-0.00087272,0.00015673,0.00036801,-0.00374
 979,-0.01487969,-0.00042915,-0.00277292,-0.00102306,0.04864921,0.00000
 320,-0.00000659,0.00000461,-0.00000244,0.00000018,0.00000981,0.0000053
 5,0.00000046,-0.00000230,-0.00000930,0.00000120,-0.00000299,0.00000711
 ,-0.00000309,-0.00000241,-0.00000587,-0.00000415,-0.00004016,-0.000003
 02,0.00002089,0.00000377,0.00002557,0.00017561,-0.00016283,0.00154689,
 -0.00102957,0.00127180,0.00009661,-0.00006026,-0.00019136,0.00004083,-
 0.00002352,0.00001384,-0.00352393,-0.00708976,0.02239021,-0.00008732,-
 0.00002855,-0.00001711,-0.00022384,0.00032008,-0.00061734,-0.04999056,
 -0.00763897,0.02149877,0.00079862,-0.00029070,-0.00088886,-0.00275264,
 0.00300383,0.00226421,0.00375213,0.00972125,-0.02833614,-0.00176866,-0
 .00266670,0.00971999,0.05209127,0.00001043,0.00000060,0.00001065,-0.00
 000172,-0.00000274,0.00000143,0.00000101,-0.00000090,-0.00000192,-0.00
 000596,-0.00000043,-0.00000251,-0.00001341,-0.00000428,-0.00000353,0.0
 0003492,0.00000088,0.00000583,-0.00005298,-0.00000066,0.00001354,-0.00
 013620,-0.00003536,-0.00007701,-0.00105914,0.00046967,-0.00023602,-0.0
 0001644,-0.00002638,0.00008170,-0.00000048,-0.00002118,-0.00002068,0.0
 0250848,0.00587886,-0.02052943,0.00005178,-0.00003489,0.00015616,-0.00
 005127,0.00011767,0.00040904,-0.00791851,-0.07175534,0.07568750,-0.000
 90755,0.00087450,0.00013828,0.00338158,-0.00160340,-0.00230821,0.00042
 564,-0.00015331,-0.00321926,-0.00184853,-0.00880003,0.03066207,0.00559
 835,0.07509670,-0.00003163,-0.00006343,-0.00002072,0.00000360,0.000009
 01,-0.00000058,0.00000222,0.00000778,-0.00000235,0.00000890,0.00000730
 ,0.00001506,0.00011942,0.00009211,-0.00012677,-0.00020710,-0.00008470,
 0.00010227,0.00024636,0.00003733,0.00011024,-0.00026799,-0.00020366,0.
 00038535,-0.00086983,0.00044253,0.00074236,-0.00020048,0.00010862,0.00
 007112,0.00000210,-0.00001319,-0.00004054,0.00164413,0.00446165,-0.016
 24889,0.00005132,-0.00004022,-0.00001597,0.00082034,-0.00007896,0.0006
 1792,0.02238802,0.07490677,-0.28480849,-0.00040426,-0.00032389,0.00041
 891,0.00220502,-0.00263897,-0.00007355,0.00164450,0.00426379,-0.013121
 91,-0.00023912,-0.00012224,0.00073542,-0.02691552,-0.08076762,0.311261
 11\\-0.00000007,0.00000061,-0.00000018,-0.00000051,-0.00000018,-0.0000
 0010,0.00000005,0.00000009,0.00000011,-0.00000004,-0.00000017,0.000000
 06,0.00000181,0.00000071,-0.00000196,-0.00000123,-0.00000182,0.0000029
 3,-0.00000090,-0.00000050,-0.00000083,0.00000107,0.00000051,0.00000045
 ,-0.00000022,0.00000001,-0.00000026,0.00000053,0.00000058,0.00000001,-
 0.00000050,-0.00000001,-0.00000023,-0.00000002,-0.00000005,0.00000024,
 -0.00000014,0.00000002,-0.00000019,0.00000019,0.00000006,0.00000004,-0
 .00000004,0.,-0.00000006,-0.00000002,0.00000003,-0.00000006,0.00000004
 ,0.00000007,-0.00000002,-0.00000003,0.00000005,0.,0.00000002,0.0000000
 2,0.00000005,0.,-0.00000003,0.\\\@


 LOVE IS BLIND, THAT'S WHY ALL THE WORLD LOVES A LOUVER.
 Job cpu time:       4 days  3 hours 53 minutes 30.3 seconds.
 Elapsed time:       0 days  2 hours 31 minutes 42.8 seconds.
 File lengths (MBytes):  RWF= 138775 Int=      0 D2E=      0 Chk=     25 Scr=      1
 Normal termination of Gaussian 16 at Sat Jun  8 01:03:12 2019.
