 Entering Gaussian System, Link 0=g16
 Initial command:
 /ichec/packages/gaussian/16b01/l1.exe "/localscratch/353444/Gau-87805.inp" -scrdir="/localscratch/353444/"
 Entering Link 1 = /ichec/packages/gaussian/16b01/l1.exe PID=     88316.
  
 Copyright (c) 1988-2017, Gaussian, Inc.  All Rights Reserved.
  
 This is part of the Gaussian(R) 16 program.  It is based on
 the Gaussian(R) 09 system (copyright 2009, Gaussian, Inc.),
 the Gaussian(R) 03 system (copyright 2003, Gaussian, Inc.),
 the Gaussian(R) 98 system (copyright 1998, Gaussian, Inc.),
 the Gaussian(R) 94 system (copyright 1995, Gaussian, Inc.),
 the Gaussian 92(TM) system (copyright 1992, Gaussian, Inc.),
 the Gaussian 90(TM) system (copyright 1990, Gaussian, Inc.),
 the Gaussian 88(TM) system (copyright 1988, Gaussian, Inc.),
 the Gaussian 86(TM) system (copyright 1986, Carnegie Mellon
 University), and the Gaussian 82(TM) system (copyright 1983,
 Carnegie Mellon University). Gaussian is a federally registered
 trademark of Gaussian, Inc.
  
 This software contains proprietary and confidential information,
 including trade secrets, belonging to Gaussian, Inc.
  
 This software is provided under written license and may be
 used, copied, transmitted, or stored only in accord with that
 written license.
  
 The following legend is applicable only to US Government
 contracts under FAR:
  
                    RESTRICTED RIGHTS LEGEND
  
 Use, reproduction and disclosure by the US Government is
 subject to restrictions as set forth in subparagraphs (a)
 and (c) of the Commercial Computer Software - Restricted
 Rights clause in FAR 52.227-19.
  
 Gaussian, Inc.
 340 Quinnipiac St., Bldg. 40, Wallingford CT 06492
  
  
 ---------------------------------------------------------------
 Warning -- This program may not be used in any manner that
 competes with the business of Gaussian, Inc. or will provide
 assistance to any competitor of Gaussian, Inc.  The licensee
 of this program is prohibited from giving any competitor of
 Gaussian, Inc. access to this program.  By using this program,
 the user acknowledges that Gaussian, Inc. is engaged in the
 business of creating and licensing software in the field of
 computational chemistry and represents and warrants to the
 licensee that it is not a competitor of Gaussian, Inc. and that
 it will not use this program in any manner prohibited above.
 ---------------------------------------------------------------
  

 Cite this work as:
 Gaussian 16, Revision B.01,
 M. J. Frisch, G. W. Trucks, H. B. Schlegel, G. E. Scuseria, 
 M. A. Robb, J. R. Cheeseman, G. Scalmani, V. Barone, 
 G. A. Petersson, H. Nakatsuji, X. Li, M. Caricato, A. V. Marenich, 
 J. Bloino, B. G. Janesko, R. Gomperts, B. Mennucci, H. P. Hratchian, 
 J. V. Ortiz, A. F. Izmaylov, J. L. Sonnenberg, D. Williams-Young, 
 F. Ding, F. Lipparini, F. Egidi, J. Goings, B. Peng, A. Petrone, 
 T. Henderson, D. Ranasinghe, V. G. Zakrzewski, J. Gao, N. Rega, 
 G. Zheng, W. Liang, M. Hada, M. Ehara, K. Toyota, R. Fukuda, 
 J. Hasegawa, M. Ishida, T. Nakajima, Y. Honda, O. Kitao, H. Nakai, 
 T. Vreven, K. Throssell, J. A. Montgomery, Jr., J. E. Peralta, 
 F. Ogliaro, M. J. Bearpark, J. J. Heyd, E. N. Brothers, K. N. Kudin, 
 V. N. Staroverov, T. A. Keith, R. Kobayashi, J. Normand, 
 K. Raghavachari, A. P. Rendell, J. C. Burant, S. S. Iyengar, 
 J. Tomasi, M. Cossi, J. M. Millam, M. Klene, C. Adamo, R. Cammi, 
 J. W. Ochterski, R. L. Martin, K. Morokuma, O. Farkas, 
 J. B. Foresman, and D. J. Fox, Gaussian, Inc., Wallingford CT, 2016.
 
 ******************************************
 Gaussian 16:  ES64L-G16RevB.01 20-Dec-2017
                25-Jun-2019 
 ******************************************
 %mem=80GB
 %nproc=40
 Will use up to   40 processors via shared memory.
 ----------------------------------------------------------------------
 # opt=(calcfc,ts,noeigentest,maxcyc=500) freq=noraman uB2PLYPD3/cc-pvt
 z
 ----------------------------------------------------------------------
 1/5=1,6=500,10=4,11=1,18=20,38=1/1,3;
 2/9=110,12=2,17=6,18=5,40=1/2;
 3/5=16,6=1,11=2,25=1,30=1,71=2,74=-60,116=2,140=1/1,2,3;
 4//1;
 5/5=2,38=5/2;
 8/6=3,8=1,10=1,19=11,30=-1/1;
 9/15=3,16=-3/6;
 11/6=1,8=1,15=11,17=12,24=-1,27=1,28=-2,29=300,32=6,42=3/1,2,10;
 10/6=2,21=1/2;
 8/6=4,8=1,10=1,19=11,30=-1/11,4;
 10/5=1,20=4/2;
 11/12=2,14=11,16=1,17=2,28=-2,42=3,76=2/2,10,12;
 6/7=2,8=2,9=2,10=2/1;
 7/10=1,12=2,25=1,44=2/1,2,3,16;
 1/5=1,6=500,10=4,11=1,18=20/3(2);
 2/9=110/2;
 99//99;
 2/9=110/2;
 3/5=16,6=1,11=2,25=1,30=1,71=1,74=-60,116=2/1,2,3;
 4/5=5,16=3,69=1/1;
 5/5=2,38=5/2;
 8/6=4,10=1/1;
 9/15=2,16=-3/6;
 10/5=1/2;
 7/12=2/1,2,3,16;
 1/5=1,6=500,11=1,18=20/3(-8);
 2/9=110/2;
 6/7=2,8=2,9=2,10=2/1;
 99/9=10/99;
 -------------------
 Title Card Required
 -------------------
 Symbolic Z-matrix:
 Charge =  0 Multiplicity = 2
 C                     1.66376  -0.78068  -0.44228 
 H                     1.88144  -1.55175   0.2959 
 H                     0.90243  -1.16626  -1.1179 
 C                     1.22046   0.49088   0.22551 
 H                     0.88401   1.26134  -0.46614 
 C                    -2.40776  -0.3328   -0.3556 
 H                    -1.87812   0.42135  -0.94031 
 H                    -2.89617  -1.04169  -1.02123 
 H                    -3.14249   0.14881   0.2874 
 O                    -1.49897  -1.10585   0.4145 
 O                    -0.90414  -0.2511    1.3624 
 H                     0.07766   0.14254   0.82149 
 H                     2.57477  -0.61143  -1.02554 
 C                     2.07932   1.01067   1.34591 
 H                     1.63128   1.87627   1.8306 
 H                     2.24353   0.24131   2.09994 
 H                     3.06092   1.31415   0.96779 
 
 Add virtual bond connecting atoms H12        and O11        Dist= 2.25D+00.
 Add virtual bond connecting atoms H12        and C4         Dist= 2.52D+00.

 GradGradGradGradGradGradGradGradGradGradGradGradGradGradGradGradGradGrad
 Berny optimization.
 Initialization pass.
                           ----------------------------
                           !    Initial Parameters    !
                           ! (Angstroms and Degrees)  !
 --------------------------                            --------------------------
 ! Name  Definition              Value          Derivative Info.                !
 --------------------------------------------------------------------------------
 ! R1    R(1,2)                  1.0894         calculate D2E/DX2 analytically  !
 ! R2    R(1,3)                  1.0885         calculate D2E/DX2 analytically  !
 ! R3    R(1,4)                  1.5031         calculate D2E/DX2 analytically  !
 ! R4    R(1,13)                 1.0949         calculate D2E/DX2 analytically  !
 ! R5    R(4,5)                  1.0887         calculate D2E/DX2 analytically  !
 ! R6    R(4,12)                 1.3351         calculate D2E/DX2 analytically  !
 ! R7    R(4,14)                 1.5044         calculate D2E/DX2 analytically  !
 ! R8    R(6,7)                  1.0914         calculate D2E/DX2 analytically  !
 ! R9    R(6,8)                  1.0882         calculate D2E/DX2 analytically  !
 ! R10   R(6,9)                  1.0887         calculate D2E/DX2 analytically  !
 ! R11   R(6,10)                 1.4201         calculate D2E/DX2 analytically  !
 ! R12   R(10,11)                1.4082         calculate D2E/DX2 analytically  !
 ! R13   R(11,12)                1.1881         calculate D2E/DX2 analytically  !
 ! R14   R(14,15)                1.0886         calculate D2E/DX2 analytically  !
 ! R15   R(14,16)                1.0897         calculate D2E/DX2 analytically  !
 ! R16   R(14,17)                1.0948         calculate D2E/DX2 analytically  !
 ! A1    A(2,1,3)              108.0362         calculate D2E/DX2 analytically  !
 ! A2    A(2,1,4)              110.8945         calculate D2E/DX2 analytically  !
 ! A3    A(2,1,13)             107.705          calculate D2E/DX2 analytically  !
 ! A4    A(3,1,4)              111.6635         calculate D2E/DX2 analytically  !
 ! A5    A(3,1,13)             107.8231         calculate D2E/DX2 analytically  !
 ! A6    A(4,1,13)             110.5664         calculate D2E/DX2 analytically  !
 ! A7    A(1,4,5)              114.0533         calculate D2E/DX2 analytically  !
 ! A8    A(1,4,12)             103.2994         calculate D2E/DX2 analytically  !
 ! A9    A(1,4,14)             117.052          calculate D2E/DX2 analytically  !
 ! A10   A(5,4,12)             101.7541         calculate D2E/DX2 analytically  !
 ! A11   A(5,4,14)             113.8963         calculate D2E/DX2 analytically  !
 ! A12   A(12,4,14)            104.2625         calculate D2E/DX2 analytically  !
 ! A13   A(7,6,8)              109.8921         calculate D2E/DX2 analytically  !
 ! A14   A(7,6,9)              109.771          calculate D2E/DX2 analytically  !
 ! A15   A(7,6,10)             110.8628         calculate D2E/DX2 analytically  !
 ! A16   A(8,6,9)              110.2769         calculate D2E/DX2 analytically  !
 ! A17   A(8,6,10)             105.3263         calculate D2E/DX2 analytically  !
 ! A18   A(9,6,10)             110.6359         calculate D2E/DX2 analytically  !
 ! A19   A(6,10,11)            107.7548         calculate D2E/DX2 analytically  !
 ! A20   A(10,11,12)           104.106          calculate D2E/DX2 analytically  !
 ! A21   A(4,14,15)            111.8015         calculate D2E/DX2 analytically  !
 ! A22   A(4,14,16)            110.943          calculate D2E/DX2 analytically  !
 ! A23   A(4,14,17)            110.5138         calculate D2E/DX2 analytically  !
 ! A24   A(15,14,16)           108.3816         calculate D2E/DX2 analytically  !
 ! A25   A(15,14,17)           107.6007         calculate D2E/DX2 analytically  !
 ! A26   A(16,14,17)           107.4327         calculate D2E/DX2 analytically  !
 ! A27   L(4,12,11,7,-1)       182.1066         calculate D2E/DX2 analytically  !
 ! A28   L(4,12,11,7,-2)       175.9552         calculate D2E/DX2 analytically  !
 ! D1    D(2,1,4,5)           -173.5855         calculate D2E/DX2 analytically  !
 ! D2    D(2,1,4,12)           -64.0289         calculate D2E/DX2 analytically  !
 ! D3    D(2,1,4,14)            49.8599         calculate D2E/DX2 analytically  !
 ! D4    D(3,1,4,5)            -53.0391         calculate D2E/DX2 analytically  !
 ! D5    D(3,1,4,12)            56.5175         calculate D2E/DX2 analytically  !
 ! D6    D(3,1,4,14)           170.4063         calculate D2E/DX2 analytically  !
 ! D7    D(13,1,4,5)            67.0136         calculate D2E/DX2 analytically  !
 ! D8    D(13,1,4,12)          176.5702         calculate D2E/DX2 analytically  !
 ! D9    D(13,1,4,14)          -69.541          calculate D2E/DX2 analytically  !
 ! D10   D(1,4,11,10)          -39.6358         calculate D2E/DX2 analytically  !
 ! D11   D(5,4,11,10)           78.8581         calculate D2E/DX2 analytically  !
 ! D12   D(14,4,11,10)        -161.7081         calculate D2E/DX2 analytically  !
 ! D13   D(1,4,14,15)         -174.4336         calculate D2E/DX2 analytically  !
 ! D14   D(1,4,14,16)          -53.319          calculate D2E/DX2 analytically  !
 ! D15   D(1,4,14,17)           65.7389         calculate D2E/DX2 analytically  !
 ! D16   D(5,4,14,15)           48.9457         calculate D2E/DX2 analytically  !
 ! D17   D(5,4,14,16)          170.0603         calculate D2E/DX2 analytically  !
 ! D18   D(5,4,14,17)          -70.8817         calculate D2E/DX2 analytically  !
 ! D19   D(12,4,14,15)         -61.085          calculate D2E/DX2 analytically  !
 ! D20   D(12,4,14,16)          60.0296         calculate D2E/DX2 analytically  !
 ! D21   D(12,4,14,17)         179.0876         calculate D2E/DX2 analytically  !
 ! D22   D(7,6,10,11)           65.2637         calculate D2E/DX2 analytically  !
 ! D23   D(8,6,10,11)         -175.9202         calculate D2E/DX2 analytically  !
 ! D24   D(9,6,10,11)          -56.7647         calculate D2E/DX2 analytically  !
 ! D25   D(6,10,11,12)         -91.6919         calculate D2E/DX2 analytically  !
 --------------------------------------------------------------------------------
 Trust Radius=3.00D-01 FncErr=1.00D-07 GrdErr=1.00D-07 EigMax=2.50D+02 EigMin=1.00D-04
 Number of steps in this run=    102 maximum allowed number of steps=    102.
 Search for a saddle point of order  1.
 GradGradGradGradGradGradGradGradGradGradGradGradGradGradGradGradGradGrad

                          Input orientation:                          
 ---------------------------------------------------------------------
 Center     Atomic      Atomic             Coordinates (Angstroms)
 Number     Number       Type             X           Y           Z
 ---------------------------------------------------------------------
      1          6           0        1.663760   -0.780675   -0.442278
      2          1           0        1.881444   -1.551748    0.295904
      3          1           0        0.902427   -1.166260   -1.117902
      4          6           0        1.220464    0.490882    0.225505
      5          1           0        0.884005    1.261340   -0.466144
      6          6           0       -2.407762   -0.332795   -0.355604
      7          1           0       -1.878122    0.421349   -0.940313
      8          1           0       -2.896166   -1.041692   -1.021231
      9          1           0       -3.142494    0.148807    0.287395
     10          8           0       -1.498970   -1.105850    0.414496
     11          8           0       -0.904137   -0.251101    1.362403
     12          1           0        0.077663    0.142535    0.821492
     13          1           0        2.574766   -0.611425   -1.025544
     14          6           0        2.079320    1.010667    1.345906
     15          1           0        1.631281    1.876274    1.830603
     16          1           0        2.243533    0.241306    2.099939
     17          1           0        3.060918    1.314153    0.967793
 ---------------------------------------------------------------------
                    Distance matrix (angstroms):
                    1          2          3          4          5
     1  C    0.000000
     2  H    1.089428   0.000000
     3  H    1.088472   1.762363   0.000000
     4  C    1.503098   2.148066   2.156852   0.000000
     5  H    2.185958   3.080433   2.513637   1.088664   0.000000
     6  C    4.096999   4.506395   3.497587   3.765655   3.659128
     7  H    3.773305   4.422181   3.206789   3.311375   2.925708
     8  H    4.603938   4.982024   3.801864   4.566156   4.461140
     9  H    4.949388   5.303953   4.479469   4.376785   4.244790
    10  O    3.292820   3.411757   2.849316   3.159207   3.472418
    11  O    3.182989   3.254007   3.202047   2.521310   2.971281
    12  H    2.228258   2.529914   2.480812   1.335118   1.886775
    13  H    1.094887   1.763839   1.764395   2.148101   2.584347
    14  C    2.564995   2.776262   3.492054   1.504363   2.185209
    15  H    3.496630   3.764202   4.299061   2.159727   2.492311
    16  H    2.800616   2.569181   3.759562   2.149991   3.077916
    17  H    2.885941   3.171117   3.893797   2.148497   2.607281
                    6          7          8          9         10
     6  C    0.000000
     7  H    1.091392   0.000000
     8  H    1.088179   1.784223   0.000000
     9  H    1.088678   1.783307   1.786188   0.000000
    10  O    1.420060   2.076439   2.004391   2.071591   0.000000
    11  O    2.284537   2.589080   3.205452   2.515116   1.408173
    12  H    2.790848   2.647034   3.693465   3.264155   2.051800
    13  H    5.035081   4.571881   5.487827   5.915135   4.348965
    14  C    4.983365   4.608193   5.879709   5.397276   4.260438
    15  H    5.096406   4.702201   6.094691   5.306087   4.549384
    16  H    5.290919   5.124801   6.148519   5.683587   4.319939
    17  H    5.862617   5.369552   6.707688   6.348487   5.191833
                   11         12         13         14         15
    11  O    0.000000
    12  H    1.188051   0.000000
    13  H    4.234960   3.196173   0.000000
    14  C    3.239343   2.243946   2.915549   0.000000
    15  H    3.342646   2.537299   3.903381   1.088552   0.000000
    16  H    3.270206   2.516977   3.256610   1.089701   1.766498
    17  H    4.281051   3.208411   2.813821   1.094809   1.761898
                   16         17
    16  H    0.000000
    17  H    1.760930   0.000000
 Stoichiometry    C4H11O2(2)
 Framework group  C1[X(C4H11O2)]
 Deg. of freedom    45
 Full point group                 C1      NOp   1
 Largest Abelian subgroup         C1      NOp   1
 Largest concise Abelian subgroup C1      NOp   1
                         Standard orientation:                         
 ---------------------------------------------------------------------
 Center     Atomic      Atomic             Coordinates (Angstroms)
 Number     Number       Type             X           Y           Z
 ---------------------------------------------------------------------
      1          6           0        1.303509    1.428464   -0.228110
      2          1           0        1.419307    1.305079   -1.304317
      3          1           0        0.388935    1.991097   -0.049870
      4          6           0        1.278485    0.094819    0.464759
      5          1           0        1.054572    0.151631    1.528631
      6          6           0       -2.484692    0.106434    0.600845
      7          1           0       -1.866904    0.300997    1.479264
      8          1           0       -3.215501    0.903322    0.478294
      9          1           0       -2.987408   -0.853104    0.709392
     10          8           0       -1.701532    0.129972   -0.583502
     11          8           0       -0.795621   -0.946287   -0.520729
     12          1           0        0.173312   -0.480088   -0.015465
     13          1           0        2.143641    2.032307    0.130119
     14          6           0        2.378023   -0.873799    0.124313
     15          1           0        2.224471   -1.842189    0.597165
     16          1           0        2.444970   -1.024129   -0.952891
     17          1           0        3.345879   -0.489916    0.462685
 ---------------------------------------------------------------------
 Rotational constants (GHZ):           5.5695018           1.5932413           1.4180728
 Standard basis: CC-pVTZ (5D, 7F)
 There are   375 symmetry adapted cartesian basis functions of A   symmetry.
 There are   334 symmetry adapted basis functions of A   symmetry.
   334 basis functions,   499 primitive gaussians,   375 cartesian basis functions
    26 alpha electrons       25 beta electrons
       nuclear repulsion energy       253.9682176643 Hartrees.
 NAtoms=   17 NActive=   17 NUniq=   17 SFac= 1.00D+00 NAtFMM=   60 NAOKFM=F Big=F
 Integral buffers will be    131072 words long.
 Raffenetti 2 integral format.
 Two-electron integral symmetry is turned on.
 Nuclear repulsion after empirical dispersion term =      253.9602266129 Hartrees.
 One-electron integrals computed using PRISM.
 NBasis=   334 RedAO= T EigKep=  8.06D-04  NBF=   334
 NBsUse=   334 1.00D-06 EigRej= -1.00D+00 NBFU=   334
 ExpMin= 1.03D-01 ExpMax= 1.53D+04 ExpMxC= 5.22D+02 IAcc=3 IRadAn=         5 AccDes= 0.00D+00
 Harris functional with IExCor=  419 and IRadAn=       5 diagonalized for initial guess.
 HarFok:  IExCor=  419 AccDes= 0.00D+00 IRadAn=         5 IDoV= 1 UseB2=F ITyADJ=14
 ICtDFT=  3500011 ScaDFX=  1.000000  1.000000  1.000000  1.000000
 FoFCou: FMM=F IPFlag=           0 FMFlag=      100000 FMFlg1=           0
         NFxFlg=           0 DoJE=T BraDBF=F KetDBF=T FulRan=T
         wScrn=  0.000000 ICntrl=       500 IOpCl=  0 I1Cent=   200000004 NGrid=           0
         NMat0=    1 NMatS0=      1 NMatT0=    0 NMatD0=    1 NMtDS0=    0 NMtDT0=    0
 Petite list used in FoFCou.
 Initial guess <Sx>= 0.0000 <Sy>= 0.0000 <Sz>= 0.5000 <S**2>= 0.7500 S= 0.5000
 Requested convergence on RMS density matrix=1.00D-08 within 128 cycles.
 Requested convergence on MAX density matrix=1.00D-06.
 Requested convergence on             energy=1.00D-06.
 No special actions if energy rises.
 Integral accuracy reduced to 1.0D-05 until final iterations.
 Initial convergence to 1.0D-05 achieved.  Increase integral accuracy.
 SCF Done:  E(UB2PLYPD3) =  -308.795472175     A.U. after   19 cycles
            NFock= 19  Conv=0.30D-08     -V/T= 2.0044
 <Sx>= 0.0000 <Sy>= 0.0000 <Sz>= 0.5000 <S**2>= 0.7683 S= 0.5091
 <L.S>=  0.00000000000    
 Annihilation of the first spin contaminant:
 S**2 before annihilation     0.7683,   after     0.7502
 DoSCS=T DFT=T ScalE2(SS,OS)=  0.270000  0.270000
 ExpMin= 1.03D-01 ExpMax= 1.53D+04 ExpMxC= 5.22D+02 IAcc=3 IRadAn=         5 AccDes= 0.00D+00
 HarFok:  IExCor=  205 AccDes= 0.00D+00 IRadAn=         5 IDoV=-2 UseB2=F ITyADJ=14
 ICtDFT= 12500011 ScaDFX=  1.000000  1.000000  1.000000  1.000000
 Range of M.O.s used for correlation:     7   334
 NBasis=   334 NAE=    26 NBE=    25 NFC=     6 NFV=     0
 NROrb=    328 NOA=    20 NOB=    19 NVA=   308 NVB=   309

 **** Warning!!: The largest alpha MO coefficient is  0.12001383D+02


 **** Warning!!: The largest beta MO coefficient is  0.12001299D+02

 DoSCS=T DFT=T ScalE2(SS,OS)=  0.270000  0.270000
 Disk-based method using ON**2 memory for 20 occupieds at a time.
 Permanent disk used for amplitudes=    91502950 words.
 Estimated scratch disk usage=  1810009456 words.
 Actual    scratch disk usage=  1750127472 words.
 JobTyp=2 Pass  1:  I=   7 to  26 NPSUse= 40 ParTrn=T ParDer=T DoDerP=T.
 (rs|ai) integrals will be sorted in core.
 Actual    scratch disk usage=  1750127472 words.
 JobTyp=3 Pass  1:  I=   7 to  25 NPSUse= 40 ParTrn=T ParDer=T DoDerP=T.
 (rs|ai) integrals will be sorted in core.
 Spin components of T(2) and E(2):
     alpha-alpha T2 =       0.6409268984D-01 E2=     -0.4718193121D-01
     alpha-beta  T2 =       0.3975637775D+00 E2=     -0.2995538137D+00
     beta-beta   T2 =       0.6981000783D-01 E2=     -0.4611346464D-01
 (S**2,0)=  0.76833D+00           (S**2,1)=  0.74268D+00
 Scaling Projection term by:   0.270000
 E(PUHF)=      -0.30880167838D+03        E(PMP2)=      -0.30918883054D+03
 E2(B2PLYPD3) =    -0.3928492096D+00 E(B2PLYPD3) =    -0.30918832138490D+03
 G2DrvN: will do    18 centers at a time, making    1 passes.
 Calling FoFCou, ICntrl=  3107 FMM=F I1Cent=   0 AccDes= 0.00D+00.
 End of G2Drv F.D. properties file   721 does not exist.
 End of G2Drv F.D. properties file   722 does not exist.
 End of G2Drv F.D. properties file   788 does not exist.
          IDoAtm=11111111111111111
          Differentiating once with respect to electric field.
                with respect to dipole field.
          Differentiating once with respect to nuclear coordinates.
 Keep R1 and R2 ints in memory in canonical form, NReq=3176104348.
          There are    54 degrees of freedom in the 1st order CPHF.  IDoFFX=6 NUNeed=    54.
     51 vectors produced by pass  0 Test12= 2.91D-14 1.85D-09 XBig12= 7.94D+01 5.37D+00.
 AX will form    51 AO Fock derivatives at one time.
     51 vectors produced by pass  1 Test12= 2.91D-14 1.85D-09 XBig12= 6.54D+00 3.28D-01.
     51 vectors produced by pass  2 Test12= 2.91D-14 1.85D-09 XBig12= 2.54D-01 8.97D-02.
     51 vectors produced by pass  3 Test12= 2.91D-14 1.85D-09 XBig12= 3.93D-03 7.04D-03.
     51 vectors produced by pass  4 Test12= 2.91D-14 1.85D-09 XBig12= 5.82D-05 7.12D-04.
     51 vectors produced by pass  5 Test12= 2.91D-14 1.85D-09 XBig12= 7.86D-07 9.91D-05.
     50 vectors produced by pass  6 Test12= 2.91D-14 1.85D-09 XBig12= 6.46D-09 7.17D-06.
     21 vectors produced by pass  7 Test12= 2.91D-14 1.85D-09 XBig12= 4.13D-11 5.27D-07.
      3 vectors produced by pass  8 Test12= 2.91D-14 1.85D-09 XBig12= 2.95D-13 4.43D-08.
      2 vectors produced by pass  9 Test12= 2.91D-14 1.85D-09 XBig12= 2.41D-15 4.37D-09.
 InvSVY:  IOpt=1 It=  1 EMax= 6.34D-15
 Solved reduced A of dimension   382 with    54 vectors.
 End of Minotr F.D. properties file   721 does not exist.
 End of Minotr F.D. properties file   722 does not exist.
 End of Minotr F.D. properties file   788 does not exist.
 MDV= 10737418240.
 DoSCS=T DFT=T ScalE2(SS,OS)=  0.270000  0.270000
 Form MO integral derivatives with frozen-active canonical formalism.
 Discarding MO integrals.
 Reordered first order wavefunction length =    368623478
 In DefCFB: NBatch=  1 ICI= 26 ICA=309 LFMax= 78
            Large arrays: LIAPS=  7882233000 LIARS=  1476247500 words.
 In DefCFB: NBatch=  1 ICI= 26 ICA=309 LFMax= 78
            Large arrays: LIAPS=  7882233000 LIARS=  1476247500 words.
 Semi-Direct transformation.
 ModeAB=           4 MOrb=            26 LenV=   10734122793
 LASXX=    460751213 LTotXX=   460751213 LenRXX=   928395468
 LTotAB=   467644255 MaxLAS=   557860160 LenRXY=           0
 NonZer=  1389146681 LenScr=  2091891712 LnRSAI=   557860160
 LnScr1=   840072192 LExtra=           0 Total=   4418219532
 MaxDsk=          -1 SrtSym=           T ITran=            4
 JobTyp=1 Pass  1:  I=   1 to  26.
 (rs|ai) integrals will be sorted in core.
 ModeAB=           4 MOrb=            25 LenV=   10734122793
 LASXX=    443915925 LTotXX=   443915925 LenRXX=   826983225
 LTotAB=   383067300 MaxLAS=   536404000 LenRXY=           0
 NonZer=  1270899150 LenScr=  1913825280 LnRSAI=   536404000
 LnScr1=   807761920 LExtra=           0 Total=   4084974425
 MaxDsk=          -1 SrtSym=           T ITran=            4
 JobTyp=2 Pass  1:  I=   1 to  25.
 (rs|ai) integrals will be sorted in core.
 SymMOI:  orbitals are not symmetric.
 DoSCS=T DFT=T ScalE2(SS,OS)=  0.270000  0.270000
 Spin components of T(2) and E(2):
     alpha-alpha T2 =       0.6409268984D-01 E2=     -0.4718193121D-01
     alpha-beta  T2 =       0.3975637775D+00 E2=     -0.2995538137D+00
     beta-beta   T2 =       0.6981000783D-01 E2=     -0.4611346464D-01
 E2(B2PLYPD3) =    -0.3928492096D+00 E(B2PLYPD3) =    -0.30918832138490D+03
 (S**2,0)=  0.76833D+00           (S**2,1)=  0.74268D+00
 Scaling Projection term by:   0.270000
 E(PUHF)=      -0.30880167838D+03        E(PMP2)=      -0.30918883054D+03
          IDoAtm=11111111111111111
          Differentiating once with respect to electric field.
                with respect to dipole field.
          Differentiating once with respect to nuclear coordinates.
 Keep R1 and R2 ints in memory in canonical form, NReq=3176239665.
          There are     1 degrees of freedom in the 1st order CPHF.  IDoFFX=0 NUNeed=     1.
 LinEq1:  Iter=  0 NonCon=     1 RMS=8.70D-04 Max=6.09D-02 NDo=     1
 AX will form     1 AO Fock derivatives at one time.
 LinEq1:  Iter=  1 NonCon=     1 RMS=2.86D-04 Max=9.81D-03 NDo=     1
 LinEq1:  Iter=  2 NonCon=     1 RMS=1.58D-04 Max=7.72D-03 NDo=     1
 LinEq1:  Iter=  3 NonCon=     1 RMS=6.73D-05 Max=1.18D-03 NDo=     1
 LinEq1:  Iter=  4 NonCon=     1 RMS=3.68D-05 Max=7.42D-04 NDo=     1
 LinEq1:  Iter=  5 NonCon=     1 RMS=2.74D-05 Max=7.90D-04 NDo=     1
 LinEq1:  Iter=  6 NonCon=     1 RMS=1.70D-05 Max=5.48D-04 NDo=     1
 LinEq1:  Iter=  7 NonCon=     1 RMS=5.58D-06 Max=8.43D-05 NDo=     1
 LinEq1:  Iter=  8 NonCon=     1 RMS=2.28D-06 Max=3.22D-05 NDo=     1
 LinEq1:  Iter=  9 NonCon=     1 RMS=9.93D-07 Max=1.47D-05 NDo=     1
 LinEq1:  Iter= 10 NonCon=     1 RMS=3.81D-07 Max=6.30D-06 NDo=     1
 LinEq1:  Iter= 11 NonCon=     1 RMS=1.39D-07 Max=2.65D-06 NDo=     1
 LinEq1:  Iter= 12 NonCon=     1 RMS=4.41D-08 Max=1.15D-06 NDo=     1
 LinEq1:  Iter= 13 NonCon=     1 RMS=2.01D-08 Max=4.18D-07 NDo=     1
 LinEq1:  Iter= 14 NonCon=     1 RMS=7.73D-09 Max=2.58D-07 NDo=     1
 LinEq1:  Iter= 15 NonCon=     1 RMS=2.34D-09 Max=9.79D-08 NDo=     1
 LinEq1:  Iter= 16 NonCon=     1 RMS=8.65D-10 Max=4.48D-08 NDo=     1
 LinEq1:  Iter= 17 NonCon=     1 RMS=3.42D-10 Max=1.80D-08 NDo=     1
 LinEq1:  Iter= 18 NonCon=     1 RMS=1.39D-10 Max=5.55D-09 NDo=     1
 LinEq1:  Iter= 19 NonCon=     1 RMS=6.57D-11 Max=1.75D-09 NDo=     1
 LinEq1:  Iter= 20 NonCon=     0 RMS=2.35D-11 Max=4.16D-10 NDo=     1
 Linear equations converged to 1.000D-10 1.000D-09 after    20 iterations.
 End of Minotr F.D. properties file   721 does not exist.
 End of Minotr F.D. properties file   722 does not exist.
 End of Minotr F.D. properties file   788 does not exist.
 Symmetrizing basis deriv contribution to polar:
 IMax=3 JMax=2 DiffMx= 0.00D+00
 G2DrvN: will do    18 centers at a time, making    1 passes.
 Calling FoFCou, ICntrl=  3107 FMM=F I1Cent=   0 AccDes= 0.00D+00.
 End of G2Drv F.D. properties file   721 does not exist.
 End of G2Drv F.D. properties file   722 does not exist.
 End of G2Drv F.D. properties file   788 does not exist.
 DoSCS=T DFT=T ScalE2(SS,OS)=  0.270000  0.270000
 R2 and R3 integrals will be kept in memory, NReq=  4996899000.
 DD1Dir will call FoFMem   1 times, MxPair=      1926
 NAB=   650 NAA=   325 NBB=   300.
 Discarding MO integrals.

 **********************************************************************

            Population analysis using the SCF Density.

 **********************************************************************

 Orbital symmetries:
 Alpha Orbitals:
       Occupied  (A) (A) (A) (A) (A) (A) (A) (A) (A) (A) (A) (A)
                 (A) (A) (A) (A) (A) (A) (A) (A) (A) (A) (A) (A)
                 (A) (A)
       Virtual   (A) (A) (A) (A) (A) (A) (A) (A) (A) (A) (A) (A)
                 (A) (A) (A) (A) (A) (A) (A) (A) (A) (A) (A) (A)
                 (A) (A) (A) (A) (A) (A) (A) (A) (A) (A) (A) (A)
                 (A) (A) (A) (A) (A) (A) (A) (A) (A) (A) (A) (A)
                 (A) (A) (A) (A) (A) (A) (A) (A) (A) (A) (A) (A)
                 (A) (A) (A) (A) (A) (A) (A) (A) (A) (A) (A) (A)
                 (A) (A) (A) (A) (A) (A) (A) (A) (A) (A) (A) (A)
                 (A) (A) (A) (A) (A) (A) (A) (A) (A) (A) (A) (A)
                 (A) (A) (A) (A) (A) (A) (A) (A) (A) (A) (A) (A)
                 (A) (A) (A) (A) (A) (A) (A) (A) (A) (A) (A) (A)
                 (A) (A) (A) (A) (A) (A) (A) (A) (A) (A) (A) (A)
                 (A) (A) (A) (A) (A) (A) (A) (A) (A) (A) (A) (A)
                 (A) (A) (A) (A) (A) (A) (A) (A) (A) (A) (A) (A)
                 (A) (A) (A) (A) (A) (A) (A) (A) (A) (A) (A) (A)
                 (A) (A) (A) (A) (A) (A) (A) (A) (A) (A) (A) (A)
                 (A) (A) (A) (A) (A) (A) (A) (A) (A) (A) (A) (A)
                 (A) (A) (A) (A) (A) (A) (A) (A) (A) (A) (A) (A)
                 (A) (A) (A) (A) (A) (A) (A) (A) (A) (A) (A) (A)
                 (A) (A) (A) (A) (A) (A) (A) (A) (A) (A) (A) (A)
                 (A) (A) (A) (A) (A) (A) (A) (A) (A) (A) (A) (A)
                 (A) (A) (A) (A) (A) (A) (A) (A) (A) (A) (A) (A)
                 (A) (A) (A) (A) (A) (A) (A) (A) (A) (A) (A) (A)
                 (A) (A) (A) (A) (A) (A) (A) (A) (A) (A) (A) (A)
                 (A) (A) (A) (A) (A) (A) (A) (A) (A) (A) (A) (A)
                 (A) (A) (A) (A) (A) (A) (A) (A) (A) (A) (A) (A)
                 (A) (A) (A) (A) (A) (A) (A) (A)
 Beta  Orbitals:
       Occupied  (A) (A) (A) (A) (A) (A) (A) (A) (A) (A) (A) (A)
                 (A) (A) (A) (A) (A) (A) (A) (A) (A) (A) (A) (A)
                 (A)
       Virtual   (A) (A) (A) (A) (A) (A) (A) (A) (A) (A) (A) (A)
                 (A) (A) (A) (A) (A) (A) (A) (A) (A) (A) (A) (A)
                 (A) (A) (A) (A) (A) (A) (A) (A) (A) (A) (A) (A)
                 (A) (A) (A) (A) (A) (A) (A) (A) (A) (A) (A) (A)
                 (A) (A) (A) (A) (A) (A) (A) (A) (A) (A) (A) (A)
                 (A) (A) (A) (A) (A) (A) (A) (A) (A) (A) (A) (A)
                 (A) (A) (A) (A) (A) (A) (A) (A) (A) (A) (A) (A)
                 (A) (A) (A) (A) (A) (A) (A) (A) (A) (A) (A) (A)
                 (A) (A) (A) (A) (A) (A) (A) (A) (A) (A) (A) (A)
                 (A) (A) (A) (A) (A) (A) (A) (A) (A) (A) (A) (A)
                 (A) (A) (A) (A) (A) (A) (A) (A) (A) (A) (A) (A)
                 (A) (A) (A) (A) (A) (A) (A) (A) (A) (A) (A) (A)
                 (A) (A) (A) (A) (A) (A) (A) (A) (A) (A) (A) (A)
                 (A) (A) (A) (A) (A) (A) (A) (A) (A) (A) (A) (A)
                 (A) (A) (A) (A) (A) (A) (A) (A) (A) (A) (A) (A)
                 (A) (A) (A) (A) (A) (A) (A) (A) (A) (A) (A) (A)
                 (A) (A) (A) (A) (A) (A) (A) (A) (A) (A) (A) (A)
                 (A) (A) (A) (A) (A) (A) (A) (A) (A) (A) (A) (A)
                 (A) (A) (A) (A) (A) (A) (A) (A) (A) (A) (A) (A)
                 (A) (A) (A) (A) (A) (A) (A) (A) (A) (A) (A) (A)
                 (A) (A) (A) (A) (A) (A) (A) (A) (A) (A) (A) (A)
                 (A) (A) (A) (A) (A) (A) (A) (A) (A) (A) (A) (A)
                 (A) (A) (A) (A) (A) (A) (A) (A) (A) (A) (A) (A)
                 (A) (A) (A) (A) (A) (A) (A) (A) (A) (A) (A) (A)
                 (A) (A) (A) (A) (A) (A) (A) (A) (A) (A) (A) (A)
                 (A) (A) (A) (A) (A) (A) (A) (A) (A)
 The electronic state is 2-A.
 Alpha  occ. eigenvalues --  -19.78325 -19.78023 -10.65862 -10.63987 -10.61233
 Alpha  occ. eigenvalues --  -10.60921  -1.26983  -1.01603  -0.91859  -0.80277
 Alpha  occ. eigenvalues --   -0.77461  -0.69122  -0.60493  -0.55518  -0.54282
 Alpha  occ. eigenvalues --   -0.53530  -0.51684  -0.48252  -0.47803  -0.46003
 Alpha  occ. eigenvalues --   -0.43781  -0.42126  -0.41747  -0.36391  -0.36210
 Alpha  occ. eigenvalues --   -0.28867
 Alpha virt. eigenvalues --    0.07345   0.09110   0.11002   0.11931   0.13857
 Alpha virt. eigenvalues --    0.14280   0.15014   0.15923   0.17059   0.18157
 Alpha virt. eigenvalues --    0.19024   0.19987   0.22174   0.26040   0.27764
 Alpha virt. eigenvalues --    0.29132   0.30129   0.32097   0.33017   0.34876
 Alpha virt. eigenvalues --    0.35904   0.37801   0.41810   0.42662   0.45735
 Alpha virt. eigenvalues --    0.48531   0.49484   0.50455   0.51169   0.51871
 Alpha virt. eigenvalues --    0.52379   0.52758   0.53541   0.53953   0.55439
 Alpha virt. eigenvalues --    0.56462   0.57009   0.57947   0.58953   0.60144
 Alpha virt. eigenvalues --    0.62367   0.64532   0.68141   0.69270   0.71523
 Alpha virt. eigenvalues --    0.73975   0.76835   0.77222   0.80005   0.84178
 Alpha virt. eigenvalues --    0.85409   0.87147   0.89981   0.91268   0.93784
 Alpha virt. eigenvalues --    0.95302   0.97743   0.98280   1.01505   1.02852
 Alpha virt. eigenvalues --    1.04077   1.05995   1.06535   1.08897   1.09173
 Alpha virt. eigenvalues --    1.10738   1.11257   1.14134   1.15908   1.17159
 Alpha virt. eigenvalues --    1.17524   1.18895   1.19866   1.21792   1.23970
 Alpha virt. eigenvalues --    1.24369   1.25817   1.28773   1.30694   1.33579
 Alpha virt. eigenvalues --    1.34831   1.36462   1.37959   1.38826   1.39094
 Alpha virt. eigenvalues --    1.39720   1.40928   1.41819   1.44711   1.46542
 Alpha virt. eigenvalues --    1.47323   1.49221   1.51891   1.52565   1.54867
 Alpha virt. eigenvalues --    1.57642   1.60713   1.61817   1.64010   1.68568
 Alpha virt. eigenvalues --    1.71236   1.74265   1.78092   1.79967   1.90563
 Alpha virt. eigenvalues --    1.94295   1.99936   2.05783   2.12966   2.18123
 Alpha virt. eigenvalues --    2.22983   2.28211   2.30468   2.36088   2.37106
 Alpha virt. eigenvalues --    2.40326   2.42871   2.46003   2.46170   2.48395
 Alpha virt. eigenvalues --    2.51315   2.53027   2.58307   2.59462   2.61545
 Alpha virt. eigenvalues --    2.63366   2.67922   2.73688   2.74250   2.77573
 Alpha virt. eigenvalues --    2.79236   2.80225   2.83504   2.86425   2.88404
 Alpha virt. eigenvalues --    2.90365   2.91284   2.92530   2.93422   2.93884
 Alpha virt. eigenvalues --    2.95189   2.98351   3.01959   3.03230   3.04152
 Alpha virt. eigenvalues --    3.05229   3.06336   3.09908   3.11103   3.12488
 Alpha virt. eigenvalues --    3.13936   3.15028   3.15734   3.18507   3.18870
 Alpha virt. eigenvalues --    3.20165   3.21010   3.21264   3.22056   3.23972
 Alpha virt. eigenvalues --    3.25991   3.27493   3.30545   3.37919   3.41366
 Alpha virt. eigenvalues --    3.41981   3.42387   3.43952   3.44776   3.46390
 Alpha virt. eigenvalues --    3.46790   3.50921   3.52346   3.53165   3.53962
 Alpha virt. eigenvalues --    3.54707   3.56709   3.58779   3.59560   3.60945
 Alpha virt. eigenvalues --    3.61946   3.62442   3.65421   3.69025   3.69509
 Alpha virt. eigenvalues --    3.71519   3.76111   3.81420   3.83779   3.85490
 Alpha virt. eigenvalues --    3.86166   3.87959   3.89649   3.91208   3.91682
 Alpha virt. eigenvalues --    3.94181   3.94313   3.95300   3.97181   3.98338
 Alpha virt. eigenvalues --    4.00212   4.01303   4.06853   4.07540   4.07992
 Alpha virt. eigenvalues --    4.09066   4.09611   4.11030   4.13479   4.14191
 Alpha virt. eigenvalues --    4.17232   4.18664   4.22413   4.24662   4.25328
 Alpha virt. eigenvalues --    4.25859   4.26777   4.28572   4.29175   4.31757
 Alpha virt. eigenvalues --    4.34298   4.36474   4.39158   4.40096   4.41102
 Alpha virt. eigenvalues --    4.44171   4.46666   4.47318   4.49382   4.53110
 Alpha virt. eigenvalues --    4.56207   4.60892   4.64708   4.66529   4.66859
 Alpha virt. eigenvalues --    4.72704   4.73392   4.80016   4.82197   4.87398
 Alpha virt. eigenvalues --    4.93259   4.94597   4.96138   4.98614   4.99308
 Alpha virt. eigenvalues --    5.01359   5.02509   5.03997   5.06223   5.08961
 Alpha virt. eigenvalues --    5.09888   5.15423   5.19580   5.24877   5.25777
 Alpha virt. eigenvalues --    5.28357   5.28945   5.30516   5.32881   5.33691
 Alpha virt. eigenvalues --    5.35459   5.37323   5.39020   5.40752   5.42446
 Alpha virt. eigenvalues --    5.46889   5.47762   5.50174   5.51209   5.52562
 Alpha virt. eigenvalues --    5.53398   5.56896   5.61037   5.66994   5.69013
 Alpha virt. eigenvalues --    5.70028   5.80038   5.92746   5.95629   5.97251
 Alpha virt. eigenvalues --    6.00011   6.03741   6.07296   6.08112   6.09211
 Alpha virt. eigenvalues --    6.10865   6.25855   6.29954   6.38086   6.40413
 Alpha virt. eigenvalues --    6.64795   6.75286   6.76183   6.83295   6.96492
 Alpha virt. eigenvalues --    7.05815   7.06917   7.17629   7.42859   7.47823
 Alpha virt. eigenvalues --    7.58503   7.74792   9.89409  10.60527  11.86224
 Alpha virt. eigenvalues --   13.42560  13.81375  13.86561
  Beta  occ. eigenvalues --  -19.78173 -19.76330 -10.65871 -10.62776 -10.61286
  Beta  occ. eigenvalues --  -10.60973  -1.25060  -0.98574  -0.89946  -0.80080
  Beta  occ. eigenvalues --   -0.77030  -0.66608  -0.57304  -0.54304  -0.53889
  Beta  occ. eigenvalues --   -0.52878  -0.50171  -0.47706  -0.45526  -0.44217
  Beta  occ. eigenvalues --   -0.42734  -0.41789  -0.41346  -0.34936  -0.32917
  Beta virt. eigenvalues --   -0.03723   0.07474   0.09204   0.11194   0.12130
  Beta virt. eigenvalues --    0.14163   0.14655   0.15159   0.16026   0.17164
  Beta virt. eigenvalues --    0.18379   0.19098   0.20475   0.22704   0.26621
  Beta virt. eigenvalues --    0.28068   0.29306   0.30346   0.32241   0.33577
  Beta virt. eigenvalues --    0.35436   0.36825   0.38231   0.41995   0.43933
  Beta virt. eigenvalues --    0.45845   0.48882   0.50175   0.50742   0.51326
  Beta virt. eigenvalues --    0.52232   0.52524   0.53047   0.53663   0.55032
  Beta virt. eigenvalues --    0.55537   0.56963   0.58124   0.59027   0.59658
  Beta virt. eigenvalues --    0.61084   0.62881   0.65067   0.68368   0.69706
  Beta virt. eigenvalues --    0.71791   0.74251   0.77243   0.77560   0.80389
  Beta virt. eigenvalues --    0.84423   0.86068   0.87371   0.90331   0.91476
  Beta virt. eigenvalues --    0.93970   0.95371   0.97975   0.98486   1.01797
  Beta virt. eigenvalues --    1.03087   1.04254   1.06288   1.06883   1.09236
  Beta virt. eigenvalues --    1.09277   1.11074   1.11539   1.14393   1.16201
  Beta virt. eigenvalues --    1.17380   1.17644   1.19213   1.20758   1.22089
  Beta virt. eigenvalues --    1.24244   1.24453   1.26181   1.29351   1.31164
  Beta virt. eigenvalues --    1.33768   1.35128   1.36794   1.38248   1.38956
  Beta virt. eigenvalues --    1.39217   1.40021   1.41117   1.42128   1.45137
  Beta virt. eigenvalues --    1.47022   1.47853   1.49407   1.52356   1.53121
  Beta virt. eigenvalues --    1.55239   1.57792   1.60979   1.62111   1.64447
  Beta virt. eigenvalues --    1.69422   1.71639   1.74887   1.78822   1.80287
  Beta virt. eigenvalues --    1.93186   1.95068   2.00544   2.06771   2.13297
  Beta virt. eigenvalues --    2.19851   2.23332   2.29279   2.30973   2.36347
  Beta virt. eigenvalues --    2.37481   2.40865   2.43335   2.46641   2.47065
  Beta virt. eigenvalues --    2.48790   2.51510   2.53483   2.58820   2.60122
  Beta virt. eigenvalues --    2.61994   2.63809   2.68748   2.74055   2.74594
  Beta virt. eigenvalues --    2.78234   2.79591   2.81067   2.83464   2.86382
  Beta virt. eigenvalues --    2.88965   2.90619   2.91524   2.92610   2.93632
  Beta virt. eigenvalues --    2.94174   2.95576   2.98808   3.02162   3.03560
  Beta virt. eigenvalues --    3.04452   3.05690   3.06895   3.10362   3.11250
  Beta virt. eigenvalues --    3.12519   3.14140   3.15182   3.15921   3.18804
  Beta virt. eigenvalues --    3.19030   3.20429   3.21196   3.21407   3.22350
  Beta virt. eigenvalues --    3.24344   3.26199   3.28531   3.31139   3.39459
  Beta virt. eigenvalues --    3.41605   3.42563   3.42701   3.44483   3.45501
  Beta virt. eigenvalues --    3.46921   3.47433   3.51044   3.52527   3.53416
  Beta virt. eigenvalues --    3.54169   3.54992   3.56974   3.59257   3.59914
  Beta virt. eigenvalues --    3.61303   3.62245   3.62774   3.65692   3.69119
  Beta virt. eigenvalues --    3.69792   3.71869   3.76481   3.82038   3.83840
  Beta virt. eigenvalues --    3.85828   3.86381   3.88145   3.89888   3.91541
  Beta virt. eigenvalues --    3.92156   3.94334   3.94559   3.95561   3.97557
  Beta virt. eigenvalues --    3.98637   4.00462   4.01648   4.06859   4.07837
  Beta virt. eigenvalues --    4.08261   4.09274   4.09650   4.11501   4.13802
  Beta virt. eigenvalues --    4.14517   4.17386   4.18719   4.22610   4.25034
  Beta virt. eigenvalues --    4.25632   4.26237   4.27076   4.28704   4.29601
  Beta virt. eigenvalues --    4.32135   4.34799   4.36547   4.39330   4.40622
  Beta virt. eigenvalues --    4.41681   4.44575   4.46850   4.47480   4.49687
  Beta virt. eigenvalues --    4.53466   4.56692   4.61488   4.65461   4.67239
  Beta virt. eigenvalues --    4.67533   4.73260   4.73813   4.80452   4.82383
  Beta virt. eigenvalues --    4.88170   4.93486   4.94751   4.96431   4.98837
  Beta virt. eigenvalues --    4.99500   5.01491   5.02831   5.04269   5.06472
  Beta virt. eigenvalues --    5.09193   5.10473   5.15723   5.20810   5.25168
  Beta virt. eigenvalues --    5.25982   5.28689   5.29339   5.30833   5.33345
  Beta virt. eigenvalues --    5.34013   5.35797   5.37503   5.39671   5.41035
  Beta virt. eigenvalues --    5.42914   5.47210   5.48226   5.50364   5.51468
  Beta virt. eigenvalues --    5.52797   5.53589   5.57172   5.61526   5.67422
  Beta virt. eigenvalues --    5.69508   5.71381   5.80399   5.92911   5.96506
  Beta virt. eigenvalues --    5.97745   6.00923   6.03837   6.07613   6.08397
  Beta virt. eigenvalues --    6.09568   6.11657   6.26412   6.32049   6.38699
  Beta virt. eigenvalues --    6.41754   6.65785   6.77367   6.79133   6.84446
  Beta virt. eigenvalues --    6.98345   7.06869   7.08410   7.20017   7.43050
  Beta virt. eigenvalues --    7.50053   7.60341   7.75435   9.90356  10.61643
  Beta virt. eigenvalues --   11.87165  13.42560  13.81458  13.86606
          Condensed to atoms (all electrons):
               1          2          3          4          5          6
     1  C    4.844013   0.406949   0.410525   0.327136  -0.040446  -0.000507
     2  H    0.406949   0.575784  -0.024780  -0.034959   0.006802   0.000065
     3  H    0.410525  -0.024780   0.564923  -0.034816  -0.003811  -0.000668
     4  C    0.327136  -0.034959  -0.034816   5.152810   0.400900  -0.002765
     5  H   -0.040446   0.006802  -0.003811   0.400900   0.577193   0.000410
     6  C   -0.000507   0.000065  -0.000668  -0.002765   0.000410   4.601065
     7  H    0.000644   0.000041  -0.001886  -0.000128  -0.000842   0.392400
     8  H   -0.000039  -0.000018   0.000007   0.000316  -0.000079   0.395513
     9  H    0.000063  -0.000016   0.000331  -0.000410  -0.000021   0.411670
    10  O   -0.001318  -0.000551   0.008862   0.003644   0.000094   0.304973
    11  O   -0.001109   0.002464  -0.001297  -0.078523  -0.000602  -0.046275
    12  H   -0.008162  -0.003938  -0.003485   0.234280  -0.011916   0.001763
    13  H    0.398288  -0.033579  -0.032248  -0.038120  -0.004459  -0.000044
    14  C   -0.050580  -0.003581   0.006437   0.336364  -0.030617   0.000103
    15  H    0.007022  -0.000036  -0.000285  -0.035185  -0.005104   0.000019
    16  H   -0.005021   0.004255  -0.000018  -0.037887   0.007101   0.000016
    17  H   -0.003088  -0.000606  -0.000329  -0.038927  -0.004346  -0.000005
               7          8          9         10         11         12
     1  C    0.000644  -0.000039   0.000063  -0.001318  -0.001109  -0.008162
     2  H    0.000041  -0.000018  -0.000016  -0.000551   0.002464  -0.003938
     3  H   -0.001886   0.000007   0.000331   0.008862  -0.001297  -0.003485
     4  C   -0.000128   0.000316  -0.000410   0.003644  -0.078523   0.234280
     5  H   -0.000842  -0.000079  -0.000021   0.000094  -0.000602  -0.011916
     6  C    0.392400   0.395513   0.411670   0.304973  -0.046275   0.001763
     7  H    0.686746  -0.035070  -0.059501  -0.050892  -0.002089   0.004242
     8  H   -0.035070   0.591603  -0.028435  -0.025889   0.006818  -0.000493
     9  H   -0.059501  -0.028435   0.617798  -0.038457   0.004292   0.000648
    10  O   -0.050892  -0.025889  -0.038457   7.944526   0.071695  -0.027692
    11  O   -0.002089   0.006818   0.004292   0.071695   8.087890   0.186163
    12  H    0.004242  -0.000493   0.000648  -0.027692   0.186163   0.431088
    13  H   -0.000016  -0.000006   0.000004   0.000187  -0.000180   0.003191
    14  C   -0.000257  -0.000011   0.000015   0.000653   0.000337  -0.015701
    15  H    0.000013   0.000002   0.000005  -0.000045   0.000866  -0.001359
    16  H   -0.000026  -0.000003  -0.000001  -0.000060   0.002658  -0.004241
    17  H    0.000018  -0.000000  -0.000001  -0.000012  -0.000242   0.003345
              13         14         15         16         17
     1  C    0.398288  -0.050580   0.007022  -0.005021  -0.003088
     2  H   -0.033579  -0.003581  -0.000036   0.004255  -0.000606
     3  H   -0.032248   0.006437  -0.000285  -0.000018  -0.000329
     4  C   -0.038120   0.336364  -0.035185  -0.037887  -0.038927
     5  H   -0.004459  -0.030617  -0.005104   0.007101  -0.004346
     6  C   -0.000044   0.000103   0.000019   0.000016  -0.000005
     7  H   -0.000016  -0.000257   0.000013  -0.000026   0.000018
     8  H   -0.000006  -0.000011   0.000002  -0.000003  -0.000000
     9  H    0.000004   0.000015   0.000005  -0.000001  -0.000001
    10  O    0.000187   0.000653  -0.000045  -0.000060  -0.000012
    11  O   -0.000180   0.000337   0.000866   0.002658  -0.000242
    12  H    0.003191  -0.015701  -0.001359  -0.004241   0.003345
    13  H    0.608135  -0.002809  -0.000310  -0.000480   0.003749
    14  C   -0.002809   4.827924   0.412040   0.410514   0.401897
    15  H   -0.000310   0.412040   0.570035  -0.026830  -0.031697
    16  H   -0.000480   0.410514  -0.026830   0.576356  -0.033442
    17  H    0.003749   0.401897  -0.031697  -0.033442   0.603848
          Atomic-Atomic Spin Densities.
               1          2          3          4          5          6
     1  C   -0.025666   0.004106   0.003974  -0.024483   0.004526  -0.000265
     2  H    0.004106   0.008281   0.000905  -0.004762   0.000378  -0.000034
     3  H    0.003974   0.000905   0.004430  -0.002992   0.000476  -0.000228
     4  C   -0.024483  -0.004762  -0.002992   0.676177   0.002732   0.001071
     5  H    0.004526   0.000378   0.000476   0.002732  -0.019932  -0.000257
     6  C   -0.000265  -0.000034  -0.000228   0.001071  -0.000257  -0.006081
     7  H    0.000594   0.000064   0.000372  -0.004404   0.001253   0.003499
     8  H   -0.000030  -0.000002  -0.000023   0.000113  -0.000009   0.000671
     9  H   -0.000103  -0.000013  -0.000048   0.001146  -0.000175  -0.002521
    10  O   -0.002471  -0.000477  -0.001049   0.012508  -0.000948   0.001240
    11  O    0.007533   0.001468   0.000711  -0.091058   0.004386  -0.002091
    12  H   -0.002887  -0.000936   0.000715   0.073182   0.001647   0.001213
    13  H    0.002838  -0.005803  -0.002914  -0.014436  -0.002883   0.000051
    14  C    0.003745   0.000986  -0.000010  -0.021273   0.003062  -0.000028
    15  H    0.000065   0.000095   0.000006  -0.003657   0.001042  -0.000003
    16  H    0.000906   0.000752   0.000047  -0.004900   0.000309  -0.000004
    17  H   -0.000180  -0.000902  -0.000089  -0.014509  -0.002657   0.000005
               7          8          9         10         11         12
     1  C    0.000594  -0.000030  -0.000103  -0.002471   0.007533  -0.002887
     2  H    0.000064  -0.000002  -0.000013  -0.000477   0.001468  -0.000936
     3  H    0.000372  -0.000023  -0.000048  -0.001049   0.000711   0.000715
     4  C   -0.004404   0.000113   0.001146   0.012508  -0.091058   0.073182
     5  H    0.001253  -0.000009  -0.000175  -0.000948   0.004386   0.001647
     6  C    0.003499   0.000671  -0.002521   0.001240  -0.002091   0.001213
     7  H    0.002543  -0.000857  -0.001404  -0.001109   0.003806  -0.003395
     8  H   -0.000857  -0.001910   0.001092   0.000076  -0.000213   0.000067
     9  H   -0.001404   0.001092   0.003941  -0.000583  -0.000333   0.001348
    10  O   -0.001109   0.000076  -0.000583   0.052786  -0.043478   0.010407
    11  O    0.003806  -0.000213  -0.000333  -0.043478   0.606872  -0.058217
    12  H   -0.003395   0.000067   0.001348   0.010407  -0.058217  -0.094104
    13  H   -0.000125   0.000004   0.000010   0.000272  -0.000817   0.000725
    14  C    0.000148  -0.000001  -0.000035  -0.000338   0.005035  -0.001626
    15  H    0.000022  -0.000001  -0.000009  -0.000026   0.000719  -0.000531
    16  H    0.000019  -0.000000  -0.000006  -0.000071   0.001100  -0.000617
    17  H   -0.000028   0.000000   0.000004   0.000035  -0.000618   0.000605
              13         14         15         16         17
     1  C    0.002838   0.003745   0.000065   0.000906  -0.000180
     2  H   -0.005803   0.000986   0.000095   0.000752  -0.000902
     3  H   -0.002914  -0.000010   0.000006   0.000047  -0.000089
     4  C   -0.014436  -0.021273  -0.003657  -0.004900  -0.014509
     5  H   -0.002883   0.003062   0.001042   0.000309  -0.002657
     6  C    0.000051  -0.000028  -0.000003  -0.000004   0.000005
     7  H   -0.000125   0.000148   0.000022   0.000019  -0.000028
     8  H    0.000004  -0.000001  -0.000001  -0.000000   0.000000
     9  H    0.000010  -0.000035  -0.000009  -0.000006   0.000004
    10  O    0.000272  -0.000338  -0.000026  -0.000071   0.000035
    11  O   -0.000817   0.005035   0.000719   0.001100  -0.000618
    12  H    0.000725  -0.001626  -0.000531  -0.000617   0.000605
    13  H    0.059550  -0.000489  -0.000184  -0.000820   0.003821
    14  C   -0.000489  -0.027735   0.003217   0.003864   0.004934
    15  H   -0.000184   0.003217   0.004897   0.001248  -0.003696
    16  H   -0.000820   0.003864   0.001248   0.009268  -0.005621
    17  H    0.003821   0.004934  -0.003696  -0.005621   0.056260
 Mulliken charges and spin densities:
               1          2
     1  C   -0.284371  -0.027797
     2  H    0.105704   0.004106
     3  H    0.112538   0.004283
     4  C   -0.153730   0.580455
     5  H    0.109742  -0.007049
     6  C   -0.057732  -0.003761
     7  H    0.066603   0.001000
     8  H    0.095785  -0.001022
     9  H    0.092015   0.002310
    10  O   -0.189717   0.026775
    11  O   -0.232867   0.434805
    12  H    0.212267  -0.072404
    13  H    0.098698   0.038800
    14  C   -0.292728  -0.026546
    15  H    0.110847   0.003205
    16  H    0.107109   0.005473
    17  H    0.099838   0.037366
 Sum of Mulliken charges =  -0.00000   1.00000
 Mulliken charges and spin densities with hydrogens summed into heavy atoms:
               1          2
     1  C    0.032569   0.019393
     4  C   -0.043988   0.573406
     6  C    0.196670  -0.001473
    10  O   -0.189717   0.026775
    11  O   -0.020600   0.362401
    14  C    0.025066   0.019498
 APT charges:
               1
     1  C   -0.071229
     2  H    0.002408
     3  H    0.008337
     4  C    0.547191
     5  H   -0.096676
     6  C    0.451344
     7  H   -0.042584
     8  H   -0.010483
     9  H   -0.032033
    10  O   -0.470522
    11  O    0.166116
    12  H   -0.353704
    13  H   -0.012339
    14  C   -0.048871
    15  H   -0.003771
    16  H    0.001513
    17  H   -0.034697
 Sum of APT charges =  -0.00000
 APT charges with hydrogens summed into heavy atoms:
               1
     1  C   -0.072823
     4  C    0.450515
     6  C    0.366243
    10  O   -0.470522
    11  O   -0.187588
    14  C   -0.085827
 Electronic spatial extent (au):  <R**2>=            905.9471
 Charge=              0.0000 electrons
 Dipole moment (field-independent basis, Debye):
    X=              0.8666    Y=              0.9459    Z=              2.0316  Tot=              2.4027
 Quadrupole moment (field-independent basis, Debye-Ang):
   XX=            -34.5781   YY=            -40.2186   ZZ=            -39.9410
   XY=             -1.1446   XZ=             -2.9999   YZ=             -0.3793
 Traceless Quadrupole moment (field-independent basis, Debye-Ang):
   XX=              3.6678   YY=             -1.9727   ZZ=             -1.6951
   XY=             -1.1446   XZ=             -2.9999   YZ=             -0.3793
 Octapole moment (field-independent basis, Debye-Ang**2):
  XXX=            -21.9337  YYY=             -2.1178  ZZZ=             -2.8596  XYY=             -3.2858
  XXY=              0.7887  XXZ=              5.0862  XZZ=             -1.5152  YZZ=             -0.7057
  YYZ=              0.0088  XYZ=              0.1536
 Hexadecapole moment (field-independent basis, Debye-Ang**3):
 XXXX=           -810.5371 YYYY=           -233.5527 ZZZZ=           -114.3963 XXXY=              0.4067
 XXXZ=             -4.1318 YYYX=             -1.8868 YYYZ=              0.0952 ZZZX=              1.1684
 ZZZY=              1.4087 XXYY=           -176.1509 XXZZ=           -164.4431 YYZZ=            -59.6871
 XXYZ=              1.8395 YYXZ=              1.9193 ZZXY=              0.2722
 N-N= 2.539602266129D+02 E-N=-1.230737723329D+03  KE= 3.074561922551D+02
  Exact polarizability: 103.424   2.244  62.594   3.191   0.887  54.986
 Approx polarizability:  85.548   0.732  68.964   5.060   2.161  64.859
                          Isotropic Fermi Contact Couplings
        Atom                 a.u.       MegaHertz       Gauss      10(-4) cm-1
     1  C(13)             -0.00840      -9.44241      -3.36929      -3.14965
     2  H(1)               0.00242      10.79544       3.85208       3.60097
     3  H(1)               0.00368      16.43374       5.86397       5.48171
     4  C(13)              0.09261     104.11532      37.15093      34.72913
     5  H(1)              -0.00291     -13.02362      -4.64715      -4.34421
     6  C(13)             -0.00367      -4.13079      -1.47397      -1.37788
     7  H(1)               0.00219       9.80117       3.49730       3.26932
     8  H(1)              -0.00015      -0.68495      -0.24441      -0.22847
     9  H(1)               0.00061       2.71928       0.97031       0.90705
    10  O(17)              0.01520      -9.21460      -3.28800      -3.07366
    11  O(17)              0.05285     -32.04041     -11.43281     -10.68753
    12  H(1)              -0.01878     -83.94559     -29.95387     -28.00123
    13  H(1)               0.01845      82.46594      29.42590      27.50768
    14  C(13)             -0.00949     -10.66599      -3.80589      -3.55779
    15  H(1)               0.00232      10.35357       3.69441       3.45358
    16  H(1)               0.00319      14.24128       5.08164       4.75038
    17  H(1)               0.01746      78.06294      27.85480      26.03899
 --------------------------------------------------------
       Center         ----  Spin Dipole Couplings  ----
                      3XX-RR        3YY-RR        3ZZ-RR
 --------------------------------------------------------
     1   Atom       -0.001425      0.015140     -0.013715
     2   Atom       -0.003923     -0.000146      0.004069
     3   Atom       -0.004049      0.011346     -0.007297
     4   Atom        0.357757     -0.150796     -0.206961
     5   Atom       -0.007738     -0.035128      0.042867
     6   Atom        0.004872     -0.005309      0.000437
     7   Atom        0.001446     -0.004091      0.002645
     8   Atom        0.003625     -0.001503     -0.002122
     9   Atom        0.005873     -0.004634     -0.001239
    10   Atom        0.192764     -0.147211     -0.045553
    11   Atom        0.418908     -0.055478     -0.363430
    12   Atom        0.130483     -0.064566     -0.065917
    13   Atom       -0.001016      0.005386     -0.004371
    14   Atom        0.025396     -0.009958     -0.015438
    15   Atom        0.000366      0.006419     -0.006785
    16   Atom        0.003412     -0.003441      0.000029
    17   Atom        0.008655     -0.002673     -0.005981
 --------------------------------------------------------
                        XY            XZ            YZ
 --------------------------------------------------------
     1   Atom        0.017514     -0.001750     -0.008380
     2   Atom        0.003866     -0.002878     -0.008716
     3   Atom       -0.004273      0.001865     -0.002065
     4   Atom        0.379450      0.320921      0.171657
     5   Atom        0.014632     -0.009313      0.008372
     6   Atom       -0.004458     -0.005606      0.001965
     7   Atom       -0.002072     -0.005457      0.003835
     8   Atom       -0.003265     -0.002674      0.001791
     9   Atom        0.000493     -0.005691     -0.000395
    10   Atom        0.211069      0.223901      0.123848
    11   Atom        1.081418      0.873855      0.698352
    12   Atom        0.116308      0.118515      0.055299
    13   Atom        0.006189      0.001852     -0.001547
    14   Atom       -0.011542      0.000370      0.001977
    15   Atom       -0.008293      0.002623     -0.001795
    16   Atom       -0.004665     -0.007588      0.005623
    17   Atom       -0.001922      0.001328      0.001831
 --------------------------------------------------------


 ---------------------------------------------------------------------------------
              Anisotropic Spin Dipole Couplings in Principal Axis System
 ---------------------------------------------------------------------------------

       Atom             a.u.   MegaHertz   Gauss  10(-4) cm-1        Axes

              Baa    -0.0171    -2.301    -0.821    -0.767 -0.3725  0.4172  0.8290
     1 C(13)  Bbb    -0.0106    -1.428    -0.510    -0.476  0.7733 -0.3544  0.5258
              Bcc     0.0278     3.729     1.331     1.244  0.5131  0.8369 -0.1906
 
              Baa    -0.0076    -4.070    -1.452    -1.358 -0.4413  0.7682  0.4638
     2 H(1)   Bbb    -0.0046    -2.478    -0.884    -0.826  0.8534  0.1995  0.4815
              Bcc     0.0123     6.548     2.336     2.184 -0.2774 -0.6083  0.7436
 
              Baa    -0.0081    -4.347    -1.551    -1.450 -0.4079  0.0073  0.9130
     3 H(1)   Bbb    -0.0046    -2.460    -0.878    -0.821  0.8760  0.2849  0.3891
              Bcc     0.0128     6.807     2.429     2.270 -0.2573  0.9585 -0.1226
 
              Baa    -0.3534   -47.420   -16.920   -15.817 -0.3724  0.8976 -0.2361
     4 C(13)  Bbb    -0.3521   -47.242   -16.857   -15.758 -0.4358  0.0555  0.8983
              Bcc     0.7054    94.661    33.778    31.576  0.8194  0.4374  0.3705
 
              Baa    -0.0430   -22.941    -8.186    -7.652 -0.4096  0.9026 -0.1324
     5 H(1)   Bbb    -0.0020    -1.044    -0.373    -0.348  0.8993  0.4239  0.1077
              Bcc     0.0450    23.985     8.558     8.000 -0.1533  0.0750  0.9853
 
              Baa    -0.0070    -0.938    -0.335    -0.313  0.3631  0.9313  0.0277
     6 C(13)  Bbb    -0.0032    -0.427    -0.152    -0.142  0.4768 -0.2113  0.8532
              Bcc     0.0102     1.365     0.487     0.455  0.8005 -0.2966 -0.5208
 
              Baa    -0.0059    -3.127    -1.116    -1.043 -0.0903  0.8849 -0.4570
     7 H(1)   Bbb    -0.0031    -1.635    -0.584    -0.545  0.7834  0.3465  0.5160
              Bcc     0.0089     4.762     1.699     1.588 -0.6149  0.3114  0.7245
 
              Baa    -0.0036    -1.937    -0.691    -0.646 -0.0244 -0.6653  0.7462
     8 H(1)   Bbb    -0.0028    -1.481    -0.528    -0.494  0.5498  0.6144  0.5658
              Bcc     0.0064     3.419     1.220     1.140  0.8349 -0.4241 -0.3508
 
              Baa    -0.0047    -2.508    -0.895    -0.836  0.1220  0.9434  0.3084
     9 H(1)   Bbb    -0.0044    -2.324    -0.829    -0.775  0.4712 -0.3286  0.8185
              Bcc     0.0091     4.832     1.724     1.612  0.8735  0.0454 -0.4846
 
              Baa    -0.2509    18.154     6.478     6.055 -0.3507  0.9204 -0.1727
    10 O(17)  Bbb    -0.1800    13.021     4.646     4.343 -0.5025 -0.0293  0.8641
              Bcc     0.4308   -31.175   -11.124   -10.399  0.7903  0.3898  0.4728
 
              Baa    -0.9301    67.301    24.015    22.449 -0.6433  0.2068  0.7372
    11 O(17)  Bbb    -0.9232    66.803    23.837    22.283 -0.3190  0.8029 -0.5036
              Bcc     1.8533  -134.105   -47.852   -44.733  0.6960  0.5591  0.4505
 
              Baa    -0.1217   -64.947   -23.175   -21.664 -0.3546 -0.1683  0.9198
    12 H(1)   Bbb    -0.1188   -63.400   -22.623   -21.148 -0.4237  0.9058  0.0024
              Bcc     0.2406   128.347    45.798    42.812  0.8335  0.3889  0.3925
 
              Baa    -0.0070    -3.721    -1.328    -1.241 -0.6211  0.3956  0.6766
    13 H(1)   Bbb    -0.0022    -1.167    -0.417    -0.389  0.5902 -0.3319  0.7359
              Bcc     0.0092     4.889     1.744     1.631  0.5157  0.8563 -0.0273
 
              Baa    -0.0167    -2.236    -0.798    -0.746 -0.1451 -0.5013  0.8530
    14 C(13)  Bbb    -0.0122    -1.633    -0.583    -0.545  0.2459  0.8169  0.5218
              Bcc     0.0288     3.869     1.381     1.291  0.9584 -0.2854 -0.0047
 
              Baa    -0.0078    -4.144    -1.479    -1.382 -0.4279 -0.1371  0.8934
    15 H(1)   Bbb    -0.0049    -2.620    -0.935    -0.874  0.6979  0.5779  0.4230
              Bcc     0.0127     6.764     2.413     2.256 -0.5743  0.8045 -0.1516
 
              Baa    -0.0077    -4.117    -1.469    -1.373 -0.1635  0.7153 -0.6794
    16 H(1)   Bbb    -0.0050    -2.655    -0.947    -0.886  0.7031  0.5676  0.4284
              Bcc     0.0127     6.772     2.416     2.259  0.6920 -0.4077 -0.5957
 
              Baa    -0.0071    -3.763    -1.343    -1.255 -0.1282 -0.4299  0.8937
    17 H(1)   Bbb    -0.0020    -1.061    -0.379    -0.354  0.1054  0.8901  0.4433
              Bcc     0.0090     4.824     1.721     1.609  0.9861 -0.1511  0.0688
 

 ---------------------------------------------------------------------------------

 Calling FoFJK, ICntrl=  10100127 FMM=F ISym2X=0 I1Cent= 0 IOpClX= 1 NMat=1 NMatS=1 NMatT=0.
 ***** Axes restored to original set *****
 -------------------------------------------------------------------
 Center     Atomic                   Forces (Hartrees/Bohr)
 Number     Number              X              Y              Z
 -------------------------------------------------------------------
      1        6          -0.000055440    0.000026576   -0.000084735
      2        1           0.000000734    0.000002547    0.000001270
      3        1          -0.000000882    0.000000903    0.000001434
      4        6           0.000065623   -0.000042124    0.000101231
      5        1           0.000001352   -0.000000524   -0.000001615
      6        6           0.000000810    0.000000845    0.000000545
      7        1          -0.000000189    0.000000354    0.000000911
      8        1           0.000000655   -0.000000601    0.000000060
      9        1          -0.000000821    0.000000506   -0.000000136
     10        8           0.000055754   -0.000087876    0.000041262
     11        8          -0.000068573    0.000102998   -0.000058898
     12        1           0.000002283   -0.000003367   -0.000002153
     13        1           0.000000533   -0.000000189   -0.000000455
     14        6          -0.000002805   -0.000001475   -0.000001772
     15        1           0.000000164    0.000000584    0.000000251
     16        1           0.000000051    0.000000397    0.000002796
     17        1           0.000000750    0.000000446    0.000000005
 -------------------------------------------------------------------
 Cartesian Forces:  Max     0.000102998 RMS     0.000033916
 FormGI is forming the generalized inverse of G from B-inverse, IUseBI=4.

 GradGradGradGradGradGradGradGradGradGradGradGradGradGradGradGradGradGrad
 Berny optimization.
 Internal  Forces:  Max     0.000141471 RMS     0.000024274
 Search for a saddle point.
 Step number   1 out of a maximum of  102
 All quantities printed in internal units (Hartrees-Bohrs-Radians)
 Swapping is turned off.
 Second derivative matrix not updated -- analytic derivatives used.
 ITU=  0
     Eigenvalues ---   -0.07112   0.00026   0.00140   0.00176   0.00611
     Eigenvalues ---    0.01593   0.02160   0.02377   0.02971   0.03553
     Eigenvalues ---    0.04302   0.04430   0.04468   0.04502   0.04963
     Eigenvalues ---    0.08304   0.08498   0.08533   0.10961   0.11938
     Eigenvalues ---    0.12257   0.13028   0.13892   0.14489   0.15158
     Eigenvalues ---    0.15546   0.16602   0.17607   0.17876   0.18398
     Eigenvalues ---    0.25384   0.30009   0.31274   0.31876   0.32794
     Eigenvalues ---    0.32963   0.33483   0.33920   0.34102   0.34188
     Eigenvalues ---    0.34417   0.34742   0.34919   0.35499   0.40349
 Eigenvectors required to have negative eigenvalues:
                          R13       R6        R12       A20       D3
   1                    0.69767  -0.66018  -0.15372   0.07817   0.05789
                          D16       D14       D4        D9        D15
   1                    0.05772  -0.05760  -0.05618   0.05143  -0.05118
 RFO step:  Lambda0=1.338339162D-12 Lambda=-7.01523325D-05.
 Linear search not attempted -- option 19 set.
 Iteration  1 RMS(Cart)=  0.12710869 RMS(Int)=  0.01374907
 Iteration  2 RMS(Cart)=  0.03924483 RMS(Int)=  0.00058954
 Iteration  3 RMS(Cart)=  0.00099888 RMS(Int)=  0.00005642
 Iteration  4 RMS(Cart)=  0.00000057 RMS(Int)=  0.00005642
 Variable       Old X    -DE/DX   Delta X   Delta X   Delta X     New X
                                 (Linear)    (Quad)   (Total)
    R1        2.05872  -0.00000   0.00000   0.00005   0.00005   2.05877
    R2        2.05691  -0.00000   0.00000  -0.00038  -0.00038   2.05653
    R3        2.84044  -0.00000   0.00000  -0.00035  -0.00035   2.84010
    R4        2.06904   0.00000   0.00000   0.00035   0.00035   2.06938
    R5        2.05728   0.00000   0.00000  -0.00028  -0.00028   2.05700
    R6        2.52301  -0.00000   0.00000   0.00475   0.00475   2.52776
    R7        2.84283  -0.00000   0.00000   0.00022   0.00022   2.84305
    R8        2.06243  -0.00000   0.00000   0.00045   0.00045   2.06288
    R9        2.05636  -0.00000   0.00000   0.00002   0.00002   2.05638
   R10        2.05730   0.00000   0.00000  -0.00009  -0.00009   2.05722
   R11        2.68352  -0.00000   0.00000  -0.00023  -0.00023   2.68330
   R12        2.66106  -0.00000   0.00000  -0.00026  -0.00026   2.66080
   R13        2.24509  -0.00000   0.00000  -0.00231  -0.00231   2.24278
   R14        2.05707   0.00000   0.00000   0.00002   0.00002   2.05709
   R15        2.05924   0.00000   0.00000  -0.00025  -0.00025   2.05898
   R16        2.06889   0.00000   0.00000  -0.00002  -0.00002   2.06887
    A1        1.88559   0.00000   0.00000  -0.00172  -0.00173   1.88386
    A2        1.93547  -0.00000   0.00000   0.00061   0.00061   1.93608
    A3        1.87981   0.00000   0.00000  -0.00065  -0.00065   1.87915
    A4        1.94890  -0.00000   0.00000   0.00500   0.00500   1.95390
    A5        1.88187   0.00000   0.00000  -0.00139  -0.00139   1.88048
    A6        1.92975   0.00000   0.00000  -0.00208  -0.00208   1.92767
    A7        1.99061  -0.00006   0.00000   0.00173   0.00170   1.99230
    A8        1.80291  -0.00001   0.00000   0.00503   0.00501   1.80793
    A9        2.04294   0.00007   0.00000  -0.00269  -0.00282   2.04012
   A10        1.77594   0.00000   0.00000   0.00432   0.00431   1.78025
   A11        1.98787  -0.00000   0.00000   0.00032   0.00047   1.98833
   A12        1.81972  -0.00001   0.00000  -0.00820  -0.00816   1.81156
   A13        1.91798   0.00000   0.00000  -0.00016  -0.00016   1.91782
   A14        1.91587  -0.00000   0.00000  -0.00019  -0.00019   1.91568
   A15        1.93492   0.00000   0.00000  -0.00042  -0.00042   1.93450
   A16        1.92469   0.00000   0.00000   0.00033   0.00033   1.92502
   A17        1.83829  -0.00000   0.00000   0.00031   0.00031   1.83860
   A18        1.93096   0.00000   0.00000   0.00015   0.00015   1.93111
   A19        1.88068  -0.00001   0.00000  -0.00028  -0.00028   1.88040
   A20        1.81699  -0.00001   0.00000   0.00323   0.00323   1.82022
   A21        1.95130   0.00000   0.00000  -0.00023  -0.00023   1.95108
   A22        1.93632   0.00000   0.00000  -0.00056  -0.00056   1.93576
   A23        1.92883  -0.00000   0.00000   0.00012   0.00012   1.92895
   A24        1.89162  -0.00000   0.00000  -0.00051  -0.00051   1.89111
   A25        1.87799  -0.00000   0.00000  -0.00017  -0.00017   1.87782
   A26        1.87505  -0.00000   0.00000   0.00141   0.00141   1.87647
   A27        3.17836  -0.00002   0.00000   0.00451   0.00451   3.18287
   A28        3.07100   0.00000   0.00000   0.00216   0.00211   3.07311
    D1       -3.02964   0.00001   0.00000   0.02824   0.02826  -3.00138
    D2       -1.11752  -0.00002   0.00000   0.03681   0.03682  -1.08070
    D3        0.87022   0.00000   0.00000   0.02881   0.02879   0.89901
    D4       -0.92571   0.00001   0.00000   0.02986   0.02988  -0.89583
    D5        0.98642  -0.00002   0.00000   0.03843   0.03844   1.02486
    D6        2.97415   0.00000   0.00000   0.03044   0.03041   3.00457
    D7        1.16961   0.00001   0.00000   0.03002   0.03003   1.19964
    D8        3.08173  -0.00002   0.00000   0.03859   0.03860   3.12033
    D9       -1.21372   0.00000   0.00000   0.03059   0.03057  -1.18315
   D10       -0.69178   0.00014   0.00000   0.24933   0.24942  -0.44235
   D11        1.37633   0.00007   0.00000   0.25921   0.25944   1.63577
   D12       -2.82234   0.00007   0.00000   0.25562   0.25529  -2.56705
   D13       -3.04444  -0.00001   0.00000   0.00125   0.00125  -3.04320
   D14       -0.93059  -0.00001   0.00000   0.00005   0.00005  -0.93054
   D15        1.14736  -0.00001   0.00000   0.00153   0.00153   1.14889
   D16        0.85426   0.00001   0.00000   0.00122   0.00126   0.85552
   D17        2.96811   0.00001   0.00000   0.00003   0.00006   2.96818
   D18       -1.23712   0.00001   0.00000   0.00151   0.00154  -1.23558
   D19       -1.06613   0.00000   0.00000   0.00063   0.00059  -1.06554
   D20        1.04771   0.00000   0.00000  -0.00057  -0.00060   1.04711
   D21        3.12567   0.00000   0.00000   0.00091   0.00088   3.12655
   D22        1.13907  -0.00000   0.00000   0.00556   0.00556   1.14463
   D23       -3.07039  -0.00000   0.00000   0.00533   0.00533  -3.06505
   D24       -0.99073  -0.00000   0.00000   0.00598   0.00598  -0.98475
   D25       -1.60033  -0.00000   0.00000   0.01330   0.01330  -1.58703
         Item               Value     Threshold  Converged?
 Maximum Force            0.000141     0.000450     YES
 RMS     Force            0.000024     0.000300     YES
 Maximum Displacement     0.446098     0.001800     NO 
 RMS     Displacement     0.164026     0.001200     NO 
 Predicted change in Energy=-4.226372D-05
 GradGradGradGradGradGradGradGradGradGradGradGradGradGradGradGradGradGrad

                          Input orientation:                          
 ---------------------------------------------------------------------
 Center     Atomic      Atomic             Coordinates (Angstroms)
 Number     Number       Type             X           Y           Z
 ---------------------------------------------------------------------
      1          6           0        1.558386   -0.708173   -0.488078
      2          1           0        1.676393   -1.534164    0.212441
      3          1           0        0.786826   -0.983806   -1.204355
      4          6           0        1.223840    0.565862    0.235569
      5          1           0        0.959122    1.393840   -0.419600
      6          6           0       -2.348832   -0.449367   -0.366842
      7          1           0       -1.792838    0.189506   -1.055583
      8          1           0       -2.797881   -1.277757   -0.911164
      9          1           0       -3.118596    0.133612    0.135870
     10          8           0       -1.477559   -1.050133    0.579834
     11          8           0       -0.943751   -0.024236    1.383046
     12          1           0        0.054960    0.294017    0.826397
     13          1           0        2.499988   -0.600582   -1.036704
     14          6           0        2.121509    0.955132    1.378422
     15          1           0        1.749345    1.832973    1.903646
     16          1           0        2.213966    0.139933    2.095403
     17          1           0        3.127052    1.189110    1.014117
 ---------------------------------------------------------------------
                    Distance matrix (angstroms):
                    1          2          3          4          5
     1  C    0.000000
     2  H    1.089456   0.000000
     3  H    1.088269   1.761117   0.000000
     4  C    1.502914   2.148360   2.160054   0.000000
     5  H    2.186839   3.080124   2.509726   1.088517   0.000000
     6  C    3.917656   4.208894   3.289286   3.762655   3.787183
     7  H    3.515479   4.076088   2.837863   3.302887   3.070534
     8  H    4.413671   4.620320   3.608669   4.570357   4.636177
     9  H    4.792919   5.077328   4.277517   4.365034   4.304010
    10  O    3.236408   3.211959   2.883604   3.166625   3.592950
    11  O    3.198369   3.242739   3.257348   2.522572   2.980167
    12  H    2.234395   2.519571   2.508468   1.337631   1.891990
    13  H    1.095071   1.763589   1.763488   2.146584   2.594765
    14  C    2.562716   2.784643   3.494509   1.504478   2.185519
    15  H    3.494887   3.768702   4.303529   2.159678   2.492942
    16  H    2.797042   2.576264   3.766686   2.149592   3.077687
    17  H    2.883918   3.187996   3.888424   2.148672   2.607178
                    6          7          8          9         10
     6  C    0.000000
     7  H    1.091628   0.000000
     8  H    1.088191   1.784328   0.000000
     9  H    1.088633   1.783344   1.786365   0.000000
    10  O    1.419940   2.076221   2.004528   2.071559   0.000000
    11  O    2.284097   2.591052   3.205076   2.512034   1.408037
    12  H    2.784717   2.639532   3.691651   3.251770   2.053326
    13  H    4.897207   4.364969   5.342447   5.786402   4.316963
    14  C    5.000251   4.672545   5.867571   5.447708   4.196680
    15  H    5.211454   4.899499   6.186846   5.450662   4.525229
    16  H    5.218146   5.097612   6.013975   5.681199   4.164200
    17  H    5.880217   5.430303   6.700520   6.394803   5.138605
                   11         12         13         14         15
    11  O    0.000000
    12  H    1.186830   0.000000
    13  H    4.248141   3.201502   0.000000
    14  C    3.217918   2.238846   2.897641   0.000000
    15  H    3.312555   2.529782   3.889899   1.088564   0.000000
    16  H    3.241231   2.509069   3.231140   1.089568   1.766077
    17  H    4.263772   3.205337   2.793219   1.094797   1.761788
                   16         17
    16  H    0.000000
    17  H    1.761726   0.000000
 Stoichiometry    C4H11O2(2)
 Framework group  C1[X(C4H11O2)]
 Deg. of freedom    45
 Full point group                 C1      NOp   1
 Largest Abelian subgroup         C1      NOp   1
 Largest concise Abelian subgroup C1      NOp   1
                         Standard orientation:                         
 ---------------------------------------------------------------------
 Center     Atomic      Atomic             Coordinates (Angstroms)
 Number     Number       Type             X           Y           Z
 ---------------------------------------------------------------------
      1          6           0        1.188525    1.435886   -0.265281
      2          1           0        1.176576    1.269777   -1.341933
      3          1           0        0.284722    1.981056   -0.000212
      4          6           0        1.297548    0.133979    0.477621
      5          1           0        1.175694    0.224723    1.555484
      6          6           0       -2.463328    0.245946    0.506759
      7          1           0       -1.854501    0.657930    1.313760
      8          1           0       -3.181182    0.990203    0.167750
      9          1           0       -2.980549   -0.646533    0.854729
     10          8           0       -1.663788   -0.049527   -0.628874
     11          8           0       -0.779185   -1.085547   -0.272913
     12          1           0        0.186157   -0.522278    0.126346
     13          1           0        2.045084    2.079084   -0.037724
     14          6           0        2.407616   -0.793948    0.065125
     15          1           0        2.350792   -1.748370    0.585531
     16          1           0        2.376226   -0.985398   -1.007032
     17          1           0        3.382600   -0.350779    0.292256
 ---------------------------------------------------------------------
 Rotational constants (GHZ):           5.5800253           1.6397341           1.4266637
 Standard basis: CC-pVTZ (5D, 7F)
 There are   375 symmetry adapted cartesian basis functions of A   symmetry.
 There are   334 symmetry adapted basis functions of A   symmetry.
   334 basis functions,   499 primitive gaussians,   375 cartesian basis functions
    26 alpha electrons       25 beta electrons
       nuclear repulsion energy       254.7197112408 Hartrees.
 NAtoms=   17 NActive=   17 NUniq=   17 SFac= 1.00D+00 NAtFMM=   60 NAOKFM=F Big=F
 Integral buffers will be    131072 words long.
 Raffenetti 2 integral format.
 Two-electron integral symmetry is turned on.
 Nuclear repulsion after empirical dispersion term =      254.7116365413 Hartrees.
 One-electron integrals computed using PRISM.
 NBasis=   334 RedAO= T EigKep=  7.83D-04  NBF=   334
 NBsUse=   334 1.00D-06 EigRej= -1.00D+00 NBFU=   334
 Initial guess from the checkpoint file:  "/localscratch/353444/Gau-88316.chk"
 B after Tr=     0.000000   -0.000000   -0.000000
         Rot=    0.998707    0.049717   -0.004154   -0.009770 Ang=   5.83 deg.
 Initial guess <Sx>= 0.0000 <Sy>= 0.0000 <Sz>= 0.5000 <S**2>= 0.7684 S= 0.5091
 ExpMin= 1.03D-01 ExpMax= 1.53D+04 ExpMxC= 5.22D+02 IAcc=3 IRadAn=         5 AccDes= 0.00D+00
 Harris functional with IExCor=  419 and IRadAn=       5 diagonalized for initial guess.
 HarFok:  IExCor=  419 AccDes= 0.00D+00 IRadAn=         5 IDoV= 1 UseB2=F ITyADJ=14
 ICtDFT=  3500011 ScaDFX=  1.000000  1.000000  1.000000  1.000000
 FoFCou: FMM=F IPFlag=           0 FMFlag=      100000 FMFlg1=           0
         NFxFlg=           0 DoJE=T BraDBF=F KetDBF=T FulRan=T
         wScrn=  0.000000 ICntrl=       500 IOpCl=  0 I1Cent=   200000004 NGrid=           0
         NMat0=    1 NMatS0=      1 NMatT0=    0 NMatD0=    1 NMtDS0=    0 NMtDT0=    0
 Petite list used in FoFCou.
[...]
   xx         0.936011D+02      0.138703D+02      0.154327D+02
   yx        -0.115517D+02     -0.171178D+01     -0.190462D+01
   yy         0.609571D+02      0.903291D+01      0.100505D+02
   zx         0.148746D+02      0.220418D+01      0.245248D+01
   zy         0.544897D+00      0.807454D-01      0.898413D-01
   zz         0.652101D+02      0.966314D+01      0.107517D+02

 ----------------------------------------------------------------------
 1\1\GINC-N144\Freq\UB2PLYPD3-FC\CC-pVTZ\C4H11O2(2)\ROOT\25-Jun-2019\0\
 \#N Geom=AllCheck Guess=TCheck SCRF=Check GenChk UB2PLYPD3(FC)/CC-pVTZ
  Freq\\Title Card Required\\0,2\C,1.4612867354,-0.6256991087,-0.542306
 3336\H,1.3670357409,-1.4957314279,0.1066962712\H,0.7469080085,-0.73198
 90799,-1.3563593335\C,1.2527859375,0.6477987184,0.2287044496\H,1.10887
 75176,1.5289939298,-0.3936544134\C,-2.2993695346,-0.5825684671,-0.3416
 082624\H,-1.7458793229,-0.0647979075,-1.1267633162\H,-2.6742695574,-1.
 5325671283,-0.7172026979\H,-3.1245607619,0.0406778943,-0.0011938926\O,
 -1.4455488527,-0.9180946901,0.7423439421\O,-0.9932141702,0.2839429369,
 1.3193078235\H,0.0413938793,0.5001603269,0.7760226286\H,2.4656027459,-
 0.6459337671,-0.9785549789\C,2.1515657487,0.8737461093,1.4137941728\H,
 1.8647961917,1.7613345237,1.9747511806\H,2.1259663283,0.0192798215,2.0
 89292521\H,3.1885533657,1.0072143158,1.0891502391\\Version=ES64L-G16Re
 vB.01\State=2-A\HF=-308.7953965\MP2=-309.1884179\PUHF=-308.8016036\PMP
 2-0=-309.1889293\S2=0.768406\S2-1=0.742699\S2A=0.750152\RMSD=3.724e-09
 \RMSF=3.814e-06\ZeroPoint=0.1418161\Thermal=0.1510358\Dipole=0.3081556
 ,0.131853,-0.79388\DipoleDeriv=-0.1670229,0.0056904,0.0633021,-0.06899
 14,-0.0363091,-0.0431421,0.0454544,-0.0558685,-0.0190607,0.0922974,-0.
 021204,0.0050801,0.0201765,-0.0397596,0.0421126,-0.0069081,0.0849445,-
 0.0136303,0.000607,-0.0194916,-0.1248465,0.0055558,0.0286007,-0.027385
 4,-0.0863012,-0.0324031,-0.0533458,1.2242649,0.2871387,-0.1021043,0.00
 86939,0.1719933,0.0368046,-0.3581971,-0.0660454,0.22701,-0.1206125,-0.
 0451397,-0.0083802,0.0314861,-0.0961755,0.0460741,0.0094737,0.0794416,
 -0.0605987,0.6602245,0.0521471,0.0693891,-0.1186493,0.2712456,-0.05394
 19,0.3791371,0.0389867,0.4205705,-0.0629724,-0.0779222,0.0998127,0.009
 6904,0.0165126,0.086865,-0.0376086,0.0244254,-0.0771179,0.0063407,-0.0
 408876,-0.0454127,-0.0649774,-0.0677435,-0.0521339,-0.0852689,-0.04259
 04,0.030271,-0.1212246,0.0403848,-0.0051145,0.153394,0.0182116,0.00120
 03,0.0431074,-0.0597302,0.0053087,-0.6324137,-0.0311969,0.0029635,-0.7
 289499,-0.4548894,0.1480153,-0.606422,-0.1000045,-0.2849769,0.5679917,
 0.2343993,-0.1857966,0.9721412,0.1124253,-0.1304996,0.0036876,0.062052
 9,-0.2300415,-1.0829993,-0.3002688,0.1732961,-0.2823355,0.021043,0.015
 8611,0.5690735,0.1233434,0.0145923,-0.1146906,0.0146991,0.0837323,0.07
 47742,0.0648405,-0.0373149,0.101244,-0.0144753,0.0286221,-0.1977463,-0
 .086059,-0.0815022,-0.0269357,0.0406242,-0.0359192,0.122297,0.0228241,
 0.0111096,0.0609414,0.0555498,0.0221361,0.0247743,-0.0619007,-0.093209
 1,-0.0221415,-0.0876803,-0.0077173,0.0720091,-0.017612,0.0099035,0.010
 4655,-0.0560596,0.0979713,-0.0426604,0.052217,-0.0081097,-0.1849944,-0
 .0502275,0.0235417,-0.0203127,0.0673404,-0.0013583,-0.0279669,-0.02943
 78,0.0171145\Polar=99.2712085,11.8085646,60.1388269,0.0943951,4.785474
 ,60.3582722\PG=C01 [X(C4H11O2)]\NImag=1\\0.53546196,0.01370770,0.50266
 391,0.03096641,-0.03802752,0.54833735,-0.04742784,-0.02137378,0.012787
 82,0.04819346,-0.01989060,-0.21175520,0.12664936,0.01966807,0.23520116
 ,0.01186778,0.12692209,-0.14610598,-0.01606405,-0.13737219,0.15601910,
 -0.16359692,-0.01554113,-0.13387632,0.00196988,0.00080913,0.00364246,0
 .17655678,-0.01441969,-0.05080562,-0.01534201,0.01834999,0.00310518,0.
 01841783,0.01558619,0.05315796,-0.13222627,-0.01618479,-0.19495295,-0.
 01279852,-0.00252826,-0.01403361,0.14550460,0.02157439,0.21157232,-0.0
 6096329,0.01686139,-0.00405196,-0.00094992,-0.00055118,-0.00128361,0.0
 0369184,-0.02096685,-0.01098743,0.24414170,0.02479814,-0.17630998,-0.0
 5725809,0.00686150,-0.02521942,-0.01409813,0.00058976,-0.00111044,-0.0
 0017784,-0.04012428,0.54383048,-0.00066609,-0.05304945,-0.11186220,-0.
 00297643,0.01715654,0.01187230,0.00692184,-0.02220240,-0.01351158,0.11
 297314,-0.03522232,0.46355589,0.00183613,0.00688918,-0.00440749,0.0006
 4005,0.00031924,0.00104029,0.00010682,-0.00017661,0.00077309,-0.033825
 53,0.02005579,-0.02182734,0.03791039,0.00076962,-0.01920901,0.01628813
 ,0.00144952,-0.00376958,-0.00358371,-0.00055295,0.00109689,-0.00008125
 ,0.03141242,-0.22685023,0.12193421,-0.03090080,0.24286219,0.00153348,-
 0.01644667,0.01176035,0.00086994,-0.00369387,-0.00125929,-0.00019699,0
 .00098679,0.00080509,-0.03069011,0.12604077,-0.13831198,0.03050454,-0.
 13154221,0.14634444,0.00107506,0.00072649,-0.00008564,-0.00033289,-0.0
 0002301,-0.00000781,-0.00054474,-0.00010744,0.00018817,-0.00708740,0.0
 0042692,0.00186735,0.00145596,-0.00001988,-0.00046121,0.53138275,-0.00
 073005,-0.00045871,-0.00031883,0.00013051,-0.00002620,0.00019022,-0.00
 004618,0.00044568,0.00033493,0.00218239,0.00051036,-0.00121333,-0.0003
 1051,-0.00017716,0.00016045,0.01789854,0.61958256,0.00200148,0.0009284
 0,0.00047202,-0.00067218,0.00012400,-0.00008147,0.00023966,-0.00055774
 ,-0.00050487,-0.01021790,-0.00105195,0.00502392,0.00151660,0.00050063,
 -0.00059520,-0.06547488,0.02755558,0.49414232,-0.00054035,0.00003777,-
 0.00002137,0.00005358,0.00005362,0.00001372,-0.00024485,0.00014456,0.0
 0009184,0.00050004,-0.00030940,0.00009829,-0.00024975,0.00004517,0.000
 00580,-0.12960466,-0.06855900,0.10188119,0.13345737,0.00046191,0.00010
 588,0.00042059,-0.00007752,-0.00000707,-0.00002946,0.00013618,-0.00005
 742,-0.00035755,-0.00164175,0.00022122,0.00078129,0.00010230,-0.000024
 87,-0.00007664,-0.06456878,-0.10821130,0.08224074,0.06843016,0.1119922
 9,-0.00041375,-0.00017915,-0.00018458,0.00013646,-0.00003280,0.0000175
 7,-0.00003826,0.00018335,0.00035869,0.00243425,-0.00005894,-0.00087464
 ,-0.00058092,-0.00014447,0.00021289,0.09867467,0.07849125,-0.16964847,
 -0.10123757,-0.09768303,0.19503600,-0.00028179,-0.00005136,-0.00001520
 ,-0.00002978,0.00001069,-0.00006877,0.00004618,-0.00010506,0.00007185,
 0.00071712,-0.00002531,-0.00028922,-0.00009319,0.00005274,0.00005106,-
 0.07919847,-0.07300314,-0.02762752,-0.00475231,-0.01469965,-0.00556026
 ,0.08494061,-0.00008161,-0.00001170,-0.00001872,0.00000012,0.00000869,
 -0.00002787,0.00001159,-0.00008001,-0.00001129,0.00026604,-0.00004298,
 -0.00009753,0.00001815,0.00003805,-0.00000169,-0.08049225,-0.26262646,
 -0.08002083,-0.00305620,-0.01091901,-0.00531954,0.08738430,0.27672867,
 -0.00031939,-0.00010108,0.00009538,0.00003701,-0.00001370,0.00000078,-
 0.00002852,0.00009669,0.00004093,0.00077381,0.00013725,-0.00029891,-0.
 00019170,-0.00005803,0.00006780,-0.02695205,-0.07064000,-0.07757955,0.
 00747492,0.01968525,0.01017114,0.03943428,0.08648279,0.08752229,-0.000
 11936,-0.00002784,0.00008808,0.00006588,-0.00002916,-0.00003130,0.0000
 6634,-0.00005695,-0.00010741,0.00123415,0.00006149,-0.00041590,-0.0002
 3787,-0.00001753,0.00009167,-0.19420789,0.10739710,0.07127888,-0.01145
 472,0.01019875,0.00792129,0.01105253,-0.00702830,-0.00326222,0.2144763
 2,0.00030614,0.00012564,0.00011024,-0.00011044,0.00001497,-0.00003772,
 0.00000269,-0.00011052,-0.00009641,-0.00133237,-0.00017032,0.00069382,
 0.00016573,0.00004329,-0.00005102,0.11106717,-0.13704913,-0.05185078,-
 0.01274488,0.00961577,0.00578998,0.02073172,-0.01323596,-0.00914019,-0
 .12691656,0.14394275,-0.00012085,-0.00004974,-0.00036793,0.00011361,-0
 .00004858,0.00001177,-0.00002842,0.00005402,0.00022487,0.00058346,-0.0
 0007902,-0.00030474,-0.00009092,-0.00004245,0.00002879,0.07618737,-0.0
 5798277,-0.08326283,0.01637774,-0.01336975,-0.00588334,0.00813240,-0.0
 0411494,-0.00263556,-0.06900837,0.05246253,0.08889735,-0.00110918,-0.0
 0103830,-0.00020027,0.00016709,0.00001193,0.00049263,-0.00009525,0.000
 43184,-0.00005909,0.01121740,-0.00043925,-0.00278681,-0.00239852,-0.00
 020180,0.00066685,-0.11413049,0.05177080,-0.06428877,0.01039803,-0.001
 12051,-0.00172637,-0.00939130,0.00183436,-0.01120537,-0.02302509,0.010
 15076,-0.03438779,0.20211257,-0.00499019,-0.00181888,0.00136767,-0.000
 24742,0.00110824,-0.00045994,0.00019189,0.00015363,0.00096509,0.034815
 46,0.00031309,-0.01252364,-0.00524754,-0.00003256,0.00175172,0.0285827
 7,-0.10358994,0.03699047,0.01238677,-0.00411178,0.01603374,-0.02062837
 ,0.00581694,-0.02584869,0.01432626,-0.00510395,0.01965517,0.01391305,0
 .30298847,-0.00442353,-0.00154405,0.00091633,0.00016089,0.00070404,-0.
 00043702,0.00015815,0.00017129,0.00073534,0.02345623,0.00174520,-0.010
 00589,-0.00270748,-0.00021922,0.00126684,-0.06273282,0.06595907,-0.140
 90045,-0.02687945,0.01102178,-0.03418099,-0.00963554,0.00133975,-0.012
 23644,-0.01017715,0.00233917,0.00016192,0.14644315,-0.00538784,0.24919
 836,0.00846708,-0.00056196,-0.00436782,0.00012261,-0.00027819,0.000060
 61,-0.00021804,0.00013246,-0.00015106,-0.12386262,-0.01217068,0.054536
 87,0.00850973,-0.00039732,-0.00258993,-0.01708876,-0.03500652,-0.02380
 233,0.00302978,0.00102131,0.00414894,-0.00282580,0.00139634,-0.0052920
 5,0.00423796,-0.00315162,0.00303597,-0.05111949,-0.01184630,-0.0164116
 5,0.09816163,0.00895943,0.00261861,-0.00264396,-0.00017029,-0.00085098
 ,0.00057351,-0.00034167,-0.00027837,-0.00094074,-0.06312065,0.00006939
 ,0.02543083,0.00709335,0.00063046,-0.00315388,-0.01536871,-0.00794155,
 -0.01773914,0.00355302,0.00078827,0.00358622,0.00026493,0.00421823,-0.
 00061661,0.00255368,0.00182172,0.00385677,-0.04933742,-0.17350395,-0.0
 7592367,0.02788748,0.17915938,-0.00027599,0.00221712,0.00104643,0.0002
 2290,-0.00083620,0.00009024,-0.00016791,-0.00011740,-0.00034200,0.0427
 2404,0.00627703,-0.01638797,-0.00138250,-0.00042150,0.00038876,-0.0148
 7076,-0.04089177,-0.02246537,0.00118288,-0.00194427,0.00365276,-0.0046
 5600,0.00146072,-0.00463561,0.00267420,0.00052559,0.00280593,-0.028619
 10,-0.05374858,-0.07398042,0.00964483,0.10873703,0.13464355,-0.0209782
 0,0.00232200,0.01074429,0.00054066,-0.00032186,-0.00056169,0.00089984,
 -0.00034737,-0.00004741,0.09570849,0.00826411,-0.04826566,-0.01304955,
 0.00013357,0.00463744,0.00691352,-0.00133160,0.01281768,-0.00062116,0.
 00155078,-0.00351999,-0.00000421,-0.00016179,-0.00031064,-0.00173214,0
 .00153189,-0.00073386,-0.01976177,-0.05505061,-0.03287120,0.06091230,0
 .06923192,-0.00515656,-0.08046556,0.00742306,-0.00231798,-0.00505592,0
 .00074532,-0.00034134,-0.00043569,0.00009275,0.00016706,0.00019857,0.0
 2556169,-0.02221021,-0.01093838,-0.01264745,-0.00293535,0.00690290,0.0
 0219257,-0.00059497,0.00319106,-0.00013772,0.00086566,-0.00077043,-0.0
 0008976,0.00005903,-0.00004541,-0.00045993,0.00014670,-0.00040267,-0.0
 2585041,-0.02426393,-0.00191189,0.03341673,-0.00455501,-0.01989334,-0.
 02455255,0.05766780,0.01601414,-0.00236288,-0.00871722,-0.00059309,0.0
 0050522,0.00062273,-0.00013839,0.00004161,-0.00037362,-0.05631742,-0.0
 0473191,0.00074828,0.01350285,0.00237387,-0.00642076,-0.00589519,-0.00
 232890,-0.00313006,0.00100169,-0.00026808,0.00098407,0.00001209,0.0003
 0624,-0.00068442,0.00091486,-0.00051979,0.00009119,-0.00517965,0.01943
 209,0.01782203,-0.01774652,-0.03921226,-0.02554151,0.06085815,0.030402
 84,0.02600070,-0.25671879,-0.00259857,0.08885877,-0.00277027,-0.000135
 25,0.00056805,-0.01969801,-0.00025328,0.00890430,-0.00576579,0.0040865
 0,0.00409869,0.00027278,0.00042700,0.00007093,0.00020767,0.00013854,-0
 .00003013,0.00006439,-0.00014610,0.00010276,0.00001870,0.00000364,0.00
 000890,-0.00007521,-0.00002725,0.00005839,-0.00065531,0.00006397,0.000
 28295,-0.00032048,-0.00074134,-0.00018317,0.00220899,0.00152807,-0.000
 55432,0.28208459,0.00433032,-0.04192840,-0.00117703,-0.02441182,0.0004
 6588,0.00950657,-0.00213807,-0.00082175,0.00134185,0.02494568,-0.00493
 071,-0.01318575,-0.00113674,0.00031079,0.00069990,-0.00036027,0.000189
 67,-0.00055566,0.00011363,-0.00014309,0.00013982,0.00011310,0.00002115
 ,0.00010244,0.00005268,-0.00006880,0.00001832,0.00019332,0.00254070,0.
 00199515,-0.00188632,-0.00301957,-0.00081723,0.00327315,-0.00118342,-0
 .00272939,-0.00236922,0.04756656,0.09198370,0.00161185,-0.08340499,0.0
 1868858,-0.00049947,-0.00807559,-0.02281692,0.00029400,0.01024236,0.01
 465279,-0.00341606,-0.00885564,-0.00024959,-0.00004067,0.00014849,-0.0
 0030356,0.00037853,-0.00074612,-0.00000483,-0.00023645,0.00023049,0.00
 006742,0.00000954,0.00006220,0.00000619,-0.00012761,0.00014447,0.00047
 153,0.00101781,0.00078981,-0.00077739,-0.00112285,-0.00019299,0.001279
 30,-0.00136004,-0.00088909,-0.10219491,0.00308859,0.08936249,0.0065648
 1,-0.00087474,0.00490270,-0.00042350,0.00058840,0.00002114,0.00050980,
 0.00250137,0.00174266,-0.10516595,-0.00671514,-0.07812369,-0.00016075,
 -0.00187901,-0.00092638,0.00097085,-0.00067882,0.00233872,-0.00002324,
 0.00035765,-0.00037154,-0.00020028,-0.00007934,-0.00021291,-0.00022601
 ,0.00031614,-0.00012607,-0.00221378,-0.00541259,-0.00411108,0.01174739
 ,0.00857550,-0.00298849,-0.03189481,-0.00735403,-0.00203598,0.00045261
 ,0.00012370,-0.00008516,0.49884958,-0.02017715,-0.00385443,-0.02379545
 ,-0.00064007,0.00116043,-0.00021990,0.00064144,-0.00494091,-0.00368584
 ,-0.00524361,-0.08747281,-0.01443191,0.01779360,0.00621598,0.01970594,
 0.00004720,-0.00009204,0.00023845,0.00005604,-0.00009355,-0.00005391,0
 .00004136,0.00003688,-0.00005311,-0.00003128,0.00001999,0.00004110,-0.
 00041891,-0.00053137,-0.00037171,0.00188094,0.00079036,-0.00035560,-0.
 00451097,-0.00079528,-0.00045916,-0.00021837,0.00123347,0.00073624,-0.
 01446411,0.57879170,-0.01304322,-0.00627833,-0.01579828,0.00034146,0.0
 0085666,0.00143333,0.00050462,-0.00219325,-0.00035577,-0.06744688,-0.0
 1386794,-0.15623054,-0.01444396,-0.00427148,-0.01220412,-0.00087702,0.
 00045108,-0.00153444,0.00003690,-0.00029275,0.00025517,0.00016327,0.00
 005345,0.00017498,0.00016325,-0.00020310,0.00011140,0.00170436,0.00370
 377,0.00263056,-0.00215961,-0.00405553,-0.00047972,0.00509763,0.001270
 02,-0.00031285,-0.00043856,0.00135058,0.00134017,-0.03306985,-0.003486
 30,0.51304479,-0.00263092,0.00036858,-0.00317220,-0.00007915,0.0002176
 6,0.00016089,0.00030633,-0.00096523,-0.00093924,0.00460700,-0.02039127
 ,-0.01073881,0.00043035,0.00054641,0.00087630,-0.00006420,0.00012328,-
 0.00018411,0.00000778,-0.00005487,0.00003046,0.00003807,0.00000921,0.0
 0003807,-0.00000052,-0.00002963,0.00002108,0.00020111,0.00024982,0.000
 25626,-0.00043500,-0.00009398,0.00033991,0.00127112,-0.00033382,-0.000
 67405,0.00024628,-0.00007908,-0.00028406,-0.06574792,0.06179416,0.0378
 0665,0.07083444,-0.00096547,0.00133955,-0.00103450,0.00013405,0.000546
 86,0.00018255,0.00028553,-0.00010749,-0.00035237,-0.00006459,-0.003527
 14,-0.00126047,-0.00063938,0.00063754,-0.00016461,0.00005871,0.0001153
 3,-0.00005079,-0.00000683,-0.00002924,0.00001984,0.00002754,-0.0000062
 0,0.00002965,-0.00002422,-0.00000371,0.00000695,-0.00000287,-0.0001853
 1,0.00010397,-0.00037888,0.00017728,0.00029136,0.00035135,-0.00008578,
 -0.00038580,0.00015836,-0.00005017,0.00003011,0.06051488,-0.22727409,-
 0.10988873,-0.06549045,0.24426826,-0.00430270,0.00077384,-0.00355140,-
 0.00009398,-0.00011295,0.00011378,0.00010846,-0.00156102,-0.00060019,0
 .00853205,-0.02226138,-0.01232097,0.00055624,0.00063677,0.00072038,0.0
 0010881,0.00000657,0.00003214,0.00000872,-0.00004121,-0.00000573,0.000
 00737,0.00000052,-0.00000787,-0.00003409,0.00000356,0.00002368,-0.0001
 2999,-0.00021105,-0.00012371,-0.00031493,0.00026138,0.00034385,0.00036
 861,-0.00008252,-0.00005559,-0.00001556,0.00045381,0.00028744,0.036372
 05,-0.10939731,-0.11697111,-0.03770965,0.12305719,0.12618757,0.0001159
 2,0.00042809,0.00106412,0.00028137,-0.00052912,0.00013258,-0.00010486,
 0.00010428,0.00025462,-0.00214746,0.01814337,-0.01485045,-0.00189091,-
 0.00100967,-0.00397685,-0.00010561,0.00012917,-0.00026970,0.00000490,-
 0.00003099,0.00006862,0.00002976,-0.00000006,0.00005813,0.00001963,-0.
 00003165,0.00002502,0.00012726,-0.00003201,0.00014349,0.00007183,-0.00
 030702,0.00062961,0.00108589,0.00086726,-0.00092412,0.00000897,-0.0000
 3903,0.00018938,-0.04502393,-0.00777256,0.00706603,-0.00072279,0.00724
 916,-0.00627528,0.04902567,0.00032277,0.00115430,-0.00056481,-0.000155
 50,0.00027658,0.00041622,0.00003157,0.00014480,0.00003208,0.00144544,0
 .00439687,-0.00250981,-0.00122661,0.00109680,-0.00112012,-0.00008156,-
 0.00005997,-0.00003026,0.00000171,-0.00000531,0.00000568,-0.00001320,0
 .00000189,-0.00000997,0.00001101,-0.00000345,0.00000565,0.00011962,0.0
 0034543,0.00006890,0.00004314,-0.00025477,-0.00041165,0.00004224,-0.00
 000033,0.00022336,-0.00001308,-0.00007275,-0.00000234,-0.00663474,-0.2
 1420818,0.12687655,-0.00185349,-0.01951440,0.01655886,0.00797490,0.229
 66767,0.00073114,0.00093018,0.00106594,-0.00010477,-0.00094619,-0.0000
 8738,-0.00000790,-0.00020876,0.00059332,-0.00015102,0.02193310,-0.0170
 8036,-0.00331089,-0.00152322,-0.00327519,0.00015005,0.00001683,0.00001
 677,-0.00001862,0.00002721,-0.00000918,-0.00002237,-0.00001164,0.00000
 437,-0.00001077,0.00000120,0.00000005,-0.00026570,-0.00064651,-0.00031
 332,0.00021641,0.00044146,0.00064420,0.00028277,0.00018888,-0.00015181
 ,-0.00000179,0.00000480,-0.00006799,0.00558020,0.12654755,-0.14722124,
 -0.00116151,-0.01357457,0.01156885,-0.00233770,-0.14089953,0.16087446,
 0.00084567,0.00072650,0.00078610,-0.00002124,0.00007965,0.00001708,0.0
 0034886,0.00014780,-0.00021469,-0.02204977,-0.00311226,0.00044421,0.00
 074386,0.00014251,-0.00046653,0.00035929,-0.00010450,0.00049328,-0.000
 02482,0.00008114,-0.00006879,-0.00006586,-0.00002419,-0.00005025,-0.00
 007401,0.00007216,-0.00003876,-0.00032330,-0.00107497,-0.00095121,0.00
 060988,0.00136178,0.00088212,-0.00103343,-0.00040180,-0.00224504,0.000
 43889,-0.00072504,-0.00062245,-0.26801488,-0.02877771,0.07859492,-0.00
 826197,-0.00120689,0.00281388,-0.00077564,-0.00001421,0.00043245,0.297
 29847,0.00017568,0.00046202,0.00040086,-0.00015225,0.00008178,0.000055
 61,0.00024128,0.00004133,-0.00003057,-0.00444522,-0.00149718,0.0006382
 9,-0.00015170,0.00006678,0.00000223,0.00002154,-0.00001616,0.00008782,
 -0.00000841,0.00001356,-0.00000761,-0.00001052,-0.00000724,-0.00000729
 ,-0.00000919,0.00001499,-0.00001059,-0.00001622,-0.00012482,-0.0000899
 4,-0.00010059,0.00013049,-0.00007131,-0.00042426,0.00037735,-0.0002870
 4,0.00009639,-0.00010954,-0.00036118,-0.02888512,-0.04898615,0.0099753
 1,0.02598270,0.00369871,-0.00808504,-0.02514412,-0.00296517,0.00771921
 ,0.03283003,0.04881925,0.00069366,0.00084019,0.00125173,-0.00005565,0.
 00008837,-0.00010126,0.00021983,0.00036261,0.00010166,-0.02498345,-0.0
 0390976,0.00484503,0.00129919,0.00019460,0.00032273,0.00048453,-0.0001
 6891,0.00076165,-0.00001186,0.00012234,-0.00013183,-0.00006483,-0.0000
 2895,-0.00006153,-0.00009120,0.00010051,-0.00004703,-0.00092959,-0.002
 09129,-0.00134296,0.00196966,0.00252145,0.00040985,-0.00461886,-0.0012
 5800,0.00000794,0.00046471,-0.00023678,-0.00037550,0.07109367,0.009040
 92,-0.06788234,0.01533403,0.00299025,-0.00564112,0.01900249,0.00136119
 ,-0.00656147,-0.07980632,-0.00992875,0.07444445\\-0.00000535,0.0000044
 6,-0.00000699,-0.00000252,-0.00000252,-0.00000030,0.00000236,-0.000005
 01,0.00000479,-0.00000154,0.00000385,-0.00000537,-0.00000013,-0.000004
 16,-0.00000341,0.00000443,-0.00000157,0.00000500,0.00000337,0.00000311
 ,-0.00000199,0.00000129,0.00000006,0.00000018,-0.00000130,0.00000011,-
 0.00000140,-0.00000970,0.00000248,0.00000339,0.00000034,0.00000123,-0.
 00000735,0.00000563,-0.00000273,0.00001094,0.00000150,-0.00000033,0.00
 000113,-0.00000010,0.00000821,0.00000074,-0.00000057,-0.00000227,-0.00
 000056,0.00000270,-0.00000306,0.00000136,-0.00000041,-0.00000186,-0.00
 000016\\\@


 TRUST EVERYONE, BUT CUT THE CARDS.
 Job cpu time:       2 days  2 hours 52 minutes  2.6 seconds.
 Elapsed time:       0 days  1 hours 18 minutes 55.0 seconds.
 File lengths (MBytes):  RWF=  75938 Int=      0 D2E=      0 Chk=     18 Scr=      1
 Normal termination of Gaussian 16 at Tue Jun 25 08:54:03 2019.
